<event>
 7    1  0.8165933E-006  0.1378865E+03  0.7546771E-02  0.1227878E+00
          2   -1    0    0  501    0  0.00000000000E+00  0.00000000000E+00  0.19832070231E+03  0.19832070231E+03  0.00000000000E+00 0. -1.
         -2   -1    0    0    0  501 -0.00000000000E+00 -0.00000000000E+00 -0.76223490409E+02  0.76223490409E+02  0.00000000000E+00 0.  1.
         23    2    1    2    0    0 -0.57879786832E+02 -0.63776404851E+01  0.70115397620E+02  0.15468958516E+03  0.12498781841E+03 0.  0.
          5    1    3    3  502    0 -0.49804320544E+02  0.38969348946E+02  0.85007456209E+02  0.10605393964E+03  0.47000000000E+01 0.  1.
         -5    1    3    3    0  502 -0.80754662879E+01 -0.45346989431E+02 -0.14892058589E+02  0.48635645521E+02  0.47000000000E+01 0.  1.
        -11    1    1    2    0    0 -0.18158181643E+02 -0.18595781684E+02  0.33554978307E+01  0.26206526338E+02  0.00000000000E+00 0.  1.
         11    1    1    2    0    0  0.76037968474E+02  0.24973422169E+02  0.48626316446E+02  0.93648081217E+02  0.00000000000E+00 0. -1.
<mgrwt>
<rscale>  0 0.12971577E+03</rscale>
<asrwt>0</asrwt>
<pdfrwt beam="1">  1        2 0.30510877E-01 0.13788654E+03</pdfrwt>
<pdfrwt beam="2">  1       -2 0.11726691E-01 0.13788654E+03</pdfrwt>
<totfact> 0.83688540E+03</totfact>
</mgrwt>
</event>
<event>
 7    1  0.8165933E-006  0.1770197E+03  0.7546771E-02  0.1174538E+00
         -2   -1    0    0    0  501 -0.00000000000E+00  0.00000000000E+00  0.36450711435E+02  0.36450711435E+02  0.00000000000E+00 0.  1.
          2   -1    0    0  501    0  0.00000000000E+00 -0.00000000000E+00 -0.10721153403E+04  0.10721153403E+04  0.00000000000E+00 0. -1.
         23    2    1    2    0    0  0.13244966501E+02  0.10262256413E+03 -0.78560760786E+03  0.80219291377E+03  0.12500934994E+03 0.  0.
          5    1    3    3  502    0 -0.92981084138E+00  0.12932889437E+03 -0.68160733649E+03  0.69378489362E+03  0.47000000000E+01 0.  1.
         -5    1    3    3    0  502  0.14174777343E+02 -0.26706330232E+02 -0.10400027138E+03  0.10840802015E+03  0.47000000000E+01 0.  1.
        -11    1    1    2    0    0 -0.37692463797E+02 -0.83459218233E+02 -0.25845149195E+03  0.27419579980E+03  0.00000000000E+00 0. -1.
         11    1    1    2    0    0  0.24447497296E+02 -0.19163345901E+02  0.83944709300E+01  0.32177338180E+02  0.00000000000E+00 0.  1.
<mgrwt>
<rscale>  0 0.17321328E+03</rscale>
<asrwt>0</asrwt>
<pdfrwt beam="2">  1        2 0.16494081E+00 0.17701973E+03</pdfrwt>
<pdfrwt beam="1">  1       -2 0.56078021E-02 0.17701973E+03</pdfrwt>
<totfact> 0.38566309E+03</totfact>
</mgrwt>
</event>
<event>
 6    1  0.8165933E-006  0.1592131E+03  0.7546771E-02  0.1212355E+00
         -4   -1    0    0    0  501 -0.00000000000E+00  0.00000000000E+00  0.11777437477E+03  0.11777437477E+03  0.00000000000E+00 0.  1.
          4   -1    0    0  501    0  0.00000000000E+00 -0.00000000000E+00 -0.14569189946E+03  0.14569189946E+03  0.00000000000E+00 0. -1.
          5    1    1    2  502    0 -0.47223465752E+01 -0.22293374021E+02 -0.69321254858E+02  0.73121962894E+02  0.47000000000E+01 0. -1.
         -5    1    1    2    0  502  0.34564482693E+02  0.94050892457E+01  0.78430473888E+02  0.86351539661E+02  0.47000000000E+01 0.  1.
        -11    1    1    2    0    0  0.22923379767E+02  0.13551857729E+02 -0.43318773275E+02  0.50849290122E+02  0.00000000000E+00 0.  1.
         11    1    1    2    0    0 -0.52765515884E+02 -0.66357295341E+00  0.62920295577E+01  0.53143481553E+02  0.00000000000E+00 0. -1.
<mgrwt>
<rscale>  0 0.14072650E+03</rscale>
<asrwt>0</asrwt>
<pdfrwt beam="2">  1        4 0.22414138E-01 0.15921313E+03</pdfrwt>
<pdfrwt beam="1">  1       -4 0.18119135E-01 0.15921313E+03</pdfrwt>
<totfact> 0.84319400E+02</totfact>
</mgrwt>
</event>
<event>
 6    1  0.8165933E-006  0.2549429E+03  0.7546771E-02  0.1115238E+00
         -2   -1    0    0    0  501 -0.00000000000E+00  0.00000000000E+00  0.42189278923E+03  0.42189278923E+03  0.00000000000E+00 0.  1.
          2   -1    0    0  501    0  0.00000000000E+00 -0.00000000000E+00 -0.13646105233E+03  0.13646105233E+03  0.00000000000E+00 0. -1.
          5    1    1    2  502    0 -0.14806713401E+03  0.13978833368E+03  0.74470514238E+02  0.21687001152E+03  0.47000000000E+01 0. -1.
         -5    1    1    2    0  502 -0.22355810687E+02 -0.25895369335E+02  0.65312390905E+02  0.73879299064E+02  0.47000000000E+01 0.  1.
        -11    1    1    2    0    0  0.44458134524E+02 -0.83586962648E+02  0.67910169205E+02  0.11651221881E+03  0.00000000000E+00 0. -1.
         11    1    1    2    0    0  0.12596481017E+03 -0.30306001699E+02  0.77738662543E+02  0.15109231216E+03  0.00000000000E+00 0.  1.
<mgrwt>
<rscale>  0 0.24696451E+03</rscale>
<asrwt>0</asrwt>
<pdfrwt beam="2">  1        2 0.20994008E-01 0.25494294E+03</pdfrwt>
<pdfrwt beam="1">  1       -2 0.64906582E-01 0.25494294E+03</pdfrwt>
<totfact> 0.58924860E+02</totfact>
</mgrwt>
</event>
<event>
 7    1  0.8165933E-006  0.1515665E+03  0.7546771E-02  0.1207632E+00
         -1   -1    0    0    0  501 -0.00000000000E+00  0.00000000000E+00  0.19180836634E+02  0.19180836634E+02  0.00000000000E+00 0. -1.
          1   -1    0    0  501    0  0.00000000000E+00 -0.00000000000E+00 -0.99715837611E+03  0.99715837611E+03  0.00000000000E+00 0.  1.
         23    2    1    2    0    0  0.10957024430E+02  0.85014848965E+02 -0.50818487298E+03  0.53030583456E+03  0.12499932846E+03 0.  0.
          5    1    3    3  502    0 -0.11966112218E+02 -0.30018882762E+02 -0.14453408548E+03  0.14817730268E+03  0.47000000000E+01 0. -1.
         -5    1    3    3    0  502  0.22923136648E+02  0.11503373173E+03 -0.36365078750E+03  0.38212853188E+03  0.47000000000E+01 0. -1.
        -11    1    1    2    0    0 -0.31479527605E+02 -0.14964802971E+02 -0.56817403418E+02  0.66656757477E+02  0.00000000000E+00 0. -1.
         11    1    1    2    0    0  0.20522503174E+02 -0.70050045994E+02 -0.41297526307E+03  0.41937662070E+03  0.00000000000E+00 0.  1.
<mgrwt>
<rscale>  0 0.14431965E+03</rscale>
<asrwt>0</asrwt>
<pdfrwt beam="2">  1        1 0.15340897E+00 0.15156653E+03</pdfrwt>
<pdfrwt beam="1">  1       -1 0.29508982E-02 0.15156653E+03</pdfrwt>
<totfact> 0.60723157E+03</totfact>
</mgrwt>
</event>
<event>
 7    1  0.8165933E-006  0.1420608E+03  0.7546771E-02  0.1221566E+00
         -2   -1    0    0    0  501 -0.00000000000E+00  0.00000000000E+00  0.33380121246E+02  0.33380121246E+02  0.00000000000E+00 0.  1.
          2   -1    0    0  501    0  0.00000000000E+00 -0.00000000000E+00 -0.48782730854E+03  0.48782730854E+03  0.00000000000E+00 0. -1.
         23    2    1    2    0    0 -0.34234707416E+02 -0.58168189378E+02 -0.26995238520E+03  0.30505010714E+03  0.12500289655E+03 0.  0.
          5    1    3    3  502    0 -0.79211190296E+02 -0.51640250735E+02 -0.15890202872E+03  0.18496776177E+03  0.47000000000E+01 0.  1.
         -5    1    3    3    0  502  0.44976482880E+02 -0.65279386436E+01 -0.11105035648E+03  0.12008234537E+03  0.47000000000E+01 0.  1.
        -11    1    1    2    0    0 -0.20636823987E+02  0.24472956236E+02 -0.16021503042E+02  0.35797941993E+02  0.00000000000E+00 0.  1.
         11    1    1    2    0    0  0.54871531403E+02  0.33695233142E+02 -0.16847329905E+03  0.18035938065E+03  0.00000000000E+00 0. -1.
<mgrwt>
<rscale>  0 0.13405094E+03</rscale>
<asrwt>0</asrwt>
<pdfrwt beam="2">  1        2 0.75050354E-01 0.14206082E+03</pdfrwt>
<pdfrwt beam="1">  1       -2 0.51354034E-02 0.14206082E+03</pdfrwt>
<totfact> 0.11463178E+04</totfact>
</mgrwt>
</event>
<event>
 7    1  0.8165933E-006  0.1333661E+03  0.7546771E-02  0.1225732E+00
          2   -1    0    0  501    0  0.00000000000E+00  0.00000000000E+00  0.74555490287E+02  0.74555490287E+02  0.00000000000E+00 0. -1.
         -2   -1    0    0    0  501 -0.00000000000E+00 -0.00000000000E+00 -0.23700798638E+03  0.23700798638E+03  0.00000000000E+00 0.  1.
         23    2    1    2    0    0 -0.12432109772E+02 -0.44904844247E+02 -0.46563791563E+02  0.14126107873E+03  0.12496200738E+03 0.  0.
          5    1    3    3  502    0 -0.41456427241E+02  0.17144082279E+01 -0.69887842990E+02  0.81412377149E+02  0.47000000000E+01 0. -1.
         -5    1    3    3    0  502  0.29024317469E+02 -0.46619252475E+02  0.23324051427E+02  0.59848701580E+02  0.47000000000E+01 0. -1.
        -11    1    1    2    0    0  0.20055504427E+01  0.82519269991E+02 -0.59630718817E+02  0.10182963605E+03  0.00000000000E+00 0. -1.
         11    1    1    2    0    0  0.10426559329E+02 -0.37614425744E+02 -0.56257985713E+02  0.68472761884E+02  0.00000000000E+00 0.  1.
<mgrwt>
<rscale>  0 0.13116849E+03</rscale>
<asrwt>0</asrwt>
<pdfrwt beam="1">  1        2 0.11470076E-01 0.13336606E+03</pdfrwt>
<pdfrwt beam="2">  1       -2 0.36462766E-01 0.13336606E+03</pdfrwt>
<totfact> 0.36720823E+03</totfact>
</mgrwt>
</event>
<event>
 7    1  0.8165933E-006  0.1276230E+03  0.7546771E-02  0.1244963E+00
         -2   -1    0    0    0  501 -0.00000000000E+00  0.00000000000E+00  0.20577752461E+02  0.20577752461E+02  0.00000000000E+00 0.  1.
          2   -1    0    0  501    0  0.00000000000E+00 -0.00000000000E+00 -0.60841523434E+03  0.60841523434E+03  0.00000000000E+00 0. -1.
         23    2    1    2    0    0  0.12057310503E+02  0.22767173921E+02 -0.34418801754E+03  0.36708722396E+03  0.12499566245E+03 0.  0.
          5    1    3    3  502    0 -0.13677197783E+01  0.74144979951E+02 -0.20219411817E+03  0.21541564505E+03  0.47000000000E+01 0. -1.
         -5    1    3    3    0  502  0.13425030282E+02 -0.51377806030E+02 -0.14199389937E+03  0.15167157891E+03  0.47000000000E+01 0. -1.
        -11    1    1    2    0    0  0.28761969030E+02  0.64558328970E+01 -0.28590280159E+02  0.41064982167E+02  0.00000000000E+00 0.  1.
         11    1    1    2    0    0 -0.40819279533E+02 -0.29223006818E+02 -0.21505918418E+03  0.22084078067E+03  0.00000000000E+00 0. -1.
<mgrwt>
<rscale>  0 0.11887608E+03</rscale>
<asrwt>0</asrwt>
<pdfrwt beam="2">  1        2 0.93602339E-01 0.12762303E+03</pdfrwt>
<pdfrwt beam="1">  1       -2 0.31658082E-02 0.12762303E+03</pdfrwt>
<totfact> 0.18242442E+04</totfact>
</mgrwt>
</event>
<event>
 7    1  0.8165933E-006  0.1714128E+03  0.7546771E-02  0.1182963E+00
          2   -1    0    0  501    0  0.00000000000E+00  0.00000000000E+00  0.25585967298E+03  0.25585967298E+03  0.00000000000E+00 0. -1.
         -2   -1    0    0    0  501 -0.00000000000E+00 -0.00000000000E+00 -0.10872841194E+03  0.10872841194E+03  0.00000000000E+00 0.  1.
         23    2    1    2    0    0  0.11288871402E+03  0.31832406228E+02  0.13128065383E+03  0.21590963949E+03  0.12500079406E+03 0.  0.
          5    1    3    3  502    0 -0.24260526787E+02  0.18727019469E+02  0.10818929152E+02  0.32839208976E+02  0.47000000000E+01 0.  1.
         -5    1    3    3    0  502  0.13714924081E+03  0.13105386759E+02  0.12046172468E+03  0.18307043051E+03  0.47000000000E+01 0.  1.
        -11    1    1    2    0    0 -0.92732765713E+02  0.31484334557E+01 -0.19734802547E+02  0.94861693541E+02  0.00000000000E+00 0.  1.
         11    1    1    2    0    0 -0.20155948305E+02 -0.34980839683E+02  0.35585409755E+02  0.53816751895E+02  0.00000000000E+00 0. -1.
<mgrwt>
<rscale>  0 0.16518628E+03</rscale>
<asrwt>0</asrwt>
<pdfrwt beam="1">  1        2 0.39363026E-01 0.17141284E+03</pdfrwt>
<pdfrwt beam="2">  1       -2 0.16727448E-01 0.17141284E+03</pdfrwt>
<totfact> 0.36158023E+03</totfact>
</mgrwt>
</event>
<event>
 7    1  0.8165933E-006  0.1314405E+03  0.7546771E-02  0.1243863E+00
          1   -1    0    0  501    0  0.00000000000E+00  0.00000000000E+00  0.37591280794E+02  0.37591280794E+02  0.00000000000E+00 0. -1.
         -1   -1    0    0    0  501 -0.00000000000E+00 -0.00000000000E+00 -0.35340414095E+03  0.35340414095E+03  0.00000000000E+00 0.  1.
         23    2    1    2    0    0  0.39923618198E+02 -0.75595854970E+01 -0.13153254001E+03  0.18595004639E+03  0.12500227217E+03 0.  0.
          5    1    3    3  502    0 -0.28646771651E+02 -0.52945030401E+01  0.78423258118E+01  0.30532955354E+02  0.47000000000E+01 0. -1.
         -5    1    3    3    0  502  0.68570389850E+02 -0.22650824569E+01 -0.13937486583E+03  0.15541709104E+03  0.47000000000E+01 0. -1.
        -11    1    1    2    0    0 -0.10084901044E+02 -0.14853127400E+02 -0.97491122270E+00  0.17979740669E+02  0.00000000000E+00 0. -1.
         11    1    1    2    0    0 -0.29838717154E+02  0.22412712897E+02 -0.18330540892E+03  0.18706563468E+03  0.00000000000E+00 0.  1.
<mgrwt>
<rscale>  0 0.11953710E+03</rscale>
<asrwt>0</asrwt>
<pdfrwt beam="1">  1        1 0.57832739E-02 0.13144052E+03</pdfrwt>
<pdfrwt beam="2">  1       -1 0.54369869E-01 0.13144052E+03</pdfrwt>
<totfact> 0.45526188E+03</totfact>
</mgrwt>
</event>
<event>
 7    1  0.8165933E-006  0.1308035E+03  0.7546771E-02  0.1240854E+00
          1   -1    0    0  501    0  0.00000000000E+00  0.00000000000E+00  0.19974581026E+04  0.19974581026E+04  0.00000000000E+00 0. -1.
         -1   -1    0    0    0  501 -0.00000000000E+00 -0.00000000000E+00 -0.83847422554E+01  0.83847422554E+01  0.00000000000E+00 0.  1.
         23    2    1    2    0    0  0.15257678266E+02  0.35364592517E+02  0.15812957637E+04  0.15866965185E+04  0.12500439261E+03 0.  0.
          5    1    3    3  502    0 -0.20273273346E+02  0.31280941839E+02  0.14513688252E+04  0.14518550408E+04  0.47000000000E+01 0.  1.
         -5    1    3    3    0  502  0.35530951611E+02  0.40836506789E+01  0.12992693859E+03  0.13484147766E+03  0.47000000000E+01 0.  1.
        -11    1    1    2    0    0  0.32176148503E+02  0.73156884062E+01  0.12804366246E+03  0.13222708998E+03  0.00000000000E+00 0. -1.
         11    1    1    2    0    0 -0.47433826768E+02 -0.42680280924E+02  0.27973393410E+03  0.28691923635E+03  0.00000000000E+00 0.  1.
<mgrwt>
<rscale>  0 0.12137008E+03</rscale>
<asrwt>0</asrwt>
<pdfrwt beam="1">  1        1 0.30730087E+00 0.13080348E+03</pdfrwt>
<pdfrwt beam="2">  1       -1 0.12899619E-02 0.13080348E+03</pdfrwt>
<totfact> 0.43585149E+03</totfact>
</mgrwt>
</event>
<event>
 7    1  0.8165933E-006  0.1338725E+03  0.7546771E-02  0.1235027E+00
         -1   -1    0    0    0  501 -0.00000000000E+00  0.00000000000E+00  0.20874071437E+02  0.20874071437E+02  0.00000000000E+00 0.  1.
          1   -1    0    0  501    0  0.00000000000E+00 -0.00000000000E+00 -0.76350736471E+03  0.76350736471E+03  0.00000000000E+00 0. -1.
         23    2    1    2    0    0  0.20832145906E+02 -0.43166075410E+02 -0.55469863769E+03  0.57062458827E+03  0.12499821484E+03 0.  0.
          5    1    3    3  502    0 -0.13200285826E+02 -0.80138066995E+02 -0.38873459946E+03  0.39715618608E+03  0.47000000000E+01 0. -1.
         -5    1    3    3    0  502  0.34032431733E+02  0.36971991585E+02 -0.16596403824E+03  0.17346840219E+03  0.47000000000E+01 0. -1.
        -11    1    1    2    0    0 -0.39368069550E+02  0.59863390185E+02 -0.16493539965E+03  0.17982534984E+03  0.00000000000E+00 0. -1.
         11    1    1    2    0    0  0.18535923644E+02 -0.16697314775E+02 -0.22999255927E+02  0.33931498040E+02  0.00000000000E+00 0.  1.
<mgrwt>
<rscale>  0 0.12502712E+03</rscale>
<asrwt>0</asrwt>
<pdfrwt beam="2">  1        1 0.11746266E+00 0.13387248E+03</pdfrwt>
<pdfrwt beam="1">  1       -1 0.32113960E-02 0.13387248E+03</pdfrwt>
<totfact> 0.81221338E+03</totfact>
</mgrwt>
</event>
<event>
 7    1  0.8165933E-006  0.1378917E+03  0.7546771E-02  0.1227826E+00
          2   -1    0    0  501    0  0.00000000000E+00  0.00000000000E+00  0.89692848450E+03  0.89692848450E+03  0.00000000000E+00 0. -1.
         -2   -1    0    0    0  501 -0.00000000000E+00 -0.00000000000E+00 -0.46983844960E+02  0.46983844960E+02  0.00000000000E+00 0.  1.
         23    2    1    2    0    0 -0.12787355124E+02 -0.56792131241E+02  0.82031721227E+03  0.83182597448E+03  0.12500104185E+03 0.  0.
          5    1    3    3  502    0  0.57864597915E+01 -0.22894748422E+01 -0.15330666975E+01  0.79476477948E+01  0.47000000000E+01 0.  1.
         -5    1    3    3    0  502 -0.18573814915E+02 -0.54502656399E+02  0.82185027896E+03  0.82387832669E+03  0.47000000000E+01 0.  1.
        -11    1    1    2    0    0  0.38434867677E+02  0.17575212741E+02  0.45983525224E+02  0.62454877698E+02  0.00000000000E+00 0. -1.
         11    1    1    2    0    0 -0.25647512553E+02  0.39216918500E+02 -0.16356097949E+02  0.49631477280E+02  0.00000000000E+00 0.  1.
<mgrwt>
<rscale>  0 0.12975074E+03</rscale>
<asrwt>0</asrwt>
<pdfrwt beam="1">  1        2 0.13798898E+00 0.13789171E+03</pdfrwt>
<pdfrwt beam="2">  1       -2 0.72282845E-02 0.13789171E+03</pdfrwt>
<totfact> 0.33206575E+03</totfact>
</mgrwt>
</event>
<event>
 7    1  0.8165933E-006  0.1344268E+03  0.7546771E-02  0.1232677E+00
          2   -1    0    0  501    0  0.00000000000E+00  0.00000000000E+00  0.19498355810E+03  0.19498355810E+03  0.00000000000E+00 0. -1.
         -2   -1    0    0    0  501 -0.00000000000E+00 -0.00000000000E+00 -0.74064779725E+02  0.74064779725E+02  0.00000000000E+00 0.  1.
         23    2    1    2    0    0  0.13655286952E+02 -0.47642207223E+02  0.60423610600E+02  0.14738242964E+03  0.12495727701E+03 0.  0.
          5    1    3    3  502    0  0.41808961186E+01  0.34017237029E+02 -0.13101656509E+02  0.36991833027E+02  0.47000000000E+01 0. -1.
         -5    1    3    3    0  502  0.94743908338E+01 -0.81659444252E+02  0.73525267109E+02  0.11039059661E+03  0.47000000000E+01 0. -1.
        -11    1    1    2    0    0  0.12909743680E+02  0.18942189552E+02  0.76162106531E+02  0.79537000812E+02  0.00000000000E+00 0. -1.
         11    1    1    2    0    0 -0.26565030632E+02  0.28700017671E+02 -0.15666938753E+02  0.42128907376E+02  0.00000000000E+00 0.  1.
<mgrwt>
<rscale>  0 0.12654335E+03</rscale>
<asrwt>0</asrwt>
<pdfrwt beam="1">  1        2 0.29997470E-01 0.13442681E+03</pdfrwt>
<pdfrwt beam="2">  1       -2 0.11394582E-01 0.13442681E+03</pdfrwt>
<totfact> 0.89062454E+03</totfact>
</mgrwt>
</event>
<event>
 7    1  0.8165933E-006  0.1378125E+03  0.7546771E-02  0.1226726E+00
          2   -1    0    0  501    0  0.00000000000E+00  0.00000000000E+00  0.79137814145E+02  0.79137814145E+02  0.00000000000E+00 0.  1.
         -2   -1    0    0    0  501 -0.00000000000E+00 -0.00000000000E+00 -0.32010533050E+03  0.32010533050E+03  0.00000000000E+00 0. -1.
         23    2    1    2    0    0  0.19778437731E+02  0.57683284404E+02 -0.42429536925E+01  0.13787779604E+03  0.12358695759E+03 0.  0.
          5    1    3    3  502    0  0.15645920683E+02  0.71836832375E+02  0.44954572613E+02  0.86303701650E+02  0.47000000000E+01 0.  1.
         -5    1    3    3    0  502  0.41325170489E+01 -0.14153547972E+02 -0.49197526306E+02  0.51574094388E+02  0.47000000000E+01 0. -1.
        -11    1    1    2    0    0 -0.29561028415E+02 -0.80481845841E+02 -0.19045996103E+03  0.20886880731E+03  0.00000000000E+00 0. -1.
         11    1    1    2    0    0  0.97825906832E+01  0.22798561437E+02 -0.46264601629E+02  0.52496541295E+02  0.00000000000E+00 0.  1.
<mgrwt>
<rscale>  0 0.13049286E+03</rscale>
<asrwt>0</asrwt>
<pdfrwt beam="1">  1        2 0.12175048E-01 0.13781250E+03</pdfrwt>
<pdfrwt beam="2">  1       -2 0.49246974E-01 0.13781250E+03</pdfrwt>
<totfact> 0.19259411E+03</totfact>
</mgrwt>
</event>
<event>
 7    1  0.8165933E-006  0.1377532E+03  0.7546771E-02  0.1227902E+00
         -1   -1    0    0    0  501 -0.00000000000E+00  0.00000000000E+00  0.17236800211E+02  0.17236800211E+02  0.00000000000E+00 0.  1.
          1   -1    0    0  501    0  0.00000000000E+00 -0.00000000000E+00 -0.92261882589E+03  0.92261882589E+03  0.00000000000E+00 0. -1.
         23    2    1    2    0    0  0.32694354254E+02  0.47799633334E+02 -0.60721516503E+03  0.62264452189E+03  0.12498887253E+03 0.  0.
          5    1    3    3  502    0 -0.42471045680E+02  0.45319385743E+02 -0.28736966233E+03  0.29404259772E+03  0.47000000000E+01 0.  1.
         -5    1    3    3    0  502  0.75165399934E+02  0.24802475910E+01 -0.31984550269E+03  0.32860192417E+03  0.47000000000E+01 0.  1.
        -11    1    1    2    0    0 -0.47965091353E+02 -0.28878142615E+02 -0.28315123429E+03  0.28863336361E+03  0.00000000000E+00 0.  1.
         11    1    1    2    0    0  0.15270737099E+02 -0.18921490718E+02 -0.15015626361E+02  0.28577740596E+02  0.00000000000E+00 0. -1.
<mgrwt>
<rscale>  0 0.12969985E+03</rscale>
<asrwt>0</asrwt>
<pdfrwt beam="2">  1        1 0.14194138E+00 0.13775320E+03</pdfrwt>
<pdfrwt beam="1">  1       -1 0.26518149E-02 0.13775320E+03</pdfrwt>
<totfact> 0.80285290E+03</totfact>
</mgrwt>
</event>
<event>
 7    1  0.8165933E-006  0.1429018E+03  0.7546771E-02  0.1220758E+00
         -2   -1    0    0    0  501 -0.00000000000E+00  0.00000000000E+00  0.67383942042E+02  0.67383942042E+02  0.00000000000E+00 0. -1.
          2   -1    0    0  501    0  0.00000000000E+00 -0.00000000000E+00 -0.30230932622E+03  0.30230932622E+03  0.00000000000E+00 0.  1.
         23    2    1    2    0    0 -0.38059742287E+02  0.57858724447E+02 -0.21067483262E+03  0.25456787451E+03  0.12499896661E+03 0.  0.
          5    1    3    3  502    0  0.45238951820E+02  0.21567392688E+02 -0.57599093221E+02  0.76494841192E+02  0.47000000000E+01 0. -1.
         -5    1    3    3    0  502 -0.83298694107E+02  0.36291331759E+02 -0.15307573940E+03  0.17807303331E+03  0.47000000000E+01 0. -1.
        -11    1    1    2    0    0 -0.36275743265E+01  0.20088976636E+02 -0.16761846000E+02  0.26413741861E+02  0.00000000000E+00 0.  1.
         11    1    1    2    0    0  0.41687316614E+02 -0.77947701082E+02 -0.74887055551E+01  0.88711651892E+02  0.00000000000E+00 0. -1.
<mgrwt>
<rscale>  0 0.13461925E+03</rscale>
<asrwt>0</asrwt>
<pdfrwt beam="2">  1        2 0.46509126E-01 0.14290178E+03</pdfrwt>
<pdfrwt beam="1">  1       -2 0.10366760E-01 0.14290178E+03</pdfrwt>
<totfact> 0.65002140E+03</totfact>
</mgrwt>
</event>
<event>
 7    1  0.8165933E-006  0.1504576E+03  0.7546771E-02  0.1209267E+00
         -1   -1    0    0    0  501 -0.00000000000E+00  0.00000000000E+00  0.15997324640E+02  0.15997324640E+02  0.00000000000E+00 0.  1.
          1   -1    0    0  501    0  0.00000000000E+00 -0.00000000000E+00 -0.11741300252E+04  0.11741300252E+04  0.00000000000E+00 0. -1.
         23    2    1    2    0    0  0.69993455541E+02 -0.45956228157E+02 -0.67798951858E+03  0.69448346417E+03  0.12500574378E+03 0.  0.
          5    1    3    3  502    0  0.53996700625E+02 -0.43538066620E+02 -0.67345854556E+03  0.67703745060E+03  0.47000000000E+01 0. -1.
         -5    1    3    3    0  502  0.15996754916E+02 -0.24181615370E+01 -0.45309730190E+01  0.17446013572E+02  0.47000000000E+01 0. -1.
        -11    1    1    2    0    0 -0.32411461741E+02 -0.18479326167E+02 -0.75880554794E+02  0.84556767580E+02  0.00000000000E+00 0.  1.
         11    1    1    2    0    0 -0.37581993800E+02  0.64435554324E+02 -0.40426262717E+03  0.41108711807E+03  0.00000000000E+00 0. -1.
<mgrwt>
<rscale>  0 0.14306189E+03</rscale>
<asrwt>0</asrwt>
<pdfrwt beam="2">  1        1 0.18063546E+00 0.15045762E+03</pdfrwt>
<pdfrwt beam="1">  1       -1 0.24611259E-02 0.15045762E+03</pdfrwt>
<totfact> 0.59158858E+03</totfact>
</mgrwt>
</event>
<event>
 7    1  0.8165933E-006  0.1649956E+03  0.7546771E-02  0.1190294E+00
         -1   -1    0    0    0  501 -0.00000000000E+00  0.00000000000E+00  0.38731467528E+02  0.38731467528E+02  0.00000000000E+00 0.  1.
          1   -1    0    0  501    0  0.00000000000E+00 -0.00000000000E+00 -0.60976804095E+03  0.60976804095E+03  0.00000000000E+00 0. -1.
         23    2    1    2    0    0  0.10064128086E+03 -0.38323306470E+02 -0.27570511687E+03  0.32130493953E+03  0.12500483777E+03 0.  0.
          5    1    3    3  502    0  0.11314077769E+03  0.10662861366E+02 -0.17895664538E+03  0.21204269173E+03  0.47000000000E+01 0. -1.
         -5    1    3    3    0  502 -0.12499496826E+02 -0.48986167837E+02 -0.96748471491E+02  0.10926224781E+03  0.47000000000E+01 0. -1.
        -11    1    1    2    0    0 -0.83528371955E+02 -0.10842855203E+02 -0.14014561379E+03  0.16350947830E+03  0.00000000000E+00 0.  1.
         11    1    1    2    0    0 -0.17112908906E+02  0.49166161674E+02 -0.15518584277E+03  0.16368509065E+03  0.00000000000E+00 0. -1.
<mgrwt>
<rscale>  0 0.15859336E+03</rscale>
<asrwt>0</asrwt>
<pdfrwt beam="2">  1        1 0.93810467E-01 0.16499561E+03</pdfrwt>
<pdfrwt beam="1">  1       -1 0.59586874E-02 0.16499561E+03</pdfrwt>
<totfact> 0.45378625E+03</totfact>
</mgrwt>
</event>
<event>
 7    1  0.8165933E-006  0.1341064E+03  0.7546771E-02  0.1234118E+00
         -2   -1    0    0    0  501 -0.00000000000E+00  0.00000000000E+00  0.15144046013E+02  0.15144046013E+02  0.00000000000E+00 0.  1.
          2   -1    0    0  501    0  0.00000000000E+00 -0.00000000000E+00 -0.12040240348E+04  0.12040240348E+04  0.00000000000E+00 0. -1.
         23    2    1    2    0    0  0.46745756934E+02  0.13231931494E+02 -0.94320215084E+03  0.95268820619E+03  0.12499708416E+03 0.  0.
          5    1    3    3  502    0  0.66829832368E+02 -0.38933425765E+02 -0.58808986594E+03  0.59317267179E+03  0.47000000000E+01 0. -1.
         -5    1    3    3    0  502 -0.20084075433E+02  0.52165357259E+02 -0.35511228490E+03  0.35951553439E+03  0.47000000000E+01 0. -1.
        -11    1    1    2    0    0  0.11143749269E+02  0.10015657906E+02 -0.22080029933E+01  0.15145026520E+02  0.00000000000E+00 0.  1.
         11    1    1    2    0    0 -0.57889506204E+02 -0.23247589400E+02 -0.24346983492E+03  0.25133484808E+03  0.00000000000E+00 0. -1.
<mgrwt>
<rscale>  0 0.12561045E+03</rscale>
<asrwt>0</asrwt>
<pdfrwt beam="2">  1        2 0.18523456E+00 0.13410638E+03</pdfrwt>
<pdfrwt beam="1">  1       -2 0.23298520E-02 0.13410638E+03</pdfrwt>
<totfact> 0.11841919E+04</totfact>
</mgrwt>
</event>
<event>
 7    1  0.8165933E-006  0.1687541E+03  0.7546771E-02  0.1186414E+00
         -2   -1    0    0    0  501 -0.00000000000E+00  0.00000000000E+00  0.40221956259E+02  0.40221956259E+02  0.00000000000E+00 0.  1.
          2   -1    0    0  501    0  0.00000000000E+00 -0.00000000000E+00 -0.64481635075E+03  0.64481635075E+03  0.00000000000E+00 0. -1.
         23    2    1    2    0    0 -0.66036621553E+02  0.92153233365E+02 -0.40925987779E+03  0.44268679394E+03  0.12499958460E+03 0.  0.
          5    1    3    3  502    0  0.76863010355E+01 -0.25463028487E+02 -0.10159883437E+03  0.10512781834E+03  0.47000000000E+01 0. -1.
         -5    1    3    3    0  502 -0.73722922589E+02  0.11761626185E+03 -0.30766104343E+03  0.33755897560E+03  0.47000000000E+01 0. -1.
        -11    1    1    2    0    0  0.59189803883E+02 -0.67994973698E+02 -0.19754734657E+03  0.21714442997E+03  0.00000000000E+00 0. -1.
         11    1    1    2    0    0  0.68468176699E+01 -0.24158259666E+02  0.22128298712E+01  0.25207083099E+02  0.00000000000E+00 0.  1.
<mgrwt>
<rscale>  0 0.16203841E+03</rscale>
<asrwt>0</asrwt>
<pdfrwt beam="2">  1        2 0.99202516E-01 0.16875411E+03</pdfrwt>
<pdfrwt beam="1">  1       -2 0.61879932E-02 0.16875411E+03</pdfrwt>
<totfact> 0.63722461E+03</totfact>
</mgrwt>
</event>
<event>
 7    1  0.8165933E-006  0.1268643E+03  0.7546771E-02  0.1242089E+00
          1   -1    0    0  501    0  0.00000000000E+00  0.00000000000E+00  0.23571419450E+03  0.23571419450E+03  0.00000000000E+00 0. -1.
         -1   -1    0    0    0  501 -0.00000000000E+00 -0.00000000000E+00 -0.16490417632E+03  0.16490417632E+03  0.00000000000E+00 0.  1.
         23    2    1    2    0    0 -0.53491102593E+02 -0.35307864809E+01  0.19885775294E+03  0.23587911567E+03  0.11498168026E+03 0.  0.
          5    1    3    3  502    0 -0.78045225257E+02 -0.32010011990E+02  0.16355859131E+03  0.18409019757E+03  0.47000000000E+01 0. -1.
         -5    1    3    3    0  502  0.24554122665E+02  0.28479225509E+02  0.35299161630E+02  0.51788918092E+02  0.47000000000E+01 0.  1.
        -11    1    1    2    0    0  0.26101791772E+02  0.96076964875E+00 -0.13405959736E+03  0.13658038753E+03  0.00000000000E+00 0.  1.
         11    1    1    2    0    0  0.27389310821E+02  0.25700168322E+01  0.60118626023E+01  0.28158867621E+02  0.00000000000E+00 0. -1.
<mgrwt>
<rscale>  0 0.12061304E+03</rscale>
<asrwt>0</asrwt>
<pdfrwt beam="1">  1        1 0.36263722E-01 0.12686430E+03</pdfrwt>
<pdfrwt beam="2">  1       -1 0.25369873E-01 0.12686430E+03</pdfrwt>
<totfact> 0.15838770E+03</totfact>
</mgrwt>
</event>
<event>
 7    1  0.8165933E-006  0.1315346E+03  0.7546771E-02  0.1238836E+00
          1   -1    0    0  501    0  0.00000000000E+00  0.00000000000E+00  0.86451454324E+02  0.86451454324E+02  0.00000000000E+00 0. -1.
         -1   -1    0    0    0  501 -0.00000000000E+00 -0.00000000000E+00 -0.15545444320E+03  0.15545444320E+03  0.00000000000E+00 0.  1.
         23    2    1    2    0    0  0.39944100807E+02 -0.89566885605E+01 -0.28272877663E+02  0.13453882686E+03  0.12500234743E+03 0.  0.
          5    1    3    3  502    0  0.24959485607E+02 -0.18101390195E+02  0.47385562144E+02  0.56728456250E+02  0.47000000000E+01 0. -1.
         -5    1    3    3    0  502  0.14984615200E+02  0.91447016347E+01 -0.75658439808E+02  0.77810370612E+02  0.47000000000E+01 0. -1.
        -11    1    1    2    0    0 -0.58234618011E+02 -0.82638564449E+01 -0.53211308942E+02  0.79315858802E+02  0.00000000000E+00 0.  1.
         11    1    1    2    0    0  0.18290517204E+02  0.17220545005E+02  0.12481197732E+02  0.28051211858E+02  0.00000000000E+00 0. -1.
<mgrwt>
<rscale>  0 0.12262038E+03</rscale>
<asrwt>0</asrwt>
<pdfrwt beam="1">  1        1 0.13300224E-01 0.13153456E+03</pdfrwt>
<pdfrwt beam="2">  1       -1 0.23916068E-01 0.13153456E+03</pdfrwt>
<totfact> 0.62122919E+03</totfact>
</mgrwt>
</event>
<event>
 7    1  0.8165933E-006  0.1339152E+03  0.7546771E-02  0.1234897E+00
          2   -1    0    0  501    0  0.00000000000E+00  0.00000000000E+00  0.58070473061E+03  0.58070473061E+03  0.00000000000E+00 0. -1.
         -2   -1    0    0    0  501 -0.00000000000E+00 -0.00000000000E+00 -0.32846274706E+02  0.32846274706E+02  0.00000000000E+00 0.  1.
         23    2    1    2    0    0 -0.77313033737E+01 -0.47421749593E+02  0.45940411524E+03  0.47852421333E+03  0.12499874504E+03 0.  0.
          5    1    3    3  502    0 -0.33031426212E+02 -0.22083859984E+02  0.43026341564E+03  0.43211973900E+03  0.47000000000E+01 0. -1.
         -5    1    3    3    0  502  0.25300122838E+02 -0.25337889609E+02  0.29140699596E+02  0.46404474336E+02  0.47000000000E+01 0. -1.
        -11    1    1    2    0    0 -0.27870306426E+02  0.41863132317E+02  0.85084692052E+02  0.98836636169E+02  0.00000000000E+00 0. -1.
         11    1    1    2    0    0  0.35601609800E+02  0.55586172765E+01  0.33696486164E+01  0.36190155818E+02  0.00000000000E+00 0.  1.
<mgrwt>
<rscale>  0 0.12511047E+03</rscale>
<asrwt>0</asrwt>
<pdfrwt beam="1">  1        2 0.89339182E-01 0.13391520E+03</pdfrwt>
<pdfrwt beam="2">  1       -2 0.50532735E-02 0.13391520E+03</pdfrwt>
<totfact> 0.96383248E+03</totfact>
</mgrwt>
</event>
<event>
 7    1  0.8165933E-006  0.1251435E+03  0.7546771E-02  0.1250427E+00
         -2   -1    0    0    0  501 -0.00000000000E+00  0.00000000000E+00  0.13950678205E+02  0.13950678205E+02  0.00000000000E+00 0.  1.
          2   -1    0    0  501    0  0.00000000000E+00 -0.00000000000E+00 -0.13402374328E+04  0.13402374328E+04  0.00000000000E+00 0. -1.
         23    2    1    2    0    0 -0.21244758219E+01 -0.56011497593E+01 -0.11386810605E+04  0.11455371872E+04  0.12500001341E+03 0.  0.
          5    1    3    3  502    0  0.47884554475E+02  0.64584542432E+01 -0.90102515882E+03  0.90233201706E+03  0.47000000000E+01 0. -1.
         -5    1    3    3    0  502 -0.50009030297E+02 -0.12059604003E+02 -0.23765590171E+03  0.24320517013E+03  0.47000000000E+01 0. -1.
        -11    1    1    2    0    0  0.38761136448E+02  0.24736698066E+02 -0.67851337016E+02  0.81964223078E+02  0.00000000000E+00 0.  1.
         11    1    1    2    0    0 -0.36636660626E+02 -0.19135548307E+02 -0.11975435703E+03  0.12668670072E+03  0.00000000000E+00 0. -1.
<mgrwt>
<rscale>  0 0.11566379E+03</rscale>
<asrwt>0</asrwt>
<pdfrwt beam="2">  1        2 0.20619042E+00 0.12514348E+03</pdfrwt>
<pdfrwt beam="1">  1       -2 0.21462577E-02 0.12514348E+03</pdfrwt>
<totfact> 0.11216878E+04</totfact>
</mgrwt>
</event>
<event>
 7    1  0.8165933E-006  0.1441007E+03  0.7546771E-02  0.1218442E+00
          1   -1    0    0  501    0  0.00000000000E+00  0.00000000000E+00  0.41394125107E+02  0.41394125107E+02  0.00000000000E+00 0. -1.
         -1   -1    0    0    0  501 -0.00000000000E+00 -0.00000000000E+00 -0.41729553768E+03  0.41729553768E+03  0.00000000000E+00 0.  1.
         23    2    1    2    0    0  0.46495357648E+01  0.71539581686E+02 -0.17109862188E+03  0.22369567734E+03  0.12500195087E+03 0.  0.
          5    1    3    3  502    0  0.20780557675E+01 -0.34953219891E+02 -0.60556248226E+02  0.70108452384E+02  0.47000000000E+01 0.  1.
         -5    1    3    3    0  502  0.25714799973E+01  0.10649280158E+03 -0.11054237365E+03  0.15358722496E+03  0.47000000000E+01 0.  1.
        -11    1    1    2    0    0 -0.34176668738E+01  0.19816040232E+02 -0.17755358967E+02  0.26825522723E+02  0.00000000000E+00 0.  1.
         11    1    1    2    0    0 -0.12318688910E+01 -0.91355621917E+02 -0.18704743173E+03  0.20816846272E+03  0.00000000000E+00 0. -1.
<mgrwt>
<rscale>  0 0.13626714E+03</rscale>
<asrwt>0</asrwt>
<pdfrwt beam="1">  1        1 0.63683268E-02 0.14410072E+03</pdfrwt>
<pdfrwt beam="2">  1       -1 0.64199315E-01 0.14410072E+03</pdfrwt>
<totfact> 0.29318330E+03</totfact>
</mgrwt>
</event>
<event>
 7    1  0.8165933E-006  0.1554922E+03  0.7546771E-02  0.1200896E+00
         -1   -1    0    0    0  501 -0.00000000000E+00  0.00000000000E+00  0.52223379012E+02  0.52223379012E+02  0.00000000000E+00 0.  1.
          1   -1    0    0  501    0  0.00000000000E+00 -0.00000000000E+00 -0.40071123271E+03  0.40071123271E+03  0.00000000000E+00 0. -1.
         23    2    1    2    0    0  0.87750007742E+02 -0.29218876110E+02 -0.17569993993E+03  0.23462373278E+03  0.12499608199E+03 0.  0.
          5    1    3    3  502    0  0.59029256329E+02 -0.18266628689E+02 -0.19039851121E+03  0.20022938320E+03  0.47000000000E+01 0. -1.
         -5    1    3    3    0  502  0.28720751413E+02 -0.10952247421E+02  0.14698571281E+02  0.34394349580E+02  0.47000000000E+01 0. -1.
        -11    1    1    2    0    0 -0.38405092586E+02  0.61729674414E+02 -0.78135425600E+02  0.10672698147E+03  0.00000000000E+00 0.  1.
         11    1    1    2    0    0 -0.49344915156E+02 -0.32510798304E+02 -0.94652488163E+02  0.11158389747E+03  0.00000000000E+00 0. -1.
<mgrwt>
<rscale>  0 0.14965668E+03</rscale>
<asrwt>0</asrwt>
<pdfrwt beam="2">  1        1 0.61647884E-01 0.15549221E+03</pdfrwt>
<pdfrwt beam="1">  1       -1 0.80343657E-02 0.15549221E+03</pdfrwt>
<totfact> 0.50086683E+03</totfact>
</mgrwt>
</event>
<event>
 7    1  0.8165933E-006  0.1358864E+03  0.7546771E-02  0.1231188E+00
          3   -1    0    0  501    0  0.00000000000E+00  0.00000000000E+00  0.45930964811E+02  0.45930964811E+02  0.00000000000E+00 0. -1.
         -3   -1    0    0    0  501 -0.00000000000E+00 -0.00000000000E+00 -0.31739199403E+03  0.31739199403E+03  0.00000000000E+00 0.  1.
         23    2    1    2    0    0 -0.29554193191E+01  0.53212244160E+02 -0.16053968159E+03  0.21032855234E+03  0.12499933253E+03 0.  0.
          5    1    3    3  502    0  0.55615217176E+02  0.11431906157E+02 -0.10446587705E+03  0.11899138762E+03  0.47000000000E+01 0. -1.
         -5    1    3    3    0  502 -0.58570636495E+02  0.41780338003E+02 -0.56073804536E+02  0.91337164715E+02  0.47000000000E+01 0. -1.
        -11    1    1    2    0    0 -0.51118551005E+01 -0.23998269922E+02  0.11341574685E+02  0.27031080966E+02  0.00000000000E+00 0. -1.
         11    1    1    2    0    0  0.80672744195E+01 -0.29213974238E+02 -0.12226292232E+03  0.12596332554E+03  0.00000000000E+00 0.  1.
<mgrwt>
<rscale>  0 0.12751628E+03</rscale>
<asrwt>0</asrwt>
<pdfrwt beam="1">  1        3 0.70663021E-02 0.13588639E+03</pdfrwt>
<pdfrwt beam="2">  1       -3 0.48829539E-01 0.13588639E+03</pdfrwt>
<totfact> 0.12603280E+03</totfact>
</mgrwt>
</event>
<event>
 7    1  0.8165933E-006  0.1346299E+03  0.7546771E-02  0.1232157E+00
          2   -1    0    0  501    0  0.00000000000E+00  0.00000000000E+00  0.32528830938E+03  0.32528830938E+03  0.00000000000E+00 0. -1.
         -2   -1    0    0    0  501 -0.00000000000E+00 -0.00000000000E+00 -0.54948740112E+02  0.54948740112E+02  0.00000000000E+00 0.  1.
         23    2    1    2    0    0  0.15662966219E+02 -0.47366119982E+02  0.23023037460E+03  0.26670441707E+03  0.12504536321E+03 0.  0.
          5    1    3    3  502    0  0.48999467347E+02 -0.57778493185E+02  0.21555949314E+03  0.22853290169E+03  0.47000000000E+01 0.  1.
         -5    1    3    3    0  502 -0.33336501128E+02  0.10412373203E+02  0.14670881469E+02  0.38171515378E+02  0.47000000000E+01 0.  1.
        -11    1    1    2    0    0  0.93197793952E+01 -0.14234932233E+02  0.43766937521E+02  0.46957815150E+02  0.00000000000E+00 0. -1.
         11    1    1    2    0    0 -0.24982745614E+02  0.61601052215E+02 -0.36577428547E+01  0.66574817275E+02  0.00000000000E+00 0.  1.
<mgrwt>
<rscale>  0 0.12688178E+03</rscale>
<asrwt>0</asrwt>
<pdfrwt beam="1">  1        2 0.50044354E-01 0.13462994E+03</pdfrwt>
<pdfrwt beam="2">  1       -2 0.84536525E-02 0.13462994E+03</pdfrwt>
<totfact> 0.82424404E+03</totfact>
</mgrwt>
</event>
<event>
 7    1  0.8165933E-006  0.1274966E+03  0.7546771E-02  0.1247478E+00
          2   -1    0    0  501    0  0.00000000000E+00  0.00000000000E+00  0.45932893115E+03  0.45932893115E+03  0.00000000000E+00 0. -1.
         -2   -1    0    0    0  501 -0.00000000000E+00 -0.00000000000E+00 -0.26740154808E+02  0.26740154808E+02  0.00000000000E+00 0.  1.
         23    2    1    2    0    0  0.23832783323E+02  0.77392354777E+01  0.28719413307E+03  0.31422263469E+03  0.12500998662E+03 0.  0.
          5    1    3    3  502    0  0.33352984310E+02  0.18214039256E+02  0.29494085980E+03  0.29741616225E+03  0.47000000000E+01 0.  1.
         -5    1    3    3    0  502 -0.95202009872E+01 -0.10474803779E+02 -0.77467267252E+01  0.16806472443E+02  0.47000000000E+01 0.  1.
        -11    1    1    2    0    0 -0.38627470736E+02 -0.14835162554E+02  0.14934331001E+03  0.15496963505E+03  0.00000000000E+00 0. -1.
         11    1    1    2    0    0  0.14794687414E+02  0.70959270762E+01 -0.39486667343E+01  0.16876816220E+02  0.00000000000E+00 0.  1.
<mgrwt>
<rscale>  0 0.11738285E+03</rscale>
<asrwt>0</asrwt>
<pdfrwt beam="1">  1        2 0.70665983E-01 0.12749664E+03</pdfrwt>
<pdfrwt beam="2">  1       -2 0.41138703E-02 0.12749664E+03</pdfrwt>
<totfact> 0.16909107E+04</totfact>
</mgrwt>
</event>
<event>
 7    1  0.8165933E-006  0.1195519E+03  0.7546771E-02  0.1251941E+00
          1   -1    0    0  501    0  0.00000000000E+00  0.00000000000E+00  0.26405314759E+03  0.26405314759E+03  0.00000000000E+00 0. -1.
         -1   -1    0    0    0  501 -0.00000000000E+00 -0.00000000000E+00 -0.18172580338E+03  0.18172580338E+03  0.00000000000E+00 0.  1.
         23    2    1    2    0    0 -0.17681148258E+02  0.40279669821E+02  0.23425336790E+03  0.26299674867E+03  0.11116462852E+03 0.  0.
          5    1    3    3  502    0 -0.29696174525E+02  0.40288122544E+02  0.24251913583E+03  0.24767441702E+03  0.47000000000E+01 0. -1.
         -5    1    3    3    0  502  0.12015026267E+02 -0.84527230541E-02 -0.82657679344E+01  0.15322331650E+02  0.47000000000E+01 0.  1.
        -11    1    1    2    0    0 -0.31829462963E+02 -0.40883294670E+02 -0.84677846738E+02  0.99271829961E+02  0.00000000000E+00 0.  1.
         11    1    1    2    0    0  0.49510611220E+02  0.60362484849E+00 -0.67248176949E+02  0.83510372346E+02  0.00000000000E+00 0. -1.
<mgrwt>
<rscale>  0 0.11479378E+03</rscale>
<asrwt>0</asrwt>
<pdfrwt beam="1">  1        1 0.40623561E-01 0.11955187E+03</pdfrwt>
<pdfrwt beam="2">  1       -1 0.27957816E-01 0.11955187E+03</pdfrwt>
<totfact> 0.11711062E+03</totfact>
</mgrwt>
</event>
<event>
 7    1  0.8165933E-006  0.1315544E+03  0.7546771E-02  0.1236869E+00
         -1   -1    0    0    0  501 -0.00000000000E+00  0.00000000000E+00  0.25570728715E+02  0.25570728715E+02  0.00000000000E+00 0.  1.
          1   -1    0    0  501    0  0.00000000000E+00 -0.00000000000E+00 -0.81088722048E+03  0.81088722048E+03  0.00000000000E+00 0. -1.
         23    2    1    2    0    0  0.40844607030E+01  0.40630182103E+02 -0.66479603307E+03  0.67768749085E+03  0.12505628792E+03 0.  0.
          5    1    3    3  502    0  0.47173158807E+02  0.17119628343E+02 -0.55551178470E+03  0.55779370876E+03  0.47000000000E+01 0.  1.
         -5    1    3    3    0  502 -0.43088698104E+02  0.23510553760E+02 -0.10928424837E+03  0.11989378209E+03  0.47000000000E+01 0.  1.
        -11    1    1    2    0    0 -0.44177646153E+02 -0.58206195971E+01 -0.29642224706E+02  0.53518272745E+02  0.00000000000E+00 0. -1.
         11    1    1    2    0    0  0.40093185450E+02 -0.34809562506E+02 -0.90878233991E+02  0.10525218561E+03  0.00000000000E+00 0.  1.
<mgrwt>
<rscale>  0 0.12385546E+03</rscale>
<asrwt>0</asrwt>
<pdfrwt beam="2">  1        1 0.12475188E+00 0.13155444E+03</pdfrwt>
<pdfrwt beam="1">  1       -1 0.39339583E-02 0.13155444E+03</pdfrwt>
<totfact> 0.55119973E+03</totfact>
</mgrwt>
</event>
<event>
 7    1  0.8165933E-006  0.1338483E+03  0.7546771E-02  0.1233203E+00
          1   -1    0    0  501    0  0.00000000000E+00  0.00000000000E+00  0.57293815456E+03  0.57293815456E+03  0.00000000000E+00 0. -1.
         -1   -1    0    0    0  501 -0.00000000000E+00 -0.00000000000E+00 -0.33084048112E+02  0.33084048112E+02  0.00000000000E+00 0.  1.
         23    2    1    2    0    0 -0.47571189829E+02  0.52398462244E+01  0.44234679815E+03  0.46215373019E+03  0.12499962562E+03 0.  0.
          5    1    3    3  502    0 -0.71235193870E+02  0.24894057542E+02  0.41131764391E+03  0.41820863351E+03  0.47000000000E+01 0. -1.
         -5    1    3    3    0  502  0.23664004042E+02 -0.19654211318E+02  0.31029154239E+02  0.43945096685E+02  0.47000000000E+01 0. -1.
        -11    1    1    2    0    0 -0.98026159502E+01 -0.25870007919E+01 -0.14675939146E+02  0.17837237521E+02  0.00000000000E+00 0.  1.
         11    1    1    2    0    0  0.57373805779E+02 -0.26528454324E+01  0.11218324745E+03  0.12603123496E+03  0.00000000000E+00 0. -1.
<mgrwt>
<rscale>  0 0.12620186E+03</rscale>
<asrwt>0</asrwt>
<pdfrwt beam="1">  1        1 0.88144324E-01 0.13384835E+03</pdfrwt>
<pdfrwt beam="2">  1       -1 0.50898540E-02 0.13384835E+03</pdfrwt>
<totfact> 0.61808347E+03</totfact>
</mgrwt>
</event>
<event>
 6    1  0.8165933E-006  0.3003654E+03  0.7546771E-02  0.1125866E+00
          1   -1    0    0  501    0  0.00000000000E+00  0.00000000000E+00  0.91132694717E+03  0.91132694717E+03  0.00000000000E+00 0. -1.
         -1   -1    0    0    0  501 -0.00000000000E+00 -0.00000000000E+00 -0.48407495143E+02  0.48407495143E+02  0.00000000000E+00 0.  1.
          5    1    1    2  502    0  0.11873955674E+03  0.34068397804E+02  0.64465056457E+03  0.65639635774E+03  0.47000000000E+01 0. -1.
         -5    1    1    2    0  502 -0.10181319798E+03  0.20456555517E+02  0.90799281868E+02  0.13802535106E+03  0.47000000000E+01 0.  1.
        -11    1    1    2    0    0 -0.38644462330E+02  0.73353379342E+01  0.41256108965E+02  0.57002352393E+02  0.00000000000E+00 0.  1.
         11    1    1    2    0    0  0.21718103574E+02 -0.61860291255E+02  0.86213496627E+02  0.10831038112E+03  0.00000000000E+00 0. -1.
<mgrwt>
<rscale>  0 0.23110211E+03</rscale>
<asrwt>0</asrwt>
<pdfrwt beam="1">  1        1 0.14020413E+00 0.30036540E+03</pdfrwt>
<pdfrwt beam="2">  1       -1 0.74473076E-02 0.30036540E+03</pdfrwt>
<totfact> 0.17982369E+03</totfact>
</mgrwt>
</event>
<event>
 7    1  0.8165933E-006  0.1339330E+03  0.7546771E-02  0.1232615E+00
         -2   -1    0    0    0  501 -0.00000000000E+00  0.00000000000E+00  0.95098688619E+02  0.95098688619E+02  0.00000000000E+00 0.  1.
          2   -1    0    0  501    0  0.00000000000E+00 -0.00000000000E+00 -0.19196173785E+03  0.19196173785E+03  0.00000000000E+00 0. -1.
         23    2    1    2    0    0  0.12966146458E+02 -0.46228541904E+02 -0.11755682666E+03  0.17820675648E+03  0.12503136214E+03 0.  0.
          5    1    3    3  502    0 -0.68374137988E+01 -0.10639957050E+02  0.25793328812E+02  0.29109186260E+02  0.47000000000E+01 0.  1.
         -5    1    3    3    0  502  0.19803560257E+02 -0.35588584854E+02 -0.14335015548E+03  0.14909757022E+03  0.47000000000E+01 0.  1.
        -11    1    1    2    0    0 -0.11608575404E+02  0.69337886186E+02  0.38032531060E+02  0.79931063439E+02  0.00000000000E+00 0.  1.
         11    1    1    2    0    0 -0.13575710542E+01 -0.23109344282E+02 -0.17338753628E+02  0.28922606551E+02  0.00000000000E+00 0. -1.
<mgrwt>
<rscale>  0 0.12658380E+03</rscale>
<asrwt>0</asrwt>
<pdfrwt beam="2">  1        2 0.29532575E-01 0.13393297E+03</pdfrwt>
<pdfrwt beam="1">  1       -2 0.14630568E-01 0.13393297E+03</pdfrwt>
<totfact> 0.60582546E+03</totfact>
</mgrwt>
</event>
<event>
 7    1  0.8165933E-006  0.2427886E+03  0.7546771E-02  0.1120467E+00
          2   -1    0    0  501    0  0.00000000000E+00  0.00000000000E+00  0.38827506231E+03  0.38827506231E+03  0.00000000000E+00 0.  1.
         -2   -1    0    0    0  501 -0.00000000000E+00 -0.00000000000E+00 -0.14378449085E+03  0.14378449085E+03  0.00000000000E+00 0. -1.
         23    2    1    2    0    0  0.18879180095E+03 -0.87605165090E+02  0.14939611133E+03  0.28507109045E+03  0.12501727670E+03 0.  0.
          5    1    3    3  502    0  0.73418963494E+02 -0.97178891741E+02  0.47634901961E+02  0.13086349791E+03  0.47000000000E+01 0.  1.
         -5    1    3    3    0  502  0.11537283746E+03  0.95737266512E+01  0.10176120937E+03  0.15420759254E+03  0.47000000000E+01 0.  1.
        -11    1    1    2    0    0 -0.18894631525E+03  0.57330115621E+02  0.86074370498E+02  0.21539788639E+03  0.00000000000E+00 0.  1.
         11    1    1    2    0    0  0.15451430119E+00  0.30275049469E+02  0.90200896321E+01  0.31590576316E+02  0.00000000000E+00 0. -1.
<mgrwt>
<rscale>  0 0.23899031E+03</rscale>
<asrwt>0</asrwt>
<pdfrwt beam="1">  1        2 0.59734624E-01 0.24278865E+03</pdfrwt>
<pdfrwt beam="2">  1       -2 0.22120691E-01 0.24278865E+03</pdfrwt>
<totfact> 0.14519218E+03</totfact>
</mgrwt>
</event>
<event>
 7    1  0.8165933E-006  0.1287767E+03  0.7546771E-02  0.1276809E+00
         -1   -1    0    0    0  501 -0.00000000000E+00  0.00000000000E+00  0.60317134101E+01  0.60317134101E+01  0.00000000000E+00 0.  1.
          1   -1    0    0  501    0  0.00000000000E+00 -0.00000000000E+00 -0.14376798222E+04  0.14376798222E+04  0.00000000000E+00 0. -1.
         23    2    1    2    0    0  0.56124289338E+01  0.26395177586E+02 -0.11891866572E+04  0.11961389284E+04  0.12591753469E+03 0.  0.
          5    1    3    3  502    0  0.32931175501E+02 -0.26372753171E+02 -0.89330723624E+03  0.89431532065E+03  0.47000000000E+01 0. -1.
         -5    1    3    3    0  502 -0.27318746568E+02  0.52767930757E+02 -0.29587942097E+03  0.30182360773E+03  0.47000000000E+01 0.  1.
        -11    1    1    2    0    0 -0.23076924591E+02 -0.18898840009E+02 -0.17325927418E+03  0.17580809621E+03  0.00000000000E+00 0. -1.
         11    1    1    2    0    0  0.17464495657E+02 -0.74963375768E+01 -0.69202177433E+02  0.71764511056E+02  0.00000000000E+00 0.  1.
<mgrwt>
<rscale>  0 0.10167661E+03</rscale>
<asrwt>0</asrwt>
<pdfrwt beam="2">  1        1 0.22118166E+00 0.12877667E+03</pdfrwt>
<pdfrwt beam="1">  1       -1 0.92795529E-03 0.12877667E+03</pdfrwt>
<totfact> 0.15874781E+04</totfact>
</mgrwt>
</event>
<event>
 6    1  0.8165933E-006  0.3087010E+03  0.7546771E-02  0.1128704E+00
          2   -1    0    0  501    0  0.00000000000E+00  0.00000000000E+00  0.25513691071E+03  0.25513691071E+03  0.00000000000E+00 0. -1.
         -2   -1    0    0    0  501 -0.00000000000E+00 -0.00000000000E+00 -0.28351863397E+03  0.28351863397E+03  0.00000000000E+00 0.  1.
          5    1    1    2  502    0 -0.11331556423E+03  0.56777569154E+02 -0.20738254778E+02  0.12851565923E+03  0.47000000000E+01 0. -1.
         -5    1    1    2    0  502  0.12476452945E+03 -0.43360408411E+02  0.16730616173E+03  0.21321293248E+03  0.47000000000E+01 0.  1.
        -11    1    1    2    0    0 -0.40182628233E+02  0.11475173110E+02 -0.44478246172E+02  0.61029809046E+02  0.00000000000E+00 0. -1.
         11    1    1    2    0    0  0.28733663017E+02 -0.24892333853E+02 -0.13047138404E+03  0.13589714393E+03  0.00000000000E+00 0.  1.
<mgrwt>
<rscale>  0 0.22709114E+03</rscale>
<asrwt>0</asrwt>
<pdfrwt beam="1">  1        2 0.39251832E-01 0.30870095E+03</pdfrwt>
<pdfrwt beam="2">  1       -2 0.43618251E-01 0.30870095E+03</pdfrwt>
<totfact> 0.65919261E+02</totfact>
</mgrwt>
</event>
<event>
 7    1  0.8165933E-006  0.1265943E+03  0.7546771E-02  0.1248029E+00
          2   -1    0    0  501    0  0.00000000000E+00  0.00000000000E+00  0.67979181493E+02  0.67979181493E+02  0.00000000000E+00 0. -1.
         -2   -1    0    0    0  501 -0.00000000000E+00 -0.00000000000E+00 -0.26398027980E+03  0.26398027980E+03  0.00000000000E+00 0.  1.
         23    2    1    2    0    0  0.16909172847E+02  0.10751286351E+02 -0.13474510067E+02  0.12730934207E+03  0.12499838348E+03 0.  0.
          5    1    3    3  502    0  0.47739652898E+01 -0.55687387219E+01  0.55019747183E+02  0.55705153942E+02  0.47000000000E+01 0. -1.
         -5    1    3    3    0  502  0.12135207558E+02  0.16320025073E+02 -0.68494257250E+02  0.71604188126E+02  0.47000000000E+01 0. -1.
        -11    1    1    2    0    0  0.45285018011E+01 -0.30506588982E+02 -0.14439483169E+02  0.34053751248E+02  0.00000000000E+00 0. -1.
         11    1    1    2    0    0 -0.21437674648E+02  0.19755302630E+02 -0.16808710507E+03  0.17059636798E+03  0.00000000000E+00 0.  1.
<mgrwt>
<rscale>  0 0.11705931E+03</rscale>
<asrwt>0</asrwt>
<pdfrwt beam="1">  1        2 0.10458336E-01 0.12659426E+03</pdfrwt>
<pdfrwt beam="2">  1       -2 0.40612350E-01 0.12659426E+03</pdfrwt>
<totfact> 0.33438716E+03</totfact>
</mgrwt>
</event>
<event>
 7    1  0.8165933E-006  0.1296591E+03  0.7546771E-02  0.1242204E+00
          1   -1    0    0  501    0  0.00000000000E+00  0.00000000000E+00  0.40290019526E+03  0.40290019526E+03  0.00000000000E+00 0. -1.
         -1   -1    0    0    0  501 -0.00000000000E+00 -0.00000000000E+00 -0.32398760523E+02  0.32398760523E+02  0.00000000000E+00 0.  1.
         23    2    1    2    0    0 -0.48857299060E+01  0.34088429316E+02  0.23991914240E+03  0.27271355397E+03  0.12500238502E+03 0.  0.
          5    1    3    3  502    0 -0.48842997579E+02  0.60371649817E+02  0.13340089328E+03  0.15442882776E+03  0.47000000000E+01 0. -1.
         -5    1    3    3    0  502  0.43957267673E+02 -0.26283220501E+02  0.10651824912E+03  0.11828472622E+03  0.47000000000E+01 0. -1.
        -11    1    1    2    0    0 -0.30840225912E+02  0.14828926860E+02  0.63982820558E+02  0.72559065131E+02  0.00000000000E+00 0.  1.
         11    1    1    2    0    0  0.35725955818E+02 -0.48917356176E+02  0.66599471783E+02  0.90026336681E+02  0.00000000000E+00 0. -1.
<mgrwt>
<rscale>  0 0.12054268E+03</rscale>
<asrwt>0</asrwt>
<pdfrwt beam="1">  1        1 0.61984642E-01 0.12965912E+03</pdfrwt>
<pdfrwt beam="2">  1       -1 0.49844250E-02 0.12965912E+03</pdfrwt>
<totfact> 0.10040220E+04</totfact>
</mgrwt>
</event>
<event>
 7    1  0.8165933E-006  0.1397261E+03  0.7546771E-02  0.1224892E+00
         -1   -1    0    0    0  501 -0.00000000000E+00  0.00000000000E+00  0.40504167540E+02  0.40504167540E+02  0.00000000000E+00 0.  1.
          1   -1    0    0  501    0  0.00000000000E+00 -0.00000000000E+00 -0.38759694492E+03  0.38759694492E+03  0.00000000000E+00 0. -1.
         23    2    1    2    0    0 -0.51583446565E+02  0.35169807935E+02 -0.18120368023E+03  0.22881907821E+03  0.12500251787E+03 0.  0.
          5    1    3    3  502    0  0.18256641284E+02 -0.35042792949E+02 -0.63334350368E+02  0.74797274183E+02  0.47000000000E+01 0. -1.
         -5    1    3    3    0  502 -0.69840087850E+02  0.70212600884E+02 -0.11786932986E+03  0.15402180403E+03  0.47000000000E+01 0. -1.
        -11    1    1    2    0    0  0.49470586425E+02 -0.42392644579E+01 -0.26095209729E+02  0.56091623753E+02  0.00000000000E+00 0.  1.
         11    1    1    2    0    0  0.21128601400E+01 -0.30930543477E+02 -0.13979388743E+03  0.14319041050E+03  0.00000000000E+00 0. -1.
<mgrwt>
<rscale>  0 0.13174288E+03</rscale>
<asrwt>0</asrwt>
<pdfrwt beam="2">  1        1 0.59630299E-01 0.13972615E+03</pdfrwt>
<pdfrwt beam="1">  1       -1 0.62314104E-02 0.13972615E+03</pdfrwt>
<totfact> 0.76059960E+03</totfact>
</mgrwt>
</event>
<event>
 7    1  0.8165933E-006  0.1958102E+03  0.7546771E-02  0.1157875E+00
         -1   -1    0    0    0  501 -0.00000000000E+00  0.00000000000E+00  0.44756702623E+02  0.44756702623E+02  0.00000000000E+00 0.  1.
          1   -1    0    0  501    0  0.00000000000E+00 -0.00000000000E+00 -0.77370594355E+03  0.77370594355E+03  0.00000000000E+00 0. -1.
         23    2    1    2    0    0  0.15034420863E+03  0.10660679704E+02 -0.40248925254E+03  0.44759270644E+03  0.12499840516E+03 0.  0.
          5    1    3    3  502    0 -0.15799145145E+02  0.20572579414E+02 -0.32377935890E+02  0.41752422008E+02  0.47000000000E+01 0. -1.
         -5    1    3    3    0  502  0.16614335378E+03 -0.99118997098E+01 -0.37011131665E+03  0.40584028444E+03  0.47000000000E+01 0. -1.
        -11    1    1    2    0    0 -0.10352721797E+03 -0.29583977993E+02 -0.28777534696E+03  0.30725843672E+03  0.00000000000E+00 0. -1.
         11    1    1    2    0    0 -0.46816990665E+02  0.18923298289E+02 -0.38684641430E+02  0.63611503013E+02  0.00000000000E+00 0.  1.
<mgrwt>
<rscale>  0 0.19065197E+03</rscale>
<asrwt>0</asrwt>
<pdfrwt beam="2">  1        1 0.11903168E+00 0.19581019E+03</pdfrwt>
<pdfrwt beam="1">  1       -1 0.68856467E-02 0.19581019E+03</pdfrwt>
<totfact> 0.26074575E+03</totfact>
</mgrwt>
</event>
<event>
 7    1  0.8165933E-006  0.1331389E+03  0.7546771E-02  0.1235801E+00
         -1   -1    0    0    0  501 -0.00000000000E+00  0.00000000000E+00  0.58493232845E+02  0.58493232845E+02  0.00000000000E+00 0.  1.
          1   -1    0    0  501    0  0.00000000000E+00 -0.00000000000E+00 -0.27377760521E+03  0.27377760521E+03  0.00000000000E+00 0. -1.
         23    2    1    2    0    0  0.21516157892E+01 -0.45797484323E+02 -0.18111171481E+03  0.22478307393E+03  0.12499575217E+03 0.  0.
          5    1    3    3  502    0  0.55528226777E+02  0.42042007713E+01 -0.10605993566E+03  0.11988268943E+03  0.47000000000E+01 0.  1.
         -5    1    3    3    0  502 -0.53376610988E+02 -0.50001685094E+02 -0.75051779151E+02  0.10490038449E+03  0.47000000000E+01 0.  1.
        -11    1    1    2    0    0  0.17185009487E+02  0.38788720423E+02  0.21912781794E+02  0.47749967425E+02  0.00000000000E+00 0.  1.
         11    1    1    2    0    0 -0.19336625276E+02  0.70087638994E+01 -0.56085439340E+02  0.59737796699E+02  0.00000000000E+00 0. -1.
<mgrwt>
<rscale>  0 0.12453289E+03</rscale>
<asrwt>0</asrwt>
<pdfrwt beam="2">  1        1 0.42119631E-01 0.13313894E+03</pdfrwt>
<pdfrwt beam="1">  1       -1 0.89989589E-02 0.13313894E+03</pdfrwt>
<totfact> 0.67215837E+03</totfact>
</mgrwt>
</event>
<event>
 6    1  0.8165933E-006  0.2217699E+03  0.7546771E-02  0.1160150E+00
         -4   -1    0    0    0  501 -0.00000000000E+00  0.00000000000E+00  0.15459430597E+03  0.15459430597E+03  0.00000000000E+00 0.  1.
          4   -1    0    0  501    0  0.00000000000E+00 -0.00000000000E+00 -0.23291906334E+03  0.23291906334E+03  0.00000000000E+00 0. -1.
          5    1    1    2  502    0  0.17425271347E+02  0.58449654145E+02 -0.11629510969E+03  0.13140260534E+03  0.47000000000E+01 0. -1.
         -5    1    1    2    0  502 -0.60170385279E+02 -0.11148372404E+03 -0.18488336502E+02  0.12811324903E+03  0.47000000000E+01 0.  1.
        -11    1    1    2    0    0  0.59892570225E+02  0.68406887854E+02  0.38250175678E+02  0.98639232628E+02  0.00000000000E+00 0.  1.
         11    1    1    2    0    0 -0.17147456293E+02 -0.15372817960E+02  0.18208513145E+02  0.29358282312E+02  0.00000000000E+00 0. -1.
<mgrwt>
<rscale>  0 0.18814010E+03</rscale>
<asrwt>0</asrwt>
<pdfrwt beam="2">  1        4 0.35833702E-01 0.22176993E+03</pdfrwt>
<pdfrwt beam="1">  1       -4 0.23783739E-01 0.22176993E+03</pdfrwt>
<totfact> 0.22398251E+02</totfact>
</mgrwt>
</event>
<event>
 7    1  0.8165933E-006  0.2217986E+03  0.7546771E-02  0.1135877E+00
         -1   -1    0    0    0  501 -0.00000000000E+00  0.00000000000E+00  0.58879592890E+02  0.58879592890E+02  0.00000000000E+00 0.  1.
          1   -1    0    0  501    0  0.00000000000E+00 -0.00000000000E+00 -0.20482661961E+04  0.20482661961E+04  0.00000000000E+00 0. -1.
         23    2    1    2    0    0 -0.86892212505E+01 -0.18301294817E+03 -0.18413774389E+04  0.18546874405E+04  0.12500155160E+03 0.  0.
          5    1    3    3  502    0  0.47914827049E+02 -0.14230065445E+03 -0.11451019334E+04  0.11549137781E+04  0.47000000000E+01 0. -1.
         -5    1    3    3    0  502 -0.56604048300E+02 -0.40712293716E+02 -0.69627550550E+03  0.69977366248E+03  0.47000000000E+01 0. -1.
        -11    1    1    2    0    0  0.62587784852E+01  0.13564069374E+03 -0.52057292670E+02  0.14542190972E+03  0.00000000000E+00 0.  1.
         11    1    1    2    0    0  0.24304427653E+01  0.47372254425E+02 -0.95951871644E+02  0.10703643872E+03  0.00000000000E+00 0. -1.
<mgrwt>
<rscale>  0 0.21734676E+03</rscale>
<asrwt>0</asrwt>
<pdfrwt beam="2">  1        1 0.31511794E+00 0.22179862E+03</pdfrwt>
<pdfrwt beam="1">  1       -1 0.90583970E-02 0.22179862E+03</pdfrwt>
<totfact> 0.22611449E+02</totfact>
</mgrwt>
</event>
<event>
 7    1  0.8165933E-006  0.2044575E+03  0.7546771E-02  0.1149814E+00
          2   -1    0    0  501    0  0.00000000000E+00  0.00000000000E+00  0.67178989231E+03  0.67178989231E+03  0.00000000000E+00 0. -1.
         -2   -1    0    0    0  501 -0.00000000000E+00 -0.00000000000E+00 -0.83288594964E+02  0.83288594964E+02  0.00000000000E+00 0.  1.
         23    2    1    2    0    0 -0.16077406860E+03 -0.18127829700E+02  0.51530439889E+03  0.55438390225E+03  0.12500387279E+03 0.  0.
          5    1    3    3  502    0  0.29430774996E+01  0.27160342944E+02  0.33449933925E+02  0.43443457661E+02  0.47000000000E+01 0. -1.
         -5    1    3    3    0  502 -0.16371714610E+03 -0.45288172643E+02  0.48185446497E+03  0.51094044459E+03  0.47000000000E+01 0. -1.
        -11    1    1    2    0    0  0.11174301518E+03  0.54488413201E+02  0.36919819178E+02  0.12968639737E+03  0.00000000000E+00 0.  1.
         11    1    1    2    0    0  0.49031053421E+02 -0.36360583501E+02  0.36277079270E+02  0.71008187644E+02  0.00000000000E+00 0. -1.
<mgrwt>
<rscale>  0 0.19991135E+03</rscale>
<asrwt>0</asrwt>
<pdfrwt beam="1">  1        2 0.10335229E+00 0.20445754E+03</pdfrwt>
<pdfrwt beam="2">  1       -2 0.12813630E-01 0.20445754E+03</pdfrwt>
<totfact> 0.19478581E+03</totfact>
</mgrwt>
</event>
<event>
 6    1  0.8165933E-006  0.2592929E+03  0.7546771E-02  0.1133776E+00
         -1   -1    0    0    0  501 -0.00000000000E+00  0.00000000000E+00  0.14445174385E+03  0.14445174385E+03  0.00000000000E+00 0.  1.
          1   -1    0    0  501    0  0.00000000000E+00 -0.00000000000E+00 -0.17001058965E+04  0.17001058965E+04  0.00000000000E+00 0. -1.
          5    1    1    2  502    0 -0.62959444345E+02  0.84686238862E+02 -0.10978902397E+04  0.11029599808E+04  0.47000000000E+01 0. -1.
         -5    1    1    2    0  502 -0.28057235183E+02 -0.12761585427E+03 -0.55835607872E+03  0.57346021253E+03  0.47000000000E+01 0.  1.
        -11    1    1    2    0    0  0.80800911210E+02  0.16744057827E+02  0.11087180358E+03  0.13820892719E+03  0.00000000000E+00 0.  1.
         11    1    1    2    0    0  0.10215768318E+02  0.26185557579E+02 -0.10279637765E+02  0.29928519854E+02  0.00000000000E+00 0. -1.
<mgrwt>
<rscale>  0 0.22014395E+03</rscale>
<asrwt>0</asrwt>
<pdfrwt beam="2">  1        1 0.26155476E+00 0.25929288E+03</pdfrwt>
<pdfrwt beam="1">  1       -1 0.22223345E-01 0.25929288E+03</pdfrwt>
<totfact> 0.90664311E+01</totfact>
</mgrwt>
</event>
<event>
 7    1  0.8165933E-006  0.1281198E+03  0.7546771E-02  0.1247495E+00
         -2   -1    0    0    0  501 -0.00000000000E+00  0.00000000000E+00  0.13579414880E+03  0.13579414880E+03  0.00000000000E+00 0.  1.
          2   -1    0    0  501    0  0.00000000000E+00 -0.00000000000E+00 -0.95601379132E+02  0.95601379132E+02  0.00000000000E+00 0. -1.
         23    2    1    2    0    0  0.24709949560E+02  0.13375000707E+02 -0.93249715181E+01  0.12845873889E+03  0.12500088101E+03 0.  0.
          5    1    3    3  502    0  0.43062870376E+02  0.16302204385E+02 -0.59130620600E+02  0.75091230949E+02  0.47000000000E+01 0. -1.
         -5    1    3    3    0  502 -0.18352920816E+02 -0.29272036779E+01  0.49805649082E+02  0.53367507946E+02  0.47000000000E+01 0. -1.
        -11    1    1    2    0    0  0.11894630973E+02 -0.35847487745E+01  0.61853036404E+02  0.63088277692E+02  0.00000000000E+00 0.  1.
         11    1    1    2    0    0 -0.36604580533E+02 -0.97902519321E+01 -0.12335295213E+02  0.39848511351E+02  0.00000000000E+00 0. -1.
<mgrwt>
<rscale>  0 0.11737263E+03</rscale>
<asrwt>0</asrwt>
<pdfrwt beam="2">  1        2 0.14707904E-01 0.12811984E+03</pdfrwt>
<pdfrwt beam="1">  1       -2 0.20891408E-01 0.12811984E+03</pdfrwt>
<totfact> 0.73193044E+03</totfact>
</mgrwt>
</event>
<event>
 7    1  0.8165933E-006  0.1336096E+03  0.7546771E-02  0.1234332E+00
          2   -1    0    0  501    0  0.00000000000E+00  0.00000000000E+00  0.48115055856E+03  0.48115055856E+03  0.00000000000E+00 0. -1.
         -2   -1    0    0    0  501 -0.00000000000E+00 -0.00000000000E+00 -0.30639197640E+02  0.30639197640E+02  0.00000000000E+00 0.  1.
         23    2    1    2    0    0 -0.29830409027E+02 -0.36555859229E+02  0.30499892845E+03  0.33298027005E+03  0.12500131895E+03 0.  0.
          5    1    3    3  502    0  0.34186042425E+02  0.96737803998E+01  0.19032369341E+03  0.19366844295E+03  0.47000000000E+01 0. -1.
         -5    1    3    3    0  502 -0.64016451451E+02 -0.46229639629E+02  0.11467523504E+03  0.13931182709E+03  0.47000000000E+01 0. -1.
        -11    1    1    2    0    0 -0.96231390795E+01  0.57842142587E+02  0.90631175045E+02  0.10794595015E+03  0.00000000000E+00 0.  1.
         11    1    1    2    0    0  0.39453548106E+02 -0.21286283358E+02  0.54881257430E+02  0.70863536000E+02  0.00000000000E+00 0. -1.
<mgrwt>
<rscale>  0 0.12547318E+03</rscale>
<asrwt>0</asrwt>
<pdfrwt beam="1">  1        2 0.74023157E-01 0.13360956E+03</pdfrwt>
<pdfrwt beam="2">  1       -2 0.47137231E-02 0.13360956E+03</pdfrwt>
<totfact> 0.13174927E+04</totfact>
</mgrwt>
</event>
<event>
 7    1  0.8165933E-006  0.1711299E+03  0.7546771E-02  0.1182885E+00
         -1   -1    0    0    0  501 -0.00000000000E+00  0.00000000000E+00  0.41590240688E+02  0.41590240688E+02  0.00000000000E+00 0.  1.
          1   -1    0    0  501    0  0.00000000000E+00 -0.00000000000E+00 -0.62363848107E+03  0.62363848107E+03  0.00000000000E+00 0. -1.
         23    2    1    2    0    0  0.35064952302E+02  0.11149395357E+03 -0.34927644201E+03  0.38894660249E+03  0.12499989634E+03 0.  0.
          5    1    3    3  502    0  0.21157816644E+02  0.11129762629E+03 -0.14465294612E+03  0.18379711544E+03  0.47000000000E+01 0. -1.
         -5    1    3    3    0  502  0.13907135658E+02  0.19632727817E+00 -0.20462349589E+03  0.20514948705E+03  0.47000000000E+01 0. -1.
        -11    1    1    2    0    0  0.12894692539E+02 -0.62314051498E+02 -0.17604834946E+03  0.18719598141E+03  0.00000000000E+00 0. -1.
         11    1    1    2    0    0 -0.47959644841E+02 -0.49179902073E+02 -0.56723448917E+02  0.89086137856E+02  0.00000000000E+00 0.  1.
<mgrwt>
<rscale>  0 0.16525851E+03</rscale>
<asrwt>0</asrwt>
<pdfrwt beam="2">  1        1 0.95944379E-01 0.17112985E+03</pdfrwt>
<pdfrwt beam="1">  1       -1 0.63984988E-02 0.17112985E+03</pdfrwt>
<totfact> 0.39591764E+03</totfact>
</mgrwt>
</event>
<event>
 7    1  0.8165933E-006  0.1369875E+03  0.7546771E-02  0.1229481E+00
          2   -1    0    0  501    0  0.00000000000E+00  0.00000000000E+00  0.39053592209E+03  0.39053592209E+03  0.00000000000E+00 0. -1.
         -2   -1    0    0    0  501 -0.00000000000E+00 -0.00000000000E+00 -0.38120138052E+02  0.38120138052E+02  0.00000000000E+00 0.  1.
         23    2    1    2    0    0  0.40873557088E+01  0.55900399129E+02  0.18457865866E+03  0.22985832303E+03  0.12499602527E+03 0.  0.
          5    1    3    3  502    0  0.77071568575E+01 -0.39780394878E+02  0.62588870691E+02  0.74708345035E+02  0.47000000000E+01 0.  1.
         -5    1    3    3    0  502 -0.36198011487E+01  0.95680794007E+02  0.12198978797E+03  0.15514997799E+03  0.47000000000E+01 0.  1.
        -11    1    1    2    0    0 -0.34217054609E+02 -0.27205064033E+02  0.25729366688E+02  0.50723984912E+02  0.00000000000E+00 0.  1.
         11    1    1    2    0    0  0.30129698900E+02 -0.28695335095E+02  0.14210775869E+03  0.14807375220E+03  0.00000000000E+00 0. -1.
<mgrwt>
<rscale>  0 0.12864445E+03</rscale>
<asrwt>0</asrwt>
<pdfrwt beam="1">  1        2 0.60082447E-01 0.13698747E+03</pdfrwt>
<pdfrwt beam="2">  1       -2 0.58646369E-02 0.13698747E+03</pdfrwt>
<totfact> 0.11895958E+04</totfact>
</mgrwt>
</event>
<event>
 7    1  0.8165933E-006  0.1811026E+03  0.7546771E-02  0.1171070E+00
         -1   -1    0    0    0  501 -0.00000000000E+00  0.00000000000E+00  0.97304332618E+02  0.97304332618E+02  0.00000000000E+00 0.  1.
          1   -1    0    0  501    0  0.00000000000E+00 -0.00000000000E+00 -0.33547278535E+03  0.33547278535E+03  0.00000000000E+00 0. -1.
         23    2    1    2    0    0  0.68194969916E+02 -0.11191554343E+03 -0.18855550657E+03  0.26144090486E+03  0.12499009918E+03 0.  0.
          5    1    3    3  502    0  0.10310119917E+03 -0.99849542147E+02 -0.15533227051E+03  0.21154194052E+03  0.47000000000E+01 0. -1.
         -5    1    3    3    0  502 -0.34906229253E+02 -0.12066001281E+02 -0.33223236058E+02  0.49898964335E+02  0.47000000000E+01 0. -1.
        -11    1    1    2    0    0 -0.20083232432E+02  0.69669133431E+02  0.21519274117E+02  0.75632027188E+02  0.00000000000E+00 0.  1.
         11    1    1    2    0    0 -0.48111737484E+02  0.42246409997E+02 -0.71132220279E+02  0.95704185923E+02  0.00000000000E+00 0. -1.
<mgrwt>
<rscale>  0 0.17666554E+03</rscale>
<asrwt>0</asrwt>
<pdfrwt beam="2">  1        1 0.51611196E-01 0.18110264E+03</pdfrwt>
<pdfrwt beam="1">  1       -1 0.14969898E-01 0.18110264E+03</pdfrwt>
<totfact> 0.24129712E+03</totfact>
</mgrwt>
</event>
<event>
 7    1  0.8165933E-006  0.2257359E+03  0.7546771E-02  0.1132756E+00
          2   -1    0    0  501    0  0.00000000000E+00  0.00000000000E+00  0.10762247009E+03  0.10762247009E+03  0.00000000000E+00 0. -1.
         -2   -1    0    0    0  501 -0.00000000000E+00 -0.00000000000E+00 -0.57522908414E+03  0.57522908414E+03  0.00000000000E+00 0.  1.
         23    2    1    2    0    0 -0.31431771869E+02  0.18532176737E+03 -0.74902732618E+02  0.23783841816E+03  0.12499832020E+03 0.  0.
          5    1    3    3  502    0  0.40019469836E+02  0.12547456345E+03 -0.52547588892E+02  0.14187587229E+03  0.47000000000E+01 0.  1.
         -5    1    3    3    0  502 -0.71451241705E+02  0.59847203921E+02 -0.22355143727E+02  0.95962545868E+02  0.47000000000E+01 0.  1.
        -11    1    1    2    0    0 -0.21753381517E+02 -0.11242980503E+03 -0.26463504355E+03  0.28834940080E+03  0.00000000000E+00 0.  1.
         11    1    1    2    0    0  0.53185153386E+02 -0.72891962345E+02 -0.12806883787E+03  0.15666373527E+03  0.00000000000E+00 0. -1.
<mgrwt>
<rscale>  0 0.22151847E+03</rscale>
<asrwt>0</asrwt>
<pdfrwt beam="1">  1        2 0.16557303E-01 0.22573589E+03</pdfrwt>
<pdfrwt beam="2">  1       -2 0.88496781E-01 0.22573589E+03</pdfrwt>
<totfact> 0.39382143E+02</totfact>
</mgrwt>
</event>
<event>
 7    1  0.8165933E-006  0.1254330E+03  0.7546771E-02  0.1249976E+00
          2   -1    0    0  501    0  0.00000000000E+00  0.00000000000E+00  0.87741398026E+03  0.87741398026E+03  0.00000000000E+00 0. -1.
         -2   -1    0    0    0  501 -0.00000000000E+00 -0.00000000000E+00 -0.26842402046E+02  0.26842402046E+02  0.00000000000E+00 0.  1.
         23    2    1    2    0    0 -0.97034830270E+01 -0.14896006103E+01  0.77638949761E+03  0.78645667076E+03  0.12504825664E+03 0.  0.
          5    1    3    3  502    0  0.37963733078E+02 -0.44606383947E+02  0.29727181344E+03  0.30302408417E+03  0.47000000000E+01 0.  1.
         -5    1    3    3    0  502 -0.47667216105E+02  0.43116783337E+02  0.47911768417E+03  0.48343258660E+03  0.47000000000E+01 0.  1.
        -11    1    1    2    0    0  0.27434679451E+02 -0.85877674207E+01 -0.10569422104E+02  0.30628811101E+02  0.00000000000E+00 0.  1.
         11    1    1    2    0    0 -0.17731196424E+02  0.10077368031E+02  0.84751502700E+02  0.87170900437E+02  0.00000000000E+00 0. -1.
<mgrwt>
<rscale>  0 0.11592422E+03</rscale>
<asrwt>0</asrwt>
<pdfrwt beam="1">  1        2 0.13498674E+00 0.12543302E+03</pdfrwt>
<pdfrwt beam="2">  1       -2 0.41296010E-02 0.12543302E+03</pdfrwt>
<totfact> 0.79163091E+03</totfact>
</mgrwt>
</event>
<event>
 6    1  0.8165933E-006  0.1750184E+03  0.7546771E-02  0.1199056E+00
         -2   -1    0    0    0  501 -0.00000000000E+00  0.00000000000E+00  0.56692188906E+02  0.56692188906E+02  0.00000000000E+00 0.  1.
          2   -1    0    0  501    0  0.00000000000E+00 -0.00000000000E+00 -0.34731810388E+03  0.34731810388E+03  0.00000000000E+00 0. -1.
          5    1    1    2  502    0  0.94265712995E+02 -0.40736086285E+02 -0.14327669377E+03  0.17633988304E+03  0.47000000000E+01 0. -1.
         -5    1    1    2    0  502 -0.55704020126E+02  0.45345580863E+02 -0.87750100055E+02  0.11349594540E+03  0.47000000000E+01 0.  1.
        -11    1    1    2    0    0  0.25331991794E+02  0.10632921167E+02 -0.33911897029E+02  0.43643849291E+02  0.00000000000E+00 0. -1.
         11    1    1    2    0    0 -0.63893684663E+02 -0.15242415746E+02 -0.25687224119E+02  0.70530615059E+02  0.00000000000E+00 0.  1.
<mgrwt>
<rscale>  0 0.15115943E+03</rscale>
<asrwt>0</asrwt>
<pdfrwt beam="2">  1        2 0.53433554E-01 0.17501836E+03</pdfrwt>
<pdfrwt beam="1">  1       -2 0.87218753E-02 0.17501836E+03</pdfrwt>
<totfact> 0.74462738E+03</totfact>
</mgrwt>
</event>
<event>
 7    1  0.8165933E-006  0.1384326E+03  0.7546771E-02  0.1226038E+00
          1   -1    0    0  501    0  0.00000000000E+00  0.00000000000E+00  0.73373206351E+03  0.73373206351E+03  0.00000000000E+00 0. -1.
         -1   -1    0    0    0  501 -0.00000000000E+00 -0.00000000000E+00 -0.21178190722E+02  0.21178190722E+02  0.00000000000E+00 0.  1.
         23    2    1    2    0    0 -0.51519270681E+02  0.29733878493E+02  0.39721538602E+03  0.42064668968E+03  0.12500094344E+03 0.  0.
          5    1    3    3  502    0 -0.71146105126E+02  0.60816314595E+02  0.33833614981E+03  0.35107525213E+03  0.47000000000E+01 0.  1.
         -5    1    3    3    0  502  0.19626834445E+02 -0.31082436101E+02  0.58879236216E+02  0.69571437543E+02  0.47000000000E+01 0.  1.
        -11    1    1    2    0    0 -0.16872934837E+02  0.82607398055E+01  0.15408411757E+02  0.24297220109E+02  0.00000000000E+00 0.  1.
         11    1    1    2    0    0  0.68392205518E+02 -0.37994618299E+02  0.29993007501E+03  0.30996634445E+03  0.00000000000E+00 0. -1.
<mgrwt>
<rscale>  0 0.13096020E+03</rscale>
<asrwt>0</asrwt>
<pdfrwt beam="1">  1        1 0.11288184E+00 0.13843256E+03</pdfrwt>
<pdfrwt beam="2">  1       -1 0.32581838E-02 0.13843256E+03</pdfrwt>
<totfact> 0.84461625E+03</totfact>
</mgrwt>
</event>
<event>
 7    1  0.8165933E-006  0.1523968E+03  0.7546771E-02  0.1202457E+00
          1   -1    0    0  501    0  0.00000000000E+00  0.00000000000E+00  0.31563772143E+03  0.31563772143E+03  0.00000000000E+00 0. -1.
         -1   -1    0    0    0  501 -0.00000000000E+00 -0.00000000000E+00 -0.66360421549E+02  0.66360421549E+02  0.00000000000E+00 0.  1.
         23    2    1    2    0    0  0.96276423832E+02  0.31233900184E+02  0.12803243094E+03  0.19904044380E+03  0.11393019174E+03 0.  0.
          5    1    3    3  502    0 -0.93689368785E+01  0.41653113566E+02  0.56383263738E+02  0.70879625265E+02  0.47000000000E+01 0. -1.
         -5    1    3    3    0  502  0.10564536071E+03 -0.10419213382E+02  0.71649167197E+02  0.12816081853E+03  0.47000000000E+01 0.  1.
        -11    1    1    2    0    0 -0.10391108776E+03 -0.34960761366E+01  0.11181162146E+03  0.15268128701E+03  0.00000000000E+00 0. -1.
         11    1    1    2    0    0  0.76346639273E+01 -0.27737824047E+02  0.94332474847E+01  0.30276412176E+02  0.00000000000E+00 0.  1.
<mgrwt>
<rscale>  0 0.14839670E+03</rscale>
<asrwt>0</asrwt>
<pdfrwt beam="1">  1        1 0.48559649E-01 0.15239683E+03</pdfrwt>
<pdfrwt beam="2">  1       -1 0.10209296E-01 0.15239683E+03</pdfrwt>
<totfact> 0.46860462E+03</totfact>
</mgrwt>
</event>
<event>
 7    1  0.8165933E-006  0.2060733E+03  0.7546771E-02  0.1148771E+00
          1   -1    0    0  501    0  0.00000000000E+00  0.00000000000E+00  0.27348324120E+03  0.27348324120E+03  0.00000000000E+00 0. -1.
         -1   -1    0    0    0  501 -0.00000000000E+00 -0.00000000000E+00 -0.15494100940E+03  0.15494100940E+03  0.00000000000E+00 0.  1.
         23    2    1    2    0    0  0.13109883197E+03 -0.98242936326E+02  0.12538000585E+03  0.24121849955E+03  0.12501056106E+03 0.  0.
          5    1    3    3  502    0  0.12809743428E+03 -0.58033836974E+02  0.13959628238E+03  0.19820719200E+03  0.47000000000E+01 0.  1.
         -5    1    3    3    0  502  0.30013976853E+01 -0.40209099352E+02 -0.14216276537E+02  0.43011307552E+02  0.47000000000E+01 0.  1.
        -11    1    1    2    0    0 -0.10670028415E+03  0.11350889005E+03  0.55209509315E+01  0.15588360933E+03  0.00000000000E+00 0. -1.
         11    1    1    2    0    0 -0.24398547813E+02 -0.15265953728E+02 -0.12358724986E+02  0.31322141720E+02  0.00000000000E+00 0.  1.
<mgrwt>
<rscale>  0 0.20115168E+03</rscale>
<asrwt>0</asrwt>
<pdfrwt beam="1">  1        1 0.42074345E-01 0.20607333E+03</pdfrwt>
<pdfrwt beam="2">  1       -1 0.23837078E-01 0.20607333E+03</pdfrwt>
<totfact> 0.14772226E+03</totfact>
</mgrwt>
</event>
<event>
 7    1  0.8165933E-006  0.1276197E+03  0.7546771E-02  0.1246522E+00
         -3   -1    0    0    0  501 -0.00000000000E+00  0.00000000000E+00  0.49979141991E+02  0.49979141991E+02  0.00000000000E+00 0.  1.
          3   -1    0    0  501    0  0.00000000000E+00 -0.00000000000E+00 -0.26712388651E+03  0.26712388651E+03  0.00000000000E+00 0. -1.
         23    2    1    2    0    0 -0.81111709708E+01 -0.24418044036E+02 -0.17047020450E+03  0.21294803747E+03  0.12499897629E+03 0.  0.
          5    1    3    3  502    0 -0.26616709705E+02  0.16342012151E+02  0.48385878493E+01  0.31953286671E+02  0.47000000000E+01 0. -1.
         -5    1    3    3    0  502  0.18505538734E+02 -0.40760056187E+02 -0.17530879234E+03  0.18099475080E+03  0.47000000000E+01 0. -1.
        -11    1    1    2    0    0 -0.39191824246E+02  0.23168903635E+02 -0.18971252032E+02  0.49322465338E+02  0.00000000000E+00 0.  1.
         11    1    1    2    0    0  0.47302995217E+02  0.12491404004E+01 -0.27703287995E+02  0.54832525694E+02  0.00000000000E+00 0. -1.
<mgrwt>
<rscale>  0 0.11794757E+03</rscale>
<asrwt>0</asrwt>
<pdfrwt beam="2">  1        3 0.41095982E-01 0.12761965E+03</pdfrwt>
<pdfrwt beam="1">  1       -3 0.76890988E-02 0.12761965E+03</pdfrwt>
<totfact> 0.15257137E+03</totfact>
</mgrwt>
</event>
<event>
 7    1  0.8165933E-006  0.1671147E+03  0.7546771E-02  0.1187486E+00
         -4   -1    0    0    0  501 -0.00000000000E+00  0.00000000000E+00  0.36378223812E+02  0.36378223812E+02  0.00000000000E+00 0.  1.
          4   -1    0    0  501    0  0.00000000000E+00 -0.00000000000E+00 -0.70061663857E+03  0.70061663857E+03  0.00000000000E+00 0. -1.
         23    2    1    2    0    0  0.78506952731E+02  0.78351248986E+02 -0.43676415246E+03  0.46764328005E+03  0.12500021062E+03 0.  0.
          5    1    3    3  502    0  0.41251817257E+02  0.96271850278E+02 -0.18654664998E+03  0.21399000958E+03  0.47000000000E+01 0. -1.
         -5    1    3    3    0  502  0.37255135475E+02 -0.17920601292E+02 -0.25021750248E+03  0.25365327047E+03  0.47000000000E+01 0. -1.
        -11    1    1    2    0    0 -0.75442459300E+02 -0.26537955839E+02 -0.80462230656E+02  0.11344601504E+03  0.00000000000E+00 0. -1.
         11    1    1    2    0    0 -0.30644934312E+01 -0.51813293147E+02 -0.14701203164E+03  0.15590556730E+03  0.00000000000E+00 0.  1.
<mgrwt>
<rscale>  0 0.16107710E+03</rscale>
<asrwt>0</asrwt>
<pdfrwt beam="2">  1        4 0.10778717E+00 0.16711467E+03</pdfrwt>
<pdfrwt beam="1">  1       -4 0.55966500E-02 0.16711467E+03</pdfrwt>
<totfact> 0.24676063E+02</totfact>
</mgrwt>
</event>
<event>
 7    1  0.8165933E-006  0.1537013E+03  0.7546771E-02  0.1215103E+00
         -1   -1    0    0    0  501 -0.00000000000E+00  0.00000000000E+00  0.27924733668E+02  0.27924733668E+02  0.00000000000E+00 0.  1.
          1   -1    0    0  501    0  0.00000000000E+00 -0.00000000000E+00 -0.63896035642E+03  0.63896035642E+03  0.00000000000E+00 0. -1.
         23    2    1    2    0    0 -0.43976423709E+02  0.77869860922E+02 -0.45738350252E+03  0.48251814899E+03  0.12500581841E+03 0.  0.
          5    1    3    3  502    0  0.12896099543E+02  0.66596464272E+02 -0.10318159128E+03  0.12357155504E+03  0.47000000000E+01 0.  1.
         -5    1    3    3    0  502 -0.56872523252E+02  0.11273396651E+02 -0.35420191125E+03  0.35894659394E+03  0.47000000000E+01 0.  1.
        -11    1    1    2    0    0  0.39422468711E+02 -0.62070047298E+02 -0.15067067178E+03  0.16765581752E+03  0.00000000000E+00 0. -1.
         11    1    1    2    0    0  0.45539549986E+01 -0.15799813624E+02 -0.29814484437E+01  0.16711123586E+02  0.00000000000E+00 0.  1.
<mgrwt>
<rscale>  0 0.13868974E+03</rscale>
<asrwt>0</asrwt>
<pdfrwt beam="2">  1        1 0.98301588E-01 0.15370132E+03</pdfrwt>
<pdfrwt beam="1">  1       -1 0.42961131E-02 0.15370132E+03</pdfrwt>
<totfact> 0.68925465E+03</totfact>
</mgrwt>
</event>
<event>
 7    1  0.8165933E-006  0.1370861E+03  0.7546771E-02  0.1229211E+00
          1   -1    0    0  501    0  0.00000000000E+00  0.00000000000E+00  0.41853355704E+02  0.41853355704E+02  0.00000000000E+00 0. -1.
         -1   -1    0    0    0  501 -0.00000000000E+00 -0.00000000000E+00 -0.36361927323E+03  0.36361927323E+03  0.00000000000E+00 0.  1.
         23    2    1    2    0    0  0.54577988785E+02 -0.13751587025E+02 -0.15047222374E+03  0.20355463141E+03  0.12499893938E+03 0.  0.
          5    1    3    3  502    0  0.41389838684E+02 -0.42194881239E+02 -0.10722753061E+02  0.60254412140E+02  0.47000000000E+01 0. -1.
         -5    1    3    3    0  502  0.13188150100E+02  0.28443294215E+02 -0.13974947068E+03  0.14330021927E+03  0.47000000000E+01 0. -1.
        -11    1    1    2    0    0 -0.28319900910E+02  0.52347662558E+02 -0.10739097435E+03  0.12278076370E+03  0.00000000000E+00 0.  1.
         11    1    1    2    0    0 -0.26258087874E+02 -0.38596075533E+02 -0.63902719437E+02  0.79137233821E+02  0.00000000000E+00 0. -1.
<mgrwt>
<rscale>  0 0.12882428E+03</rscale>
<asrwt>0</asrwt>
<pdfrwt beam="1">  1        1 0.64389775E-02 0.13708610E+03</pdfrwt>
<pdfrwt beam="2">  1       -1 0.55941429E-01 0.13708610E+03</pdfrwt>
<totfact> 0.37419258E+03</totfact>
</mgrwt>
</event>
<event>
 7    1  0.8165933E-006  0.1484391E+03  0.7546771E-02  0.1211561E+00
         -4   -1    0    0    0  501 -0.00000000000E+00  0.00000000000E+00  0.56282228997E+03  0.56282228997E+03  0.00000000000E+00 0. -1.
          4   -1    0    0  501    0  0.00000000000E+00 -0.00000000000E+00 -0.33159036940E+02  0.33159036940E+02  0.00000000000E+00 0.  1.
         23    2    1    2    0    0  0.35229575649E+02 -0.71808064539E+02  0.24765915668E+03  0.28873727131E+03  0.12504652264E+03 0.  0.
          5    1    3    3  502    0  0.27296904880E+02  0.71898722041E+01 -0.41495940886E-02  0.28616521374E+02  0.47000000000E+01 0. -1.
         -5    1    3    3    0  502  0.79326707689E+01 -0.78997936744E+02  0.24766330627E+03  0.26012074994E+03  0.47000000000E+01 0. -1.
        -11    1    1    2    0    0 -0.59708916419E+00  0.81227711632E+02  0.15159739232E+03  0.17198856651E+03  0.00000000000E+00 0.  1.
         11    1    1    2    0    0 -0.34632486485E+02 -0.94196470924E+01  0.13040670403E+03  0.13525548908E+03  0.00000000000E+00 0. -1.
<mgrwt>
<rscale>  0 0.14132191E+03</rscale>
<asrwt>0</asrwt>
<pdfrwt beam="2">  1        4 0.51013907E-02 0.14843906E+03</pdfrwt>
<pdfrwt beam="1">  1       -4 0.86588038E-01 0.14843906E+03</pdfrwt>
<totfact> 0.46510717E+02</totfact>
</mgrwt>
</event>
<event>
 7    1  0.8165933E-006  0.1294390E+03  0.7546771E-02  0.1240485E+00
          1   -1    0    0  501    0  0.00000000000E+00  0.00000000000E+00  0.46115389593E+03  0.46115389593E+03  0.00000000000E+00 0.  1.
         -1   -1    0    0    0  501 -0.00000000000E+00 -0.00000000000E+00 -0.34219728563E+02  0.34219728563E+02  0.00000000000E+00 0. -1.
         23    2    1    2    0    0 -0.32987478516E+02 -0.65741857322E+01  0.33422964673E+03  0.35841863055E+03  0.12499225702E+03 0.  0.
          5    1    3    3  502    0  0.28819603098E+02  0.17839540632E+02  0.25743763219E+02  0.42821140542E+02  0.47000000000E+01 0. -1.
         -5    1    3    3    0  502 -0.61807081614E+02 -0.24413726364E+02  0.30848588351E+03  0.31559749001E+03  0.47000000000E+01 0. -1.
        -11    1    1    2    0    0  0.46389638625E+02  0.16666308148E+02  0.10510689377E+03  0.11609144463E+03  0.00000000000E+00 0.  1.
         11    1    1    2    0    0 -0.13402160110E+02 -0.10092122416E+02 -0.12402373134E+02  0.20863549310E+02  0.00000000000E+00 0. -1.
<mgrwt>
<rscale>  0 0.12159737E+03</rscale>
<asrwt>0</asrwt>
<pdfrwt beam="1">  1        1 0.70946749E-01 0.12943901E+03</pdfrwt>
<pdfrwt beam="2">  1       -1 0.52645739E-02 0.12943901E+03</pdfrwt>
<totfact> 0.77991643E+03</totfact>
</mgrwt>
</event>
<event>
 7    1  0.8165933E-006  0.1253014E+03  0.7546771E-02  0.1250103E+00
         -2   -1    0    0    0  501 -0.00000000000E+00  0.00000000000E+00  0.20797917570E+02  0.20797917570E+02  0.00000000000E+00 0.  1.
          2   -1    0    0  501    0  0.00000000000E+00 -0.00000000000E+00 -0.71018847832E+03  0.71018847832E+03  0.00000000000E+00 0. -1.
         23    2    1    2    0    0 -0.68641188522E+01 -0.53286082623E+01 -0.55084531518E+03  0.56491680142E+03  0.12499968430E+03 0.  0.
          5    1    3    3  502    0 -0.41969146542E+01  0.43855153475E+02 -0.79754578341E+02  0.91234704719E+02  0.47000000000E+01 0. -1.
         -5    1    3    3    0  502 -0.26672041981E+01 -0.49183761737E+02 -0.47109073684E+03  0.47368209670E+03  0.47000000000E+01 0. -1.
        -11    1    1    2    0    0  0.42216416258E+02 -0.11355264312E+02 -0.37045161154E+02  0.57301935344E+02  0.00000000000E+00 0.  1.
         11    1    1    2    0    0 -0.35352297406E+02  0.16683872575E+02 -0.10150008441E+03  0.10876765912E+03  0.00000000000E+00 0. -1.
<mgrwt>
<rscale>  0 0.11585115E+03</rscale>
<asrwt>0</asrwt>
<pdfrwt beam="2">  1        2 0.10925978E+00 0.12530136E+03</pdfrwt>
<pdfrwt beam="1">  1       -2 0.31996793E-02 0.12530136E+03</pdfrwt>
<totfact> 0.14981760E+04</totfact>
</mgrwt>
</event>
<event>
 7    1  0.8165933E-006  0.1634123E+03  0.7546771E-02  0.1192299E+00
         -2   -1    0    0    0  501 -0.00000000000E+00  0.00000000000E+00  0.40212630101E+02  0.40212630101E+02  0.00000000000E+00 0.  1.
          2   -1    0    0  501    0  0.00000000000E+00 -0.00000000000E+00 -0.70297352708E+03  0.70297352708E+03  0.00000000000E+00 0. -1.
         23    2    1    2    0    0 -0.21537136661E+02 -0.10302381619E+03 -0.51597500281E+03  0.54123356394E+03  0.12500324897E+03 0.  0.
          5    1    3    3  502    0  0.16641580230E+02  0.72555340710E+01 -0.86751563573E+01  0.20662364459E+02  0.47000000000E+01 0. -1.
         -5    1    3    3    0  502 -0.38178716892E+02 -0.11027935026E+03 -0.50729984645E+03  0.52057119948E+03  0.47000000000E+01 0. -1.
        -11    1    1    2    0    0  0.50064522535E+01  0.75408969399E+02 -0.30844442383E+02  0.81626937072E+02  0.00000000000E+00 0.  1.
         11    1    1    2    0    0  0.16530684408E+02  0.27614846792E+02 -0.11594145179E+03  0.12032565617E+03  0.00000000000E+00 0. -1.
<mgrwt>
<rscale>  0 0.15685039E+03</rscale>
<asrwt>0</asrwt>
<pdfrwt beam="2">  1        2 0.10814977E+00 0.16341226E+03</pdfrwt>
<pdfrwt beam="1">  1       -2 0.61865586E-02 0.16341226E+03</pdfrwt>
<totfact> 0.57468356E+03</totfact>
</mgrwt>
</event>
<event>
 7    1  0.8165933E-006  0.1954781E+03  0.7546771E-02  0.1158158E+00
         -1   -1    0    0    0  501 -0.00000000000E+00  0.00000000000E+00  0.49474038410E+02  0.49474038410E+02  0.00000000000E+00 0.  1.
          1   -1    0    0  501    0  0.00000000000E+00 -0.00000000000E+00 -0.69985785116E+03  0.69985785116E+03  0.00000000000E+00 0. -1.
         23    2    1    2    0    0 -0.23691430583E+02  0.14821526799E+03 -0.36934784500E+03  0.41788696176E+03  0.12523031844E+03 0.  0.
          5    1    3    3  502    0 -0.21781814236E+02 -0.17198793219E+02 -0.76481143287E+02  0.81496633048E+02  0.47000000000E+01 0. -1.
         -5    1    3    3    0  502 -0.19096163469E+01  0.16541406121E+03 -0.29286670172E+03  0.33639032872E+03  0.47000000000E+01 0. -1.
        -11    1    1    2    0    0 -0.24743993759E+02 -0.82582278925E+02 -0.19327297092E+03  0.21162830460E+03  0.00000000000E+00 0. -1.
         11    1    1    2    0    0  0.48435424342E+02 -0.65632989065E+02 -0.87762996833E+02  0.11981662321E+03  0.00000000000E+00 0.  1.
<mgrwt>
<rscale>  0 0.19033716E+03</rscale>
<asrwt>0</asrwt>
<pdfrwt beam="2">  1        1 0.10767043E+00 0.19547809E+03</pdfrwt>
<pdfrwt beam="1">  1       -1 0.76113914E-02 0.19547809E+03</pdfrwt>
<totfact> 0.25975073E+03</totfact>
</mgrwt>
</event>
<event>
 7    1  0.8165933E-006  0.1595126E+03  0.7546771E-02  0.1197208E+00
         -1   -1    0    0    0  501 -0.00000000000E+00  0.00000000000E+00  0.14574549789E+02  0.14574549789E+02  0.00000000000E+00 0.  1.
          1   -1    0    0  501    0  0.00000000000E+00 -0.00000000000E+00 -0.15371531847E+04  0.15371531847E+04  0.00000000000E+00 0. -1.
         23    2    1    2    0    0 -0.64267199507E+02  0.75406900470E+02 -0.97811708156E+03  0.99103848679E+03  0.12501113344E+03 0.  0.
          5    1    3    3  502    0 -0.64938496397E+02  0.71680748012E+02 -0.35723590004E+03  0.37012797277E+03  0.47000000000E+01 0.  1.
         -5    1    3    3    0  502  0.67129688997E+00  0.37261524576E+01 -0.62088118152E+03  0.62091051402E+03  0.47000000000E+01 0.  1.
        -11    1    1    2    0    0 -0.35495627470E+01 -0.65030555308E+02 -0.25045435073E+03  0.25878360520E+03  0.00000000000E+00 0. -1.
         11    1    1    2    0    0  0.67816762254E+02 -0.10376345162E+02 -0.29400720258E+03  0.30190564246E+03  0.00000000000E+00 0.  1.
<mgrwt>
<rscale>  0 0.15268837E+03</rscale>
<asrwt>0</asrwt>
<pdfrwt beam="2">  1        1 0.23648531E+00 0.15951256E+03</pdfrwt>
<pdfrwt beam="1">  1       -1 0.22422365E-02 0.15951256E+03</pdfrwt>
<totfact> 0.38859641E+03</totfact>
</mgrwt>
</event>
<event>
 7    1  0.8165933E-006  0.1669450E+03  0.7546771E-02  0.1189772E+00
          1   -1    0    0  501    0  0.00000000000E+00  0.00000000000E+00  0.50929498445E+03  0.50929498445E+03  0.00000000000E+00 0. -1.
         -1   -1    0    0    0  501 -0.00000000000E+00 -0.00000000000E+00 -0.48931267861E+02  0.48931267861E+02  0.00000000000E+00 0.  1.
         23    2    1    2    0    0  0.84963668714E+02  0.70899232433E+02  0.32434447848E+03  0.36478759590E+03  0.12500049296E+03 0.  0.
          5    1    3    3  502    0  0.94462251082E+02  0.92126520150E+02  0.31028722617E+03  0.33721012043E+03  0.47000000000E+01 0. -1.
         -5    1    3    3    0  502 -0.94985823672E+01 -0.21227287717E+02  0.14057252307E+02  0.27577475469E+02  0.47000000000E+01 0. -1.
        -11    1    1    2    0    0 -0.45450142336E+01 -0.14084833177E+02  0.77494914964E+02  0.78895510172E+02  0.00000000000E+00 0.  1.
         11    1    1    2    0    0 -0.80418654481E+02 -0.56814399256E+02  0.58524323147E+02  0.11454314624E+03  0.00000000000E+00 0. -1.
<mgrwt>
<rscale>  0 0.15905140E+03</rscale>
<asrwt>0</asrwt>
<pdfrwt beam="1">  1        1 0.78353071E-01 0.16694505E+03</pdfrwt>
<pdfrwt beam="2">  1       -1 0.75278877E-02 0.16694505E+03</pdfrwt>
<totfact> 0.40701808E+03</totfact>
</mgrwt>
</event>
<event>
 7    1  0.8165933E-006  0.1325807E+03  0.7546771E-02  0.1237526E+00
          3   -1    0    0  501    0  0.00000000000E+00  0.00000000000E+00  0.40162142910E+02  0.40162142910E+02  0.00000000000E+00 0. -1.
         -3   -1    0    0    0  501 -0.00000000000E+00 -0.00000000000E+00 -0.34883853942E+03  0.34883853942E+03  0.00000000000E+00 0.  1.
         23    2    1    2    0    0 -0.43710216564E+01  0.43971893649E+02 -0.13796351736E+03  0.19134154579E+03  0.12500008705E+03 0.  0.
          5    1    3    3  502    0  0.75288303605E+01  0.40025921196E+02 -0.16021225480E+03  0.16537476906E+03  0.47000000000E+01 0. -1.
         -5    1    3    3    0  502 -0.11899852017E+02  0.39459724525E+01  0.22248737432E+02  0.25966776734E+02  0.47000000000E+01 0. -1.
        -11    1    1    2    0    0 -0.23083679080E+02  0.25562642492E+01 -0.12425333478E+03  0.12640522904E+03  0.00000000000E+00 0.  1.
         11    1    1    2    0    0  0.27454700736E+02 -0.46528157898E+02 -0.46459544365E+02  0.71253907490E+02  0.00000000000E+00 0. -1.
<mgrwt>
<rscale>  0 0.12344073E+03</rscale>
<asrwt>0</asrwt>
<pdfrwt beam="1">  1        3 0.61787912E-02 0.13258075E+03</pdfrwt>
<pdfrwt beam="2">  1       -3 0.53667468E-01 0.13258075E+03</pdfrwt>
<totfact> 0.12889138E+03</totfact>
</mgrwt>
</event>
<event>
 7    1  0.8165933E-006  0.1542427E+03  0.7546771E-02  0.1204101E+00
         -2   -1    0    0    0  501 -0.00000000000E+00  0.00000000000E+00  0.32913234472E+02  0.32913234472E+02  0.00000000000E+00 0.  1.
          2   -1    0    0  501    0  0.00000000000E+00 -0.00000000000E+00 -0.84967717824E+03  0.84967717824E+03  0.00000000000E+00 0. -1.
         23    2    1    2    0    0 -0.90035435097E+02  0.76875914203E+01 -0.67279980829E+03  0.69025385977E+03  0.12500132105E+03 0.  0.
          5    1    3    3  502    0 -0.97888671483E+02 -0.38233792234E+02 -0.40783464834E+03  0.42118310182E+03  0.47000000000E+01 0.  1.
         -5    1    3    3    0  502  0.78532363862E+01  0.45921383654E+02 -0.26496515995E+03  0.26907075796E+03  0.47000000000E+01 0.  1.
        -11    1    1    2    0    0  0.49283260142E+02 -0.48211024449E+02 -0.91126016644E+02  0.11426763986E+03  0.00000000000E+00 0. -1.
         11    1    1    2    0    0  0.40752174954E+02  0.40523433029E+02 -0.52838118839E+02  0.78068913086E+02  0.00000000000E+00 0.  1.
<mgrwt>
<rscale>  0 0.14708526E+03</rscale>
<asrwt>0</asrwt>
<pdfrwt beam="2">  1        2 0.13071954E+00 0.15424269E+03</pdfrwt>
<pdfrwt beam="1">  1       -2 0.50635754E-02 0.15424269E+03</pdfrwt>
<totfact> 0.61429884E+03</totfact>
</mgrwt>
</event>
<event>
 7    1  0.8165933E-006  0.2052517E+03  0.7546771E-02  0.1149391E+00
         -2   -1    0    0    0  501 -0.00000000000E+00  0.00000000000E+00  0.42755226013E+02  0.42755226013E+02  0.00000000000E+00 0.  1.
          2   -1    0    0  501    0  0.00000000000E+00 -0.00000000000E+00 -0.10872571928E+04  0.10872571928E+04  0.00000000000E+00 0. -1.
         23    2    1    2    0    0  0.13600574739E+03  0.89476525392E+02 -0.77850682884E+03  0.80510940639E+03  0.12499864712E+03 0.  0.
          5    1    3    3  502    0 -0.11437671720E+02  0.46933794201E+02 -0.13251599196E+03  0.14112469486E+03  0.47000000000E+01 0. -1.
         -5    1    3    3    0  502  0.14744341911E+03  0.42542731191E+02 -0.64599083687E+03  0.66398471153E+03  0.47000000000E+01 0. -1.
        -11    1    1    2    0    0 -0.54459011060E+02 -0.81139260788E+02 -0.18735667431E+03  0.21130993099E+03  0.00000000000E+00 0. -1.
         11    1    1    2    0    0 -0.81546736335E+02 -0.83372646044E+01 -0.78638463656E+02  0.11359308145E+03  0.00000000000E+00 0.  1.
<mgrwt>
<rscale>  0 0.20041299E+03</rscale>
<asrwt>0</asrwt>
<pdfrwt beam="2">  1        2 0.16727033E+00 0.20525173E+03</pdfrwt>
<pdfrwt beam="1">  1       -2 0.65777272E-02 0.20525173E+03</pdfrwt>
<totfact> 0.29691083E+03</totfact>
</mgrwt>
</event>
<event>
 7    1  0.8165933E-006  0.1368356E+03  0.7546771E-02  0.1229724E+00
         -4   -1    0    0    0  501 -0.00000000000E+00  0.00000000000E+00  0.24146916366E+03  0.24146916366E+03  0.00000000000E+00 0.  1.
          4   -1    0    0  501    0  0.00000000000E+00 -0.00000000000E+00 -0.11384742800E+03  0.11384742800E+03  0.00000000000E+00 0. -1.
         23    2    1    2    0    0  0.30703360464E+02 -0.46400965812E+02 -0.52150167356E+02  0.14643643180E+03  0.12501296985E+03 0.  0.
          5    1    3    3  502    0 -0.15201398575E+02 -0.67731843645E+02 -0.63669646681E+02  0.94311182109E+02  0.47000000000E+01 0.  1.
         -5    1    3    3    0  502  0.45904759038E+02  0.21330877833E+02  0.11519479325E+02  0.52125249692E+02  0.47000000000E+01 0.  1.
        -11    1    1    2    0    0  0.20706952122E+02  0.44103993263E+02  0.12277011171E+03  0.13208497423E+03  0.00000000000E+00 0.  1.
         11    1    1    2    0    0 -0.51410312586E+02  0.22969725493E+01  0.57001791315E+02  0.76795185631E+02  0.00000000000E+00 0. -1.
<mgrwt>
<rscale>  0 0.12848326E+03</rscale>
<asrwt>0</asrwt>
<pdfrwt beam="2">  1        4 0.17514989E-01 0.13683563E+03</pdfrwt>
<pdfrwt beam="1">  1       -4 0.37149102E-01 0.13683563E+03</pdfrwt>
<totfact> 0.33576939E+02</totfact>
</mgrwt>
</event>
<event>
 7    1  0.8165933E-006  0.1645051E+03  0.7546771E-02  0.1191241E+00
          1   -1    0    0  501    0  0.00000000000E+00  0.00000000000E+00  0.99185684954E+02  0.99185684954E+02  0.00000000000E+00 0. -1.
         -1   -1    0    0    0  501 -0.00000000000E+00 -0.00000000000E+00 -0.23725530674E+03  0.23725530674E+03  0.00000000000E+00 0.  1.
         23    2    1    2    0    0 -0.96876716554E+02 -0.45530138073E+02 -0.50770477756E+02  0.17216151069E+03  0.12491538203E+03 0.  0.
          5    1    3    3  502    0 -0.10869661976E+03 -0.45605227429E+02 -0.78467700338E+02  0.14168296268E+03  0.47000000000E+01 0. -1.
         -5    1    3    3    0  502  0.11819903209E+02  0.75089356511E-01  0.27697222582E+02  0.30478548014E+02  0.47000000000E+01 0. -1.
        -11    1    1    2    0    0 -0.55279917942E+01  0.28606423336E+02 -0.41797527855E+02  0.50950166675E+02  0.00000000000E+00 0.  1.
         11    1    1    2    0    0  0.10240470835E+03  0.16923714736E+02 -0.45501616178E+02  0.11332931433E+03  0.00000000000E+00 0. -1.
<mgrwt>
<rscale>  0 0.15776705E+03</rscale>
<asrwt>0</asrwt>
<pdfrwt beam="1">  1        1 0.15259336E-01 0.16450515E+03</pdfrwt>
<pdfrwt beam="2">  1       -1 0.36500816E-01 0.16450515E+03</pdfrwt>
<totfact> 0.25845894E+03</totfact>
</mgrwt>
</event>
<event>
 7    1  0.8165933E-006  0.2940494E+03  0.7546771E-02  0.1089916E+00
         -2   -1    0    0    0  501 -0.00000000000E+00  0.00000000000E+00  0.26355501467E+03  0.26355501467E+03  0.00000000000E+00 0.  1.
          2   -1    0    0  501    0  0.00000000000E+00 -0.00000000000E+00 -0.44058586994E+03  0.44058586994E+03  0.00000000000E+00 0. -1.
         23    2    1    2    0    0  0.25350918835E+03  0.81084437546E+02 -0.27851659577E+03  0.40501426652E+03  0.12499386934E+03 0.  0.
          5    1    3    3  502    0  0.80326281813E+02  0.92869707956E+01 -0.17008957377E+03  0.18839085031E+03  0.47000000000E+01 0.  1.
         -5    1    3    3    0  502  0.17318290654E+03  0.71797466750E+02 -0.10842702201E+03  0.21662341621E+03  0.47000000000E+01 0.  1.
        -11    1    1    2    0    0 -0.13913460460E+03  0.32283019077E+01  0.45839532283E+02  0.14652686734E+03  0.00000000000E+00 0.  1.
         11    1    1    2    0    0 -0.11437458375E+03 -0.84312739453E+02  0.55646208214E+02  0.15259975075E+03  0.00000000000E+00 0. -1.
<mgrwt>
<rscale>  0 0.29083079E+03</rscale>
<asrwt>0</asrwt>
<pdfrwt beam="2">  1        2 0.67782442E-01 0.29404942E+03</pdfrwt>
<pdfrwt beam="1">  1       -2 0.40546925E-01 0.29404942E+03</pdfrwt>
<totfact> 0.41849086E+02</totfact>
</mgrwt>
</event>
<event>
 7    1  0.8165933E-006  0.1759835E+03  0.7546771E-02  0.1177999E+00
         -2   -1    0    0    0  501 -0.00000000000E+00  0.00000000000E+00  0.41686281919E+02  0.41686281919E+02  0.00000000000E+00 0.  1.
          2   -1    0    0  501    0  0.00000000000E+00 -0.00000000000E+00 -0.65975872614E+03  0.65975872614E+03  0.00000000000E+00 0. -1.
         23    2    1    2    0    0  0.10736956459E+03 -0.61764422994E+02 -0.37727616766E+03  0.41630219001E+03  0.12500855721E+03 0.  0.
          5    1    3    3  502    0  0.10590558151E+03 -0.89703981900E+02 -0.35162848561E+03  0.37805750681E+03  0.47000000000E+01 0. -1.
         -5    1    3    3    0  502  0.14639830709E+01  0.27939558906E+02 -0.25647682046E+02  0.38244683194E+02  0.47000000000E+01 0. -1.
        -11    1    1    2    0    0 -0.11812298728E+03  0.61981926707E+02 -0.18360203978E+03  0.22694604727E+03  0.00000000000E+00 0. -1.
         11    1    1    2    0    0  0.10753422693E+02 -0.21750371319E+00 -0.57194236789E+02  0.58196770781E+02  0.00000000000E+00 0.  1.
<mgrwt>
<rscale>  0 0.16985504E+03</rscale>
<asrwt>0</asrwt>
<pdfrwt beam="2">  1        2 0.10150134E+00 0.17598354E+03</pdfrwt>
<pdfrwt beam="1">  1       -2 0.64132744E-02 0.17598354E+03</pdfrwt>
<totfact> 0.58845141E+03</totfact>
</mgrwt>
</event>
<event>
 7    1  0.8165933E-006  0.1475664E+03  0.7546771E-02  0.1213350E+00
         -4   -1    0    0    0  501 -0.00000000000E+00  0.00000000000E+00  0.10307309230E+03  0.10307309230E+03  0.00000000000E+00 0.  1.
          4   -1    0    0  501    0  0.00000000000E+00 -0.00000000000E+00 -0.18518302283E+03  0.18518302283E+03  0.00000000000E+00 0. -1.
         23    2    1    2    0    0  0.48468352017E+02  0.61658602629E+02 -0.81877651363E+02  0.16875953992E+03  0.12499947238E+03 0.  0.
          5    1    3    3  502    0  0.88709503144E+02  0.27775725849E+02 -0.64180198836E+02  0.11305774992E+03  0.47000000000E+01 0. -1.
         -5    1    3    3    0  502 -0.40241151127E+02  0.33882876781E+02 -0.17697452527E+02  0.55701789997E+02  0.47000000000E+01 0. -1.
        -11    1    1    2    0    0 -0.19816715514E+02 -0.74363635803E+02  0.23181645731E+02  0.80374381755E+02  0.00000000000E+00 0.  1.
         11    1    1    2    0    0 -0.28651636503E+02  0.12705033174E+02 -0.23413924897E+02  0.39122193463E+02  0.00000000000E+00 0. -1.
<mgrwt>
<rscale>  0 0.13998426E+03</rscale>
<asrwt>0</asrwt>
<pdfrwt beam="2">  1        4 0.28489695E-01 0.14756637E+03</pdfrwt>
<pdfrwt beam="1">  1       -4 0.15857399E-01 0.14756637E+03</pdfrwt>
<totfact> 0.67445382E+02</totfact>
</mgrwt>
</event>
<event>
 6    1  0.8165933E-006  0.1512580E+03  0.7546771E-02  0.1212457E+00
          1   -1    0    0  501    0  0.00000000000E+00  0.00000000000E+00  0.18692162875E+04  0.18692162875E+04  0.00000000000E+00 0. -1.
         -1   -1    0    0    0  501 -0.00000000000E+00 -0.00000000000E+00 -0.18338509098E+02  0.18338509098E+02  0.00000000000E+00 0.  1.
          5    1    1    2  502    0 -0.32761883986E+02 -0.41846319367E+02  0.12939851529E+04  0.12950846001E+04  0.47000000000E+01 0. -1.
         -5    1    1    2    0  502  0.62101631100E+02 -0.17506062562E+02  0.35693823704E+03  0.36275345605E+03  0.47000000000E+01 0.  1.
        -11    1    1    2    0    0  0.28122482119E+01  0.35009116903E+02  0.11441560874E+02  0.36938547908E+02  0.00000000000E+00 0.  1.
         11    1    1    2    0    0 -0.32151995326E+02  0.24343265026E+02  0.18851282752E+03  0.19277819248E+03  0.00000000000E+00 0. -1.
<mgrwt>
<rscale>  0 0.14064982E+03</rscale>
<asrwt>0</asrwt>
<pdfrwt beam="1">  1        1 0.28757159E+00 0.15125799E+03</pdfrwt>
<pdfrwt beam="2">  1       -1 0.28213106E-02 0.15125799E+03</pdfrwt>
<totfact> 0.17021609E+03</totfact>
</mgrwt>
</event>
<event>
 7    1  0.8165933E-006  0.1398899E+03  0.7546771E-02  0.1223941E+00
         -1   -1    0    0    0  501 -0.00000000000E+00  0.00000000000E+00  0.20616684150E+02  0.20616684150E+02  0.00000000000E+00 0.  1.
          1   -1    0    0  501    0  0.00000000000E+00 -0.00000000000E+00 -0.77169079450E+03  0.77169079450E+03  0.00000000000E+00 0. -1.
         23    2    1    2    0    0  0.10233109306E+02 -0.61953782313E+02 -0.40378394377E+03  0.42732968846E+03  0.12500480678E+03 0.  0.
          5    1    3    3  502    0  0.14754823708E+02  0.32534511198E+02 -0.53761425169E+02  0.64719240398E+02  0.47000000000E+01 0. -1.
         -5    1    3    3    0  502 -0.45217144014E+01 -0.94488293511E+02 -0.35002251860E+03  0.36261044806E+03  0.47000000000E+01 0. -1.
        -11    1    1    2    0    0 -0.47159887450E+02  0.15599818761E+02 -0.11544766540E+03  0.12568043912E+03  0.00000000000E+00 0.  1.
         11    1    1    2    0    0  0.36926778143E+02  0.46353963552E+02 -0.23184250118E+03  0.23929735108E+03  0.00000000000E+00 0. -1.
<mgrwt>
<rscale>  0 0.13239724E+03</rscale>
<asrwt>0</asrwt>
<pdfrwt beam="2">  1        1 0.11872166E+00 0.13988992E+03</pdfrwt>
<pdfrwt beam="1">  1       -1 0.31717977E-02 0.13988992E+03</pdfrwt>
<totfact> 0.81613944E+03</totfact>
</mgrwt>
</event>
<event>
 6    1  0.8165933E-006  0.1461897E+03  0.7546771E-02  0.1239649E+00
          4   -1    0    0  501    0  0.00000000000E+00  0.00000000000E+00  0.70338606480E+02  0.70338606480E+02  0.00000000000E+00 0. -1.
         -4   -1    0    0    0  501 -0.00000000000E+00 -0.00000000000E+00 -0.17106725576E+03  0.17106725576E+03  0.00000000000E+00 0.  1.
          5    1    1    2  502    0  0.21886923133E+02  0.29936073493E+02  0.36896573370E+02  0.52522880984E+02  0.47000000000E+01 0. -1.
         -5    1    1    2    0  502 -0.47270752398E+01 -0.50812889816E+02 -0.88950961038E+02  0.10265796843E+03  0.47000000000E+01 0.  1.
        -11    1    1    2    0    0  0.17668753805E+02  0.18671153823E+02  0.75563198890E+00  0.25717072652E+02  0.00000000000E+00 0. -1.
         11    1    1    2    0    0 -0.34828601699E+02  0.22056625009E+01 -0.49429893603E+02  0.60507940181E+02  0.00000000000E+00 0.  1.
<mgrwt>
<rscale>  0 0.12211420E+03</rscale>
<asrwt>0</asrwt>
<pdfrwt beam="1">  1        4 0.10821324E-01 0.14618973E+03</pdfrwt>
<pdfrwt beam="2">  1       -4 0.26318039E-01 0.14618973E+03</pdfrwt>
<totfact> 0.15107533E+03</totfact>
</mgrwt>
</event>
<event>
 6    1  0.8165933E-006  0.1292307E+03  0.7546771E-02  0.1245097E+00
         -1   -1    0    0    0  501 -0.00000000000E+00  0.00000000000E+00  0.11284104355E+02  0.11284104355E+02  0.00000000000E+00 0.  1.
          1   -1    0    0  501    0  0.00000000000E+00 -0.00000000000E+00 -0.11330297285E+04  0.11330297285E+04  0.00000000000E+00 0. -1.
          5    1    1    2  502    0  0.31587571599E+02  0.50875268619E+02 -0.52298194567E+03  0.52642024385E+03  0.47000000000E+01 0. -1.
         -5    1    1    2    0  502 -0.43833425586E+02 -0.41084545829E+02 -0.24133047041E+03  0.24874041700E+03  0.47000000000E+01 0.  1.
        -11    1    1    2    0    0 -0.26713422212E+02  0.27198258146E+02 -0.16630000513E+03  0.17061372711E+03  0.00000000000E+00 0.  1.
         11    1    1    2    0    0  0.38959276199E+02 -0.36988980936E+02 -0.19113320295E+03  0.19853944491E+03  0.00000000000E+00 0. -1.
<mgrwt>
<rscale>  0 0.11879578E+03</rscale>
<asrwt>0</asrwt>
<pdfrwt beam="2">  1        1 0.17431225E+00 0.12923073E+03</pdfrwt>
<pdfrwt beam="1">  1       -1 0.17360163E-02 0.12923073E+03</pdfrwt>
<totfact> 0.10383745E+04</totfact>
</mgrwt>
</event>
<event>
 7    1  0.8165933E-006  0.1701577E+03  0.7546771E-02  0.1185276E+00
         -2   -1    0    0    0  501 -0.00000000000E+00  0.00000000000E+00  0.40692995760E+02  0.40692995760E+02  0.00000000000E+00 0.  1.
          2   -1    0    0  501    0  0.00000000000E+00 -0.00000000000E+00 -0.64486886146E+03  0.64486886146E+03  0.00000000000E+00 0. -1.
         23    2    1    2    0    0 -0.71945416139E+02 -0.90304036272E+02 -0.41160694026E+03  0.44539185473E+03  0.12499067613E+03 0.  0.
          5    1    3    3  502    0 -0.80931209202E+02 -0.10857949126E+02 -0.13915931989E+03  0.16141611442E+03  0.47000000000E+01 0. -1.
         -5    1    3    3    0  502  0.89857930633E+01 -0.79446087146E+02 -0.27244762037E+03  0.28397574032E+03  0.47000000000E+01 0. -1.
        -11    1    1    2    0    0  0.69037962316E+02  0.27709357535E+02 -0.68269874379E+02  0.10096942351E+03  0.00000000000E+00 0. -1.
         11    1    1    2    0    0  0.29074538227E+01  0.62594678737E+02 -0.12429905106E+03  0.13920057898E+03  0.00000000000E+00 0.  1.
<mgrwt>
<rscale>  0 0.16306809E+03</rscale>
<asrwt>0</asrwt>
<pdfrwt beam="2">  1        2 0.99210588E-01 0.17015767E+03</pdfrwt>
<pdfrwt beam="1">  1       -2 0.62604613E-02 0.17015767E+03</pdfrwt>
<totfact> 0.62617753E+03</totfact>
</mgrwt>
</event>
<event>
 6    1  0.8165933E-006  0.1453102E+03  0.7546771E-02  0.1227464E+00
         -1   -1    0    0    0  501 -0.00000000000E+00  0.00000000000E+00  0.67115748612E+02  0.67115748612E+02  0.00000000000E+00 0.  1.
          1   -1    0    0  501    0  0.00000000000E+00 -0.00000000000E+00 -0.57415365923E+03  0.57415365923E+03  0.00000000000E+00 0. -1.
          5    1    1    2  502    0 -0.45546949912E+02  0.12512236087E+02 -0.45542730733E+03  0.45789431418E+03  0.47000000000E+01 0. -1.
         -5    1    1    2    0  502  0.39234687643E+02 -0.34385542518E+02 -0.71073408110E+02  0.88290688009E+02  0.47000000000E+01 0.  1.
        -11    1    1    2    0    0  0.37576409107E+02  0.37760731776E+02 -0.31369338141E+01  0.53363842997E+02  0.00000000000E+00 0.  1.
         11    1    1    2    0    0 -0.31264146838E+02 -0.15887425345E+02  0.22599738637E+02  0.41720562653E+02  0.00000000000E+00 0. -1.
<mgrwt>
<rscale>  0 0.12999477E+03</rscale>
<asrwt>0</asrwt>
<pdfrwt beam="2">  1        1 0.88331333E-01 0.14531020E+03</pdfrwt>
<pdfrwt beam="1">  1       -1 0.10325500E-01 0.14531020E+03</pdfrwt>
<totfact> 0.21346764E+03</totfact>
</mgrwt>
</event>
<event>
 7    1  0.8165933E-006  0.1535409E+03  0.7546771E-02  0.1204638E+00
          1   -1    0    0  501    0  0.00000000000E+00  0.00000000000E+00  0.12108412967E+04  0.12108412967E+04  0.00000000000E+00 0. -1.
         -1   -1    0    0    0  501 -0.00000000000E+00 -0.00000000000E+00 -0.20036703424E+02  0.20036703424E+02  0.00000000000E+00 0.  1.
         23    2    1    2    0    0  0.62392908558E+02  0.63622948086E+02  0.90311971835E+03  0.91607862541E+03  0.12503626555E+03 0.  0.
          5    1    3    3  502    0  0.30893857484E+02  0.25014095664E+02  0.64126193076E+02  0.75593611175E+02  0.47000000000E+01 0.  1.
         -5    1    3    3    0  502  0.31499051074E+02  0.38608852422E+02  0.83899352528E+03  0.84048501424E+03  0.47000000000E+01 0.  1.
        -11    1    1    2    0    0 -0.48895161989E+02  0.12126033297E+02  0.12758469115E+03  0.13717008043E+03  0.00000000000E+00 0.  1.
         11    1    1    2    0    0 -0.13497746569E+02 -0.75748981383E+02  0.16010018382E+03  0.17762929432E+03  0.00000000000E+00 0. -1.
<mgrwt>
<rscale>  0 0.14665996E+03</rscale>
<asrwt>0</asrwt>
<pdfrwt beam="1">  1        1 0.18628322E+00 0.15354095E+03</pdfrwt>
<pdfrwt beam="2">  1       -1 0.30825707E-02 0.15354095E+03</pdfrwt>
<totfact> 0.40230627E+03</totfact>
</mgrwt>
</event>
<event>
 7    1  0.8165933E-006  0.1559931E+03  0.7546771E-02  0.1202068E+00
         -2   -1    0    0    0  501 -0.00000000000E+00  0.00000000000E+00  0.26442441890E+02  0.26442441890E+02  0.00000000000E+00 0. -1.
          2   -1    0    0  501    0  0.00000000000E+00 -0.00000000000E+00 -0.79152162877E+03  0.79152162877E+03  0.00000000000E+00 0.  1.
         23    2    1    2    0    0  0.19660337015E+02 -0.91219587185E+02 -0.48953345349E+03  0.51378678254E+03  0.12500525541E+03 0.  0.
          5    1    3    3  502    0  0.22767718416E+02  0.26039033147E+00 -0.32185944180E+03  0.32269804319E+03  0.47000000000E+01 0.  1.
         -5    1    3    3    0  502 -0.31073814006E+01 -0.91479977516E+02 -0.16767401170E+03  0.19108873934E+03  0.47000000000E+01 0.  1.
        -11    1    1    2    0    0 -0.15282781973E+02  0.10641062541E+03 -0.26257016874E+03  0.28372500443E+03  0.00000000000E+00 0.  1.
         11    1    1    2    0    0 -0.43775550427E+01 -0.15191038227E+02 -0.12975564644E+02  0.20452283696E+02  0.00000000000E+00 0. -1.
<mgrwt>
<rscale>  0 0.14870901E+03</rscale>
<asrwt>0</asrwt>
<pdfrwt beam="2">  1        2 0.12177257E+00 0.15599313E+03</pdfrwt>
<pdfrwt beam="1">  1       -2 0.40680676E-02 0.15599313E+03</pdfrwt>
<totfact> 0.93344612E+03</totfact>
</mgrwt>
</event>
<event>
 7    1  0.8165933E-006  0.1474517E+03  0.7546771E-02  0.1213071E+00
         -1   -1    0    0    0  501 -0.00000000000E+00  0.00000000000E+00  0.47921920043E+02  0.47921920043E+02  0.00000000000E+00 0.  1.
          1   -1    0    0  501    0  0.00000000000E+00 -0.00000000000E+00 -0.39152530082E+03  0.39152530082E+03  0.00000000000E+00 0. -1.
         23    2    1    2    0    0  0.78181275213E+02 -0.14923542575E+01 -0.23390416485E+03  0.27650162987E+03  0.12500981590E+03 0.  0.
          5    1    3    3  502    0 -0.12044863145E+02  0.21810115115E+02 -0.14641675087E+03  0.14859581012E+03  0.47000000000E+01 0.  1.
         -5    1    3    3    0  502  0.90226138358E+02 -0.23302469372E+02 -0.87487413983E+02  0.12790581975E+03  0.47000000000E+01 0.  1.
        -11    1    1    2    0    0 -0.53944188767E+02 -0.12009125409E+02 -0.12097287221E+03  0.13299861054E+03  0.00000000000E+00 0. -1.
         11    1    1    2    0    0 -0.24237086446E+02  0.13501479667E+02  0.11273656279E+02  0.29946980456E+02  0.00000000000E+00 0.  1.
<mgrwt>
<rscale>  0 0.14019198E+03</rscale>
<asrwt>0</asrwt>
<pdfrwt beam="2">  1        1 0.60234662E-01 0.14745166E+03</pdfrwt>
<pdfrwt beam="1">  1       -1 0.73726031E-02 0.14745166E+03</pdfrwt>
<totfact> 0.58553512E+03</totfact>
</mgrwt>
</event>
<event>
 7    1  0.8165933E-006  0.1437645E+03  0.7546771E-02  0.1217685E+00
         -2   -1    0    0    0  501 -0.00000000000E+00  0.00000000000E+00  0.14253591475E+02  0.14253591475E+02  0.00000000000E+00 0.  1.
          2   -1    0    0  501    0  0.00000000000E+00 -0.00000000000E+00 -0.12077380519E+04  0.12077380519E+04  0.00000000000E+00 0. -1.
         23    2    1    2    0    0  0.59659681122E+02  0.38482602809E+02 -0.70095653288E+03  0.71554755719E+03  0.12501222873E+03 0.  0.
          5    1    3    3  502    0  0.17738735491E+02  0.71908292422E+02 -0.55582887037E+03  0.56076134709E+03  0.47000000000E+01 0. -1.
         -5    1    3    3    0  502  0.41920945631E+02 -0.33425689612E+02 -0.14512766252E+03  0.15478621010E+03  0.47000000000E+01 0. -1.
        -11    1    1    2    0    0 -0.78805955944E+02 -0.58099145239E+01 -0.30037140945E+03  0.31059156044E+03  0.00000000000E+00 0.  1.
         11    1    1    2    0    0  0.19146274822E+02 -0.32672688285E+02 -0.19215651813E+03  0.19585252579E+03  0.00000000000E+00 0. -1.
<mgrwt>
<rscale>  0 0.13681161E+03</rscale>
<asrwt>0</asrwt>
<pdfrwt beam="2">  1        2 0.18580590E+00 0.14376455E+03</pdfrwt>
<pdfrwt beam="1">  1       -2 0.21928597E-02 0.14376455E+03</pdfrwt>
<totfact> 0.12923262E+04</totfact>
</mgrwt>
</event>
<event>
 7    1  0.8165933E-006  0.1351402E+03  0.7546771E-02  0.1232457E+00
         -4   -1    0    0    0  501 -0.00000000000E+00  0.00000000000E+00  0.15238803376E+03  0.15238803376E+03  0.00000000000E+00 0.  1.
          4   -1    0    0  501    0  0.00000000000E+00 -0.00000000000E+00 -0.95189019967E+02  0.95189019967E+02  0.00000000000E+00 0. -1.
         23    2    1    2    0    0 -0.25040773510E+02  0.44855253284E+02  0.19155501279E+02  0.13649107662E+03  0.12499538665E+03 0.  0.
          5    1    3    3  502    0 -0.61174612871E+02 -0.13844769301E+02 -0.54904679129E+01  0.63136725722E+02  0.47000000000E+01 0.  1.
         -5    1    3    3    0  502  0.36133839362E+02  0.58700022585E+02  0.24645969192E+02  0.73354350900E+02  0.47000000000E+01 0.  1.
        -11    1    1    2    0    0  0.28420069262E+02 -0.28171131482E+02  0.66683491546E+02  0.77768895007E+02  0.00000000000E+00 0.  1.
         11    1    1    2    0    0 -0.33792957525E+01 -0.16684121802E+02 -0.28639979036E+02  0.33317082094E+02  0.00000000000E+00 0. -1.
<mgrwt>
<rscale>  0 0.12668665E+03</rscale>
<asrwt>0</asrwt>
<pdfrwt beam="2">  1        4 0.14644465E-01 0.13514023E+03</pdfrwt>
<pdfrwt beam="1">  1       -4 0.23444313E-01 0.13514023E+03</pdfrwt>
<totfact> 0.10935014E+03</totfact>
</mgrwt>
</event>
<event>
 7    1  0.8165933E-006  0.1489483E+03  0.7546771E-02  0.1208995E+00
          2   -1    0    0  501    0  0.00000000000E+00  0.00000000000E+00  0.40335003452E+03  0.40335003452E+03  0.00000000000E+00 0.  1.
         -2   -1    0    0    0  501 -0.00000000000E+00 -0.00000000000E+00 -0.47393725927E+02  0.47393725927E+02  0.00000000000E+00 0. -1.
         23    2    1    2    0    0  0.23941575928E+02 -0.77369064219E+02  0.19695700207E+03  0.24693651958E+03  0.12500565139E+03 0.  0.
          5    1    3    3  502    0 -0.36920557774E+02 -0.52583817420E+00  0.14861853478E+02  0.40079530697E+02  0.47000000000E+01 0. -1.
         -5    1    3    3    0  502  0.60862133702E+02 -0.76843226044E+02  0.18209514859E+03  0.20685698888E+03  0.47000000000E+01 0. -1.
        -11    1    1    2    0    0 -0.26504057793E+01  0.54111401263E+02  0.14744930217E+02  0.56146962202E+02  0.00000000000E+00 0. -1.
         11    1    1    2    0    0 -0.21291170149E+02  0.23257662955E+02  0.14425437630E+03  0.14766027867E+03  0.00000000000E+00 0.  1.
<mgrwt>
<rscale>  0 0.14327002E+03</rscale>
<asrwt>0</asrwt>
<pdfrwt beam="1">  1        2 0.62053849E-01 0.14894826E+03</pdfrwt>
<pdfrwt beam="2">  1       -2 0.72913427E-02 0.14894826E+03</pdfrwt>
<totfact> 0.82912477E+03</totfact>
</mgrwt>
</event>
<event>
 7    1  0.8165933E-006  0.1419750E+03  0.7546771E-02  0.1220493E+00
          1   -1    0    0  501    0  0.00000000000E+00  0.00000000000E+00  0.60511379785E+03  0.60511379785E+03  0.00000000000E+00 0. -1.
         -1   -1    0    0    0  501 -0.00000000000E+00 -0.00000000000E+00 -0.38709467759E+02  0.38709467759E+02  0.00000000000E+00 0.  1.
         23    2    1    2    0    0  0.43556237507E+02 -0.51328997056E+02  0.47746386012E+03  0.49812511267E+03  0.12500031356E+03 0.  0.
          5    1    3    3  502    0  0.66143261732E+02 -0.65761366537E+02  0.44952480917E+03  0.45912322143E+03  0.47000000000E+01 0. -1.
         -5    1    3    3    0  502 -0.22587024224E+02  0.14432369481E+02  0.27939050951E+02  0.39001891238E+02  0.47000000000E+01 0. -1.
        -11    1    1    2    0    0 -0.43897221889E+02 -0.74273273442E+01  0.73057151328E+01  0.45116568515E+02  0.00000000000E+00 0.  1.
         11    1    1    2    0    0  0.34098438109E+00  0.58756324400E+02  0.81634754840E+02  0.10058158442E+03  0.00000000000E+00 0. -1.
<mgrwt>
<rscale>  0 0.13480681E+03</rscale>
<asrwt>0</asrwt>
<pdfrwt beam="1">  1        1 0.93094424E-01 0.14197496E+03</pdfrwt>
<pdfrwt beam="2">  1       -1 0.59553032E-02 0.14197496E+03</pdfrwt>
<totfact> 0.45592114E+03</totfact>
</mgrwt>
</event>
<event>
 7    1  0.8165933E-006  0.1701828E+03  0.7546771E-02  0.1183664E+00
         -1   -1    0    0    0  501 -0.00000000000E+00  0.00000000000E+00  0.65069957676E+03  0.65069957676E+03  0.00000000000E+00 0.  1.
          1   -1    0    0  501    0  0.00000000000E+00 -0.00000000000E+00 -0.42026384871E+02  0.42026384871E+02  0.00000000000E+00 0. -1.
         23    2    1    2    0    0 -0.10779473795E+03 -0.41434504757E+02  0.23172585279E+03  0.28750490775E+03  0.12500270964E+03 0.  0.
          5    1    3    3  502    0 -0.32569593119E+02  0.24414115537E+02  0.15792105630E+03  0.16315016842E+03  0.47000000000E+01 0.  1.
         -5    1    3    3    0  502 -0.75225144829E+02 -0.65848620295E+02  0.73804796489E+02  0.12435473933E+03  0.47000000000E+01 0.  1.
        -11    1    1    2    0    0  0.69655428531E+02  0.67924710377E+02  0.20189569013E+03  0.22411495866E+03  0.00000000000E+00 0. -1.
         11    1    1    2    0    0  0.38139309417E+02 -0.26490205620E+02  0.17505164897E+03  0.18110609521E+03  0.00000000000E+00 0.  1.
<mgrwt>
<rscale>  0 0.16454028E+03</rscale>
<asrwt>0</asrwt>
<pdfrwt beam="2">  1        1 0.64655981E-02 0.17018285E+03</pdfrwt>
<pdfrwt beam="1">  1       -1 0.10010762E+00 0.17018285E+03</pdfrwt>
<totfact> 0.11576387E+03</totfact>
</mgrwt>
</event>
<event>
 7    1  0.8165933E-006  0.1437411E+03  0.7546771E-02  0.1218167E+00
          2   -1    0    0  501    0  0.00000000000E+00  0.00000000000E+00  0.13767496064E+04  0.13767496064E+04  0.00000000000E+00 0. -1.
         -2   -1    0    0    0  501 -0.00000000000E+00 -0.00000000000E+00 -0.13642770941E+02  0.13642770941E+02  0.00000000000E+00 0.  1.
         23    2    1    2    0    0 -0.39894399931E+02  0.58682088825E+02  0.96040278722E+03  0.97109990005E+03  0.12500540582E+03 0.  0.
          5    1    3    3  502    0  0.11026349805E+02 -0.14583034833E+02  0.58146976320E+03  0.58177609164E+03  0.47000000000E+01 0. -1.
         -5    1    3    3    0  502 -0.50920749736E+02  0.73265123658E+02  0.37893302402E+03  0.38932380841E+03  0.47000000000E+01 0. -1.
        -11    1    1    2    0    0 -0.99913984104E+01  0.12733126816E+02  0.15500193766E+02  0.22410188922E+02  0.00000000000E+00 0.  1.
         11    1    1    2    0    0  0.49885798342E+02 -0.71415215642E+02  0.38720385449E+03  0.39688228838E+03  0.00000000000E+00 0. -1.
<mgrwt>
<rscale>  0 0.13646463E+03</rscale>
<asrwt>0</asrwt>
<pdfrwt beam="1">  1        2 0.21180752E+00 0.14374109E+03</pdfrwt>
<pdfrwt beam="2">  1       -2 0.20988889E-02 0.14374109E+03</pdfrwt>
<totfact> 0.11155427E+04</totfact>
</mgrwt>
</event>
<event>
 7    1  0.8165933E-006  0.1840955E+03  0.7546771E-02  0.1169190E+00
          1   -1    0    0  501    0  0.00000000000E+00  0.00000000000E+00  0.91241025622E+03  0.91241025622E+03  0.00000000000E+00 0. -1.
         -1   -1    0    0    0  501 -0.00000000000E+00 -0.00000000000E+00 -0.42295702062E+02  0.42295702062E+02  0.00000000000E+00 0.  1.
         23    2    1    2    0    0 -0.11241585066E+03 -0.75023724996E+02  0.67908718002E+03  0.70359827713E+03  0.12500101883E+03 0.  0.
          5    1    3    3  502    0 -0.75034782370E+02 -0.10419377984E+03  0.57413681878E+03  0.58833811622E+03  0.47000000000E+01 0. -1.
         -5    1    3    3    0  502 -0.37381068285E+02  0.29170054845E+02  0.10495036125E+03  0.11526016090E+03  0.47000000000E+01 0. -1.
        -11    1    1    2    0    0  0.48773055109E+02  0.16654972895E+02  0.12864712499E+02  0.53119674834E+02  0.00000000000E+00 0.  1.
         11    1    1    2    0    0  0.63642795547E+02  0.58368752101E+02  0.17816266163E+03  0.19798800632E+03  0.00000000000E+00 0. -1.
<mgrwt>
<rscale>  0 0.17857399E+03</rscale>
<asrwt>0</asrwt>
<pdfrwt beam="1">  1        1 0.14037079E+00 0.18409546E+03</pdfrwt>
<pdfrwt beam="2">  1       -1 0.65070318E-02 0.18409546E+03</pdfrwt>
<totfact> 0.21925892E+03</totfact>
</mgrwt>
</event>
<event>
 7    1  0.8165933E-006  0.2194164E+03  0.7546771E-02  0.1138618E+00
         -2   -1    0    0    0  501 -0.00000000000E+00  0.00000000000E+00  0.23706067017E+02  0.23706067017E+02  0.00000000000E+00 0.  1.
          2   -1    0    0  501    0  0.00000000000E+00 -0.00000000000E+00 -0.18557906407E+04  0.18557906407E+04  0.00000000000E+00 0. -1.
         23    2    1    2    0    0  0.10789360209E+03  0.14449055758E+03 -0.10636170331E+04  0.10860132360E+04  0.12500001993E+03 0.  0.
          5    1    3    3  502    0  0.96363838431E+02  0.50041102640E+02 -0.76191597110E+03  0.76962857167E+03  0.47000000000E+01 0. -1.
         -5    1    3    3    0  502  0.11529763655E+02  0.94449454942E+02 -0.30170106204E+03  0.31638466433E+03  0.47000000000E+01 0. -1.
        -11    1    1    2    0    0 -0.21195469795E+02 -0.91070205181E+02 -0.30752733144E+03  0.32142820317E+03  0.00000000000E+00 0.  1.
         11    1    1    2    0    0 -0.86698132291E+02 -0.53420352400E+02 -0.46094020910E+03  0.47205526854E+03  0.00000000000E+00 0. -1.
<mgrwt>
<rscale>  0 0.21376536E+03</rscale>
<asrwt>0</asrwt>
<pdfrwt beam="2">  1        2 0.28550623E+00 0.21941640E+03</pdfrwt>
<pdfrwt beam="1">  1       -2 0.36470875E-02 0.21941640E+03</pdfrwt>
<totfact> 0.27967654E+03</totfact>
</mgrwt>
</event>
<event>
 6    1  0.8165933E-006  0.5231971E+03  0.7546771E-02  0.1007895E+00
         -1   -1    0    0    0  501 -0.00000000000E+00  0.00000000000E+00  0.72032708802E+03  0.72032708802E+03  0.00000000000E+00 0.  1.
          1   -1    0    0  501    0  0.00000000000E+00 -0.00000000000E+00 -0.95003796665E+02  0.95003796665E+02  0.00000000000E+00 0. -1.
          5    1    1    2  502    0  0.54456387465E+02  0.70268963388E+02 -0.65949668585E+02  0.11079112843E+03  0.47000000000E+01 0. -1.
         -5    1    1    2    0  502 -0.26258128291E+01  0.10044463682E+01  0.95940263733E+02  0.96096451603E+02  0.47000000000E+01 0.  1.
        -11    1    1    2    0    0 -0.66231429612E+02 -0.83589496592E+02  0.51018653835E+03  0.52121407322E+03  0.00000000000E+00 0.  1.
         11    1    1    2    0    0  0.14400854977E+02  0.12316086836E+02  0.85146157866E+02  0.87229231444E+02  0.00000000000E+00 0. -1.
<mgrwt>
<rscale>  0 0.52319713E+03</rscale>
<asrwt>0</asrwt>
<pdfrwt beam="2">  1        1 0.14615969E-01 0.52319713E+03</pdfrwt>
<pdfrwt beam="1">  1       -1 0.11081955E+00 0.52319713E+03</pdfrwt>
<totfact> 0.30524566E+02</totfact>
</mgrwt>
</event>
<event>
 7    1  0.9290838E-006  0.1331194E+03  0.7546771E-02  0.1245037E+00
          3   -1    0    0  501    0  0.00000000000E+00  0.00000000000E+00  0.74166018942E+02  0.74166018942E+02  0.00000000000E+00 0. -1.
         -3   -1    0    0    0  501 -0.00000000000E+00 -0.00000000000E+00 -0.16004024872E+03  0.16004024872E+03  0.00000000000E+00 0.  1.
         23    2    1    2    0    0 -0.40341184376E+02 -0.21644102839E+02 -0.47062479285E+02  0.14119370611E+03  0.12499962937E+03 0.  0.
          5    1    3    3  502    0  0.22680855152E+01 -0.67271608108E+02 -0.93816473632E+01  0.68122821261E+02  0.47000000000E+01 0.  1.
         -5    1    3    3    0  502 -0.42609269891E+02  0.45627505269E+02 -0.37680831922E+02  0.73070884845E+02  0.47000000000E+01 0.  1.
        -11    1    1    2    0    0  0.35288613372E+02  0.87993523082E+00 -0.55584716778E+02  0.65846193961E+02  0.00000000000E+00 0.  1.
         11    1    1    2    0    0  0.50525710035E+01  0.20764167608E+02  0.16772966286E+02  0.27166367594E+02  0.00000000000E+00 0. -1.
<mgrwt>
<rscale>  0 0.11883142E+03</rscale>
<asrwt>0</asrwt>
<pdfrwt beam="1">  1        3 0.11410157E-01 0.13311944E+03</pdfrwt>
<pdfrwt beam="2">  1       -3 0.24621577E-01 0.13311944E+03</pdfrwt>
<totfact> 0.20869151E+03</totfact>
</mgrwt>
</event>
<event>
 7    1  0.8165933E-006  0.1795599E+03  0.7546771E-02  0.1173813E+00
          4   -1    0    0  501    0  0.00000000000E+00  0.00000000000E+00  0.21421689859E+02  0.21421689859E+02  0.00000000000E+00 0. -1.
         -4   -1    0    0    0  501 -0.00000000000E+00 -0.00000000000E+00 -0.14519663621E+04  0.14519663621E+04  0.00000000000E+00 0.  1.
         23    2    1    2    0    0 -0.24171883808E+02  0.12661971585E+03 -0.54417578709E+03  0.57303492974E+03  0.12499964416E+03 0.  0.
          5    1    3    3  502    0 -0.14831287965E+02  0.13214516899E+03 -0.29546548837E+03  0.32404360449E+03  0.47000000000E+01 0. -1.
         -5    1    3    3    0  502 -0.93405958439E+01 -0.55254531448E+01 -0.24871029872E+03  0.24899132525E+03  0.47000000000E+01 0. -1.
        -11    1    1    2    0    0  0.58617919965E+02 -0.65829538267E+02 -0.50598442541E+03  0.51360473849E+03  0.00000000000E+00 0. -1.
         11    1    1    2    0    0 -0.34446036157E+02 -0.60790177580E+02 -0.38038445974E+03  0.38674838372E+03  0.00000000000E+00 0.  1.
<mgrwt>
<rscale>  0 0.17392776E+03</rscale>
<asrwt>0</asrwt>
<pdfrwt beam="1">  1        4 0.32956440E-02 0.17955986E+03</pdfrwt>
<pdfrwt beam="2">  1       -4 0.22337948E+00 0.17955986E+03</pdfrwt>
<totfact> 0.85332508E+01</totfact>
</mgrwt>
</event>
<event>
 7    1  0.8165933E-006  0.1449593E+03  0.7546771E-02  0.1216488E+00
          3   -1    0    0  501    0  0.00000000000E+00  0.00000000000E+00  0.86190791065E+02  0.86190791065E+02  0.00000000000E+00 0. -1.
         -3   -1    0    0    0  501 -0.00000000000E+00 -0.00000000000E+00 -0.21442123487E+03  0.21442123487E+03  0.00000000000E+00 0.  1.
         23    2    1    2    0    0  0.29918988999E+00 -0.73373757311E+02 -0.32159343088E+02  0.14848372012E+03  0.12501757483E+03 0.  0.
          5    1    3    3  502    0 -0.46095541191E+01  0.33269302683E+02 -0.23527573312E+02  0.41276278856E+02  0.47000000000E+01 0.  1.
         -5    1    3    3    0  502  0.49087440091E+01 -0.10664305999E+03 -0.86317697753E+01  0.10720744126E+03  0.47000000000E+01 0.  1.
        -11    1    1    2    0    0  0.32629741260E+02  0.48949054543E+02 -0.14127152108E+02  0.60500300677E+02  0.00000000000E+00 0. -1.
         11    1    1    2    0    0 -0.32928931150E+02  0.24424702769E+02 -0.81943948614E+02  0.91628005143E+02  0.00000000000E+00 0.  1.
<mgrwt>
<rscale>  0 0.13767768E+03</rscale>
<asrwt>0</asrwt>
<pdfrwt beam="1">  1        3 0.13260122E-01 0.14495928E+03</pdfrwt>
<pdfrwt beam="2">  1       -3 0.32987882E-01 0.14495928E+03</pdfrwt>
<totfact> 0.96002316E+02</totfact>
</mgrwt>
</event>
<event>
 7    1  0.8165933E-006  0.1160032E+03  0.7546771E-02  0.1284780E+00
         -2   -1    0    0    0  501 -0.00000000000E+00  0.00000000000E+00  0.24865427537E+02  0.24865427537E+02  0.00000000000E+00 0.  1.
          2   -1    0    0  501    0  0.00000000000E+00 -0.00000000000E+00 -0.36077470844E+03  0.36077470844E+03  0.00000000000E+00 0. -1.
         23    2    1    2    0    0  0.22947438398E+02  0.12923542476E+02 -0.28546867406E+03  0.30813812389E+03  0.11297405297E+03 0.  0.
          5    1    3    3  502    0 -0.17156611240E+01  0.31738020470E+02 -0.27217305722E+03  0.27406296450E+03  0.47000000000E+01 0. -1.
         -5    1    3    3    0  502  0.24663099522E+02 -0.18814477994E+02 -0.13295616846E+02  0.34075159391E+02  0.47000000000E+01 0.  1.
        -11    1    1    2    0    0  0.11757750319E+02 -0.28980444720E+01 -0.37045043620E+02  0.38974076142E+02  0.00000000000E+00 0. -1.
         11    1    1    2    0    0 -0.34705188717E+02 -0.10025498004E+02 -0.13395563220E+02  0.38527935944E+02  0.00000000000E+00 0.  1.
<mgrwt>
<rscale>  0 0.97897847E+02</rscale>
<asrwt>0</asrwt>
<pdfrwt beam="2">  1        2 0.55503801E-01 0.11600319E+03</pdfrwt>
<pdfrwt beam="1">  1       -2 0.38254504E-02 0.11600319E+03</pdfrwt>
<totfact> 0.24155786E+04</totfact>
</mgrwt>
</event>
<event>
 7    1  0.8165933E-006  0.1251293E+03  0.7546771E-02  0.1251173E+00
         -2   -1    0    0    0  501 -0.00000000000E+00  0.00000000000E+00  0.21179585624E+02  0.21179585624E+02  0.00000000000E+00 0. -1.
          2   -1    0    0  501    0  0.00000000000E+00 -0.00000000000E+00 -0.10997015504E+04  0.10997015504E+04  0.00000000000E+00 0.  1.
         23    2    1    2    0    0  0.39065543270E+01 -0.40923253245E+01 -0.97793076120E+03  0.98590359949E+03  0.12500130195E+03 0.  0.
          5    1    3    3  502    0 -0.26004973649E+02 -0.56951200053E+02 -0.57045249377E+03  0.57389706001E+03  0.47000000000E+01 0. -1.
         -5    1    3    3    0  502  0.29911527976E+02  0.52858874728E+02 -0.40747826743E+03  0.41200653947E+03  0.47000000000E+01 0. -1.
        -11    1    1    2    0    0  0.35840078192E+02 -0.18529131776E+02 -0.27745672641E+02  0.48965929783E+02  0.00000000000E+00 0.  1.
         11    1    1    2    0    0 -0.39746632519E+02  0.22621457100E+02 -0.72845530895E+02  0.86011606713E+02  0.00000000000E+00 0. -1.
<mgrwt>
<rscale>  0 0.11523439E+03</rscale>
<asrwt>0</asrwt>
<pdfrwt beam="2">  1        2 0.16918489E+00 0.12512927E+03</pdfrwt>
<pdfrwt beam="1">  1       -2 0.32583970E-02 0.12512927E+03</pdfrwt>
<totfact> 0.82624995E+03</totfact>
</mgrwt>
</event>
<event>
 7    1  0.8165933E-006  0.1411458E+03  0.7546771E-02  0.1216790E+00
          1   -1    0    0  501    0  0.00000000000E+00  0.00000000000E+00  0.11364480075E+04  0.11364480075E+04  0.00000000000E+00 0. -1.
         -1   -1    0    0    0  501 -0.00000000000E+00 -0.00000000000E+00 -0.21297411496E+02  0.21297411496E+02  0.00000000000E+00 0.  1.
         23    2    1    2    0    0 -0.56764353258E+02 -0.65568851332E+02  0.87291642150E+03  0.88425404852E+03  0.11135832857E+03 0.  0.
          5    1    3    3  502    0 -0.22018689710E+02 -0.77031781384E+02  0.78246305128E+03  0.78656801020E+03  0.47000000000E+01 0. -1.
         -5    1    3    3    0  502 -0.34745663547E+02  0.11462930052E+02  0.90453370216E+02  0.97686038327E+02  0.47000000000E+01 0.  1.
        -11    1    1    2    0    0 -0.65104764706E+01  0.62296999629E+02  0.13729859204E+03  0.15091125155E+03  0.00000000000E+00 0.  1.
         11    1    1    2    0    0  0.63274829728E+02  0.32718517033E+01  0.10493558251E+03  0.12258011897E+03  0.00000000000E+00 0. -1.
<mgrwt>
<rscale>  0 0.13745866E+03</rscale>
<asrwt>0</asrwt>
<pdfrwt beam="1">  1        1 0.17483811E+00 0.14114582E+03</pdfrwt>
<pdfrwt beam="2">  1       -1 0.32765257E-02 0.14114582E+03</pdfrwt>
<totfact> 0.41321003E+03</totfact>
</mgrwt>
</event>
<event>
 7    1  0.8165933E-006  0.1307503E+03  0.7546771E-02  0.1239758E+00
         -2   -1    0    0    0  501 -0.00000000000E+00  0.00000000000E+00  0.11397558086E+02  0.11397558086E+02  0.00000000000E+00 0.  1.
          2   -1    0    0  501    0  0.00000000000E+00 -0.00000000000E+00 -0.15672396761E+04  0.15672396761E+04  0.00000000000E+00 0. -1.
         23    2    1    2    0    0 -0.32969794464E+02 -0.19600949410E+02 -0.12561049148E+04  0.12628916020E+04  0.12499774692E+03 0.  0.
          5    1    3    3  502    0 -0.38042317075E+02 -0.60731047923E+02 -0.44876288429E+03  0.45447298532E+03  0.47000000000E+01 0.  1.
         -5    1    3    3    0  502  0.50725226111E+01  0.41130098514E+02 -0.80734203056E+03  0.80841861668E+03  0.47000000000E+01 0.  1.
        -11    1    1    2    0    0 -0.29704134409E+02  0.20095030248E+02 -0.91366432737E+02  0.98152793504E+02  0.00000000000E+00 0. -1.
         11    1    1    2    0    0  0.62673928873E+02 -0.49408083826E+00 -0.20837077045E+03  0.21759283870E+03  0.00000000000E+00 0.  1.
<mgrwt>
<rscale>  0 0.12204714E+03</rscale>
<asrwt>0</asrwt>
<pdfrwt beam="2">  1        2 0.24111372E+00 0.13075030E+03</pdfrwt>
<pdfrwt beam="1">  1       -2 0.17534710E-02 0.13075030E+03</pdfrwt>
<totfact> 0.11459967E+04</totfact>
</mgrwt>
</event>
<event>
 7    1  0.8165933E-006  0.1372515E+03  0.7546771E-02  0.1228785E+00
         -2   -1    0    0    0  501 -0.00000000000E+00  0.00000000000E+00  0.43262028168E+02  0.43262028168E+02  0.00000000000E+00 0. -1.
          2   -1    0    0  501    0  0.00000000000E+00 -0.00000000000E+00 -0.37622804746E+03  0.37622804746E+03  0.00000000000E+00 0.  1.
         23    2    1    2    0    0  0.54488257574E+02  0.15664748844E+02 -0.24410538823E+03  0.28004537107E+03  0.12499445878E+03 0.  0.
          5    1    3    3  502    0  0.53016011407E+02  0.14127863374E+02 -0.24318252139E+02  0.60197685804E+02  0.47000000000E+01 0.  1.
         -5    1    3    3    0  502  0.14722461666E+01  0.15368854698E+01 -0.21978713609E+03  0.21984768527E+03  0.47000000000E+01 0.  1.
        -11    1    1    2    0    0 -0.40116545525E+02 -0.54162260959E+01  0.77662537857E+01  0.41218775186E+02  0.00000000000E+00 0. -1.
         11    1    1    2    0    0 -0.14371712049E+02 -0.10248522748E+02 -0.96626884851E+02  0.98225929376E+02  0.00000000000E+00 0.  1.
<mgrwt>
<rscale>  0 0.12910826E+03</rscale>
<asrwt>0</asrwt>
<pdfrwt beam="2">  1        2 0.57881238E-01 0.13725148E+03</pdfrwt>
<pdfrwt beam="1">  1       -2 0.66556966E-02 0.13725148E+03</pdfrwt>
<totfact> 0.10213973E+04</totfact>
</mgrwt>
</event>
<event>
 7    1  0.8165933E-006  0.1517281E+03  0.7546771E-02  0.1207497E+00
         -2   -1    0    0    0  501 -0.00000000000E+00  0.00000000000E+00  0.42673088416E+02  0.42673088416E+02  0.00000000000E+00 0. -1.
          2   -1    0    0  501    0  0.00000000000E+00 -0.00000000000E+00 -0.47247241592E+03  0.47247241592E+03  0.00000000000E+00 0.  1.
         23    2    1    2    0    0 -0.77555856296E+02 -0.36626032400E+02 -0.29420617217E+03  0.33102670461E+03  0.12516001889E+03 0.  0.
          5    1    3    3  502    0 -0.47119576338E+02  0.32947260318E+02 -0.20890469736E+03  0.21672341594E+03  0.47000000000E+01 0. -1.
         -5    1    3    3    0  502 -0.30436279958E+02 -0.69573292718E+02 -0.85301474806E+02  0.11430328867E+03  0.47000000000E+01 0. -1.
        -11    1    1    2    0    0  0.28527942372E+02  0.55149180881E+02 -0.10876704525E+03  0.12524194896E+03  0.00000000000E+00 0.  1.
         11    1    1    2    0    0  0.49027913923E+02 -0.18523148481E+02 -0.26826110090E+02  0.58876850764E+02  0.00000000000E+00 0. -1.
<mgrwt>
<rscale>  0 0.14442445E+03</rscale>
<asrwt>0</asrwt>
<pdfrwt beam="2">  1        2 0.72688065E-01 0.15172807E+03</pdfrwt>
<pdfrwt beam="1">  1       -2 0.65650904E-02 0.15172807E+03</pdfrwt>
<totfact> 0.82159030E+03</totfact>
</mgrwt>
</event>
<event>
 7    1  0.8165933E-006  0.2494788E+03  0.7546771E-02  0.1115911E+00
         -2   -1    0    0    0  501 -0.00000000000E+00  0.00000000000E+00  0.32082166151E+02  0.32082166151E+02  0.00000000000E+00 0.  1.
          2   -1    0    0  501    0  0.00000000000E+00 -0.00000000000E+00 -0.18686128781E+04  0.18686128781E+04  0.00000000000E+00 0. -1.
         23    2    1    2    0    0 -0.11311354363E+03 -0.18389989283E+03 -0.10750349822E+04  0.11036031446E+04  0.12500337376E+03 0.  0.
          5    1    3    3  502    0 -0.48740056379E+02 -0.44363372872E+02 -0.61541176948E+03  0.61894865535E+03  0.47000000000E+01 0.  1.
         -5    1    3    3    0  502 -0.64373487251E+02 -0.13953651995E+03 -0.45962321270E+03  0.48465448921E+03  0.47000000000E+01 0.  1.
        -11    1    1    2    0    0  0.10842128769E+03  0.12601303807E+03 -0.43924181383E+03  0.46964649728E+03  0.00000000000E+00 0.  1.
         11    1    1    2    0    0  0.46922559364E+01  0.57886854756E+02 -0.32225391593E+03  0.32744540239E+03  0.00000000000E+00 0. -1.
<mgrwt>
<rscale>  0 0.24591900E+03</rscale>
<asrwt>0</asrwt>
<pdfrwt beam="2">  1        2 0.28747893E+00 0.24947883E+03</pdfrwt>
<pdfrwt beam="1">  1       -2 0.49357175E-02 0.24947883E+03</pdfrwt>
<totfact> 0.17417201E+03</totfact>
</mgrwt>
</event>
<event>
 7    1  0.8165933E-006  0.1160511E+03  0.7546771E-02  0.1260544E+00
          1   -1    0    0  501    0  0.00000000000E+00  0.00000000000E+00  0.40190342406E+03  0.40190342406E+03  0.00000000000E+00 0. -1.
         -1   -1    0    0    0  501 -0.00000000000E+00 -0.00000000000E+00 -0.10710050390E+03  0.10710050390E+03  0.00000000000E+00 0.  1.
         23    2    1    2    0    0 -0.11152064668E+02 -0.23803269430E+02  0.37067665616E+03  0.38841863090E+03  0.11303488501E+03 0.  0.
          5    1    3    3  502    0  0.39083325006E+02 -0.36013860029E+02  0.26918534430E+03  0.27442183585E+03  0.47000000000E+01 0. -1.
         -5    1    3    3    0  502 -0.50235389674E+02  0.12210590600E+02  0.10149131186E+03  0.11399679505E+03  0.47000000000E+01 0.  1.
        -11    1    1    2    0    0 -0.44596153465E+01  0.51197170419E+02 -0.72511944250E+02  0.88876433811E+02  0.00000000000E+00 0.  1.
         11    1    1    2    0    0  0.15611680014E+02 -0.27393900989E+02 -0.33617917499E+01  0.31708863241E+02  0.00000000000E+00 0. -1.
<mgrwt>
<rscale>  0 0.11001409E+03</rscale>
<asrwt>0</asrwt>
<pdfrwt beam="1">  1        1 0.61831295E-01 0.11605106E+03</pdfrwt>
<pdfrwt beam="2">  1       -1 0.16477001E-01 0.11605106E+03</pdfrwt>
<totfact> 0.16315182E+03</totfact>
</mgrwt>
</event>
<event>
 7    1  0.8165933E-006  0.1342708E+03  0.7546771E-02  0.1232818E+00
         -3   -1    0    0    0  501 -0.00000000000E+00  0.00000000000E+00  0.29840312736E+03  0.29840312736E+03  0.00000000000E+00 0.  1.
          3   -1    0    0  501    0  0.00000000000E+00 -0.00000000000E+00 -0.49223269444E+02  0.49223269444E+02  0.00000000000E+00 0. -1.
         23    2    1    2    0    0 -0.30129457763E+02  0.38690775066E+02  0.11444088076E+03  0.17642385136E+03  0.12499559929E+03 0.  0.
          5    1    3    3  502    0 -0.12858516777E+02  0.58588432550E+02  0.13212419446E+01  0.60181239291E+02  0.47000000000E+01 0. -1.
         -5    1    3    3    0  502 -0.17270940986E+02 -0.19897657484E+02  0.11311963881E+03  0.11624261207E+03  0.47000000000E+01 0. -1.
        -11    1    1    2    0    0  0.23298143060E+02  0.20827754853E+02  0.99810632297E+01  0.32805799266E+02  0.00000000000E+00 0. -1.
         11    1    1    2    0    0  0.68313147034E+01 -0.59518529919E+02  0.12475791393E+03  0.13839674618E+03  0.00000000000E+00 0.  1.
<mgrwt>
<rscale>  0 0.12645136E+03</rscale>
<asrwt>0</asrwt>
<pdfrwt beam="2">  1        3 0.75728109E-02 0.13427085E+03</pdfrwt>
<pdfrwt beam="1">  1       -3 0.45908172E-01 0.13427085E+03</pdfrwt>
<totfact> 0.12706626E+03</totfact>
</mgrwt>
</event>
<event>
 7    1  0.8165933E-006  0.1308870E+03  0.7546771E-02  0.1239134E+00
          1   -1    0    0  501    0  0.00000000000E+00  0.00000000000E+00  0.15751391412E+03  0.15751391412E+03  0.00000000000E+00 0. -1.
         -1   -1    0    0    0  501 -0.00000000000E+00 -0.00000000000E+00 -0.87582995910E+02  0.87582995910E+02  0.00000000000E+00 0.  1.
         23    2    1    2    0    0  0.17785818992E+02 -0.34523908168E+02  0.17668628120E+02  0.13207419020E+03  0.12499270261E+03 0.  0.
          5    1    3    3  502    0 -0.34743068553E+02  0.36666861084E+01 -0.33980899099E+02  0.48962402954E+02  0.47000000000E+01 0. -1.
         -5    1    3    3    0  502  0.52528887545E+02 -0.38190594276E+02  0.51649527219E+02  0.83111787250E+02  0.47000000000E+01 0. -1.
        -11    1    1    2    0    0 -0.39098693064E+02  0.31018034126E+02 -0.65812660252E+01  0.50340235427E+02  0.00000000000E+00 0.  1.
         11    1    1    2    0    0  0.21312874072E+02  0.35058740421E+01  0.58843556113E+02  0.62682484396E+02  0.00000000000E+00 0. -1.
<mgrwt>
<rscale>  0 0.12243461E+03</rscale>
<asrwt>0</asrwt>
<pdfrwt beam="1">  1        1 0.24232910E-01 0.13088702E+03</pdfrwt>
<pdfrwt beam="2">  1       -1 0.13474307E-01 0.13088702E+03</pdfrwt>
<totfact> 0.71807105E+03</totfact>
</mgrwt>
</event>
<event>
 7    1  0.8165933E-006  0.1370988E+03  0.7546771E-02  0.1229224E+00
          1   -1    0    0  501    0  0.00000000000E+00  0.00000000000E+00  0.22112523105E+04  0.22112523105E+04  0.00000000000E+00 0. -1.
         -1   -1    0    0    0  501 -0.00000000000E+00 -0.00000000000E+00 -0.12957761493E+02  0.12957761493E+02  0.00000000000E+00 0.  1.
         23    2    1    2    0    0  0.71956675438E+01 -0.55848037817E+02  0.19379307587E+04  0.19427742284E+04  0.12500118464E+03 0.  0.
          5    1    3    3  502    0 -0.52202716934E+02 -0.44165265603E+02  0.69783731284E+03  0.70119519360E+03  0.47000000000E+01 0.  1.
         -5    1    3    3    0  502  0.59398384477E+02 -0.11682772214E+02  0.12400934458E+04  0.12415790348E+04  0.47000000000E+01 0.  1.
        -11    1    1    2    0    0 -0.40856348651E+02  0.26033665656E+02  0.20217085424E+03  0.20789431756E+03  0.00000000000E+00 0. -1.
         11    1    1    2    0    0  0.33660681108E+02  0.29814372161E+02  0.58192936124E+02  0.73541526056E+02  0.00000000000E+00 0.  1.
<mgrwt>
<rscale>  0 0.12881558E+03</rscale>
<asrwt>0</asrwt>
<pdfrwt beam="1">  1        1 0.34019236E+00 0.13709879E+03</pdfrwt>
<pdfrwt beam="2">  1       -1 0.19935035E-02 0.13709879E+03</pdfrwt>
<totfact> 0.17052190E+03</totfact>
</mgrwt>
</event>
<event>
 7    1  0.8165933E-006  0.2122886E+03  0.7546771E-02  0.1143374E+00
          2   -1    0    0  501    0  0.00000000000E+00  0.00000000000E+00  0.16121553206E+04  0.16121553206E+04  0.00000000000E+00 0. -1.
         -2   -1    0    0    0  501 -0.00000000000E+00 -0.00000000000E+00 -0.25759546692E+02  0.25759546692E+02  0.00000000000E+00 0.  1.
         23    2    1    2    0    0 -0.16118588383E+03  0.58826199485E+02  0.87323209096E+03  0.89866608186E+03  0.12500012443E+03 0.  0.
          5    1    3    3  502    0 -0.12865879361E+03  0.19519616054E+02  0.79194590066E+03  0.80257990266E+03  0.47000000000E+01 0. -1.
         -5    1    3    3    0  502 -0.32527090218E+02  0.39306583431E+02  0.81286190303E+02  0.96086179199E+02  0.47000000000E+01 0. -1.
        -11    1    1    2    0    0  0.67991309959E+02 -0.13267560650E+02  0.13377772137E+03  0.15064967683E+03  0.00000000000E+00 0.  1.
         11    1    1    2    0    0  0.93194573867E+02 -0.45558638836E+02  0.57938596161E+03  0.58859910864E+03  0.00000000000E+00 0. -1.
<mgrwt>
<rscale>  0 0.20773290E+03</rscale>
<asrwt>0</asrwt>
<pdfrwt beam="1">  1        2 0.24802382E+00 0.21228858E+03</pdfrwt>
<pdfrwt beam="2">  1       -2 0.39630084E-02 0.21228858E+03</pdfrwt>
<totfact> 0.33096393E+03</totfact>
</mgrwt>
</event>
<event>
 7    1  0.8387408E-006  0.1647864E+03  0.7546771E-02  0.1190647E+00
          1   -1    0    0  501    0  0.00000000000E+00  0.00000000000E+00  0.80399955928E+03  0.80399955928E+03  0.00000000000E+00 0. -1.
         -1   -1    0    0    0  501 -0.00000000000E+00 -0.00000000000E+00 -0.33514736201E+02  0.33514736201E+02  0.00000000000E+00 0.  1.
         23    2    1    2    0    0 -0.10711027959E+03 -0.75358668481E+01  0.56627624910E+03  0.58976550138E+03  0.12500062013E+03 0.  0.
          5    1    3    3  502    0 -0.69014934243E+02  0.55947743963E+02  0.26704455505E+03  0.28147485782E+03  0.47000000000E+01 0. -1.
         -5    1    3    3    0  502 -0.38095345347E+02 -0.63483610811E+02  0.29923169406E+03  0.30829064356E+03  0.47000000000E+01 0. -1.
        -11    1    1    2    0    0  0.63199106890E+02  0.39445714995E+02  0.67007511684E+02  0.10020029025E+03  0.00000000000E+00 0. -1.
         11    1    1    2    0    0  0.43911172700E+02 -0.31909848147E+02  0.13720106229E+03  0.14754850386E+03  0.00000000000E+00 0.  1.
<mgrwt>
<rscale>  0 0.15828492E+03</rscale>
<asrwt>0</asrwt>
<pdfrwt beam="1">  1        1 0.12369223E+00 0.16478640E+03</pdfrwt>
<pdfrwt beam="2">  1       -1 0.51561139E-02 0.16478640E+03</pdfrwt>
<totfact> 0.37783644E+03</totfact>
</mgrwt>
</event>
<event>
 7    1  0.8165933E-006  0.1290912E+03  0.7546771E-02  0.1242605E+00
         -2   -1    0    0    0  501 -0.00000000000E+00  0.00000000000E+00  0.27808896476E+02  0.27808896476E+02  0.00000000000E+00 0.  1.
          2   -1    0    0  501    0  0.00000000000E+00 -0.00000000000E+00 -0.55094476472E+03  0.55094476472E+03  0.00000000000E+00 0. -1.
         23    2    1    2    0    0  0.30414745964E+02  0.10632225115E+02 -0.40821222920E+03  0.42813755002E+03  0.12500574662E+03 0.  0.
          5    1    3    3  502    0  0.63099077840E+02 -0.18187267900E+02 -0.12238194986E+03  0.13896654989E+03  0.47000000000E+01 0.  1.
         -5    1    3    3    0  502 -0.32684331876E+02  0.28819493015E+02 -0.28583027934E+03  0.28917100013E+03  0.47000000000E+01 0.  1.
        -11    1    1    2    0    0  0.12198323427E+02 -0.66233362167E+01  0.10940353885E+02  0.17673681569E+02  0.00000000000E+00 0.  1.
         11    1    1    2    0    0 -0.42613069391E+02 -0.40088888978E+01 -0.12586399293E+03  0.13294242961E+03  0.00000000000E+00 0. -1.
<mgrwt>
<rscale>  0 0.12029865E+03</rscale>
<asrwt>0</asrwt>
<pdfrwt beam="2">  1        2 0.84760735E-01 0.12909120E+03</pdfrwt>
<pdfrwt beam="1">  1       -2 0.42782917E-02 0.12909120E+03</pdfrwt>
<totfact> 0.13079260E+04</totfact>
</mgrwt>
</event>
<event>
 7    1  0.8165933E-006  0.1296043E+03  0.7546771E-02  0.1242446E+00
         -2   -1    0    0    0  501 -0.00000000000E+00  0.00000000000E+00  0.58025089459E+02  0.58025089459E+02  0.00000000000E+00 0.  1.
          2   -1    0    0  501    0  0.00000000000E+00 -0.00000000000E+00 -0.22041706936E+03  0.22041706936E+03  0.00000000000E+00 0. -1.
         23    2    1    2    0    0 -0.32043507230E+02 -0.12073514494E+02 -0.89707508840E+02  0.15762201668E+03  0.12499882756E+03 0.  0.
          5    1    3    3  502    0  0.44306208141E+02 -0.25979248646E+02 -0.30738695234E+02  0.60040976214E+02  0.47000000000E+01 0. -1.
         -5    1    3    3    0  502 -0.76349715371E+02  0.13905734152E+02 -0.58968813606E+02  0.97581040461E+02  0.47000000000E+01 0. -1.
        -11    1    1    2    0    0 -0.14309625378E+01 -0.35822163882E+02 -0.40578165732E+02  0.54146676843E+02  0.00000000000E+00 0. -1.
         11    1    1    2    0    0  0.33474469768E+02  0.47895678377E+02 -0.32106305330E+02  0.66673465302E+02  0.00000000000E+00 0.  1.
<mgrwt>
<rscale>  0 0.12039522E+03</rscale>
<asrwt>0</asrwt>
<pdfrwt beam="2">  1        2 0.33910319E-01 0.12960426E+03</pdfrwt>
<pdfrwt beam="1">  1       -2 0.89269367E-02 0.12960426E+03</pdfrwt>
<totfact> 0.11420157E+04</totfact>
</mgrwt>
</event>
<event>
 7    1  0.8165933E-006  0.1372291E+03  0.7546771E-02  0.1228557E+00
         -1   -1    0    0    0  501 -0.00000000000E+00  0.00000000000E+00  0.49125888987E+02  0.49125888987E+02  0.00000000000E+00 0.  1.
          1   -1    0    0  501    0  0.00000000000E+00 -0.00000000000E+00 -0.66561570286E+03  0.66561570286E+03  0.00000000000E+00 0. -1.
         23    2    1    2    0    0  0.28744301878E+02  0.48787613212E+02 -0.58690905721E+03  0.60273881172E+03  0.12500147047E+03 0.  0.
          5    1    3    3  502    0  0.37874476646E+02  0.77274958371E+02 -0.24935689887E+03  0.26383109783E+03  0.47000000000E+01 0.  1.
         -5    1    3    3    0  502 -0.91301747682E+01 -0.28487345158E+02 -0.33755215834E+03  0.33890771388E+03  0.47000000000E+01 0.  1.
        -11    1    1    2    0    0 -0.61541812027E+02 -0.21091469031E+02 -0.19363989250E+02  0.67876422808E+02  0.00000000000E+00 0.  1.
         11    1    1    2    0    0  0.32797510150E+02 -0.27696144181E+02 -0.10216767416E+02  0.44126357327E+02  0.00000000000E+00 0. -1.
<mgrwt>
<rscale>  0 0.12926077E+03</rscale>
<asrwt>0</asrwt>
<pdfrwt beam="2">  1        1 0.10240240E+00 0.13722913E+03</pdfrwt>
<pdfrwt beam="1">  1       -1 0.75578300E-02 0.13722913E+03</pdfrwt>
<totfact> 0.27923922E+03</totfact>
</mgrwt>
</event>
<event>
 7    1  0.8165933E-006  0.1712472E+03  0.7546771E-02  0.1182973E+00
         -2   -1    0    0    0  501 -0.00000000000E+00  0.00000000000E+00  0.37497924634E+02  0.37497924634E+02  0.00000000000E+00 0.  1.
          2   -1    0    0  501    0  0.00000000000E+00 -0.00000000000E+00 -0.93305851126E+03  0.93305851126E+03  0.00000000000E+00 0. -1.
         23    2    1    2    0    0  0.58708781641E+02  0.10125981939E+03 -0.72332306103E+03  0.74331813090E+03  0.12500128418E+03 0.  0.
          5    1    3    3  502    0 -0.26770186497E+02  0.40961259972E+02 -0.41054421715E+03  0.41347685780E+03  0.47000000000E+01 0.  1.
         -5    1    3    3    0  502  0.85478968137E+02  0.60298559415E+02 -0.31277884388E+03  0.32984127310E+03  0.47000000000E+01 0.  1.
        -11    1    1    2    0    0  0.34986084424E+01 -0.35504158474E+02 -0.36183776510E+01  0.35859143699E+02  0.00000000000E+00 0.  1.
         11    1    1    2    0    0 -0.62207390083E+02 -0.65755660913E+02 -0.16861914794E+03  0.19137916129E+03  0.00000000000E+00 0. -1.
<mgrwt>
<rscale>  0 0.16517715E+03</rscale>
<asrwt>0</asrwt>
<pdfrwt beam="2">  1        2 0.14354746E+00 0.17124717E+03</pdfrwt>
<pdfrwt beam="1">  1       -2 0.57689114E-02 0.17124717E+03</pdfrwt>
<totfact> 0.44776564E+03</totfact>
</mgrwt>
</event>
<event>
 7    1  0.8165933E-006  0.1556297E+03  0.7546771E-02  0.1201720E+00
         -1   -1    0    0    0  501 -0.00000000000E+00  0.00000000000E+00  0.20185323533E+03  0.20185323533E+03  0.00000000000E+00 0.  1.
          1   -1    0    0  501    0  0.00000000000E+00 -0.00000000000E+00 -0.23282954743E+03  0.23282954743E+03  0.00000000000E+00 0. -1.
         23    2    1    2    0    0 -0.40701064303E+01 -0.92627884121E+02 -0.17900404448E+03  0.23719836360E+03  0.12499650024E+03 0.  0.
          5    1    3    3  502    0 -0.29243467320E+02 -0.81750887758E+02 -0.18867184176E+03  0.20774393350E+03  0.47000000000E+01 0.  1.
         -5    1    3    3    0  502  0.25173360889E+02 -0.10876996363E+02  0.96677972876E+01  0.29454430104E+02  0.47000000000E+01 0.  1.
        -11    1    1    2    0    0 -0.30939915282E+01  0.51963462686E+02  0.94760645007E+01  0.52910963291E+02  0.00000000000E+00 0. -1.
         11    1    1    2    0    0  0.71640979584E+01  0.40664421435E+02  0.13855166787E+03  0.14457345586E+03  0.00000000000E+00 0.  1.
<mgrwt>
<rscale>  0 0.14898944E+03</rscale>
<asrwt>0</asrwt>
<pdfrwt beam="2">  1        1 0.35819930E-01 0.15562974E+03</pdfrwt>
<pdfrwt beam="1">  1       -1 0.31054344E-01 0.15562974E+03</pdfrwt>
<totfact> 0.11539779E+03</totfact>
</mgrwt>
</event>
<event>
 7    1  0.8165933E-006  0.1317493E+03  0.7546771E-02  0.1238681E+00
         -2   -1    0    0    0  501 -0.00000000000E+00  0.00000000000E+00  0.21090088431E+02  0.21090088431E+02  0.00000000000E+00 0.  1.
          2   -1    0    0  501    0  0.00000000000E+00 -0.00000000000E+00 -0.63534116410E+03  0.63534116410E+03  0.00000000000E+00 0. -1.
         23    2    1    2    0    0  0.32868070370E+02  0.25684769872E+02 -0.32697872972E+03  0.35252369892E+03  0.12497140136E+03 0.  0.
          5    1    3    3  502    0 -0.19319487564E+02 -0.12491247284E+02 -0.25328766097E+03  0.25437374680E+03  0.47000000000E+01 0.  1.
         -5    1    3    3    0  502  0.52187557934E+02  0.38176017155E+02 -0.73691068751E+02  0.98149952128E+02  0.47000000000E+01 0.  1.
        -11    1    1    2    0    0 -0.31713093207E+02 -0.52500507229E+02 -0.25325386403E+03  0.26057540787E+03  0.00000000000E+00 0. -1.
         11    1    1    2    0    0 -0.11549771623E+01  0.26815737357E+02 -0.34018481907E+02  0.43332145729E+02  0.00000000000E+00 0.  1.
<mgrwt>
<rscale>  0 0.12271697E+03</rscale>
<asrwt>0</asrwt>
<pdfrwt beam="2">  1        2 0.97744798E-01 0.13174926E+03</pdfrwt>
<pdfrwt beam="1">  1       -2 0.32446289E-02 0.13174926E+03</pdfrwt>
<totfact> 0.16786083E+04</totfact>
</mgrwt>
</event>
<event>
 7    1  0.8165933E-006  0.1306914E+03  0.7546771E-02  0.1242203E+00
          3   -1    0    0  501    0  0.00000000000E+00  0.00000000000E+00  0.94698232944E+02  0.94698232944E+02  0.00000000000E+00 0. -1.
         -3   -1    0    0    0  501 -0.00000000000E+00 -0.00000000000E+00 -0.18462242675E+03  0.18462242675E+03  0.00000000000E+00 0.  1.
         23    2    1    2    0    0  0.34122877846E+02 -0.17057207308E+02  0.22269296867E+02  0.13257509892E+03  0.12499966463E+03 0.  0.
          5    1    3    3  502    0  0.70798606571E+02 -0.43444548153E+02  0.25544533589E+02  0.87031515286E+02  0.47000000000E+01 0.  1.
         -5    1    3    3    0  502 -0.36675728725E+02  0.26387340846E+02 -0.32752367225E+01  0.45543583632E+02  0.47000000000E+01 0.  1.
        -11    1    1    2    0    0 -0.78602167924E+01 -0.22298214196E+02 -0.92539772108E+02  0.95512317458E+02  0.00000000000E+00 0.  1.
         11    1    1    2    0    0 -0.26262661053E+02  0.39355421504E+02 -0.19653718563E+02  0.51233243316E+02  0.00000000000E+00 0. -1.
<mgrwt>
<rscale>  0 0.12054360E+03</rscale>
<asrwt>0</asrwt>
<pdfrwt beam="1">  1        3 0.14568959E-01 0.13069137E+03</pdfrwt>
<pdfrwt beam="2">  1       -3 0.28403450E-01 0.13069137E+03</pdfrwt>
<totfact> 0.10625808E+03</totfact>
</mgrwt>
</event>
<event>
 7    1  0.8165933E-006  0.1254976E+03  0.7546771E-02  0.1252896E+00
         -1   -1    0    0    0  501 -0.00000000000E+00  0.00000000000E+00  0.37978799763E+02  0.37978799763E+02  0.00000000000E+00 0.  1.
          1   -1    0    0  501    0  0.00000000000E+00 -0.00000000000E+00 -0.32959108076E+03  0.32959108076E+03  0.00000000000E+00 0. -1.
         23    2    1    2    0    0  0.71332932990E+00  0.11143995228E+02 -0.22863623264E+03  0.26081443271E+03  0.12499977586E+03 0.  0.
          5    1    3    3  502    0 -0.43013523264E+01  0.66885293745E+02 -0.10026801308E+03  0.12069759152E+03  0.47000000000E+01 0.  1.
         -5    1    3    3    0  502  0.50146816563E+01 -0.55741298518E+02 -0.12836821956E+03  0.14011684119E+03  0.47000000000E+01 0.  1.
        -11    1    1    2    0    0 -0.20993749679E+02  0.27206109641E+01  0.14380444566E+02  0.25591725919E+02  0.00000000000E+00 0.  1.
         11    1    1    2    0    0  0.20280420349E+02 -0.13864606192E+02 -0.77356492918E+02  0.81163721889E+02  0.00000000000E+00 0. -1.
<mgrwt>
<rscale>  0 0.11424982E+03</rscale>
<asrwt>0</asrwt>
<pdfrwt beam="2">  1        1 0.50706318E-01 0.12549758E+03</pdfrwt>
<pdfrwt beam="1">  1       -1 0.58428925E-02 0.12549758E+03</pdfrwt>
<totfact> 0.10170636E+04</totfact>
</mgrwt>
</event>
<event>
 7    1  0.8165933E-006  0.2018412E+03  0.7546771E-02  0.1151860E+00
          2   -1    0    0  501    0  0.00000000000E+00  0.00000000000E+00  0.91915157764E+03  0.91915157764E+03  0.00000000000E+00 0. -1.
         -2   -1    0    0    0  501 -0.00000000000E+00 -0.00000000000E+00 -0.43330228686E+02  0.43330228686E+02  0.00000000000E+00 0.  1.
         23    2    1    2    0    0  0.13831735084E+03 -0.77344195273E+02  0.57393080809E+03  0.60838838840E+03  0.12500417827E+03 0.  0.
          5    1    3    3  502    0  0.10945391957E+03 -0.20581387940E+02  0.49223675464E+03  0.50470076942E+03  0.47000000000E+01 0.  1.
         -5    1    3    3    0  502  0.28863431270E+02 -0.56762807333E+02  0.81694053452E+02  0.10368761898E+03  0.47000000000E+01 0.  1.
        -11    1    1    2    0    0 -0.70699292466E+02  0.56636982992E+02  0.78807396717E+02  0.12006974463E+03  0.00000000000E+00 0.  1.
         11    1    1    2    0    0 -0.67618058377E+02  0.20707212281E+02  0.22308314415E+03  0.23402367329E+03  0.00000000000E+00 0. -1.
<mgrwt>
<rscale>  0 0.19750622E+03</rscale>
<asrwt>0</asrwt>
<pdfrwt beam="1">  1        2 0.14140792E+00 0.20184117E+03</pdfrwt>
<pdfrwt beam="2">  1       -2 0.66661897E-02 0.20184117E+03</pdfrwt>
<totfact> 0.36790069E+03</totfact>
</mgrwt>
</event>
<event>
 7    1  0.8165933E-006  0.1289426E+03  0.7546771E-02  0.1242805E+00
          3   -1    0    0  501    0  0.00000000000E+00  0.00000000000E+00  0.12236299843E+03  0.12236299843E+03  0.00000000000E+00 0. -1.
         -3   -1    0    0    0  501 -0.00000000000E+00 -0.00000000000E+00 -0.13504841949E+03  0.13504841949E+03  0.00000000000E+00 0.  1.
         23    2    1    2    0    0  0.91117277054E+01 -0.30298061326E+02  0.53644642071E+02  0.13965654288E+03  0.12500082497E+03 0.  0.
          5    1    3    3  502    0 -0.34482503859E+02 -0.61327426854E+02  0.48736457621E+02  0.85717143316E+02  0.47000000000E+01 0.  1.
         -5    1    3    3    0  502  0.43594231564E+02  0.31029365528E+02  0.49081844501E+01  0.53939399564E+02  0.47000000000E+01 0.  1.
        -11    1    1    2    0    0  0.18868766856E+02  0.20796657311E+02 -0.80300737611E+02  0.85069029493E+02  0.00000000000E+00 0.  1.
         11    1    1    2    0    0 -0.27980494561E+02  0.95014040154E+01  0.13970674477E+02  0.32685845553E+02  0.00000000000E+00 0. -1.
<mgrwt>
<rscale>  0 0.12017698E+03</rscale>
<asrwt>0</asrwt>
<pdfrwt beam="1">  1        3 0.18825077E-01 0.12894263E+03</pdfrwt>
<pdfrwt beam="2">  1       -3 0.20776680E-01 0.12894263E+03</pdfrwt>
<totfact> 0.11959207E+03</totfact>
</mgrwt>
</event>
<event>
 7    1  0.8165933E-006  0.1341423E+03  0.7546771E-02  0.1236217E+00
         -1   -1    0    0    0  501 -0.00000000000E+00  0.00000000000E+00  0.93703757035E+02  0.93703757035E+02  0.00000000000E+00 0.  1.
          1   -1    0    0  501    0  0.00000000000E+00 -0.00000000000E+00 -0.14542619056E+03  0.14542619056E+03  0.00000000000E+00 0. -1.
         23    2    1    2    0    0  0.38770824469E+02 -0.29430836866E+02 -0.37723334371E+02  0.13934564532E+03  0.12499923169E+03 0.  0.
          5    1    3    3  502    0  0.15346787952E+02  0.49244270069E+02 -0.17525427614E+02  0.54678630635E+02  0.47000000000E+01 0. -1.
         -5    1    3    3    0  502  0.23424036517E+02 -0.78675106934E+02 -0.20197906758E+02  0.84667014683E+02  0.47000000000E+01 0. -1.
        -11    1    1    2    0    0  0.84283040328E+00  0.42188602466E+02  0.19380208864E+02  0.46434696475E+02  0.00000000000E+00 0.  1.
         11    1    1    2    0    0 -0.39613654873E+02 -0.12757765600E+02 -0.33379308013E+02  0.53349605799E+02  0.00000000000E+00 0. -1.
<mgrwt>
<rscale>  0 0.12426841E+03</rscale>
<asrwt>0</asrwt>
<pdfrwt beam="2">  1        1 0.22373260E-01 0.13414231E+03</pdfrwt>
<pdfrwt beam="1">  1       -1 0.14415963E-01 0.13414231E+03</pdfrwt>
<totfact> 0.71596436E+03</totfact>
</mgrwt>
</event>
<event>
 6    1  0.8165933E-006  0.1580159E+03  0.7546771E-02  0.1215275E+00
         -2   -1    0    0    0  501 -0.00000000000E+00  0.00000000000E+00  0.11853137528E+03  0.11853137528E+03  0.00000000000E+00 0.  1.
          2   -1    0    0  501    0  0.00000000000E+00 -0.00000000000E+00 -0.14895319979E+03  0.14895319979E+03  0.00000000000E+00 0. -1.
          5    1    1    2  502    0 -0.38516338031E+02  0.45963351878E+02 -0.87567739681E+02  0.10623717355E+03  0.47000000000E+01 0. -1.
         -5    1    1    2    0  502  0.48532573922E+02 -0.29556135137E+02  0.26874205550E+02  0.63034028744E+02  0.47000000000E+01 0.  1.
        -11    1    1    2    0    0 -0.46070832226E+02 -0.11464299081E+02  0.38238016932E+02  0.60959803758E+02  0.00000000000E+00 0. -1.
         11    1    1    2    0    0  0.36054596335E+02 -0.49429176599E+01 -0.79663073123E+01  0.37253569011E+02  0.00000000000E+00 0.  1.
<mgrwt>
<rscale>  0 0.13856364E+03</rscale>
<asrwt>0</asrwt>
<pdfrwt beam="2">  1        2 0.22915877E-01 0.15801593E+03</pdfrwt>
<pdfrwt beam="1">  1       -2 0.18235596E-01 0.15801593E+03</pdfrwt>
<totfact> 0.56253778E+03</totfact>
</mgrwt>
</event>
<event>
 7    1  0.8165933E-006  0.2664030E+03  0.7546771E-02  0.1105478E+00
          2   -1    0    0  501    0  0.00000000000E+00  0.00000000000E+00  0.43394662870E+03  0.43394662870E+03  0.00000000000E+00 0. -1.
         -2   -1    0    0    0  501 -0.00000000000E+00 -0.00000000000E+00 -0.15793579058E+03  0.15793579058E+03  0.00000000000E+00 0.  1.
         23    2    1    2    0    0  0.18384973483E+03 -0.14680093906E+03  0.18223796773E+03  0.32277121839E+03  0.12497736528E+03 0.  0.
          5    1    3    3  502    0  0.11892164967E+02 -0.56869261236E+02  0.91523675268E+02  0.10850903002E+03  0.47000000000E+01 0. -1.
         -5    1    3    3    0  502  0.17195756986E+03 -0.89931677820E+02  0.90714292467E+02  0.21426218837E+03  0.47000000000E+01 0. -1.
        -11    1    1    2    0    0 -0.12115830090E+03  0.10504747726E+03  0.10680408645E+03  0.19266919639E+03  0.00000000000E+00 0. -1.
         11    1    1    2    0    0 -0.62691433930E+02  0.41753461796E+02 -0.13031216054E+02  0.76442004500E+02  0.00000000000E+00 0.  1.
<mgrwt>
<rscale>  0 0.26279070E+03</rscale>
<asrwt>0</asrwt>
<pdfrwt beam="1">  1        2 0.66761020E-01 0.26640305E+03</pdfrwt>
<pdfrwt beam="2">  1       -2 0.24297814E-01 0.26640305E+03</pdfrwt>
<totfact> 0.10920492E+03</totfact>
</mgrwt>
</event>
<event>
 7    1  0.8165933E-006  0.2415016E+03  0.7546771E-02  0.1121368E+00
          2   -1    0    0  501    0  0.00000000000E+00  0.00000000000E+00  0.90561587936E+03  0.90561587936E+03  0.00000000000E+00 0. -1.
         -2   -1    0    0    0  501 -0.00000000000E+00 -0.00000000000E+00 -0.62983720102E+02  0.62983720102E+02  0.00000000000E+00 0.  1.
         23    2    1    2    0    0  0.37592854934E+02  0.20318189279E+03  0.53132807532E+03  0.58363735370E+03  0.12500773059E+03 0.  0.
          5    1    3    3  502    0  0.18459662847E+02  0.21328754998E+03  0.50891469488E+03  0.55213095801E+03  0.47000000000E+01 0.  1.
         -5    1    3    3    0  502  0.19133192086E+02 -0.10105657185E+02  0.22413380439E+02  0.31506395688E+02  0.47000000000E+01 0.  1.
        -11    1    1    2    0    0  0.17472651852E+02 -0.13924546024E+03  0.17070332423E+03  0.22098465255E+03  0.00000000000E+00 0. -1.
         11    1    1    2    0    0 -0.55065506785E+02 -0.63936432551E+02  0.14060075971E+03  0.16397759321E+03  0.00000000000E+00 0.  1.
<mgrwt>
<rscale>  0 0.23765097E+03</rscale>
<asrwt>0</asrwt>
<pdfrwt beam="1">  1        2 0.13932551E+00 0.24150163E+03</pdfrwt>
<pdfrwt beam="2">  1       -2 0.96898037E-02 0.24150163E+03</pdfrwt>
<totfact> 0.20980008E+03</totfact>
</mgrwt>
</event>
<event>
 7    1  0.8165933E-006  0.1279221E+03  0.7546771E-02  0.1244540E+00
         -2   -1    0    0    0  501 -0.00000000000E+00  0.00000000000E+00  0.47572510611E+02  0.47572510611E+02  0.00000000000E+00 0. -1.
          2   -1    0    0  501    0  0.00000000000E+00 -0.00000000000E+00 -0.34425880642E+03  0.34425880642E+03  0.00000000000E+00 0.  1.
         23    2    1    2    0    0 -0.25587850348E+02 -0.91701568768E+01 -0.25830289905E+03  0.28824372275E+03  0.12500090474E+03 0.  0.
          5    1    3    3  502    0 -0.41293322211E+02 -0.60858299990E+02 -0.14813840574E+03  0.16545678708E+03  0.47000000000E+01 0.  1.
         -5    1    3    3    0  502  0.15705471863E+02  0.51688143113E+02 -0.11016449331E+03  0.12278693567E+03  0.47000000000E+01 0.  1.
        -11    1    1    2    0    0  0.42044562539E+01 -0.24202110180E+02 -0.55286804826E+02  0.60498350204E+02  0.00000000000E+00 0.  1.
         11    1    1    2    0    0  0.21383394094E+02  0.33372267057E+02  0.16903408059E+02  0.43089244081E+02  0.00000000000E+00 0. -1.
<mgrwt>
<rscale>  0 0.11912928E+03</rscale>
<asrwt>0</asrwt>
<pdfrwt beam="2">  1        2 0.52962893E-01 0.12792207E+03</pdfrwt>
<pdfrwt beam="1">  1       -2 0.73188479E-02 0.12792207E+03</pdfrwt>
<totfact> 0.96572147E+03</totfact>
</mgrwt>
</event>
<event>
 7    1  0.8165933E-006  0.2271345E+03  0.7546771E-02  0.1131808E+00
         -1   -1    0    0    0  501 -0.00000000000E+00  0.00000000000E+00  0.78977630439E+02  0.78977630439E+02  0.00000000000E+00 0.  1.
          1   -1    0    0  501    0  0.00000000000E+00 -0.00000000000E+00 -0.60630122410E+03  0.60630122410E+03  0.00000000000E+00 0. -1.
         23    2    1    2    0    0  0.64830936400E+02  0.17821933633E+03 -0.26330815653E+03  0.34773738221E+03  0.12499967814E+03 0.  0.
          5    1    3    3  502    0  0.93814485621E+02  0.13776582020E+03 -0.24085486574E+03  0.29293981511E+03  0.47000000000E+01 0. -1.
         -5    1    3    3    0  502 -0.28983549220E+02  0.40453516133E+02 -0.22453290798E+02  0.54797567105E+02  0.47000000000E+01 0. -1.
        -11    1    1    2    0    0 -0.54201764797E+02 -0.10013679266E+03 -0.85453366350E+02  0.14236392230E+03  0.00000000000E+00 0. -1.
         11    1    1    2    0    0 -0.10629171603E+02 -0.78082543671E+02 -0.17856207078E+03  0.19517755003E+03  0.00000000000E+00 0.  1.
<mgrwt>
<rscale>  0 0.22280613E+03</rscale>
<asrwt>0</asrwt>
<pdfrwt beam="2">  1        1 0.93277111E-01 0.22713455E+03</pdfrwt>
<pdfrwt beam="1">  1       -1 0.12150405E-01 0.22713455E+03</pdfrwt>
<totfact> 0.15533832E+03</totfact>
</mgrwt>
</event>
<event>
 7    1  0.8165933E-006  0.1836626E+03  0.7546771E-02  0.1169743E+00
          2   -1    0    0  501    0  0.00000000000E+00  0.00000000000E+00  0.78456914006E+03  0.78456914006E+03  0.00000000000E+00 0.  1.
         -2   -1    0    0    0  501 -0.00000000000E+00 -0.00000000000E+00 -0.40660475961E+02  0.40660475961E+02  0.00000000000E+00 0. -1.
         23    2    1    2    0    0  0.12705789924E+03  0.44316059800E+02  0.29013458069E+03  0.34338030036E+03  0.12499733136E+03 0.  0.
          5    1    3    3  502    0  0.13089117268E+03 -0.28228316010E+01  0.24505176569E+03  0.27787213845E+03  0.47000000000E+01 0. -1.
         -5    1    3    3    0  502 -0.38332734365E+01  0.47138891401E+02  0.45082815003E+02  0.65508161907E+02  0.47000000000E+01 0. -1.
        -11    1    1    2    0    0 -0.52243551622E+02 -0.64275245774E+02  0.19844149069E+03  0.21503423247E+03  0.00000000000E+00 0.  1.
         11    1    1    2    0    0 -0.74814347620E+02  0.19959185974E+02  0.25533259272E+03  0.26681508319E+03  0.00000000000E+00 0. -1.
<mgrwt>
<rscale>  0 0.17800968E+03</rscale>
<asrwt>0</asrwt>
<pdfrwt beam="1">  1        2 0.12070293E+00 0.18366261E+03</pdfrwt>
<pdfrwt beam="2">  1       -2 0.62554584E-02 0.18366261E+03</pdfrwt>
<totfact> 0.49639843E+03</totfact>
</mgrwt>
</event>
<event>
 7    1  0.8165933E-006  0.2056522E+03  0.7546771E-02  0.1148915E+00
         -1   -1    0    0    0  501 -0.00000000000E+00  0.00000000000E+00  0.15557160419E+03  0.15557160419E+03  0.00000000000E+00 0.  1.
          1   -1    0    0  501    0  0.00000000000E+00 -0.00000000000E+00 -0.51951170993E+03  0.51951170993E+03  0.00000000000E+00 0. -1.
         23    2    1    2    0    0 -0.54618028629E+02  0.15389035928E+03 -0.42963968343E+03  0.47632244842E+03  0.12500978186E+03 0.  0.
          5    1    3    3  502    0 -0.11240557879E+01  0.85452406842E+02 -0.84070356157E+02  0.11997204725E+03  0.47000000000E+01 0.  1.
         -5    1    3    3    0  502 -0.53493972841E+02  0.68437952437E+02 -0.34556932727E+03  0.35635040117E+03  0.47000000000E+01 0.  1.
        -11    1    1    2    0    0  0.39852391118E+02 -0.12860823881E+03  0.89921823234E+01  0.13494128912E+03  0.00000000000E+00 0.  1.
         11    1    1    2    0    0  0.14765637511E+02 -0.25282120471E+02  0.56707395359E+02  0.63819576582E+02  0.00000000000E+00 0. -1.
<mgrwt>
<rscale>  0 0.20097940E+03</rscale>
<asrwt>0</asrwt>
<pdfrwt beam="2">  1        1 0.79924878E-01 0.20565218E+03</pdfrwt>
<pdfrwt beam="1">  1       -1 0.23934093E-01 0.20565218E+03</pdfrwt>
<totfact> 0.64619586E+02</totfact>
</mgrwt>
</event>
<event>
 6    1  0.8165933E-006  0.3289441E+03  0.7546771E-02  0.1115712E+00
         -2   -1    0    0    0  501 -0.00000000000E+00  0.00000000000E+00  0.11805603714E+03  0.11805603714E+03  0.00000000000E+00 0.  1.
          2   -1    0    0  501    0  0.00000000000E+00 -0.00000000000E+00 -0.64778878546E+03  0.64778878546E+03  0.00000000000E+00 0. -1.
          5    1    1    2  502    0  0.11686074508E+03  0.87127113044E+02 -0.36749719932E+03  0.39537810900E+03  0.47000000000E+01 0. -1.
         -5    1    1    2    0  502 -0.15028346046E+03 -0.72683936338E+02 -0.19995410369E+03  0.26052218077E+03  0.47000000000E+01 0.  1.
        -11    1    1    2    0    0  0.60739683137E+02 -0.33968863827E+02  0.23149946066E+02  0.73342435330E+02  0.00000000000E+00 0. -1.
         11    1    1    2    0    0 -0.27316967752E+02  0.19525687121E+02  0.14568608628E+02  0.36602097509E+02  0.00000000000E+00 0.  1.
<mgrwt>
<rscale>  0 0.24622788E+03</rscale>
<asrwt>0</asrwt>
<pdfrwt beam="2">  1        2 0.99659815E-01 0.32894408E+03</pdfrwt>
<pdfrwt beam="1">  1       -2 0.18162467E-01 0.32894408E+03</pdfrwt>
<totfact> 0.11443833E+03</totfact>
</mgrwt>
</event>
<event>
 7    1  0.8165933E-006  0.1648891E+03  0.7546771E-02  0.1190482E+00
          1   -1    0    0  501    0  0.00000000000E+00  0.00000000000E+00  0.53817415825E+02  0.53817415825E+02  0.00000000000E+00 0. -1.
         -1   -1    0    0    0  501 -0.00000000000E+00 -0.00000000000E+00 -0.43353027904E+03  0.43353027904E+03  0.00000000000E+00 0.  1.
         23    2    1    2    0    0 -0.63830155667E+02 -0.86525378285E+02 -0.21043607253E+03  0.26734201059E+03  0.12500992020E+03 0.  0.
          5    1    3    3  502    0 -0.57868818118E+02 -0.10424625481E+03 -0.21643799588E+03  0.24715092112E+03  0.47000000000E+01 0.  1.
         -5    1    3    3    0  502 -0.59613375481E+01  0.17720876524E+02  0.60019233493E+01  0.20191089471E+02  0.47000000000E+01 0.  1.
        -11    1    1    2    0    0 -0.36761076833E+01 -0.16715982251E+02 -0.18592312649E+02  0.25270772049E+02  0.00000000000E+00 0.  1.
         11    1    1    2    0    0  0.67506263350E+02  0.10324136054E+03 -0.15068447803E+03  0.19473491222E+03  0.00000000000E+00 0. -1.
<mgrwt>
<rscale>  0 0.15842874E+03</rscale>
<asrwt>0</asrwt>
<pdfrwt beam="1">  1        1 0.82796022E-02 0.16488908E+03</pdfrwt>
<pdfrwt beam="2">  1       -1 0.66696968E-01 0.16488908E+03</pdfrwt>
<totfact> 0.19209053E+03</totfact>
</mgrwt>
</event>
<event>
 7    1  0.8165933E-006  0.1302151E+03  0.7546771E-02  0.1240204E+00
         -2   -1    0    0    0  501 -0.00000000000E+00  0.00000000000E+00  0.59420971315E+02  0.59420971315E+02  0.00000000000E+00 0.  1.
          2   -1    0    0  501    0  0.00000000000E+00 -0.00000000000E+00 -0.23373154199E+03  0.23373154199E+03  0.00000000000E+00 0. -1.
         23    2    1    2    0    0  0.18600412669E+02  0.31369121625E+02 -0.13051535725E+03  0.18436438594E+03  0.12500388466E+03 0.  0.
          5    1    3    3  502    0 -0.27574277067E+02  0.34875981613E+02 -0.13036562020E+03  0.13781857560E+03  0.47000000000E+01 0.  1.
         -5    1    3    3    0  502  0.46174689736E+02 -0.35068599877E+01 -0.14973705439E+00  0.46545810342E+02  0.47000000000E+01 0.  1.
        -11    1    1    2    0    0 -0.13933804069E+00 -0.61145063136E+02 -0.13836904694E+02  0.62691291999E+02  0.00000000000E+00 0.  1.
         11    1    1    2    0    0 -0.18461074629E+02  0.29775941511E+02 -0.29958308729E+02  0.46096835371E+02  0.00000000000E+00 0. -1.
<mgrwt>
<rscale>  0 0.12177065E+03</rscale>
<asrwt>0</asrwt>
<pdfrwt beam="2">  1        2 0.35958699E-01 0.13021508E+03</pdfrwt>
<pdfrwt beam="1">  1       -2 0.91416880E-02 0.13021508E+03</pdfrwt>
<totfact> 0.10339871E+04</totfact>
</mgrwt>
</event>
<event>
 7    1  0.8165933E-006  0.1254790E+03  0.7546771E-02  0.1250189E+00
          4   -1    0    0  501    0  0.00000000000E+00  0.00000000000E+00  0.30585821263E+02  0.30585821263E+02  0.00000000000E+00 0. -1.
         -4   -1    0    0    0  501 -0.00000000000E+00 -0.00000000000E+00 -0.42791541804E+03  0.42791541804E+03  0.00000000000E+00 0.  1.
         23    2    1    2    0    0 -0.10878952825E+02 -0.61957941523E+00 -0.15364686692E+03  0.19837421847E+03  0.12500494130E+03 0.  0.
          5    1    3    3  502    0  0.34608151117E+02  0.34417947524E+02 -0.20217004981E+02  0.53039009474E+02  0.47000000000E+01 0. -1.
         -5    1    3    3    0  502 -0.45487103942E+02 -0.35037526940E+02 -0.13342986193E+03  0.14533520900E+03  0.47000000000E+01 0. -1.
        -11    1    1    2    0    0 -0.18303583106E+02  0.25297188382E+02 -0.30863943611E+02  0.43903894016E+02  0.00000000000E+00 0. -1.
         11    1    1    2    0    0  0.29182535932E+02 -0.24677608966E+02 -0.21281878625E+03  0.21622312681E+03  0.00000000000E+00 0.  1.
<mgrwt>
<rscale>  0 0.11580129E+03</rscale>
<asrwt>0</asrwt>
<pdfrwt beam="1">  1        4 0.47055112E-02 0.12547897E+03</pdfrwt>
<pdfrwt beam="2">  1       -4 0.65833138E-01 0.12547897E+03</pdfrwt>
<totfact> 0.93269022E+02</totfact>
</mgrwt>
</event>
<event>
 7    1  0.1522539E-005  0.2031357E+03  0.7546771E-02  0.1151312E+00
         -1   -1    0    0    0  501 -0.00000000000E+00  0.00000000000E+00  0.37460833470E+03  0.37460833470E+03  0.00000000000E+00 0.  1.
          1   -1    0    0  501    0  0.00000000000E+00 -0.00000000000E+00 -0.10620356114E+03  0.10620356114E+03  0.00000000000E+00 0. -1.
         23    2    1    2    0    0  0.10166794433E+03  0.12370374969E+03  0.82311124846E+02  0.21917853699E+03  0.12500048485E+03 0.  0.
          5    1    3    3  502    0 -0.20559132364E+02  0.10484280323E+02  0.41283807214E+02  0.47529367716E+02  0.47000000000E+01 0. -1.
         -5    1    3    3    0  502  0.12222707669E+03  0.11321946936E+03  0.41027317632E+02  0.17164916927E+03  0.47000000000E+01 0. -1.
        -11    1    1    2    0    0 -0.37680758707E+02 -0.80756985129E+02  0.15447220990E+03  0.17833449990E+03  0.00000000000E+00 0.  1.
         11    1    1    2    0    0 -0.63987185618E+02 -0.42946764557E+02  0.31621438822E+02  0.83298858951E+02  0.00000000000E+00 0. -1.
<mgrwt>
<rscale>  0 0.19814734E+03</rscale>
<asrwt>0</asrwt>
<pdfrwt beam="2">  1        1 0.16339010E-01 0.20313569E+03</pdfrwt>
<pdfrwt beam="1">  1       -1 0.57632051E-01 0.20313569E+03</pdfrwt>
<totfact> 0.10404175E+03</totfact>
</mgrwt>
</event>
<event>
 7    1  0.8165933E-006  0.1251011E+03  0.7546771E-02  0.1249574E+00
         -1   -1    0    0    0  501 -0.00000000000E+00  0.00000000000E+00  0.36485331464E+02  0.36485331464E+02  0.00000000000E+00 0.  1.
          1   -1    0    0  501    0  0.00000000000E+00 -0.00000000000E+00 -0.34572418761E+03  0.34572418761E+03  0.00000000000E+00 0. -1.
         23    2    1    2    0    0  0.39127951870E+01 -0.28989797047E+01 -0.22138389023E+03  0.25428549610E+03  0.12500629032E+03 0.  0.
          5    1    3    3  502    0  0.17551078104E+01 -0.37864916337E+02 -0.21500101580E+03  0.21836748633E+03  0.47000000000E+01 0. -1.
         -5    1    3    3    0  502  0.21576873766E+01  0.34965936633E+02 -0.63828744371E+01  0.35918009765E+02  0.47000000000E+01 0. -1.
        -11    1    1    2    0    0 -0.14759952307E+01  0.37246853597E+02 -0.42648672256E+01  0.37519271812E+02  0.00000000000E+00 0.  1.
         11    1    1    2    0    0 -0.24367999564E+01 -0.34347873893E+02 -0.83590098688E+02  0.90404751168E+02  0.00000000000E+00 0. -1.
<mgrwt>
<rscale>  0 0.11615774E+03</rscale>
<asrwt>0</asrwt>
<pdfrwt beam="2">  1        1 0.53188338E-01 0.12510111E+03</pdfrwt>
<pdfrwt beam="1">  1       -1 0.56131277E-02 0.12510111E+03</pdfrwt>
<totfact> 0.10170231E+04</totfact>
</mgrwt>
</event>
<event>
 7    1  0.8165933E-006  0.1296318E+03  0.7546771E-02  0.1242228E+00
          2   -1    0    0  501    0  0.00000000000E+00  0.00000000000E+00  0.42315343940E+03  0.42315343940E+03  0.00000000000E+00 0. -1.
         -2   -1    0    0    0  501 -0.00000000000E+00 -0.00000000000E+00 -0.32265556769E+02  0.32265556769E+02  0.00000000000E+00 0.  1.
         23    2    1    2    0    0  0.24668334083E+02  0.23917629025E+02  0.27747320374E+03  0.30626096141E+03  0.12499527195E+03 0.  0.
          5    1    3    3  502    0  0.62153074213E+02  0.13838972614E+02  0.68423714689E+02  0.93586412095E+02  0.47000000000E+01 0. -1.
         -5    1    3    3    0  502 -0.37484740130E+02  0.10078656412E+02  0.20904948905E+03  0.21267454932E+03  0.47000000000E+01 0. -1.
        -11    1    1    2    0    0 -0.42355877944E+02  0.13858244368E+01  0.13338480331E+02  0.44428098803E+02  0.00000000000E+00 0. -1.
         11    1    1    2    0    0  0.17687543861E+02 -0.25303453462E+02  0.10007619856E+03  0.10472993595E+03  0.00000000000E+00 0.  1.
<mgrwt>
<rscale>  0 0.12052835E+03</rscale>
<asrwt>0</asrwt>
<pdfrwt beam="1">  1        2 0.65100525E-01 0.12963178E+03</pdfrwt>
<pdfrwt beam="2">  1       -2 0.49639321E-02 0.12963178E+03</pdfrwt>
<totfact> 0.13975592E+04</totfact>
</mgrwt>
</event>
<event>
 7    1  0.8165933E-006  0.1252414E+03  0.7546771E-02  0.1251593E+00
          1   -1    0    0  501    0  0.00000000000E+00  0.00000000000E+00  0.58794583815E+03  0.58794583815E+03  0.00000000000E+00 0. -1.
         -1   -1    0    0    0  501 -0.00000000000E+00 -0.00000000000E+00 -0.24540299702E+02  0.24540299702E+02  0.00000000000E+00 0.  1.
         23    2    1    2    0    0  0.73365516972E+01  0.23474705926E+01  0.45653457096E+03  0.47340175650E+03  0.12500429180E+03 0.  0.
          5    1    3    3  502    0 -0.29310193893E+02 -0.34017990629E+02  0.69281928195E+02  0.82694538676E+02  0.47000000000E+01 0. -1.
         -5    1    3    3    0  502  0.36646745590E+02  0.36365461221E+02  0.38725264276E+03  0.39070721782E+03  0.47000000000E+01 0. -1.
        -11    1    1    2    0    0 -0.34119685265E+02  0.10654195138E+02  0.91051643471E+01  0.36885889096E+02  0.00000000000E+00 0.  1.
         11    1    1    2    0    0  0.26783133568E+02 -0.13001665731E+02  0.97765803146E+02  0.10219849226E+03  0.00000000000E+00 0. -1.
<mgrwt>
<rscale>  0 0.11499331E+03</rscale>
<asrwt>0</asrwt>
<pdfrwt beam="1">  1        1 0.90453195E-01 0.12524140E+03</pdfrwt>
<pdfrwt beam="2">  1       -1 0.37754312E-02 0.12524140E+03</pdfrwt>
<totfact> 0.92247941E+03</totfact>
</mgrwt>
</event>
<event>
 7    1  0.8165933E-006  0.1253033E+03  0.7546771E-02  0.1252231E+00
          1   -1    0    0  501    0  0.00000000000E+00  0.00000000000E+00  0.11218440300E+03  0.11218440300E+03  0.00000000000E+00 0. -1.
         -1   -1    0    0    0  501 -0.00000000000E+00 -0.00000000000E+00 -0.11466009306E+03  0.11466009306E+03  0.00000000000E+00 0.  1.
         23    2    1    2    0    0  0.60777414276E+01 -0.62655476775E+01  0.36950410223E+02  0.13063782323E+03  0.12499884805E+03 0.  0.
          5    1    3    3  502    0  0.23372181582E+02  0.52307762173E+02 -0.29076301103E+01  0.57557841936E+02  0.47000000000E+01 0.  1.
         -5    1    3    3    0  502 -0.17294440154E+02 -0.58573309851E+02  0.39858040333E+02  0.73079981297E+02  0.47000000000E+01 0.  1.
        -11    1    1    2    0    0 -0.28351992574E+02 -0.25594112114E+02 -0.42584938165E+02  0.57204641563E+02  0.00000000000E+00 0.  1.
         11    1    1    2    0    0  0.22274251146E+02  0.31859659791E+02  0.31588378793E+01  0.39002031266E+02  0.00000000000E+00 0. -1.
<mgrwt>
<rscale>  0 0.11462843E+03</rscale>
<asrwt>0</asrwt>
<pdfrwt beam="1">  1        1 0.17259139E-01 0.12530326E+03</pdfrwt>
<pdfrwt beam="2">  1       -1 0.17640014E-01 0.12530326E+03</pdfrwt>
<totfact> 0.72125484E+03</totfact>
</mgrwt>
</event>
<event>
 7    1  0.8165933E-006  0.1267324E+03  0.7546771E-02  0.1247101E+00
          2   -1    0    0  501    0  0.00000000000E+00  0.00000000000E+00  0.90808356519E+03  0.90808356519E+03  0.00000000000E+00 0. -1.
         -2   -1    0    0    0  501 -0.00000000000E+00 -0.00000000000E+00 -0.26977449177E+02  0.26977449177E+02  0.00000000000E+00 0.  1.
         23    2    1    2    0    0  0.18484267858E+02  0.94742964534E+01  0.80277173515E+03  0.81271369808E+03  0.12501866201E+03 0.  0.
          5    1    3    3  502    0  0.32783838745E+02  0.58766890323E+02  0.58741431485E+03  0.59127488935E+03  0.47000000000E+01 0. -1.
         -5    1    3    3    0  502 -0.14299570887E+02 -0.49292593870E+02  0.21535742029E+03  0.22143880873E+03  0.47000000000E+01 0. -1.
        -11    1    1    2    0    0 -0.27033019980E+02 -0.15337060668E+02  0.96527699761E+02  0.10140811812E+03  0.00000000000E+00 0. -1.
         11    1    1    2    0    0  0.85487521224E+01  0.58627642151E+01 -0.18193318899E+02  0.20939198161E+02  0.00000000000E+00 0.  1.
<mgrwt>
<rscale>  0 0.11760525E+03</rscale>
<asrwt>0</asrwt>
<pdfrwt beam="1">  1        2 0.13970514E+00 0.12673238E+03</pdfrwt>
<pdfrwt beam="2">  1       -2 0.41503775E-02 0.12673238E+03</pdfrwt>
<totfact> 0.75190663E+03</totfact>
</mgrwt>
</event>
<event>
 7    1  0.8165933E-006  0.2864070E+03  0.7546771E-02  0.1093912E+00
          2   -1    0    0  501    0  0.00000000000E+00  0.00000000000E+00  0.88870658770E+03  0.88870658770E+03  0.00000000000E+00 0. -1.
         -2   -1    0    0    0  501 -0.00000000000E+00 -0.00000000000E+00 -0.10167526051E+03  0.10167526051E+03  0.00000000000E+00 0.  1.
         23    2    1    2    0    0  0.21915419709E+03 -0.13556297636E+03  0.58009055604E+03  0.64694207721E+03  0.12499246134E+03 0.  0.
          5    1    3    3  502    0  0.18757080716E+03 -0.11123625388E+03  0.34303139751E+03  0.40650823061E+03  0.47000000000E+01 0. -1.
         -5    1    3    3    0  502  0.31583389929E+02 -0.24326722478E+02  0.23705915853E+03  0.24043384660E+03  0.47000000000E+01 0. -1.
        -11    1    1    2    0    0 -0.12527193047E+03  0.91222341041E+02  0.17727297465E+03  0.23545759620E+03  0.00000000000E+00 0. -1.
         11    1    1    2    0    0 -0.93882266617E+02  0.44340635316E+02  0.29667796504E+02  0.10798217480E+03  0.00000000000E+00 0.  1.
<mgrwt>
<rscale>  0 0.28327735E+03</rscale>
<asrwt>0</asrwt>
<pdfrwt beam="1">  1        2 0.13672409E+00 0.28640705E+03</pdfrwt>
<pdfrwt beam="2">  1       -2 0.15642348E-01 0.28640705E+03</pdfrwt>
<totfact> 0.98779035E+02</totfact>
</mgrwt>
</event>
<event>
 7    1  0.8165933E-006  0.1634100E+03  0.7546771E-02  0.1191712E+00
          2   -1    0    0  501    0  0.00000000000E+00  0.00000000000E+00  0.72932581158E+02  0.72932581158E+02  0.00000000000E+00 0. -1.
         -2   -1    0    0    0  501 -0.00000000000E+00 -0.00000000000E+00 -0.32802256168E+03  0.32802256168E+03  0.00000000000E+00 0.  1.
         23    2    1    2    0    0 -0.89798875271E+01 -0.10486999609E+03 -0.99562905180E+02  0.19135200361E+03  0.12499785093E+03 0.  0.
          5    1    3    3  502    0 -0.25701664252E+02 -0.92049949175E+01  0.22223252022E+02  0.35514369024E+02  0.47000000000E+01 0.  1.
         -5    1    3    3    0  502  0.16721776725E+02 -0.95665001171E+02 -0.12178615720E+03  0.15583763458E+03  0.47000000000E+01 0.  1.
        -11    1    1    2    0    0  0.15073959525E+02 -0.84459204016E+01 -0.56191279938E+02  0.58787904949E+02  0.00000000000E+00 0.  1.
         11    1    1    2    0    0 -0.60940719977E+01  0.11331591649E+03 -0.99335795400E+02  0.15081523428E+03  0.00000000000E+00 0. -1.
<mgrwt>
<rscale>  0 0.15735861E+03</rscale>
<asrwt>0</asrwt>
<pdfrwt beam="1">  1        2 0.11220397E-01 0.16340997E+03</pdfrwt>
<pdfrwt beam="2">  1       -2 0.50465009E-01 0.16340997E+03</pdfrwt>
<totfact> 0.20420232E+03</totfact>
</mgrwt>
</event>
<event>
 7    1  0.8165933E-006  0.1544648E+03  0.7546771E-02  0.1203461E+00
         -1   -1    0    0    0  501 -0.00000000000E+00  0.00000000000E+00  0.50794773762E+02  0.50794773762E+02  0.00000000000E+00 0.  1.
          1   -1    0    0  501    0  0.00000000000E+00 -0.00000000000E+00 -0.43603635280E+03  0.43603635280E+03  0.00000000000E+00 0. -1.
         23    2    1    2    0    0 -0.53247680897E+02 -0.73494471526E+02 -0.28301178260E+03  0.32242059025E+03  0.12499045989E+03 0.  0.
          5    1    3    3  502    0 -0.66961591177E+02 -0.26482388717E+02 -0.25665920520E+03  0.26661059473E+03  0.47000000000E+01 0. -1.
         -5    1    3    3    0  502  0.13713910281E+02 -0.47012082809E+02 -0.26352577400E+02  0.55809995528E+02  0.47000000000E+01 0. -1.
        -11    1    1    2    0    0  0.56593366290E+01 -0.19427149708E+02 -0.34405601361E+02  0.39914754689E+02  0.00000000000E+00 0. -1.
         11    1    1    2    0    0  0.47588344268E+02  0.92921621234E+02 -0.67824195070E+02  0.12449578161E+03  0.00000000000E+00 0.  1.
<mgrwt>
<rscale>  0 0.14759438E+03</rscale>
<asrwt>0</asrwt>
<pdfrwt beam="2">  1        1 0.67082513E-01 0.15446478E+03</pdfrwt>
<pdfrwt beam="1">  1       -1 0.78145810E-02 0.15446478E+03</pdfrwt>
<totfact> 0.46890381E+03</totfact>
</mgrwt>
</event>
<event>
 7    1  0.8165933E-006  0.1265117E+03  0.7546771E-02  0.1248989E+00
         -1   -1    0    0    0  501 -0.00000000000E+00  0.00000000000E+00  0.23404076113E+02  0.23404076113E+02  0.00000000000E+00 0. -1.
          1   -1    0    0  501    0  0.00000000000E+00 -0.00000000000E+00 -0.13527793266E+04  0.13527793266E+04  0.00000000000E+00 0.  1.
         23    2    1    2    0    0  0.16577491047E+02 -0.10291013583E+02 -0.12471887367E+04  0.12535888335E+04  0.12499800100E+03 0.  0.
          5    1    3    3  502    0  0.33834301604E+02 -0.62180983487E+02 -0.63795848553E+03  0.64189123216E+03  0.47000000000E+01 0.  1.
         -5    1    3    3    0  502 -0.17256810557E+02  0.51889969904E+02 -0.60923025119E+03  0.61169760131E+03  0.47000000000E+01 0.  1.
        -11    1    1    2    0    0  0.32619308408E+02  0.23289905977E+02 -0.36397743660E+02  0.54140878687E+02  0.00000000000E+00 0.  1.
         11    1    1    2    0    0 -0.49196799456E+02 -0.12998892394E+02 -0.45788770076E+02  0.68453690516E+02  0.00000000000E+00 0. -1.
<mgrwt>
<rscale>  0 0.11649783E+03</rscale>
<asrwt>0</asrwt>
<pdfrwt beam="2">  1        1 0.20811996E+00 0.12651173E+03</pdfrwt>
<pdfrwt beam="1">  1       -1 0.36006260E-02 0.12651173E+03</pdfrwt>
<totfact> 0.25630682E+03</totfact>
</mgrwt>
</event>
<event>
 7    1  0.8165933E-006  0.1428075E+03  0.7546771E-02  0.1219060E+00
          1   -1    0    0  501    0  0.00000000000E+00  0.00000000000E+00  0.79585885757E+02  0.79585885757E+02  0.00000000000E+00 0. -1.
         -1   -1    0    0    0  501 -0.00000000000E+00 -0.00000000000E+00 -0.26467694701E+03  0.26467694701E+03  0.00000000000E+00 0.  1.
         23    2    1    2    0    0  0.23071326160E+02  0.65084018124E+02 -0.23320336499E+02  0.14469910011E+03  0.12500310386E+03 0.  0.
          5    1    3    3  502    0  0.52212117113E+02  0.68874640538E+02 -0.53950137000E+02  0.10199278683E+03  0.47000000000E+01 0.  1.
         -5    1    3    3    0  502 -0.29140790953E+02 -0.37906224148E+01  0.30629800501E+02  0.42706313285E+02  0.47000000000E+01 0.  1.
        -11    1    1    2    0    0 -0.11284807114E+02  0.14165422974E+02 -0.90614951260E+02  0.92407118078E+02  0.00000000000E+00 0.  1.
         11    1    1    2    0    0 -0.11786519046E+02 -0.79249441098E+02 -0.71155773493E+02  0.10715661457E+03  0.00000000000E+00 0. -1.
<mgrwt>
<rscale>  0 0.13582460E+03</rscale>
<asrwt>0</asrwt>
<pdfrwt beam="1">  1        1 0.12243982E-01 0.14280753E+03</pdfrwt>
<pdfrwt beam="2">  1       -1 0.40719531E-01 0.14280753E+03</pdfrwt>
<totfact> 0.28277735E+03</totfact>
</mgrwt>
</event>
<event>
 7    1  0.8165933E-006  0.1513872E+03  0.7546771E-02  0.1206345E+00
         -2   -1    0    0    0  501 -0.00000000000E+00  0.00000000000E+00  0.81589227653E+02  0.81589227653E+02  0.00000000000E+00 0.  1.
          2   -1    0    0  501    0  0.00000000000E+00 -0.00000000000E+00 -0.25843755807E+03  0.25843755807E+03  0.00000000000E+00 0. -1.
         23    2    1    2    0    0  0.85796224483E+01  0.84981799784E+02 -0.14027597505E+03  0.20638664260E+03  0.12499032304E+03 0.  0.
          5    1    3    3  502    0  0.39230761936E+02  0.35475555694E+02 -0.13806982456E+03  0.14792881459E+03  0.47000000000E+01 0. -1.
         -5    1    3    3    0  502 -0.30651139487E+02  0.49506244090E+02 -0.22061504964E+01  0.58457828011E+02  0.47000000000E+01 0. -1.
        -11    1    1    2    0    0  0.26044989018E+02 -0.88541244432E+02 -0.17454793065E+02  0.93928500570E+02  0.00000000000E+00 0.  1.
         11    1    1    2    0    0 -0.34624611467E+02  0.35594446475E+01 -0.19117562295E+02  0.39711642544E+02  0.00000000000E+00 0. -1.
<mgrwt>
<rscale>  0 0.14531996E+03</rscale>
<asrwt>0</asrwt>
<pdfrwt beam="2">  1        2 0.39759624E-01 0.15138724E+03</pdfrwt>
<pdfrwt beam="1">  1       -2 0.12552189E-01 0.15138724E+03</pdfrwt>
<totfact> 0.56827748E+03</totfact>
</mgrwt>
</event>
<event>
 7    1  0.8165933E-006  0.1383453E+03  0.7546771E-02  0.1227286E+00
          2   -1    0    0  501    0  0.00000000000E+00  0.00000000000E+00  0.36839805599E+03  0.36839805599E+03  0.00000000000E+00 0. -1.
         -2   -1    0    0    0  501 -0.00000000000E+00 -0.00000000000E+00 -0.45005388061E+02  0.45005388061E+02  0.00000000000E+00 0.  1.
         23    2    1    2    0    0  0.59105803709E+02  0.45876420404E+01  0.12060850238E+03  0.18353701029E+03  0.12499952323E+03 0.  0.
          5    1    3    3  502    0  0.30886254098E+02 -0.39621678491E+02  0.12076112665E+03  0.13087848490E+03  0.47000000000E+01 0. -1.
         -5    1    3    3    0  502  0.28219549611E+02  0.44209320531E+02 -0.15262427207E+00  0.52658525390E+02  0.47000000000E+01 0. -1.
        -11    1    1    2    0    0 -0.78741786920E+02 -0.17162606000E+02  0.18022169456E+03  0.19742006799E+03  0.00000000000E+00 0. -1.
         11    1    1    2    0    0  0.19635983210E+02  0.12574963959E+02  0.22562470983E+02  0.32446365776E+02  0.00000000000E+00 0.  1.
<mgrwt>
<rscale>  0 0.13011462E+03</rscale>
<asrwt>0</asrwt>
<pdfrwt beam="1">  1        2 0.56676622E-01 0.13834530E+03</pdfrwt>
<pdfrwt beam="2">  1       -2 0.69239061E-02 0.13834530E+03</pdfrwt>
<totfact> 0.98389225E+03</totfact>
</mgrwt>
</event>
<event>
 7    1  0.8165933E-006  0.1332746E+03  0.7546771E-02  0.1235849E+00
          2   -1    0    0  501    0  0.00000000000E+00  0.00000000000E+00  0.56067529673E+03  0.56067529673E+03  0.00000000000E+00 0.  1.
         -2   -1    0    0    0  501 -0.00000000000E+00 -0.00000000000E+00 -0.38618117831E+02  0.38618117831E+02  0.00000000000E+00 0. -1.
         23    2    1    2    0    0  0.28873086123E+02  0.36126593592E+02  0.46313560776E+03  0.48193019320E+03  0.12499333613E+03 0.  0.
          5    1    3    3  502    0  0.57537184252E+02 -0.26489776210E+02  0.19683732205E+03  0.20683147045E+03  0.47000000000E+01 0.  1.
         -5    1    3    3    0  502 -0.28664098129E+02  0.62616369802E+02  0.26629828571E+03  0.27509872275E+03  0.47000000000E+01 0.  1.
        -11    1    1    2    0    0 -0.41314669824E+02 -0.15055865209E+02  0.75804052339E+02  0.87634669914E+02  0.00000000000E+00 0.  1.
         11    1    1    2    0    0  0.12441583701E+02 -0.21070728383E+02 -0.16882481201E+02  0.29728551446E+02  0.00000000000E+00 0. -1.
<mgrwt>
<rscale>  0 0.12450240E+03</rscale>
<asrwt>0</asrwt>
<pdfrwt beam="1">  1        2 0.86257732E-01 0.13327460E+03</pdfrwt>
<pdfrwt beam="2">  1       -2 0.59412493E-02 0.13327460E+03</pdfrwt>
<totfact> 0.78521562E+03</totfact>
</mgrwt>
</event>
<event>
 7    1  0.8165933E-006  0.1212921E+03  0.7546771E-02  0.1254225E+00
          1   -1    0    0  501    0  0.00000000000E+00  0.00000000000E+00  0.15527138326E+03  0.15527138326E+03  0.00000000000E+00 0. -1.
         -1   -1    0    0    0  501 -0.00000000000E+00 -0.00000000000E+00 -0.92203326894E+02  0.92203326894E+02  0.00000000000E+00 0.  1.
         23    2    1    2    0    0  0.46797792658E+01 -0.71542136481E+01  0.89565344245E+02  0.15077703669E+03  0.12099041613E+03 0.  0.
          5    1    3    3  502    0  0.48386656291E+01 -0.63615243389E+02  0.55329936129E+02  0.84580161436E+02  0.47000000000E+01 0. -1.
         -5    1    3    3    0  502 -0.15888636332E+00  0.56461029741E+02  0.34235408116E+02  0.66196875252E+02  0.47000000000E+01 0.  1.
        -11    1    1    2    0    0 -0.28880708531E+02 -0.21539904391E+02 -0.42651569173E+02  0.55832062109E+02  0.00000000000E+00 0. -1.
         11    1    1    2    0    0  0.24200929265E+02  0.28694118039E+02  0.16154281292E+02  0.40865611355E+02  0.00000000000E+00 0.  1.
<mgrwt>
<rscale>  0 0.11349869E+03</rscale>
<asrwt>0</asrwt>
<pdfrwt beam="1">  1        1 0.23887905E-01 0.12129206E+03</pdfrwt>
<pdfrwt beam="2">  1       -1 0.14185127E-01 0.12129206E+03</pdfrwt>
<totfact> 0.67120944E+03</totfact>
</mgrwt>
</event>
<event>
 7    1  0.8165933E-006  0.1619841E+03  0.7546771E-02  0.1193738E+00
          3   -1    0    0  501    0  0.00000000000E+00  0.00000000000E+00  0.11361211581E+03  0.11361211581E+03  0.00000000000E+00 0. -1.
         -3   -1    0    0    0  501 -0.00000000000E+00 -0.00000000000E+00 -0.22998662808E+03  0.22998662808E+03  0.00000000000E+00 0.  1.
         23    2    1    2    0    0  0.43190820719E+02 -0.93539075930E+02  0.17123003503E+01  0.16199314600E+03  0.12499536654E+03 0.  0.
          5    1    3    3  502    0  0.52315755979E+02 -0.73038292479E+02 -0.51775054889E+02  0.10379921387E+03  0.47000000000E+01 0. -1.
         -5    1    3    3    0  502 -0.91249352602E+01 -0.20500783450E+02  0.53487355239E+02  0.58193932124E+02  0.47000000000E+01 0. -1.
        -11    1    1    2    0    0 -0.40642397049E+02  0.32217079759E+02 -0.39492319059E+01  0.52012893582E+02  0.00000000000E+00 0. -1.
         11    1    1    2    0    0 -0.25484236696E+01  0.61321996171E+02 -0.11413758072E+03  0.12959270431E+03  0.00000000000E+00 0.  1.
<mgrwt>
<rscale>  0 0.15561502E+03</rscale>
<asrwt>0</asrwt>
<pdfrwt beam="1">  1        3 0.17478787E-01 0.16198410E+03</pdfrwt>
<pdfrwt beam="2">  1       -3 0.35382558E-01 0.16198410E+03</pdfrwt>
<totfact> 0.53184204E+02</totfact>
</mgrwt>
</event>
<event>
 7    1  0.8165933E-006  0.1336973E+03  0.7546771E-02  0.1236148E+00
         -1   -1    0    0    0  501 -0.00000000000E+00  0.00000000000E+00  0.13438022316E+03  0.13438022316E+03  0.00000000000E+00 0.  1.
          1   -1    0    0  501    0  0.00000000000E+00 -0.00000000000E+00 -0.10486864422E+03  0.10486864422E+03  0.00000000000E+00 0. -1.
         23    2    1    2    0    0  0.41535223429E+02 -0.22946150987E+02 -0.42674384866E+01  0.13376534007E+03  0.12499301797E+03 0.  0.
          5    1    3    3  502    0  0.31405075861E+02 -0.50962810854E+02  0.45660334484E+02  0.75435025188E+02  0.47000000000E+01 0.  1.
         -5    1    3    3    0  502  0.10130147569E+02  0.28016659867E+02 -0.49927772971E+02  0.58330314877E+02  0.47000000000E+01 0.  1.
        -11    1    1    2    0    0  0.12906875847E+02 -0.12268657272E+02  0.36474186862E+02  0.40589083540E+02  0.00000000000E+00 0.  1.
         11    1    1    2    0    0 -0.54442099276E+02  0.35214808259E+02 -0.26951694452E+01  0.64894443774E+02  0.00000000000E+00 0. -1.
<mgrwt>
<rscale>  0 0.12431240E+03</rscale>
<asrwt>0</asrwt>
<pdfrwt beam="2">  1        1 0.16133638E-01 0.13369725E+03</pdfrwt>
<pdfrwt beam="1">  1       -1 0.20673881E-01 0.13369725E+03</pdfrwt>
<totfact> 0.61332227E+03</totfact>
</mgrwt>
</event>
<event>
 7    1  0.8165933E-006  0.2500724E+03  0.7546771E-02  0.1116172E+00
          2   -1    0    0  501    0  0.00000000000E+00  0.00000000000E+00  0.89012078757E+03  0.89012078757E+03  0.00000000000E+00 0. -1.
         -2   -1    0    0    0  501 -0.00000000000E+00 -0.00000000000E+00 -0.99540895392E+02  0.99540895392E+02  0.00000000000E+00 0.  1.
         23    2    1    2    0    0  0.21124046800E+03  0.47842863362E+02  0.69466161930E+03  0.73830276264E+03  0.12499891639E+03 0.  0.
          5    1    3    3  502    0  0.11414885631E+03 -0.23436362829E+02  0.22511723565E+03  0.25353320154E+03  0.47000000000E+01 0. -1.
         -5    1    3    3    0  502  0.97091611695E+02  0.71279226190E+02  0.46954438365E+03  0.48476956109E+03  0.47000000000E+01 0. -1.
        -11    1    1    2    0    0 -0.77211107298E+02  0.78830515757E+01  0.42919065227E+00  0.77613670168E+02  0.00000000000E+00 0.  1.
         11    1    1    2    0    0 -0.13402936070E+03 -0.55725914937E+02  0.95489082226E+02  0.17374525015E+03  0.00000000000E+00 0. -1.
<mgrwt>
<rscale>  0 0.24551579E+03</rscale>
<asrwt>0</asrwt>
<pdfrwt beam="1">  1        2 0.13694165E+00 0.25007240E+03</pdfrwt>
<pdfrwt beam="2">  1       -2 0.15313984E-01 0.25007240E+03</pdfrwt>
<totfact> 0.10219968E+03</totfact>
</mgrwt>
</event>
<event>
 7    1  0.8165933E-006  0.1806137E+03  0.7546771E-02  0.1174148E+00
          1   -1    0    0  501    0  0.00000000000E+00  0.00000000000E+00  0.95901181342E+03  0.95901181342E+03  0.00000000000E+00 0. -1.
         -1   -1    0    0    0  501 -0.00000000000E+00 -0.00000000000E+00 -0.35595582717E+02  0.35595582717E+02  0.00000000000E+00 0.  1.
         23    2    1    2    0    0 -0.12965667591E+03  0.13552163438E+02  0.70172352753E+03  0.72459451905E+03  0.12500717261E+03 0.  0.
          5    1    3    3  502    0 -0.34135866747E+02  0.58503142745E+02  0.37831088217E+03  0.38435541974E+03  0.47000000000E+01 0.  1.
         -5    1    3    3    0  502 -0.95520809164E+02 -0.44950979307E+02  0.32341264536E+03  0.34023909931E+03  0.47000000000E+01 0.  1.
        -11    1    1    2    0    0  0.95315061798E+02 -0.46123369172E+02  0.13907174710E+03  0.17479495711E+03  0.00000000000E+00 0.  1.
         11    1    1    2    0    0  0.34341614113E+02  0.32571205733E+02  0.82620956075E+02  0.95217919981E+02  0.00000000000E+00 0. -1.
<mgrwt>
<rscale>  0 0.17359700E+03</rscale>
<asrwt>0</asrwt>
<pdfrwt beam="1">  1        1 0.14754026E+00 0.18061370E+03</pdfrwt>
<pdfrwt beam="2">  1       -1 0.54762442E-02 0.18061370E+03</pdfrwt>
<totfact> 0.26160395E+03</totfact>
</mgrwt>
</event>
<event>
 7    1  0.8165933E-006  0.1453068E+03  0.7546771E-02  0.1215404E+00
          1   -1    0    0  501    0  0.00000000000E+00  0.00000000000E+00  0.89319273570E+03  0.89319273570E+03  0.00000000000E+00 0. -1.
         -1   -1    0    0    0  501 -0.00000000000E+00 -0.00000000000E+00 -0.21309391246E+02  0.21309391246E+02  0.00000000000E+00 0.  1.
         23    2    1    2    0    0 -0.38033373234E+01  0.73992837405E+02  0.60070682137E+03  0.61803134768E+03  0.12499862442E+03 0.  0.
          5    1    3    3  502    0 -0.21382804074E+02  0.22952884323E+02  0.26667988567E+02  0.41440690426E+02  0.47000000000E+01 0. -1.
         -5    1    3    3    0  502  0.17579466750E+02  0.51039953082E+02  0.57403883281E+03  0.57659065725E+03  0.47000000000E+01 0. -1.
        -11    1    1    2    0    0 -0.14262716529E+02 -0.95285803437E+01  0.37250980370E-03  0.17152811032E+02  0.00000000000E+00 0.  1.
         11    1    1    2    0    0  0.18066053853E+02 -0.64464257062E+02  0.27117615057E+03  0.27931796824E+03  0.00000000000E+00 0. -1.
<mgrwt>
<rscale>  0 0.13846882E+03</rscale>
<asrwt>0</asrwt>
<pdfrwt beam="1">  1        1 0.13741424E+00 0.14530678E+03</pdfrwt>
<pdfrwt beam="2">  1       -1 0.32783686E-02 0.14530678E+03</pdfrwt>
<totfact> 0.62247291E+03</totfact>
</mgrwt>
</event>
<event>
 7    1  0.8165933E-006  0.1297553E+03  0.7546771E-02  0.1241228E+00
          2   -1    0    0  501    0  0.00000000000E+00  0.00000000000E+00  0.11053645096E+03  0.11053645096E+03  0.00000000000E+00 0. -1.
         -2   -1    0    0    0  501 -0.00000000000E+00 -0.00000000000E+00 -0.11953122940E+03  0.11953122940E+03  0.00000000000E+00 0.  1.
         23    2    1    2    0    0 -0.34112815854E+02  0.69132092291E+01  0.81495869588E+01  0.13001099162E+03  0.12499986203E+03 0.  0.
          5    1    3    3  502    0  0.44793435875E+02  0.61455797395E+01  0.20740395818E+02  0.49964728224E+02  0.47000000000E+01 0.  1.
         -5    1    3    3    0  502 -0.78906251728E+02  0.76762948962E+00 -0.12590808859E+02  0.80046263401E+02  0.47000000000E+01 0.  1.
        -11    1    1    2    0    0 -0.20459753162E+02 -0.28176687677E+02 -0.22158308140E+02  0.41273694377E+02  0.00000000000E+00 0.  1.
         11    1    1    2    0    0  0.54572569015E+02  0.21263478448E+02  0.50139427428E+01  0.58782994365E+02  0.00000000000E+00 0. -1.
<mgrwt>
<rscale>  0 0.12114004E+03</rscale>
<asrwt>0</asrwt>
<pdfrwt beam="1">  1        2 0.17005608E-01 0.12975532E+03</pdfrwt>
<pdfrwt beam="2">  1       -2 0.18389420E-01 0.12975532E+03</pdfrwt>
<totfact> 0.76748293E+03</totfact>
</mgrwt>
</event>
<event>
 7    1  0.8165933E-006  0.1381758E+03  0.7546771E-02  0.1227631E+00
         -1   -1    0    0    0  501 -0.00000000000E+00  0.00000000000E+00  0.33610478373E+02  0.33610478373E+02  0.00000000000E+00 0.  1.
          1   -1    0    0  501    0  0.00000000000E+00 -0.00000000000E+00 -0.45858006516E+03  0.45858006516E+03  0.00000000000E+00 0. -1.
         23    2    1    2    0    0 -0.54227757694E+02 -0.18638472579E+02 -0.27101019123E+03  0.30420237218E+03  0.12571601777E+03 0.  0.
          5    1    3    3  502    0 -0.93541076410E+02 -0.25444435141E+02 -0.20711274690E+03  0.22872501434E+03  0.47000000000E+01 0.  1.
         -5    1    3    3    0  502  0.39313318715E+02  0.68059625618E+01 -0.63897444329E+02  0.75477357840E+02  0.47000000000E+01 0.  1.
        -11    1    1    2    0    0  0.67391090407E+02  0.42471053971E+02 -0.12513899465E+03  0.14834121974E+03  0.00000000000E+00 0. -1.
         11    1    1    2    0    0 -0.13163332713E+02 -0.23832581391E+02 -0.28820400907E+02  0.39646951614E+02  0.00000000000E+00 0.  1.
<mgrwt>
<rscale>  0 0.12988225E+03</rscale>
<asrwt>0</asrwt>
<pdfrwt beam="2">  1        1 0.70550775E-01 0.13817583E+03</pdfrwt>
<pdfrwt beam="1">  1       -1 0.51708432E-02 0.13817583E+03</pdfrwt>
<totfact> 0.81016554E+03</totfact>
</mgrwt>
</event>
<event>
 7    1  0.8165933E-006  0.1286741E+03  0.7546771E-02  0.1235530E+00
          1   -1    0    0  501    0  0.00000000000E+00  0.00000000000E+00  0.27049539991E+03  0.27049539991E+03  0.00000000000E+00 0. -1.
         -1   -1    0    0    0  501 -0.00000000000E+00 -0.00000000000E+00 -0.58848982561E+02  0.58848982561E+02  0.00000000000E+00 0.  1.
         23    2    1    2    0    0 -0.37902333606E+02 -0.54480448570E+02  0.15805487366E+03  0.20380962734E+03  0.11023753871E+03 0.  0.
          5    1    3    3  502    0  0.57536681672E+01 -0.74043425015E+02  0.63865792806E+02  0.98063565997E+02  0.47000000000E+01 0. -1.
         -5    1    3    3    0  502 -0.43656001773E+02  0.19562976445E+02  0.94189080854E+02  0.10574606135E+03  0.47000000000E+01 0.  1.
        -11    1    1    2    0    0  0.63079182338E+02  0.54070618796E+02  0.23588723598E+02  0.86365750980E+02  0.00000000000E+00 0.  1.
         11    1    1    2    0    0 -0.25176848732E+02  0.40982977378E+00  0.30002820097E+02  0.39169004152E+02  0.00000000000E+00 0. -1.
<mgrwt>
<rscale>  0 0.12470589E+03</rscale>
<asrwt>0</asrwt>
<pdfrwt beam="1">  1        1 0.41614676E-01 0.12867409E+03</pdfrwt>
<pdfrwt beam="2">  1       -1 0.90536898E-02 0.12867409E+03</pdfrwt>
<totfact> 0.67442884E+03</totfact>
</mgrwt>
</event>
<event>
 7    1  0.8165933E-006  0.1386161E+03  0.7546771E-02  0.1225870E+00
         -2   -1    0    0    0  501 -0.00000000000E+00  0.00000000000E+00  0.19044078175E+02  0.19044078175E+02  0.00000000000E+00 0.  1.
          2   -1    0    0  501    0  0.00000000000E+00 -0.00000000000E+00 -0.82785597072E+03  0.82785597072E+03  0.00000000000E+00 0. -1.
         23    2    1    2    0    0 -0.45681051887E+02  0.38763199404E+02 -0.49752707633E+03  0.51647615625E+03  0.12500033667E+03 0.  0.
          5    1    3    3  502    0 -0.39361975704E+02 -0.17991491099E+02 -0.54468104970E+02  0.69727493447E+02  0.47000000000E+01 0.  1.
         -5    1    3    3    0  502 -0.63190761831E+01  0.56754690503E+02 -0.44305897136E+03  0.44674866281E+03  0.47000000000E+01 0.  1.
        -11    1    1    2    0    0  0.43568617782E+02 -0.64510401580E+02 -0.17244631764E+03  0.18920240177E+03  0.00000000000E+00 0.  1.
         11    1    1    2    0    0  0.21124341046E+01  0.25747202176E+02 -0.13883849858E+03  0.14122149087E+03  0.00000000000E+00 0. -1.
<mgrwt>
<rscale>  0 0.13107434E+03</rscale>
<asrwt>0</asrwt>
<pdfrwt beam="2">  1        2 0.12736244E+00 0.13861612E+03</pdfrwt>
<pdfrwt beam="1">  1       -2 0.29298586E-02 0.13861612E+03</pdfrwt>
<totfact> 0.14239435E+04</totfact>
</mgrwt>
</event>
<event>
 7    1  0.8165933E-006  0.1671162E+03  0.7546771E-02  0.1187380E+00
         -2   -1    0    0    0  501 -0.00000000000E+00  0.00000000000E+00  0.18722647166E+02  0.18722647166E+02  0.00000000000E+00 0.  1.
          2   -1    0    0  501    0  0.00000000000E+00 -0.00000000000E+00 -0.13633655574E+04  0.13633655574E+04  0.00000000000E+00 0. -1.
         23    2    1    2    0    0 -0.47081815344E+02 -0.10043237007E+03 -0.87037250428E+03  0.88627090906E+03  0.12499787894E+03 0.  0.
          5    1    3    3  502    0 -0.21127430752E+02  0.25233139060E+00 -0.19741575384E+02  0.29295934871E+02  0.47000000000E+01 0.  1.
         -5    1    3    3    0  502 -0.25954384592E+02 -0.10068470146E+03 -0.85063092889E+03  0.85697497418E+03  0.47000000000E+01 0.  1.
        -11    1    1    2    0    0  0.20674983427E+02  0.11252471016E+03 -0.40096607675E+03  0.41696889577E+03  0.00000000000E+00 0.  1.
         11    1    1    2    0    0  0.26406831916E+02 -0.12092340096E+02 -0.73304329171E+02  0.78848399706E+02  0.00000000000E+00 0. -1.
<mgrwt>
<rscale>  0 0.16117155E+03</rscale>
<asrwt>0</asrwt>
<pdfrwt beam="2">  1        2 0.20974849E+00 0.16711621E+03</pdfrwt>
<pdfrwt beam="1">  1       -2 0.28804081E-02 0.16711621E+03</pdfrwt>
<totfact> 0.71752766E+03</totfact>
</mgrwt>
</event>
<event>
 7    1  0.8165933E-006  0.1607566E+03  0.7546771E-02  0.1195910E+00
         -2   -1    0    0    0  501 -0.00000000000E+00  0.00000000000E+00  0.36786374695E+02  0.36786374695E+02  0.00000000000E+00 0. -1.
          2   -1    0    0  501    0  0.00000000000E+00 -0.00000000000E+00 -0.62986645674E+03  0.62986645674E+03  0.00000000000E+00 0.  1.
         23    2    1    2    0    0 -0.10096193538E+03  0.48181240577E+01 -0.40177806733E+03  0.43274506707E+03  0.12500460379E+03 0.  0.
          5    1    3    3  502    0 -0.40208055424E+01  0.15389502692E+02  0.25645769512E+01  0.16783048747E+02  0.47000000000E+01 0. -1.
         -5    1    3    3    0  502 -0.96941129834E+02 -0.10571378634E+02 -0.40434264428E+03  0.41596201832E+03  0.47000000000E+01 0. -1.
        -11    1    1    2    0    0  0.11492862181E+02 -0.14934927534E+02 -0.11306935618E+03  0.11462904190E+03  0.00000000000E+00 0.  1.
         11    1    1    2    0    0  0.89469073195E+02  0.10116803476E+02 -0.78232658537E+02  0.11927872246E+03  0.00000000000E+00 0. -1.
<mgrwt>
<rscale>  0 0.15377492E+03</rscale>
<asrwt>0</asrwt>
<pdfrwt beam="2">  1        2 0.96902527E-01 0.16075658E+03</pdfrwt>
<pdfrwt beam="1">  1       -2 0.56594425E-02 0.16075658E+03</pdfrwt>
<totfact> 0.74836949E+03</totfact>
</mgrwt>
</event>
<event>
 7    1  0.8165933E-006  0.2060157E+03  0.7546771E-02  0.1149177E+00
          2   -1    0    0  501    0  0.00000000000E+00  0.00000000000E+00  0.26084076571E+04  0.26084076571E+04  0.00000000000E+00 0. -1.
         -2   -1    0    0    0  501 -0.00000000000E+00 -0.00000000000E+00 -0.18332713096E+02  0.18332713096E+02  0.00000000000E+00 0.  1.
         23    2    1    2    0    0  0.23975711065E+01 -0.16374336649E+03  0.19345912635E+04  0.19455297080E+04  0.12499939756E+03 0.  0.
          5    1    3    3  502    0  0.53236922974E+02 -0.38438668624E+02  0.45072687102E+03  0.45550905971E+03  0.47000000000E+01 0.  1.
         -5    1    3    3    0  502 -0.50839351867E+02 -0.12530469786E+03  0.14838643925E+04  0.14900206483E+04  0.47000000000E+01 0.  1.
        -11    1    1    2    0    0 -0.26057184105E+02  0.61804077998E+02  0.14033152658E+03  0.15553667816E+03  0.00000000000E+00 0.  1.
         11    1    1    2    0    0  0.23659612999E+02  0.10193928849E+03  0.51515215394E+03  0.52567398408E+03  0.00000000000E+00 0. -1.
<mgrwt>
<rscale>  0 0.20066791E+03</rscale>
<asrwt>0</asrwt>
<pdfrwt beam="1">  1        2 0.40129319E+00 0.20601575E+03</pdfrwt>
<pdfrwt beam="2">  1       -2 0.28204195E-02 0.20601575E+03</pdfrwt>
<totfact> 0.16361568E+03</totfact>
</mgrwt>
</event>
<event>
 7    1  0.8165933E-006  0.2104737E+03  0.7546771E-02  0.1145046E+00
          2   -1    0    0  501    0  0.00000000000E+00  0.00000000000E+00  0.14928865264E+04  0.14928865264E+04  0.00000000000E+00 0. -1.
         -2   -1    0    0    0  501 -0.00000000000E+00 -0.00000000000E+00 -0.28127166758E+02  0.28127166758E+02  0.00000000000E+00 0.  1.
         23    2    1    2    0    0 -0.12343211063E+03 -0.11592662588E+03  0.90940838572E+03  0.93344672641E+03  0.12499884200E+03 0.  0.
          5    1    3    3  502    0 -0.34624104409E+01 -0.58156800806E+01 -0.12475241008E+01  0.83340708687E+01  0.47000000000E+01 0. -1.
         -5    1    3    3    0  502 -0.11996970019E+03 -0.11011094580E+03  0.91065590982E+03  0.92511265554E+03  0.47000000000E+01 0. -1.
        -11    1    1    2    0    0  0.55313845381E+02  0.77035399753E+01  0.99304636236E+02  0.11393145657E+03  0.00000000000E+00 0.  1.
         11    1    1    2    0    0  0.68118265248E+02  0.10822308590E+03  0.45604633768E+03  0.47363551017E+03  0.00000000000E+00 0. -1.
<mgrwt>
<rscale>  0 0.20566444E+03</rscale>
<asrwt>0</asrwt>
<pdfrwt beam="1">  1        2 0.22967479E+00 0.21047370E+03</pdfrwt>
<pdfrwt beam="2">  1       -2 0.43272576E-02 0.21047370E+03</pdfrwt>
<totfact> 0.33517922E+03</totfact>
</mgrwt>
</event>
<event>
 7    1  0.8165933E-006  0.1703775E+03  0.7546771E-02  0.1183972E+00
         -3   -1    0    0    0  501 -0.00000000000E+00  0.00000000000E+00  0.43930466855E+03  0.43930466855E+03  0.00000000000E+00 0.  1.
          3   -1    0    0  501    0  0.00000000000E+00 -0.00000000000E+00 -0.58317401727E+02  0.58317401727E+02  0.00000000000E+00 0. -1.
         23    2    1    2    0    0 -0.44669333133E+02  0.10681172295E+03  0.17289436454E+03  0.24273637793E+03  0.12499757757E+03 0.  0.
          5    1    3    3  502    0 -0.13156422235E+02 -0.71560813482E+01  0.10528124615E+03  0.10644497047E+03  0.47000000000E+01 0.  1.
         -5    1    3    3    0  502 -0.31512910898E+02  0.11396780430E+03  0.67613118385E+02  0.13629140746E+03  0.47000000000E+01 0.  1.
        -11    1    1    2    0    0  0.59456224889E+02 -0.47323269775E+02  0.68017326591E+02  0.10198475992E+03  0.00000000000E+00 0.  1.
         11    1    1    2    0    0 -0.14786891756E+02 -0.59488453179E+02  0.14007557569E+03  0.15290093242E+03  0.00000000000E+00 0. -1.
<mgrwt>
<rscale>  0 0.16425804E+03</rscale>
<asrwt>0</asrwt>
<pdfrwt beam="2">  1        3 0.89719083E-02 0.17037749E+03</pdfrwt>
<pdfrwt beam="1">  1       -3 0.67585331E-01 0.17037749E+03</pdfrwt>
<totfact> 0.45335861E+02</totfact>
</mgrwt>
</event>
<event>
 7    1  0.8165933E-006  0.1274134E+03  0.7546771E-02  0.1247402E+00
         -2   -1    0    0    0  501 -0.00000000000E+00  0.00000000000E+00  0.10999502354E+02  0.10999502354E+02  0.00000000000E+00 0.  1.
          2   -1    0    0  501    0  0.00000000000E+00 -0.00000000000E+00 -0.12700257600E+04  0.12700257600E+04  0.00000000000E+00 0. -1.
         23    2    1    2    0    0 -0.21644630567E+01  0.24592115068E+02 -0.95332281454E+03  0.96179965214E+03  0.12499890047E+03 0.  0.
          5    1    3    3  502    0  0.22149525015E+02  0.86785892483E+01 -0.90425064141E+03  0.90457571925E+03  0.47000000000E+01 0. -1.
         -5    1    3    3    0  502 -0.24313988072E+02  0.15913525820E+02 -0.49072173130E+02  0.57223932892E+02  0.47000000000E+01 0. -1.
        -11    1    1    2    0    0  0.96423106784E+01 -0.53494385357E+02 -0.12848106255E+03  0.13950629682E+03  0.00000000000E+00 0. -1.
         11    1    1    2    0    0 -0.74778476217E+01  0.28902270289E+02 -0.17722238055E+03  0.17971931338E+03  0.00000000000E+00 0.  1.
<mgrwt>
<rscale>  0 0.11742783E+03</rscale>
<asrwt>0</asrwt>
<pdfrwt beam="2">  1        2 0.19538857E+00 0.12741343E+03</pdfrwt>
<pdfrwt beam="1">  1       -2 0.16922312E-02 0.12741343E+03</pdfrwt>
<totfact> 0.17274679E+04</totfact>
</mgrwt>
</event>
<event>
 7    1  0.8165933E-006  0.1438401E+03  0.7546771E-02  0.1218722E+00
          2   -1    0    0  501    0  0.00000000000E+00  0.00000000000E+00  0.15278578820E+03  0.15278578820E+03  0.00000000000E+00 0. -1.
         -2   -1    0    0    0  501 -0.00000000000E+00 -0.00000000000E+00 -0.12100135439E+03  0.12100135439E+03  0.00000000000E+00 0.  1.
         23    2    1    2    0    0 -0.40995607550E+02  0.58176006638E+02  0.58948301072E+02  0.15545054458E+03  0.12499952810E+03 0.  0.
          5    1    3    3  502    0  0.80538666610E+01  0.11315588441E+02 -0.35880823542E+02  0.38761202356E+02  0.47000000000E+01 0.  1.
         -5    1    3    3    0  502 -0.49049474211E+02  0.46860418197E+02  0.94829124615E+02  0.11668934223E+03  0.47000000000E+01 0.  1.
        -11    1    1    2    0    0 -0.10102680266E+02 -0.36429737569E+02 -0.46140935004E+02  0.59650446863E+02  0.00000000000E+00 0.  1.
         11    1    1    2    0    0  0.51098287816E+02 -0.21746269069E+02  0.18977067746E+02  0.58686151147E+02  0.00000000000E+00 0. -1.
<mgrwt>
<rscale>  0 0.13606647E+03</rscale>
<asrwt>0</asrwt>
<pdfrwt beam="1">  1        2 0.23505506E-01 0.14384008E+03</pdfrwt>
<pdfrwt beam="2">  1       -2 0.18615593E-01 0.14384008E+03</pdfrwt>
<totfact> 0.52509527E+03</totfact>
</mgrwt>
</event>
<event>
 7    1  0.8165933E-006  0.1348202E+03  0.7546771E-02  0.1233073E+00
          2   -1    0    0  501    0  0.00000000000E+00  0.00000000000E+00  0.92503241199E+03  0.92503241199E+03  0.00000000000E+00 0.  1.
         -2   -1    0    0    0  501 -0.00000000000E+00 -0.00000000000E+00 -0.16385966491E+02  0.16385966491E+02  0.00000000000E+00 0. -1.
         23    2    1    2    0    0 -0.32689322295E+02  0.38498728243E+02  0.62508926533E+03  0.63946312119E+03  0.12500299944E+03 0.  0.
          5    1    3    3  502    0  0.29640755576E+02  0.10137569253E+02  0.45420869430E+03  0.45531195095E+03  0.47000000000E+01 0.  1.
         -5    1    3    3    0  502 -0.62330077870E+02  0.28361158990E+02  0.17088057103E+03  0.18415117024E+03  0.47000000000E+01 0.  1.
        -11    1    1    2    0    0  0.41823864977E+02  0.31163144594E+01  0.53465721578E+02  0.67952413359E+02  0.00000000000E+00 0. -1.
         11    1    1    2    0    0 -0.91345426823E+01 -0.41615042702E+02  0.23009145859E+03  0.23400284393E+03  0.00000000000E+00 0.  1.
<mgrwt>
<rscale>  0 0.12628590E+03</rscale>
<asrwt>0</asrwt>
<pdfrwt beam="1">  1        2 0.14231264E+00 0.13482023E+03</pdfrwt>
<pdfrwt beam="2">  1       -2 0.25209186E-02 0.13482023E+03</pdfrwt>
<totfact> 0.15349200E+04</totfact>
</mgrwt>
</event>
<event>
 7    1  0.8165933E-006  0.1276668E+03  0.7546771E-02  0.1243853E+00
          2   -1    0    0  501    0  0.00000000000E+00  0.00000000000E+00  0.35504860096E+02  0.35504860096E+02  0.00000000000E+00 0.  1.
         -2   -1    0    0    0  501 -0.00000000000E+00 -0.00000000000E+00 -0.37202964796E+03  0.37202964796E+03  0.00000000000E+00 0. -1.
         23    2    1    2    0    0 -0.19077184041E+02  0.17505956220E+02 -0.15172865940E+03  0.19829374791E+03  0.12501370694E+03 0.  0.
          5    1    3    3  502    0  0.29430688410E+02 -0.35065548506E+02 -0.24192639643E+02  0.51991652457E+02  0.47000000000E+01 0.  1.
         -5    1    3    3    0  502 -0.48507872452E+02  0.52571504726E+02 -0.12753601975E+03  0.14630209545E+03  0.47000000000E+01 0.  1.
        -11    1    1    2    0    0 -0.17128328627E+02 -0.36052562805E+02 -0.32105925372E+02  0.51224577796E+02  0.00000000000E+00 0.  1.
         11    1    1    2    0    0  0.36205512668E+02  0.18546606585E+02 -0.15269020309E+03  0.15801618235E+03  0.00000000000E+00 0. -1.
<mgrwt>
<rscale>  0 0.11954286E+03</rscale>
<asrwt>0</asrwt>
<pdfrwt beam="1">  1        2 0.54622862E-02 0.12766685E+03</pdfrwt>
<pdfrwt beam="2">  1       -2 0.57235330E-01 0.12766685E+03</pdfrwt>
<totfact> 0.38659529E+03</totfact>
</mgrwt>
</event>
<event>
 6    1  0.8165933E-006  0.2875157E+03  0.7546771E-02  0.1123007E+00
         -2   -1    0    0    0  501 -0.00000000000E+00  0.00000000000E+00  0.20127596084E+03  0.20127596084E+03  0.00000000000E+00 0.  1.
          2   -1    0    0  501    0  0.00000000000E+00 -0.00000000000E+00 -0.21724264057E+03  0.21724264057E+03  0.00000000000E+00 0. -1.
          5    1    1    2  502    0  0.45698202753E+02  0.11161689723E+03  0.79039488089E+02  0.14427746934E+03  0.47000000000E+01 0. -1.
         -5    1    1    2    0  502  0.39117094342E+02 -0.87556009150E+02 -0.10828741673E+03  0.14472199705E+03  0.47000000000E+01 0.  1.
        -11    1    1    2    0    0 -0.54764516699E+02 -0.59304076941E+02 -0.20013322403E+01  0.80747329132E+02  0.00000000000E+00 0.  1.
         11    1    1    2    0    0 -0.30050780396E+02  0.35243188863E+02  0.15282581150E+02  0.48771805895E+02  0.00000000000E+00 0. -1.
<mgrwt>
<rscale>  0 0.23523707E+03</rscale>
<asrwt>0</asrwt>
<pdfrwt beam="2">  1        2 0.33421945E-01 0.28751565E+03</pdfrwt>
<pdfrwt beam="1">  1       -2 0.30965532E-01 0.28751565E+03</pdfrwt>
<totfact> 0.15016456E+03</totfact>
</mgrwt>
</event>
<event>
 7    1  0.8165933E-006  0.1750472E+03  0.7546771E-02  0.1178819E+00
         -4   -1    0    0    0  501 -0.00000000000E+00  0.00000000000E+00  0.25188663058E+02  0.25188663058E+02  0.00000000000E+00 0. -1.
          4   -1    0    0  501    0  0.00000000000E+00 -0.00000000000E+00 -0.14708246997E+04  0.14708246997E+04  0.00000000000E+00 0.  1.
         23    2    1    2    0    0  0.12160913660E+03 -0.15091804883E+02 -0.11518741365E+04  0.11650989467E+04  0.12499993898E+03 0.  0.
          5    1    3    3  502    0  0.59592611936E+02  0.52814940432E+02 -0.42561374086E+03  0.43302406832E+03  0.47000000000E+01 0.  1.
         -5    1    3    3    0  502  0.62016524668E+02 -0.67906745315E+02 -0.72626039560E+03  0.73207487841E+03  0.47000000000E+01 0.  1.
        -11    1    1    2    0    0 -0.17622162929E+02  0.33786182600E+02 -0.36347616259E+02  0.52661142873E+02  0.00000000000E+00 0. -1.
         11    1    1    2    0    0 -0.10398697368E+03 -0.18694377717E+02 -0.25741428389E+03  0.27825327312E+03  0.00000000000E+00 0.  1.
<mgrwt>
<rscale>  0 0.16907205E+03</rscale>
<asrwt>0</asrwt>
<pdfrwt beam="2">  1        4 0.22628077E+00 0.17504722E+03</pdfrwt>
<pdfrwt beam="1">  1       -4 0.38751781E-02 0.17504722E+03</pdfrwt>
<totfact> 0.63213940E+01</totfact>
</mgrwt>
</event>
<event>
 7    1  0.8165933E-006  0.1436332E+03  0.7546771E-02  0.1218971E+00
          1   -1    0    0  501    0  0.00000000000E+00  0.00000000000E+00  0.28817992542E+03  0.28817992542E+03  0.00000000000E+00 0. -1.
         -1   -1    0    0    0  501 -0.00000000000E+00 -0.00000000000E+00 -0.60215172983E+02  0.60215172983E+02  0.00000000000E+00 0.  1.
         23    2    1    2    0    0 -0.40981656881E+02 -0.57680753596E+02  0.15886859282E+03  0.21417216323E+03  0.12499568066E+03 0.  0.
          5    1    3    3  502    0 -0.11615820481E+02 -0.17193912006E+02 -0.19502679962E+02  0.28861781324E+02  0.47000000000E+01 0.  1.
         -5    1    3    3    0  502 -0.29365836400E+02 -0.40486841589E+02  0.17837127278E+03  0.18531038191E+03  0.47000000000E+01 0.  1.
        -11    1    1    2    0    0  0.12522385212E+02  0.18708994702E+02 -0.21782914537E+02  0.31326218730E+02  0.00000000000E+00 0.  1.
         11    1    1    2    0    0  0.28459271669E+02  0.38971758894E+02  0.90879074157E+02  0.10289671644E+03  0.00000000000E+00 0. -1.
<mgrwt>
<rscale>  0 0.13588867E+03</rscale>
<asrwt>0</asrwt>
<pdfrwt beam="1">  1        1 0.44335373E-01 0.14363316E+03</pdfrwt>
<pdfrwt beam="2">  1       -1 0.92638729E-02 0.14363316E+03</pdfrwt>
<totfact> 0.60654123E+03</totfact>
</mgrwt>
</event>
<event>
 7    1  0.8165933E-006  0.1757404E+03  0.7546771E-02  0.1176270E+00
          1   -1    0    0  501    0  0.00000000000E+00  0.00000000000E+00  0.11000393201E+04  0.11000393201E+04  0.00000000000E+00 0. -1.
         -1   -1    0    0    0  501 -0.00000000000E+00 -0.00000000000E+00 -0.76184289496E+02  0.76184289496E+02  0.00000000000E+00 0.  1.
         23    2    1    2    0    0  0.13024701176E+03  0.88821980864E+01  0.99959371271E+03  0.10149247569E+04  0.11764987940E+03 0.  0.
          5    1    3    3  502    0  0.25128443207E+02  0.91629723001E+01  0.63157817940E+03  0.63216175574E+03  0.47000000000E+01 0. -1.
         -5    1    3    3    0  502  0.10511856855E+03 -0.28077421371E+00  0.36801553330E+03  0.38276300114E+03  0.47000000000E+01 0.  1.
        -11    1    1    2    0    0 -0.12037712142E+03 -0.35911284063E+02  0.32362407871E+01  0.12566123085E+03  0.00000000000E+00 0.  1.
         11    1    1    2    0    0 -0.98698903368E+01  0.27029085976E+02  0.21025077071E+02  0.35637621832E+02  0.00000000000E+00 0. -1.
<mgrwt>
<rscale>  0 0.17152173E+03</rscale>
<asrwt>0</asrwt>
<pdfrwt beam="1">  1        1 0.16923681E+00 0.17574035E+03</pdfrwt>
<pdfrwt beam="2">  1       -1 0.11720661E-01 0.17574035E+03</pdfrwt>
<totfact> 0.64881495E+02</totfact>
</mgrwt>
</event>
<event>
 7    1  0.8341930E-006  0.1620660E+03  0.7546771E-02  0.1193313E+00
          1   -1    0    0  501    0  0.00000000000E+00  0.00000000000E+00  0.16823265374E+03  0.16823265374E+03  0.00000000000E+00 0. -1.
         -1   -1    0    0    0  501 -0.00000000000E+00 -0.00000000000E+00 -0.13475366348E+03  0.13475366348E+03  0.00000000000E+00 0.  1.
         23    2    1    2    0    0 -0.93727215381E+02 -0.43076841622E+02  0.19299387742E+02  0.16321111779E+03  0.12499998966E+03 0.  0.
          5    1    3    3  502    0 -0.15716513106E+02 -0.63340852253E+02  0.43919544458E+02  0.78804116223E+02  0.47000000000E+01 0. -1.
         -5    1    3    3    0  502 -0.78010702275E+02  0.20264010631E+02 -0.24620156716E+02  0.84407001564E+02  0.47000000000E+01 0. -1.
        -11    1    1    2    0    0  0.65626116789E+02  0.46242976053E+02 -0.31343570742E+02  0.86183638041E+02  0.00000000000E+00 0.  1.
         11    1    1    2    0    0  0.28101098592E+02 -0.31661344316E+01  0.45523173255E+02  0.53591561392E+02  0.00000000000E+00 0. -1.
<mgrwt>
<rscale>  0 0.15597859E+03</rscale>
<asrwt>0</asrwt>
<pdfrwt beam="1">  1        1 0.25881947E-01 0.16206604E+03</pdfrwt>
<pdfrwt beam="2">  1       -1 0.20731333E-01 0.16206604E+03</pdfrwt>
<totfact> 0.33830996E+03</totfact>
</mgrwt>
</event>
<event>
 7    1  0.1139459E-005  0.2628484E+03  0.7546771E-02  0.1107651E+00
         -1   -1    0    0    0  501 -0.00000000000E+00  0.00000000000E+00  0.27788042589E+02  0.27788042589E+02  0.00000000000E+00 0.  1.
          1   -1    0    0  501    0  0.00000000000E+00 -0.00000000000E+00 -0.24817597461E+04  0.24817597461E+04  0.00000000000E+00 0. -1.
         23    2    1    2    0    0  0.43728481584E+02  0.22705132506E+03 -0.15472994391E+04  0.15694664211E+04  0.12499923353E+03 0.  0.
          5    1    3    3  502    0  0.56137333262E+02  0.12823387703E+03 -0.11997578739E+04  0.12079057800E+04  0.47000000000E+01 0.  1.
         -5    1    3    3    0  502 -0.12408851677E+02  0.98817448032E+02 -0.34754156517E+03  0.36156064105E+03  0.47000000000E+01 0.  1.
        -11    1    1    2    0    0  0.26695150193E+02 -0.91700723383E+02 -0.32650834676E+03  0.34019017361E+03  0.00000000000E+00 0.  1.
         11    1    1    2    0    0 -0.70423631778E+02 -0.13535060168E+03 -0.58016391768E+03  0.59989119402E+03  0.00000000000E+00 0. -1.
<mgrwt>
<rscale>  0 0.25915718E+03</rscale>
<asrwt>0</asrwt>
<pdfrwt beam="2">  1        1 0.38180914E+00 0.26284842E+03</pdfrwt>
<pdfrwt beam="1">  1       -1 0.42750840E-02 0.26284842E+03</pdfrwt>
<totfact> 0.36347756E+02</totfact>
</mgrwt>
</event>
<event>
 7    1  0.8165933E-006  0.1347175E+03  0.7546771E-02  0.1232906E+00
         -1   -1    0    0    0  501 -0.00000000000E+00  0.00000000000E+00  0.41238577813E+02  0.41238577813E+02  0.00000000000E+00 0.  1.
          1   -1    0    0  501    0  0.00000000000E+00 -0.00000000000E+00 -0.37370191900E+03  0.37370191900E+03  0.00000000000E+00 0. -1.
         23    2    1    2    0    0  0.47615540948E+02 -0.15975033477E+02 -0.24126345994E+03  0.27632746277E+03  0.12500547246E+03 0.  0.
          5    1    3    3  502    0 -0.20704906858E+02 -0.37040272235E+02 -0.27274517861E+02  0.50662256758E+02  0.47000000000E+01 0. -1.
         -5    1    3    3    0  502  0.68320447806E+02  0.21065238757E+02 -0.21398894208E+03  0.22566520602E+03  0.47000000000E+01 0. -1.
        -11    1    1    2    0    0  0.22838809881E+02  0.78947655201E+01 -0.14240925257E+01  0.24206746971E+02  0.00000000000E+00 0.  1.
         11    1    1    2    0    0 -0.70454350829E+02  0.80802679572E+01 -0.89775788713E+02  0.11440628707E+03  0.00000000000E+00 0. -1.
<mgrwt>
<rscale>  0 0.12639422E+03</rscale>
<asrwt>0</asrwt>
<pdfrwt beam="2">  1        1 0.57492606E-01 0.13471752E+03</pdfrwt>
<pdfrwt beam="1">  1       -1 0.63443963E-02 0.13471752E+03</pdfrwt>
<totfact> 0.77333946E+03</totfact>
</mgrwt>
</event>
<event>
 7    1  0.8165933E-006  0.1451697E+03  0.7546771E-02  0.1216736E+00
         -2   -1    0    0    0  501 -0.00000000000E+00  0.00000000000E+00  0.45364139439E+02  0.45364139439E+02  0.00000000000E+00 0. -1.
          2   -1    0    0  501    0  0.00000000000E+00 -0.00000000000E+00 -0.44148604369E+03  0.44148604369E+03  0.00000000000E+00 0.  1.
         23    2    1    2    0    0  0.25606077902E+02  0.69231763017E+02 -0.30805097094E+03  0.34054314427E+03  0.12500209669E+03 0.  0.
          5    1    3    3  502    0  0.16195569249E+01  0.91428364813E+02 -0.12734609893E+03  0.15684670149E+03  0.47000000000E+01 0.  1.
         -5    1    3    3    0  502  0.23986520977E+02 -0.22196601796E+02 -0.18070487202E+03  0.18369644278E+03  0.47000000000E+01 0.  1.
        -11    1    1    2    0    0  0.75503800738E+01 -0.37110051551E+02  0.89053547853E+01  0.38903335451E+02  0.00000000000E+00 0. -1.
         11    1    1    2    0    0 -0.33156457975E+02 -0.32121711466E+02 -0.96976288093E+02  0.10740370341E+03  0.00000000000E+00 0.  1.
<mgrwt>
<rscale>  0 0.13749774E+03</rscale>
<asrwt>0</asrwt>
<pdfrwt beam="2">  1        2 0.67920929E-01 0.14516967E+03</pdfrwt>
<pdfrwt beam="1">  1       -2 0.69790985E-02 0.14516967E+03</pdfrwt>
<totfact> 0.80320525E+03</totfact>
</mgrwt>
</event>
<event>
 7    1  0.8165933E-006  0.1459604E+03  0.7546771E-02  0.1213712E+00
          2   -1    0    0  501    0  0.00000000000E+00  0.00000000000E+00  0.14690476114E+03  0.14690476114E+03  0.00000000000E+00 0. -1.
         -2   -1    0    0    0  501 -0.00000000000E+00 -0.00000000000E+00 -0.12440753033E+03  0.12440753033E+03  0.00000000000E+00 0.  1.
         23    2    1    2    0    0 -0.37636582342E+02  0.65304011914E+02  0.28118273908E+02  0.14864410831E+03  0.12499322904E+03 0.  0.
          5    1    3    3  502    0 -0.19919589377E+02 -0.36755039752E+02  0.11650630765E+02  0.43652608002E+02  0.47000000000E+01 0.  1.
         -5    1    3    3    0  502 -0.17716992964E+02  0.10205905167E+03  0.16467643143E+02  0.10499150031E+03  0.47000000000E+01 0.  1.
        -11    1    1    2    0    0 -0.30760004532E+02 -0.11162937906E+02  0.96364647857E+01  0.34112322042E+02  0.00000000000E+00 0. -1.
         11    1    1    2    0    0  0.68396586874E+02 -0.54141074008E+02 -0.15257507880E+02  0.88555861113E+02  0.00000000000E+00 0.  1.
<mgrwt>
<rscale>  0 0.13971567E+03</rscale>
<asrwt>0</asrwt>
<pdfrwt beam="1">  1        2 0.22600733E-01 0.14596038E+03</pdfrwt>
<pdfrwt beam="2">  1       -2 0.19139620E-01 0.14596038E+03</pdfrwt>
<totfact> 0.52403706E+03</totfact>
</mgrwt>
</event>
<event>
 7    1  0.8165933E-006  0.1589776E+03  0.7546771E-02  0.1198583E+00
          1   -1    0    0  501    0  0.00000000000E+00  0.00000000000E+00  0.93944333391E+02  0.93944333391E+02  0.00000000000E+00 0. -1.
         -1   -1    0    0    0  501 -0.00000000000E+00 -0.00000000000E+00 -0.28187047034E+03  0.28187047034E+03  0.00000000000E+00 0.  1.
         23    2    1    2    0    0  0.90897655271E+02 -0.37228877262E+02 -0.16408843328E+02  0.15982218617E+03  0.12500203205E+03 0.  0.
          5    1    3    3  502    0  0.14027594135E+02  0.33514172017E+02  0.28100424744E+02  0.46170304244E+02  0.47000000000E+01 0.  1.
         -5    1    3    3    0  502  0.76870061137E+02 -0.70743049279E+02 -0.44509268071E+02  0.11365188192E+03  0.47000000000E+01 0.  1.
        -11    1    1    2    0    0 -0.18750049584E+02  0.35571204867E+02 -0.12204043521E+03  0.12849413528E+03  0.00000000000E+00 0.  1.
         11    1    1    2    0    0 -0.72147605687E+02  0.16576723952E+01 -0.49476858415E+02  0.87498482288E+02  0.00000000000E+00 0. -1.
<mgrwt>
<rscale>  0 0.15154870E+03</rscale>
<asrwt>0</asrwt>
<pdfrwt beam="1">  1        1 0.14452975E-01 0.15897761E+03</pdfrwt>
<pdfrwt beam="2">  1       -1 0.43364687E-01 0.15897761E+03</pdfrwt>
<totfact> 0.20457307E+03</totfact>
</mgrwt>
</event>
<event>
 7    1  0.8165933E-006  0.1272496E+03  0.7546771E-02  0.1247656E+00
         -2   -1    0    0    0  501 -0.00000000000E+00  0.00000000000E+00  0.78795989464E+02  0.78795989464E+02  0.00000000000E+00 0.  1.
          2   -1    0    0  501    0  0.00000000000E+00 -0.00000000000E+00 -0.16226072368E+03  0.16226072368E+03  0.00000000000E+00 0. -1.
         23    2    1    2    0    0  0.22468337978E+02 -0.78584695784E+01 -0.77627252867E+02  0.14905852467E+03  0.12500348649E+03 0.  0.
          5    1    3    3  502    0  0.83020909696E+01 -0.53255327095E+02  0.42353144949E+01  0.54268614017E+02  0.47000000000E+01 0. -1.
         -5    1    3    3    0  502  0.14166247009E+02  0.45396857517E+02 -0.81862567362E+02  0.94789910654E+02  0.47000000000E+01 0. -1.
        -11    1    1    2    0    0 -0.52529490250E+02  0.94187718562E+01 -0.22125982010E+02  0.57772135923E+02  0.00000000000E+00 0. -1.
         11    1    1    2    0    0  0.30061152272E+02 -0.15603022778E+01  0.16288500664E+02  0.34226052548E+02  0.00000000000E+00 0.  1.
<mgrwt>
<rscale>  0 0.11727841E+03</rscale>
<asrwt>0</asrwt>
<pdfrwt beam="2">  1        2 0.24963188E-01 0.12724957E+03</pdfrwt>
<pdfrwt beam="1">  1       -2 0.12122460E-01 0.12724957E+03</pdfrwt>
<totfact> 0.98196187E+03</totfact>
</mgrwt>
</event>
<event>
 7    1  0.8165933E-006  0.1553243E+03  0.7546771E-02  0.1203000E+00
          2   -1    0    0  501    0  0.00000000000E+00  0.00000000000E+00  0.23832444328E+03  0.23832444328E+03  0.00000000000E+00 0.  1.
         -2   -1    0    0    0  501 -0.00000000000E+00 -0.00000000000E+00 -0.95554559944E+02  0.95554559944E+02  0.00000000000E+00 0. -1.
         23    2    1    2    0    0  0.87944684969E+02 -0.27597319032E+02  0.13491350128E+03  0.20573601011E+03  0.12501909212E+03 0.  0.
          5    1    3    3  502    0 -0.21194842468E+02 -0.23796321556E+02  0.14446475849E+00  0.32211754639E+02  0.47000000000E+01 0. -1.
         -5    1    3    3    0  502  0.10913952744E+03 -0.38009974758E+01  0.13476903652E+03  0.17352425547E+03  0.47000000000E+01 0. -1.
        -11    1    1    2    0    0 -0.39334657278E+02  0.56446969157E+02 -0.84358392264E+01  0.69315503126E+02  0.00000000000E+00 0.  1.
         11    1    1    2    0    0 -0.48610027690E+02 -0.28849650125E+02  0.16292221284E+02  0.58827489992E+02  0.00000000000E+00 0. -1.
<mgrwt>
<rscale>  0 0.14796157E+03</rscale>
<asrwt>0</asrwt>
<pdfrwt beam="1">  1        2 0.36665299E-01 0.15532435E+03</pdfrwt>
<pdfrwt beam="2">  1       -2 0.14700702E-01 0.15532435E+03</pdfrwt>
<totfact> 0.48039917E+03</totfact>
</mgrwt>
</event>
<event>
 7    1  0.8165933E-006  0.1323252E+03  0.7546771E-02  0.1236810E+00
          1   -1    0    0  501    0  0.00000000000E+00  0.00000000000E+00  0.41710453745E+03  0.41710453745E+03  0.00000000000E+00 0. -1.
         -1   -1    0    0    0  501 -0.00000000000E+00 -0.00000000000E+00 -0.38018254521E+02  0.38018254521E+02  0.00000000000E+00 0.  1.
         23    2    1    2    0    0  0.15710444715E+02  0.40462775116E+02  0.29447733556E+03  0.32284184088E+03  0.12500359523E+03 0.  0.
          5    1    3    3  502    0 -0.10764610808E+02  0.47015577417E+02  0.29093119261E+03  0.29493963823E+03  0.47000000000E+01 0. -1.
         -5    1    3    3    0  502  0.26475055523E+02 -0.65528023010E+01  0.35461429521E+01  0.27902202651E+02  0.47000000000E+01 0. -1.
        -11    1    1    2    0    0 -0.23527604493E+02 -0.57388385922E+02  0.93040740630E+02  0.11181929363E+03  0.00000000000E+00 0. -1.
         11    1    1    2    0    0  0.78171597781E+01  0.16925610806E+02 -0.84317932646E+01  0.20461657455E+02  0.00000000000E+00 0.  1.
<mgrwt>
<rscale>  0 0.12389241E+03</rscale>
<asrwt>0</asrwt>
<pdfrwt beam="1">  1        1 0.64169926E-01 0.13232518E+03</pdfrwt>
<pdfrwt beam="2">  1       -1 0.58489625E-02 0.13232518E+03</pdfrwt>
<totfact> 0.75930945E+03</totfact>
</mgrwt>
</event>
<event>
 7    1  0.8165933E-006  0.1280013E+03  0.7546771E-02  0.1245512E+00
         -1   -1    0    0    0  501 -0.00000000000E+00  0.00000000000E+00  0.66839134978E+02  0.66839134978E+02  0.00000000000E+00 0.  1.
          1   -1    0    0  501    0  0.00000000000E+00 -0.00000000000E+00 -0.20108099565E+03  0.20108099565E+03  0.00000000000E+00 0. -1.
         23    2    1    2    0    0 -0.84601131347E+01  0.26155078174E+02 -0.11441161012E+03  0.17168096834E+03  0.12501470606E+03 0.  0.
          5    1    3    3  502    0 -0.22161244495E+02  0.40932606510E+02  0.80607814148E+01  0.47472784101E+02  0.47000000000E+01 0. -1.
         -5    1    3    3    0  502  0.13701131360E+02 -0.14777528336E+02 -0.12247239154E+03  0.12420818424E+03  0.47000000000E+01 0. -1.
        -11    1    1    2    0    0  0.15645541508E+02 -0.98608379788E+01 -0.54342532379E+02  0.57403222210E+02  0.00000000000E+00 0. -1.
         11    1    1    2    0    0 -0.71854283734E+01 -0.16294240195E+02  0.34512281828E+02  0.38835940074E+02  0.00000000000E+00 0.  1.
<mgrwt>
<rscale>  0 0.11854782E+03</rscale>
<asrwt>0</asrwt>
<pdfrwt beam="2">  1        1 0.30935538E-01 0.12800132E+03</pdfrwt>
<pdfrwt beam="1">  1       -1 0.10282944E-01 0.12800132E+03</pdfrwt>
<totfact> 0.80140131E+03</totfact>
</mgrwt>
</event>
<event>
 7    1  0.8165933E-006  0.1502833E+03  0.7546771E-02  0.1208907E+00
         -2   -1    0    0    0  501 -0.00000000000E+00  0.00000000000E+00  0.18720268218E+03  0.18720268218E+03  0.00000000000E+00 0.  1.
          2   -1    0    0  501    0  0.00000000000E+00 -0.00000000000E+00 -0.10766600117E+03  0.10766600117E+03  0.00000000000E+00 0. -1.
         23    2    1    2    0    0 -0.73283756988E+02  0.40015693462E+02  0.60352412752E+01  0.15040445325E+03  0.12495323389E+03 0.  0.
          5    1    3    3  502    0 -0.10674450745E+03  0.44955710366E+02  0.12859954338E+01  0.11592734600E+03  0.47000000000E+01 0.  1.
         -5    1    3    3    0  502  0.33460750463E+02 -0.49400169044E+01  0.47492458414E+01  0.34477107254E+02  0.47000000000E+01 0.  1.
        -11    1    1    2    0    0  0.57716618962E+02 -0.13428396229E+02  0.91328577472E+02  0.10886890737E+03  0.00000000000E+00 0.  1.
         11    1    1    2    0    0  0.15567138027E+02 -0.26587297233E+02 -0.17827137734E+02  0.35595322730E+02  0.00000000000E+00 0. -1.
<mgrwt>
<rscale>  0 0.14333770E+03</rscale>
<asrwt>0</asrwt>
<pdfrwt beam="2">  1        2 0.16564000E-01 0.15028332E+03</pdfrwt>
<pdfrwt beam="1">  1       -2 0.28800413E-01 0.15028332E+03</pdfrwt>
<totfact> 0.36801423E+03</totfact>
</mgrwt>
</event>
<event>
 7    1  0.8165933E-006  0.1296911E+03  0.7546771E-02  0.1241235E+00
         -1   -1    0    0    0  501 -0.00000000000E+00  0.00000000000E+00  0.23043640372E+02  0.23043640372E+02  0.00000000000E+00 0.  1.
          1   -1    0    0  501    0  0.00000000000E+00 -0.00000000000E+00 -0.60091840531E+03  0.60091840531E+03  0.00000000000E+00 0. -1.
         23    2    1    2    0    0  0.34563738744E+02 -0.10203785573E+00 -0.40044553184E+03  0.42092329242E+03  0.12500052671E+03 0.  0.
          5    1    3    3  502    0 -0.33629879227E+02 -0.17129543982E+02 -0.27005921390E+03  0.27272414464E+03  0.47000000000E+01 0.  1.
         -5    1    3    3    0  502  0.68193617971E+02  0.17027506126E+02 -0.13038631794E+03  0.14819914778E+03  0.47000000000E+01 0.  1.
        -11    1    1    2    0    0 -0.63238032116E+02 -0.71114979478E+01 -0.14900165447E+03  0.16202195883E+03  0.00000000000E+00 0. -1.
         11    1    1    2    0    0  0.28674293372E+02  0.72135358035E+01 -0.28427578624E+02  0.41016794434E+02  0.00000000000E+00 0.  1.
<mgrwt>
<rscale>  0 0.12113585E+03</rscale>
<asrwt>0</asrwt>
<pdfrwt beam="2">  1        1 0.92448977E-01 0.12969115E+03</pdfrwt>
<pdfrwt beam="1">  1       -1 0.35451758E-02 0.12969115E+03</pdfrwt>
<totfact> 0.98425708E+03</totfact>
</mgrwt>
</event>
<event>
 7    1  0.8165933E-006  0.1796438E+03  0.7546771E-02  0.1173563E+00
          2   -1    0    0  501    0  0.00000000000E+00  0.00000000000E+00  0.95204571888E+03  0.95204571888E+03  0.00000000000E+00 0. -1.
         -2   -1    0    0    0  501 -0.00000000000E+00 -0.00000000000E+00 -0.30913506654E+02  0.30913506654E+02  0.00000000000E+00 0.  1.
         23    2    1    2    0    0 -0.81138876984E+02 -0.10031565671E+03  0.56932996021E+03  0.59699956513E+03  0.12500051532E+03 0.  0.
          5    1    3    3  502    0 -0.63004729326E+02 -0.86849681289E+02  0.20053531196E+03  0.22748398713E+03  0.47000000000E+01 0.  1.
         -5    1    3    3    0  502 -0.18134147658E+02 -0.13465975423E+02  0.36879464825E+03  0.36951557800E+03  0.47000000000E+01 0.  1.
        -11    1    1    2    0    0  0.97992923938E+02  0.98273736167E+02  0.33222182902E+03  0.36004400292E+03  0.00000000000E+00 0. -1.
         11    1    1    2    0    0 -0.16854046954E+02  0.20419205449E+01  0.19580422998E+02  0.25915657487E+02  0.00000000000E+00 0.  1.
<mgrwt>
<rscale>  0 0.17417436E+03</rscale>
<asrwt>0</asrwt>
<pdfrwt beam="1">  1        2 0.14646855E+00 0.17964375E+03</pdfrwt>
<pdfrwt beam="2">  1       -2 0.47559248E-02 0.17964375E+03</pdfrwt>
<totfact> 0.58475607E+03</totfact>
</mgrwt>
</event>
<event>
 7    1  0.8165933E-006  0.1510106E+03  0.7546771E-02  0.1207060E+00
          1   -1    0    0  501    0  0.00000000000E+00  0.00000000000E+00  0.81882131677E+03  0.81882131677E+03  0.00000000000E+00 0. -1.
         -1   -1    0    0    0  501 -0.00000000000E+00 -0.00000000000E+00 -0.24356442813E+02  0.24356442813E+02  0.00000000000E+00 0.  1.
         23    2    1    2    0    0 -0.78245038282E+02 -0.32519315132E+02  0.49941058483E+03  0.52174239065E+03  0.12499759235E+03 0.  0.
          5    1    3    3  502    0 -0.52743866034E+02  0.30024872254E+02  0.37674992095E+03  0.38163595388E+03  0.47000000000E+01 0.  1.
         -5    1    3    3    0  502 -0.25501172249E+02 -0.62544187387E+02  0.12266066388E+03  0.14010643677E+03  0.47000000000E+01 0.  1.
        -11    1    1    2    0    0  0.48772332248E+02  0.53891026250E+02  0.10362241738E+03  0.12657246339E+03  0.00000000000E+00 0.  1.
         11    1    1    2    0    0  0.29472706034E+02 -0.21371711117E+02  0.19143187175E+03  0.19486290554E+03  0.00000000000E+00 0. -1.
<mgrwt>
<rscale>  0 0.14476307E+03</rscale>
<asrwt>0</asrwt>
<pdfrwt beam="1">  1        1 0.12597249E+00 0.15101056E+03</pdfrwt>
<pdfrwt beam="2">  1       -1 0.37471457E-02 0.15101056E+03</pdfrwt>
<totfact> 0.58703118E+03</totfact>
</mgrwt>
</event>
<event>
 7    1  0.8165933E-006  0.1275687E+03  0.7546771E-02  0.1246045E+00
         -2   -1    0    0    0  501 -0.00000000000E+00  0.00000000000E+00  0.14737853515E+02  0.14737853515E+02  0.00000000000E+00 0.  1.
          2   -1    0    0  501    0  0.00000000000E+00 -0.00000000000E+00 -0.12837263453E+04  0.12837263453E+04  0.00000000000E+00 0. -1.
         23    2    1    2    0    0 -0.61457848546E+01  0.24688974746E+02 -0.10782253274E+04  0.10857456511E+04  0.12500578472E+03 0.  0.
          5    1    3    3  502    0 -0.46435598930E+02 -0.19719984362E+02 -0.77252091170E+03  0.77418072286E+03  0.47000000000E+01 0. -1.
         -5    1    3    3    0  502  0.40289814075E+02  0.44408959108E+02 -0.30570441568E+03  0.31156492828E+03  0.47000000000E+01 0. -1.
        -11    1    1    2    0    0  0.38121484936E+02  0.14690627980E+02 -0.11005004232E+03  0.11738855983E+03  0.00000000000E+00 0. -1.
         11    1    1    2    0    0 -0.31975700082E+02 -0.39379602727E+02 -0.80713122090E+02  0.95329987854E+02  0.00000000000E+00 0.  1.
<mgrwt>
<rscale>  0 0.11823025E+03</rscale>
<asrwt>0</asrwt>
<pdfrwt beam="2">  1        2 0.19749639E+00 0.12756866E+03</pdfrwt>
<pdfrwt beam="1">  1       -2 0.22673617E-02 0.12756866E+03</pdfrwt>
<totfact> 0.11116077E+04</totfact>
</mgrwt>
</event>
<event>
 7    1  0.8165933E-006  0.1666198E+03  0.7546771E-02  0.1187934E+00
         -2   -1    0    0    0  501 -0.00000000000E+00  0.00000000000E+00  0.61123088854E+03  0.61123088854E+03  0.00000000000E+00 0.  1.
          2   -1    0    0  501    0  0.00000000000E+00 -0.00000000000E+00 -0.44543357527E+02  0.44543357527E+02  0.00000000000E+00 0. -1.
         23    2    1    2    0    0 -0.56016641226E+02 -0.94865046729E+02  0.19133706521E+03  0.25371642750E+03  0.12499964751E+03 0.  0.
          5    1    3    3  502    0 -0.43510773517E+02  0.20263746483E+02  0.37423357647E+02  0.61044283362E+02  0.47000000000E+01 0. -1.
         -5    1    3    3    0  502 -0.12505867710E+02 -0.11512879321E+03  0.15391370756E+03  0.19267214414E+03  0.47000000000E+01 0. -1.
        -11    1    1    2    0    0 -0.12173793294E+02  0.67736510300E+02  0.21417004020E+03  0.22495608947E+03  0.00000000000E+00 0. -1.
         11    1    1    2    0    0  0.68190434521E+02  0.27128536429E+02  0.16118042561E+03  0.17710172910E+03  0.00000000000E+00 0.  1.
<mgrwt>
<rscale>  0 0.16067745E+03</rscale>
<asrwt>0</asrwt>
<pdfrwt beam="2">  1        2 0.68528247E-02 0.16661979E+03</pdfrwt>
<pdfrwt beam="1">  1       -2 0.94035516E-01 0.16661979E+03</pdfrwt>
<totfact> 0.10078287E+03</totfact>
</mgrwt>
</event>
<event>
 7    1  0.8165933E-006  0.1299798E+03  0.7546771E-02  0.1240713E+00
          1   -1    0    0  501    0  0.00000000000E+00  0.00000000000E+00  0.59183841493E+02  0.59183841493E+02  0.00000000000E+00 0. -1.
         -1   -1    0    0    0  501 -0.00000000000E+00 -0.00000000000E+00 -0.24059899668E+03  0.24059899668E+03  0.00000000000E+00 0.  1.
         23    2    1    2    0    0 -0.30979681367E+02  0.17609639533E+02 -0.60278381731E+02  0.14327672147E+03  0.12499958220E+03 0.  0.
          5    1    3    3  502    0 -0.21468920914E+02 -0.22151273296E+02 -0.88193002208E+02  0.93550462918E+02  0.47000000000E+01 0.  1.
         -5    1    3    3    0  502 -0.95107604536E+01  0.39760912829E+02  0.27914620477E+02  0.49726258554E+02  0.47000000000E+01 0.  1.
        -11    1    1    2    0    0  0.54386443607E+02 -0.33500238296E+02 -0.10762714268E+03  0.12515491622E+03  0.00000000000E+00 0.  1.
         11    1    1    2    0    0 -0.23406762240E+02  0.15890598763E+02 -0.13509630780E+02  0.31351200479E+02  0.00000000000E+00 0. -1.
<mgrwt>
<rscale>  0 0.12145656E+03</rscale>
<asrwt>0</asrwt>
<pdfrwt beam="1">  1        1 0.91052065E-02 0.12997975E+03</pdfrwt>
<pdfrwt beam="2">  1       -1 0.37015230E-01 0.12997975E+03</pdfrwt>
<totfact> 0.49133003E+03</totfact>
</mgrwt>
</event>
<event>
 7    1  0.8165933E-006  0.1614592E+03  0.7546771E-02  0.1194646E+00
         -1   -1    0    0    0  501 -0.00000000000E+00  0.00000000000E+00  0.22602379933E+02  0.22602379933E+02  0.00000000000E+00 0.  1.
          1   -1    0    0  501    0  0.00000000000E+00 -0.00000000000E+00 -0.10054592218E+04  0.10054592218E+04  0.00000000000E+00 0. -1.
         23    2    1    2    0    0 -0.42816092139E+01  0.10210485010E+03 -0.60898110738E+03  0.63002148114E+03  0.12500137983E+03 0.  0.
          5    1    3    3  502    0 -0.40813329356E+02  0.18707298004E+02 -0.39303658020E+03  0.39562044212E+03  0.47000000000E+01 0.  1.
         -5    1    3    3    0  502  0.36531720142E+02  0.83397552098E+02 -0.21594452718E+03  0.23440103902E+03  0.47000000000E+01 0.  1.
        -11    1    1    2    0    0 -0.64748701582E+01 -0.94077102042E+02 -0.37283769058E+03  0.38457816968E+03  0.00000000000E+00 0. -1.
         11    1    1    2    0    0  0.10756479372E+02 -0.80277480586E+01 -0.10380439059E+01  0.13461950918E+02  0.00000000000E+00 0.  1.
<mgrwt>
<rscale>  0 0.15484256E+03</rscale>
<asrwt>0</asrwt>
<pdfrwt beam="2">  1        1 0.15468598E+00 0.16145921E+03</pdfrwt>
<pdfrwt beam="1">  1       -1 0.34772905E-02 0.16145921E+03</pdfrwt>
<totfact> 0.47199899E+03</totfact>
</mgrwt>
</event>
<event>
 7    1  0.8165933E-006  0.1283839E+03  0.7546771E-02  0.1244239E+00
         -2   -1    0    0    0  501 -0.00000000000E+00  0.00000000000E+00  0.14479704696E+02  0.14479704696E+02  0.00000000000E+00 0.  1.
          2   -1    0    0  501    0  0.00000000000E+00 -0.00000000000E+00 -0.10604039889E+04  0.10604039889E+04  0.00000000000E+00 0. -1.
         23    2    1    2    0    0 -0.16980556704E+02 -0.23848111374E+02 -0.81250472014E+03  0.82258516783E+03  0.12500146541E+03 0.  0.
          5    1    3    3  502    0 -0.25030448075E+02 -0.61934722917E+02 -0.70463345216E+03  0.70780846642E+03  0.47000000000E+01 0.  1.
         -5    1    3    3    0  502  0.80498913714E+01  0.38086611543E+02 -0.10787126798E+03  0.11477670140E+03  0.47000000000E+01 0.  1.
        -11    1    1    2    0    0 -0.34250574939E+02  0.60557618526E+01 -0.14020925902E+03  0.14445902689E+03  0.00000000000E+00 0. -1.
         11    1    1    2    0    0  0.51231131642E+02  0.17792349521E+02 -0.93210305004E+02  0.10783949884E+03  0.00000000000E+00 0.  1.
<mgrwt>
<rscale>  0 0.11931041E+03</rscale>
<asrwt>0</asrwt>
<pdfrwt beam="2">  1        2 0.16313916E+00 0.12838395E+03</pdfrwt>
<pdfrwt beam="1">  1       -2 0.22276458E-02 0.12838395E+03</pdfrwt>
<totfact> 0.15199409E+04</totfact>
</mgrwt>
</event>
<event>
 7    1  0.8165933E-006  0.1849846E+03  0.7546771E-02  0.1168320E+00
         -1   -1    0    0    0  501 -0.00000000000E+00  0.00000000000E+00  0.28193407122E+02  0.28193407122E+02  0.00000000000E+00 0.  1.
          1   -1    0    0  501    0  0.00000000000E+00 -0.00000000000E+00 -0.13063400074E+04  0.13063400074E+04  0.00000000000E+00 0. -1.
         23    2    1    2    0    0  0.42205752045E+02  0.12966668475E+03 -0.94880645873E+03  0.96667109526E+03  0.12499814255E+03 0.  0.
          5    1    3    3  502    0  0.31731716887E+02  0.10039345199E+03 -0.31656834841E+03  0.33365154919E+03  0.47000000000E+01 0.  1.
         -5    1    3    3    0  502  0.10474035158E+02  0.29273232755E+02 -0.63223811032E+03  0.63301954607E+03  0.47000000000E+01 0.  1.
        -11    1    1    2    0    0 -0.39785967781E+02 -0.71818918039E+02 -0.90883369162E+02  0.12247721017E+03  0.00000000000E+00 0.  1.
         11    1    1    2    0    0 -0.24197842636E+01 -0.57847766709E+02 -0.23845677243E+03  0.24538510914E+03  0.00000000000E+00 0. -1.
<mgrwt>
<rscale>  0 0.17946734E+03</rscale>
<asrwt>0</asrwt>
<pdfrwt beam="2">  1        1 0.20097538E+00 0.18498462E+03</pdfrwt>
<pdfrwt beam="1">  1       -1 0.43374473E-02 0.18498462E+03</pdfrwt>
<totfact> 0.21018066E+03</totfact>
</mgrwt>
</event>
<event>
 7    1  0.8165933E-006  0.1442428E+03  0.7546771E-02  0.1218098E+00
         -3   -1    0    0    0  501 -0.00000000000E+00  0.00000000000E+00  0.69669515781E+02  0.69669515781E+02  0.00000000000E+00 0.  1.
          3   -1    0    0  501    0  0.00000000000E+00 -0.00000000000E+00 -0.24330930786E+03  0.24330930786E+03  0.00000000000E+00 0. -1.
         23    2    1    2    0    0  0.30576011238E+02  0.65153160976E+02 -0.10520247237E+03  0.17853166858E+03  0.12500467848E+03 0.  0.
          5    1    3    3  502    0 -0.39845276356E+02 -0.70009052110E+01 -0.15759025808E+02  0.43670305884E+02  0.47000000000E+01 0. -1.
         -5    1    3    3    0  502  0.70421287593E+02  0.72154066187E+02 -0.89443446564E+02  0.13486136269E+03  0.47000000000E+01 0. -1.
        -11    1    1    2    0    0  0.17251662523E+02 -0.64276634531E+01  0.13529097663E+02  0.22846689056E+02  0.00000000000E+00 0.  1.
         11    1    1    2    0    0 -0.47827673760E+02 -0.58725497523E+02 -0.81966417366E+02  0.11160046600E+03  0.00000000000E+00 0. -1.
<mgrwt>
<rscale>  0 0.13651422E+03</rscale>
<asrwt>0</asrwt>
<pdfrwt beam="2">  1        3 0.37432201E-01 0.14424284E+03</pdfrwt>
<pdfrwt beam="1">  1       -3 0.10718387E-01 0.14424284E+03</pdfrwt>
<totfact> 0.10796245E+03</totfact>
</mgrwt>
</event>
<event>
 7    1  0.8165933E-006  0.1310623E+03  0.7546771E-02  0.1240429E+00
          1   -1    0    0  501    0  0.00000000000E+00  0.00000000000E+00  0.14895721028E+04  0.14895721028E+04  0.00000000000E+00 0. -1.
         -1   -1    0    0    0  501 -0.00000000000E+00 -0.00000000000E+00 -0.19349940324E+02  0.19349940324E+02  0.00000000000E+00 0.  1.
         23    2    1    2    0    0 -0.33966130376E+02  0.19951739077E+02  0.13400908116E+04  0.13464845747E+04  0.12500222627E+03 0.  0.
          5    1    3    3  502    0  0.46040239137E+02 -0.36867297555E+01  0.39911632542E+03  0.40180744992E+03  0.47000000000E+01 0.  1.
         -5    1    3    3    0  502 -0.80006369513E+02  0.23638468833E+02  0.94097448618E+03  0.94467712474E+03  0.47000000000E+01 0.  1.
        -11    1    1    2    0    0  0.53573233914E+02  0.15618712790E+02  0.85417529527E+02  0.10203033829E+03  0.00000000000E+00 0.  1.
         11    1    1    2    0    0 -0.19607103538E+02 -0.35570451868E+02  0.44713821341E+02  0.60407130160E+02  0.00000000000E+00 0. -1.
<mgrwt>
<rscale>  0 0.12163189E+03</rscale>
<asrwt>0</asrwt>
<pdfrwt beam="1">  1        1 0.22916485E+00 0.13106230E+03</pdfrwt>
<pdfrwt beam="2">  1       -1 0.29769151E-02 0.13106230E+03</pdfrwt>
<totfact> 0.27543083E+03</totfact>
</mgrwt>
</event>
<event>
 7    1  0.8165933E-006  0.1392928E+03  0.7546771E-02  0.1225305E+00
         -1   -1    0    0    0  501 -0.00000000000E+00  0.00000000000E+00  0.48105949121E+02  0.48105949121E+02  0.00000000000E+00 0.  1.
          1   -1    0    0  501    0  0.00000000000E+00 -0.00000000000E+00 -0.35970606308E+03  0.35970606308E+03  0.00000000000E+00 0. -1.
         23    2    1    2    0    0 -0.58062326617E+02 -0.19228466859E+02 -0.23558485641E+03  0.27368361153E+03  0.12514602246E+03 0.  0.
          5    1    3    3  502    0  0.36107727871E+02 -0.23040751724E+02 -0.95609511536E+02  0.10487093472E+03  0.47000000000E+01 0.  1.
         -5    1    3    3    0  502 -0.94170054488E+02  0.38122848658E+01 -0.13997534488E+03  0.16881267681E+03  0.47000000000E+01 0.  1.
        -11    1    1    2    0    0  0.40247764273E+02  0.19010572630E+02  0.10553322047E+02  0.45745568167E+02  0.00000000000E+00 0.  1.
         11    1    1    2    0    0  0.17814562344E+02  0.21789422871E+00 -0.86568579588E+02  0.88382832503E+02  0.00000000000E+00 0. -1.
<mgrwt>
<rscale>  0 0.13146054E+03</rscale>
<asrwt>0</asrwt>
<pdfrwt beam="2">  1        1 0.55339393E-01 0.13929284E+03</pdfrwt>
<pdfrwt beam="1">  1       -1 0.74009154E-02 0.13929284E+03</pdfrwt>
<totfact> 0.64537610E+03</totfact>
</mgrwt>
</event>
<event>
 7    1  0.8165933E-006  0.1911006E+03  0.7546771E-02  0.1160941E+00
         -2   -1    0    0    0  501 -0.00000000000E+00  0.00000000000E+00  0.13224360089E+03  0.13224360089E+03  0.00000000000E+00 0.  1.
          2   -1    0    0  501    0  0.00000000000E+00 -0.00000000000E+00 -0.27328561629E+03  0.27328561629E+03  0.00000000000E+00 0. -1.
         23    2    1    2    0    0 -0.45272339100E+02  0.13727904408E+03 -0.12541860246E+03  0.22858101256E+03  0.12499733130E+03 0.  0.
          5    1    3    3  502    0 -0.73833087190E+02  0.11316000625E+03 -0.49768222187E+02  0.14406761509E+03  0.47000000000E+01 0.  1.
         -5    1    3    3    0  502  0.28560748090E+02  0.24119037827E+02 -0.75650380268E+02  0.84513397469E+02  0.47000000000E+01 0.  1.
        -11    1    1    2    0    0 -0.61207448134E-01 -0.63483942850E+02 -0.52923017998E+02  0.82650230370E+02  0.00000000000E+00 0.  1.
         11    1    1    2    0    0  0.45333546549E+02 -0.73795101230E+02  0.37299605054E+02  0.94297974238E+02  0.00000000000E+00 0. -1.
<mgrwt>
<rscale>  0 0.18727650E+03</rscale>
<asrwt>0</asrwt>
<pdfrwt beam="2">  1        2 0.42043940E-01 0.19110064E+03</pdfrwt>
<pdfrwt beam="1">  1       -2 0.20345170E-01 0.19110064E+03</pdfrwt>
<totfact> 0.24332503E+03</totfact>
</mgrwt>
</event>
<event>
 7    1  0.8165933E-006  0.1684789E+03  0.7546771E-02  0.1186674E+00
          1   -1    0    0  501    0  0.00000000000E+00  0.00000000000E+00  0.19001608202E+03  0.19001608202E+03  0.00000000000E+00 0. -1.
         -1   -1    0    0    0  501 -0.00000000000E+00 -0.00000000000E+00 -0.14488550883E+03  0.14488550883E+03  0.00000000000E+00 0.  1.
         23    2    1    2    0    0  0.27980755495E+02 -0.10944156404E+03  0.81315839211E+02  0.18707596313E+03  0.12499908662E+03 0.  0.
          5    1    3    3  502    0 -0.29951863170E+02 -0.15043577573E+02 -0.17914816130E+02  0.38294307286E+02  0.47000000000E+01 0. -1.
         -5    1    3    3    0  502  0.57932618665E+02 -0.94397986468E+02  0.99230655341E+02  0.14878165584E+03  0.47000000000E+01 0. -1.
        -11    1    1    2    0    0  0.31835946902E+02  0.45704466676E+02 -0.18081974523E+02  0.58560939132E+02  0.00000000000E+00 0.  1.
         11    1    1    2    0    0 -0.59816702396E+02  0.63737097365E+02 -0.18103291494E+02  0.89264688590E+02  0.00000000000E+00 0. -1.
<mgrwt>
<rscale>  0 0.16180513E+03</rscale>
<asrwt>0</asrwt>
<pdfrwt beam="1">  1        1 0.29233243E-01 0.16847893E+03</pdfrwt>
<pdfrwt beam="2">  1       -1 0.22290078E-01 0.16847893E+03</pdfrwt>
<totfact> 0.25849579E+03</totfact>
</mgrwt>
</event>
<event>
 7    1  0.8165933E-006  0.1264469E+03  0.7546771E-02  0.1247292E+00
          2   -1    0    0  501    0  0.00000000000E+00  0.00000000000E+00  0.38696850917E+03  0.38696850917E+03  0.00000000000E+00 0. -1.
         -2   -1    0    0    0  501 -0.00000000000E+00 -0.00000000000E+00 -0.34720596483E+02  0.34720596483E+02  0.00000000000E+00 0.  1.
         23    2    1    2    0    0 -0.16377733023E+02 -0.97191509980E+01  0.26330086627E+03  0.29208931456E+03  0.12500451777E+03 0.  0.
          5    1    3    3  502    0 -0.33443429403E+01  0.15219980725E+02  0.26305592104E+03  0.26355898778E+03  0.47000000000E+01 0. -1.
         -5    1    3    3    0  502 -0.13033390082E+02 -0.24939131723E+02  0.24494523408E+00  0.28530326782E+02  0.47000000000E+01 0. -1.
        -11    1    1    2    0    0  0.38916072817E+02  0.73925460049E+01  0.19058599366E+01  0.39657820944E+02  0.00000000000E+00 0.  1.
         11    1    1    2    0    0 -0.22538339794E+02  0.23266049931E+01  0.87041186479E+02  0.89941970154E+02  0.00000000000E+00 0. -1.
<mgrwt>
<rscale>  0 0.11749259E+03</rscale>
<asrwt>0</asrwt>
<pdfrwt beam="1">  1        2 0.59533614E-01 0.12644691E+03</pdfrwt>
<pdfrwt beam="2">  1       -2 0.53416305E-02 0.12644691E+03</pdfrwt>
<totfact> 0.13743887E+04</totfact>
</mgrwt>
</event>
<event>
 7    1  0.8165933E-006  0.1771108E+03  0.7546771E-02  0.1175411E+00
         -2   -1    0    0    0  501 -0.00000000000E+00  0.00000000000E+00  0.30384728810E+02  0.30384728810E+02  0.00000000000E+00 0.  1.
          2   -1    0    0  501    0  0.00000000000E+00 -0.00000000000E+00 -0.93928604651E+03  0.93928604651E+03  0.00000000000E+00 0. -1.
         23    2    1    2    0    0 -0.12826037532E+03  0.13884668272E+02 -0.53030809114E+03  0.55910187372E+03  0.12134548105E+03 0.  0.
          5    1    3    3  502    0 -0.18471915630E+01  0.13814285778E+02 -0.26259007687E+03  0.26300168266E+03  0.47000000000E+01 0. -1.
         -5    1    3    3    0  502 -0.12641318375E+03  0.70382493725E-01 -0.26771801427E+03  0.29610019106E+03  0.47000000000E+01 0.  1.
        -11    1    1    2    0    0  0.27213078371E+02  0.36826804277E+02 -0.10795336922E+03  0.11726335776E+03  0.00000000000E+00 0. -1.
         11    1    1    2    0    0  0.10104729695E+03 -0.50711472549E+02 -0.27063985733E+03  0.29330554384E+03  0.00000000000E+00 0.  1.
<mgrwt>
<rscale>  0 0.17235823E+03</rscale>
<asrwt>0</asrwt>
<pdfrwt beam="2">  1        2 0.14450554E+00 0.17711079E+03</pdfrwt>
<pdfrwt beam="1">  1       -2 0.46745739E-02 0.17711079E+03</pdfrwt>
<totfact> 0.61089068E+03</totfact>
</mgrwt>
</event>
<event>
 7    1  0.8165933E-006  0.1352332E+03  0.7546771E-02  0.1232360E+00
          2   -1    0    0  501    0  0.00000000000E+00  0.00000000000E+00  0.72231231016E+03  0.72231231016E+03  0.00000000000E+00 0. -1.
         -2   -1    0    0    0  501 -0.00000000000E+00 -0.00000000000E+00 -0.26335319215E+02  0.26335319215E+02  0.00000000000E+00 0.  1.
         23    2    1    2    0    0  0.50402412492E+02  0.11067139346E+02  0.56614072336E+03  0.58206816101E+03  0.12500056263E+03 0.  0.
          5    1    3    3  502    0 -0.53578113106E+01 -0.31535380178E+02  0.40878163748E+02  0.52118140953E+02  0.47000000000E+01 0.  1.
         -5    1    3    3    0  502  0.55760223803E+02  0.42602519524E+02  0.52526255961E+03  0.52995002006E+03  0.47000000000E+01 0.  1.
        -11    1    1    2    0    0 -0.37708324677E+02  0.30927004313E+02  0.29313741648E+02  0.56900727544E+02  0.00000000000E+00 0.  1.
         11    1    1    2    0    0 -0.12694087816E+02 -0.41994143660E+02  0.10052252593E+03  0.10967874082E+03  0.00000000000E+00 0. -1.
<mgrwt>
<rscale>  0 0.12674982E+03</rscale>
<asrwt>0</asrwt>
<pdfrwt beam="1">  1        2 0.11112496E+00 0.13523323E+03</pdfrwt>
<pdfrwt beam="2">  1       -2 0.40515881E-02 0.13523323E+03</pdfrwt>
<totfact> 0.10412759E+04</totfact>
</mgrwt>
</event>
<event>
 7    1  0.8165933E-006  0.1548732E+03  0.7546771E-02  0.1202719E+00
          2   -1    0    0  501    0  0.00000000000E+00  0.00000000000E+00  0.34665365075E+03  0.34665365075E+03  0.00000000000E+00 0.  1.
         -2   -1    0    0    0  501 -0.00000000000E+00 -0.00000000000E+00 -0.64837791064E+02  0.64837791064E+02  0.00000000000E+00 0. -1.
         23    2    1    2    0    0 -0.90456537580E+02  0.13378883043E+02  0.21645626432E+03  0.26615602744E+03  0.12499734748E+03 0.  0.
          5    1    3    3  502    0 -0.65318729337E+02 -0.74471348636E+01  0.22846162338E+02  0.69756959176E+02  0.47000000000E+01 0.  1.
         -5    1    3    3    0  502 -0.25137808243E+02  0.20826017907E+02  0.19361010198E+03  0.19639906826E+03  0.47000000000E+01 0.  1.
        -11    1    1    2    0    0  0.66426437003E+02  0.14547605751E+02  0.80610428330E+02  0.10546158315E+03  0.00000000000E+00 0.  1.
         11    1    1    2    0    0  0.24030100577E+02 -0.27926488794E+02 -0.15250832963E+02  0.39873831220E+02  0.00000000000E+00 0. -1.
<mgrwt>
<rscale>  0 0.14818658E+03</rscale>
<asrwt>0</asrwt>
<pdfrwt beam="1">  1        2 0.53331330E-01 0.15487323E+03</pdfrwt>
<pdfrwt beam="2">  1       -2 0.99750450E-02 0.15487323E+03</pdfrwt>
<totfact> 0.60006420E+03</totfact>
</mgrwt>
</event>
<event>
 7    1  0.8165933E-006  0.1267232E+03  0.7546771E-02  0.1247143E+00
         -1   -1    0    0    0  501 -0.00000000000E+00  0.00000000000E+00  0.29664099717E+02  0.29664099717E+02  0.00000000000E+00 0.  1.
          1   -1    0    0  501    0  0.00000000000E+00 -0.00000000000E+00 -0.17076655431E+04  0.17076655431E+04  0.00000000000E+00 0. -1.
         23    2    1    2    0    0  0.13580251798E+02  0.12793668097E+02 -0.16241069283E+04  0.16290433003E+04  0.12534216557E+03 0.  0.
          5    1    3    3  502    0  0.21712205480E+02  0.62096042208E+02 -0.12279603844E+04  0.12297301061E+04  0.47000000000E+01 0. -1.
         -5    1    3    3    0  502 -0.81319536824E+01 -0.49302374111E+02 -0.39614654394E+03  0.39931319417E+03  0.47000000000E+01 0.  1.
        -11    1    1    2    0    0  0.16452583038E+02 -0.23535356683E+02  0.14977410468E+02  0.32387085809E+02  0.00000000000E+00 0.  1.
         11    1    1    2    0    0 -0.30032834836E+02  0.10741688586E+02 -0.68871925552E+02  0.75899256723E+02  0.00000000000E+00 0. -1.
<mgrwt>
<rscale>  0 0.11758005E+03</rscale>
<asrwt>0</asrwt>
<pdfrwt beam="2">  1        1 0.26271775E+00 0.12672316E+03</pdfrwt>
<pdfrwt beam="1">  1       -1 0.45637081E-02 0.12672316E+03</pdfrwt>
<totfact> 0.10682492E+03</totfact>
</mgrwt>
</event>
<event>
 7    1  0.8165933E-006  0.3842523E+03  0.7546771E-02  0.1050260E+00
          1   -1    0    0  501    0  0.00000000000E+00  0.00000000000E+00  0.16192241238E+03  0.16192241238E+03  0.00000000000E+00 0. -1.
         -1   -1    0    0    0  501 -0.00000000000E+00 -0.00000000000E+00 -0.10019724276E+04  0.10019724276E+04  0.00000000000E+00 0.  1.
         23    2    1    2    0    0  0.27750301159E+03  0.23455232471E+03 -0.22952313971E+03  0.44758314713E+03  0.12500834957E+03 0.  0.
          5    1    3    3  502    0  0.32411509259E+02  0.44137717188E+02  0.95506098066E+01  0.55784838072E+02  0.47000000000E+01 0. -1.
         -5    1    3    3    0  502  0.24509150233E+03  0.19041460752E+03 -0.23907374951E+03  0.39179830906E+03  0.47000000000E+01 0. -1.
        -11    1    1    2    0    0 -0.14511299282E+03 -0.64653853629E+02 -0.27544322691E+03  0.31797306918E+03  0.00000000000E+00 0.  1.
         11    1    1    2    0    0 -0.13239001877E+03 -0.16989847108E+03 -0.33508364865E+03  0.39833862371E+03  0.00000000000E+00 0. -1.
<mgrwt>
<rscale>  0 0.38182776E+03</rscale>
<asrwt>0</asrwt>
<pdfrwt beam="1">  1        1 0.24911141E-01 0.38425226E+03</pdfrwt>
<pdfrwt beam="2">  1       -1 0.15414960E+00 0.38425226E+03</pdfrwt>
<totfact> 0.66929918E+01</totfact>
</mgrwt>
</event>
<event>
 7    1  0.8165933E-006  0.2111231E+03  0.7546771E-02  0.1144815E+00
          1   -1    0    0  501    0  0.00000000000E+00  0.00000000000E+00  0.98700289092E+03  0.98700289092E+03  0.00000000000E+00 0. -1.
         -1   -1    0    0    0  501 -0.00000000000E+00 -0.00000000000E+00 -0.40995589667E+02  0.40995589667E+02  0.00000000000E+00 0.  1.
         23    2    1    2    0    0  0.14875825541E+03 -0.82659181998E+02  0.50042430411E+03  0.54313667179E+03  0.12494559287E+03 0.  0.
          5    1    3    3  502    0  0.21922304806E+02  0.15754519959E+02  0.13774794242E+02  0.30669647920E+02  0.47000000000E+01 0.  1.
         -5    1    3    3    0  502  0.12683595060E+03 -0.98413701957E+02  0.48664950987E+03  0.51246702387E+03  0.47000000000E+01 0.  1.
        -11    1    1    2    0    0 -0.39894365738E+02  0.58796160865E+02  0.10729781723E+03  0.12869098855E+03  0.00000000000E+00 0.  1.
         11    1    1    2    0    0 -0.10886388967E+03  0.23863021134E+02  0.33828517991E+03  0.35617082025E+03  0.00000000000E+00 0. -1.
<mgrwt>
<rscale>  0 0.20594816E+03</rscale>
<asrwt>0</asrwt>
<pdfrwt beam="1">  1        1 0.15184658E+00 0.21112309E+03</pdfrwt>
<pdfrwt beam="2">  1       -1 0.63070145E-02 0.21112309E+03</pdfrwt>
<totfact> 0.20206134E+03</totfact>
</mgrwt>
</event>
<event>
 7    1  0.8165933E-006  0.1962876E+03  0.7546771E-02  0.1157283E+00
         -1   -1    0    0    0  501 -0.00000000000E+00  0.00000000000E+00  0.14810011604E+03  0.14810011604E+03  0.00000000000E+00 0.  1.
          1   -1    0    0  501    0  0.00000000000E+00 -0.00000000000E+00 -0.25868759340E+03  0.25868759340E+03  0.00000000000E+00 0. -1.
         23    2    1    2    0    0  0.10446117436E+03 -0.10949557295E+03 -0.11884820410E+03  0.22946401564E+03  0.12500968527E+03 0.  0.
          5    1    3    3  502    0  0.99038660446E+02 -0.79679119692E+02 -0.23559904978E+02  0.12936219502E+03  0.47000000000E+01 0. -1.
         -5    1    3    3    0  502  0.54225139166E+01 -0.29816453255E+02 -0.95288299123E+02  0.10010182062E+03  0.47000000000E+01 0. -1.
        -11    1    1    2    0    0  0.16281375426E+02  0.39331024180E+01  0.73941762378E+00  0.16766013802E+02  0.00000000000E+00 0.  1.
         11    1    1    2    0    0 -0.12074254979E+03  0.10556247053E+03  0.75213091189E+01  0.16055767999E+03  0.00000000000E+00 0. -1.
<mgrwt>
<rscale>  0 0.19131255E+03</rscale>
<asrwt>0</asrwt>
<pdfrwt beam="2">  1        1 0.39798091E-01 0.19628764E+03</pdfrwt>
<pdfrwt beam="1">  1       -1 0.22784633E-01 0.19628764E+03</pdfrwt>
<totfact> 0.17039687E+03</totfact>
</mgrwt>
</event>
<event>
 7    1  0.8165933E-006  0.1259967E+03  0.7546771E-02  0.1247939E+00
         -1   -1    0    0    0  501 -0.00000000000E+00  0.00000000000E+00  0.34758063188E+02  0.34758063188E+02  0.00000000000E+00 0.  1.
          1   -1    0    0  501    0  0.00000000000E+00 -0.00000000000E+00 -0.35194288149E+03  0.35194288149E+03  0.00000000000E+00 0. -1.
         23    2    1    2    0    0 -0.24351687061E+02  0.31354312821E+01 -0.20099123070E+03  0.23721855152E+03  0.12358127196E+03 0.  0.
          5    1    3    3  502    0 -0.20597742218E+02 -0.30084657075E+02 -0.20009750826E+03  0.20344644599E+03  0.47000000000E+01 0. -1.
         -5    1    3    3    0  502 -0.37539448431E+01  0.33220088357E+02 -0.89372243790E+00  0.33772105533E+02  0.47000000000E+01 0.  1.
        -11    1    1    2    0    0  0.14303241378E+02 -0.40795415920E+02 -0.24132294097E+02  0.49509759567E+02  0.00000000000E+00 0. -1.
         11    1    1    2    0    0  0.10048445683E+02  0.37659984638E+02 -0.92061293508E+02  0.99972633585E+02  0.00000000000E+00 0.  1.
<mgrwt>
<rscale>  0 0.11711180E+03</rscale>
<asrwt>0</asrwt>
<pdfrwt beam="2">  1        1 0.54145058E-01 0.12599669E+03</pdfrwt>
<pdfrwt beam="1">  1       -1 0.53473944E-02 0.12599669E+03</pdfrwt>
<totfact> 0.10694009E+04</totfact>
</mgrwt>
</event>
<event>
 7    1  0.8165933E-006  0.1431102E+03  0.7546771E-02  0.1219022E+00
          1   -1    0    0  501    0  0.00000000000E+00  0.00000000000E+00  0.45227766111E+02  0.45227766111E+02  0.00000000000E+00 0. -1.
         -1   -1    0    0    0  501 -0.00000000000E+00 -0.00000000000E+00 -0.37355162488E+03  0.37355162488E+03  0.00000000000E+00 0.  1.
         23    2    1    2    0    0  0.57271352728E+02 -0.39690865931E+02 -0.16651345278E+03  0.21956151481E+03  0.12500062459E+03 0.  0.
          5    1    3    3  502    0  0.39659814644E+02 -0.74176991120E+02 -0.52992779586E+02  0.99526135248E+02  0.47000000000E+01 0. -1.
         -5    1    3    3    0  502  0.17611538084E+02  0.34486125188E+02 -0.11352067319E+03  0.12003537956E+03  0.47000000000E+01 0. -1.
        -11    1    1    2    0    0  0.10382531291E+02 -0.19220451708E+02 -0.58216945959E+02  0.62180668352E+02  0.00000000000E+00 0.  1.
         11    1    1    2    0    0 -0.67653884019E+02  0.58911317640E+02 -0.10359346003E+03  0.13703720783E+03  0.00000000000E+00 0. -1.
<mgrwt>
<rscale>  0 0.13585180E+03</rscale>
<asrwt>0</asrwt>
<pdfrwt beam="1">  1        1 0.69581177E-02 0.14311020E+03</pdfrwt>
<pdfrwt beam="2">  1       -1 0.57469482E-01 0.14311020E+03</pdfrwt>
<totfact> 0.32110390E+03</totfact>
</mgrwt>
</event>
<event>
 7    1  0.8165933E-006  0.1882410E+03  0.7546771E-02  0.1165112E+00
          1   -1    0    0  501    0  0.00000000000E+00  0.00000000000E+00  0.72475132436E+02  0.72475132436E+02  0.00000000000E+00 0. -1.
         -1   -1    0    0    0  501 -0.00000000000E+00 -0.00000000000E+00 -0.43728924890E+03  0.43728924890E+03  0.00000000000E+00 0.  1.
         23    2    1    2    0    0  0.95010614313E+02 -0.10383745343E+03 -0.20466249849E+03  0.27806727843E+03  0.12500175790E+03 0.  0.
          5    1    3    3  502    0  0.77239557739E+02 -0.10048089678E+03 -0.21996994461E+03  0.25391184775E+03  0.47000000000E+01 0. -1.
         -5    1    3    3    0  502  0.17771056574E+02 -0.33565566526E+01  0.15307446122E+02  0.24155430675E+02  0.47000000000E+01 0. -1.
        -11    1    1    2    0    0 -0.87564153609E+02  0.32349206320E+02 -0.71591829590E+02  0.11764073364E+03  0.00000000000E+00 0.  1.
         11    1    1    2    0    0 -0.74464607033E+01  0.71488247111E+02 -0.88559788379E+02  0.11405636926E+03  0.00000000000E+00 0. -1.
<mgrwt>
<rscale>  0 0.18280928E+03</rscale>
<asrwt>0</asrwt>
<pdfrwt beam="1">  1        1 0.11150020E-01 0.18824100E+03</pdfrwt>
<pdfrwt beam="2">  1       -1 0.67275269E-01 0.18824100E+03</pdfrwt>
<totfact> 0.12734822E+03</totfact>
</mgrwt>
</event>
<event>
 7    1  0.1375429E-005  0.1298563E+03  0.7546771E-02  0.1241545E+00
         -1   -1    0    0    0  501 -0.00000000000E+00  0.00000000000E+00  0.12456243728E+03  0.12456243728E+03  0.00000000000E+00 0.  1.
          1   -1    0    0  501    0  0.00000000000E+00 -0.00000000000E+00 -0.11915408351E+03  0.11915408351E+03  0.00000000000E+00 0. -1.
         23    2    1    2    0    0 -0.18467270916E+01 -0.35133192548E+02 -0.40119492719E+02  0.13591262214E+03  0.12499966216E+03 0.  0.
          5    1    3    3  502    0 -0.54463929839E+02  0.14928580670E+02 -0.22925410013E+02  0.61129752155E+02  0.47000000000E+01 0. -1.
         -5    1    3    3    0  502  0.52617202747E+02 -0.50061773217E+02 -0.17194082705E+02  0.74782869982E+02  0.47000000000E+01 0. -1.
        -11    1    1    2    0    0 -0.17167955089E+02  0.61880682163E+02  0.24003564040E+02  0.68557483862E+02  0.00000000000E+00 0.  1.
         11    1    1    2    0    0  0.19014682181E+02 -0.26747489615E+02  0.21524282443E+02  0.39246414790E+02  0.00000000000E+00 0. -1.
<mgrwt>
<rscale>  0 0.12094600E+03</rscale>
<asrwt>0</asrwt>
<pdfrwt beam="2">  1        1 0.18331397E-01 0.12985633E+03</pdfrwt>
<pdfrwt beam="1">  1       -1 0.19163452E-01 0.12985633E+03</pdfrwt>
<totfact> 0.58685297E+03</totfact>
</mgrwt>
</event>
<event>
 7    1  0.8165933E-006  0.1468322E+03  0.7546771E-02  0.1213356E+00
         -2   -1    0    0    0  501 -0.00000000000E+00  0.00000000000E+00  0.14902984934E+03  0.14902984934E+03  0.00000000000E+00 0.  1.
          2   -1    0    0  501    0  0.00000000000E+00 -0.00000000000E+00 -0.12102573217E+03  0.12102573217E+03  0.00000000000E+00 0. -1.
         23    2    1    2    0    0  0.72518924384E+02  0.26003717876E+02  0.72651181587E+01  0.14701184565E+03  0.12499805232E+03 0.  0.
          5    1    3    3  502    0  0.10780619398E+03  0.25852447672E+02  0.93230588862E+01  0.11135319456E+03  0.47000000000E+01 0. -1.
         -5    1    3    3    0  502 -0.35287269595E+02  0.15127020390E+00 -0.20579407275E+01  0.35658651099E+02  0.47000000000E+01 0. -1.
        -11    1    1    2    0    0 -0.39184087319E+02 -0.35255995550E+02  0.53709778089E+02  0.75253692159E+02  0.00000000000E+00 0.  1.
         11    1    1    2    0    0 -0.33334837065E+02  0.92522776749E+01 -0.32970779076E+02  0.47790043703E+02  0.00000000000E+00 0. -1.
<mgrwt>
<rscale>  0 0.13998011E+03</rscale>
<asrwt>0</asrwt>
<pdfrwt beam="2">  1        2 0.18619343E-01 0.14683222E+03</pdfrwt>
<pdfrwt beam="1">  1       -2 0.22927669E-01 0.14683222E+03</pdfrwt>
<totfact> 0.47953381E+03</totfact>
</mgrwt>
</event>
<event>
 7    1  0.8165933E-006  0.1315349E+03  0.7546771E-02  0.1238630E+00
         -2   -1    0    0    0  501 -0.00000000000E+00  0.00000000000E+00  0.97021460338E+02  0.97021460338E+02  0.00000000000E+00 0.  1.
          2   -1    0    0  501    0  0.00000000000E+00 -0.00000000000E+00 -0.15475239835E+03  0.15475239835E+03  0.00000000000E+00 0. -1.
         23    2    1    2    0    0 -0.41009900178E+02  0.26259566488E+00  0.88594323115E+01  0.13183291604E+03  0.12497818747E+03 0.  0.
          5    1    3    3  502    0 -0.76927261286E+02 -0.21440250441E+02  0.28943788588E+02  0.85072444221E+02  0.47000000000E+01 0.  1.
         -5    1    3    3    0  502  0.35917361108E+02  0.21702846106E+02 -0.20084356277E+02  0.46760471823E+02  0.47000000000E+01 0.  1.
        -11    1    1    2    0    0  0.45230907307E+02  0.22803063884E+02 -0.14127076598E+01  0.50673567481E+02  0.00000000000E+00 0.  1.
         11    1    1    2    0    0 -0.42210071289E+01 -0.23065659548E+02 -0.65177662663E+02  0.69267375162E+02  0.00000000000E+00 0. -1.
<mgrwt>
<rscale>  0 0.12274875E+03</rscale>
<asrwt>0</asrwt>
<pdfrwt beam="2">  1        2 0.23808061E-01 0.13153489E+03</pdfrwt>
<pdfrwt beam="1">  1       -2 0.14926379E-01 0.13153489E+03</pdfrwt>
<totfact> 0.74157222E+03</totfact>
</mgrwt>
</event>
<event>
 7    1  0.8165933E-006  0.1443062E+03  0.7546771E-02  0.1217408E+00
         -1   -1    0    0    0  501 -0.00000000000E+00  0.00000000000E+00  0.27408628448E+02  0.27408628448E+02  0.00000000000E+00 0. -1.
          1   -1    0    0  501    0  0.00000000000E+00 -0.00000000000E+00 -0.63381652361E+03  0.63381652361E+03  0.00000000000E+00 0.  1.
         23    2    1    2    0    0  0.30125260585E+02  0.65508959324E+02 -0.29329429403E+03  0.32687281193E+03  0.12500134876E+03 0.  0.
          5    1    3    3  502    0  0.22060615024E+02  0.69432947658E+02 -0.63213617191E+02  0.96569437992E+02  0.47000000000E+01 0. -1.
         -5    1    3    3    0  502  0.80646455604E+01 -0.39239883344E+01 -0.23008067684E+03  0.23030337394E+03  0.47000000000E+01 0. -1.
        -11    1    1    2    0    0 -0.54417121668E+02 -0.69765870767E+02 -0.20188470246E+03  0.22042216981E+03  0.00000000000E+00 0. -1.
         11    1    1    2    0    0  0.24291861083E+02  0.42569114428E+01 -0.11122889867E+03  0.11393017032E+03  0.00000000000E+00 0.  1.
<mgrwt>
<rscale>  0 0.13701151E+03</rscale>
<asrwt>0</asrwt>
<pdfrwt beam="2">  1        1 0.97510233E-01 0.14430624E+03</pdfrwt>
<pdfrwt beam="1">  1       -1 0.42167121E-02 0.14430624E+03</pdfrwt>
<totfact> 0.71398659E+03</totfact>
</mgrwt>
</event>
<event>
 6    1  0.8165933E-006  0.5609354E+03  0.7546771E-02  0.1007198E+00
          4   -1    0    0  501    0  0.00000000000E+00  0.00000000000E+00  0.24544900692E+03  0.24544900692E+03  0.00000000000E+00 0. -1.
         -4   -1    0    0    0  501 -0.00000000000E+00 -0.00000000000E+00 -0.18019226372E+04  0.18019226372E+04  0.00000000000E+00 0.  1.
          5    1    1    2  502    0 -0.44070007553E+03  0.15947073711E+03 -0.13226930642E+03  0.48699561804E+03  0.47000000000E+01 0. -1.
         -5    1    1    2    0  502  0.22388423497E+02 -0.89361281939E+02 -0.25159913765E+02  0.95612716085E+02  0.47000000000E+01 0.  1.
        -11    1    1    2    0    0  0.33187156158E+03 -0.89984030650E+02 -0.11551636524E+04  0.12052547129E+04  0.00000000000E+00 0. -1.
         11    1    1    2    0    0  0.86440090453E+02  0.19874575483E+02 -0.24388075772E+03  0.25950859711E+03  0.00000000000E+00 0.  1.
<mgrwt>
<rscale>  0 0.52603410E+03</rscale>
<asrwt>0</asrwt>
<pdfrwt beam="1">  1        4 0.37761385E-01 0.56093539E+03</pdfrwt>
<pdfrwt beam="2">  1       -4 0.27721887E+00 0.56093539E+03</pdfrwt>
<totfact> 0.59564718E-01</totfact>
</mgrwt>
</event>
<event>
 7    1  0.8165933E-006  0.2289974E+03  0.7546771E-02  0.1130547E+00
         -1   -1    0    0    0  501 -0.00000000000E+00  0.00000000000E+00  0.37477818689E+03  0.37477818689E+03  0.00000000000E+00 0.  1.
          1   -1    0    0  501    0  0.00000000000E+00 -0.00000000000E+00 -0.13354730766E+03  0.13354730766E+03  0.00000000000E+00 0. -1.
         23    2    1    2    0    0 -0.19036271140E+03 -0.24055222889E+02  0.81170228244E+02  0.24295762433E+03  0.12499274231E+03 0.  0.
          5    1    3    3  502    0 -0.22464586492E+02 -0.19679521042E+02  0.68004082770E+02  0.74421680095E+02  0.47000000000E+01 0. -1.
         -5    1    3    3    0  502 -0.16789812490E+03 -0.43757018468E+01  0.13166145473E+02  0.16853594424E+03  0.47000000000E+01 0. -1.
        -11    1    1    2    0    0  0.14420939141E+03  0.15541035325E+02  0.16318951540E+03  0.21833160625E+03  0.00000000000E+00 0.  1.
         11    1    1    2    0    0  0.46153319982E+02  0.85141875641E+01 -0.31288644135E+01  0.47036263965E+02  0.00000000000E+00 0. -1.
<mgrwt>
<rscale>  0 0.22453471E+03</rscale>
<asrwt>0</asrwt>
<pdfrwt beam="2">  1        1 0.20545740E-01 0.22899738E+03</pdfrwt>
<pdfrwt beam="1">  1       -1 0.57658182E-01 0.22899738E+03</pdfrwt>
<totfact> 0.77388399E+02</totfact>
</mgrwt>
</event>
<event>
 7    1  0.8165933E-006  0.1388270E+03  0.7546771E-02  0.1224841E+00
         -1   -1    0    0    0  501 -0.00000000000E+00  0.00000000000E+00  0.76045662753E+02  0.76045662753E+02  0.00000000000E+00 0.  1.
          1   -1    0    0  501    0  0.00000000000E+00 -0.00000000000E+00 -0.24338422110E+03  0.24338422110E+03  0.00000000000E+00 0. -1.
         23    2    1    2    0    0  0.54320060788E+02 -0.26542568747E+02 -0.15171328125E+03  0.20564496019E+03  0.12497100857E+03 0.  0.
          5    1    3    3  502    0  0.14669202776E+02 -0.15766721605E+02  0.19547531334E+02  0.29461347585E+02  0.47000000000E+01 0.  1.
         -5    1    3    3    0  502  0.39650858012E+02 -0.10775847142E+02 -0.17126081259E+03  0.17618361260E+03  0.47000000000E+01 0.  1.
        -11    1    1    2    0    0 -0.79991926165E+02  0.23909160068E+02  0.24489538540E+00  0.83489018203E+02  0.00000000000E+00 0.  1.
         11    1    1    2    0    0  0.25671865377E+02  0.26334086792E+01 -0.15870172484E+02  0.30295905464E+02  0.00000000000E+00 0. -1.
<mgrwt>
<rscale>  0 0.13177805E+03</rscale>
<asrwt>0</asrwt>
<pdfrwt beam="2">  1        1 0.37443726E-01 0.13882698E+03</pdfrwt>
<pdfrwt beam="1">  1       -1 0.11699333E-01 0.13882698E+03</pdfrwt>
<totfact> 0.52184060E+03</totfact>
</mgrwt>
</event>
<event>
 7    1  0.8165933E-006  0.1390839E+03  0.7546771E-02  0.1223616E+00
          2   -1    0    0  501    0  0.00000000000E+00  0.00000000000E+00  0.40086008191E+03  0.40086008191E+03  0.00000000000E+00 0. -1.
         -2   -1    0    0    0  501 -0.00000000000E+00 -0.00000000000E+00 -0.58052755114E+02  0.58052755114E+02  0.00000000000E+00 0.  1.
         23    2    1    2    0    0  0.24922656424E+02 -0.55659895656E+02  0.30932159151E+03  0.33915213830E+03  0.12500065259E+03 0.  0.
          5    1    3    3  502    0  0.61401278032E+02 -0.54930858286E+02  0.11597494908E+03  0.14233690649E+03  0.47000000000E+01 0.  1.
         -5    1    3    3    0  502 -0.36478621608E+02 -0.72903737056E+00  0.19334664243E+03  0.19681523181E+03  0.47000000000E+01 0.  1.
        -11    1    1    2    0    0 -0.70929607300E+01 -0.17077955833E+02  0.40519579530E+02  0.44539903375E+02  0.00000000000E+00 0. -1.
         11    1    1    2    0    0 -0.17829695694E+02  0.72737851489E+02 -0.70338442502E+01  0.75220795348E+02  0.00000000000E+00 0.  1.
<mgrwt>
<rscale>  0 0.13262243E+03</rscale>
<asrwt>0</asrwt>
<pdfrwt beam="1">  1        2 0.61670780E-01 0.13908388E+03</pdfrwt>
<pdfrwt beam="2">  1       -2 0.89311934E-02 0.13908388E+03</pdfrwt>
<totfact> 0.60719469E+03</totfact>
</mgrwt>
</event>
<event>
 7    1  0.8165933E-006  0.2151338E+03  0.7546771E-02  0.1141022E+00
         -2   -1    0    0    0  501 -0.00000000000E+00  0.00000000000E+00  0.25104885288E+03  0.25104885288E+03  0.00000000000E+00 0.  1.
          2   -1    0    0  501    0  0.00000000000E+00 -0.00000000000E+00 -0.26744121212E+03  0.26744121212E+03  0.00000000000E+00 0. -1.
         23    2    1    2    0    0 -0.12875176834E+03  0.11867921839E+03 -0.16490541776E+03  0.27106520004E+03  0.12498308340E+03 0.  0.
          5    1    3    3  502    0 -0.12393048403E+02  0.70578966616E+02 -0.11790222903E+02  0.72774154296E+02  0.47000000000E+01 0. -1.
         -5    1    3    3    0  502 -0.11635871994E+03  0.48100251776E+02 -0.15311519486E+03  0.19829104574E+03  0.47000000000E+01 0. -1.
        -11    1    1    2    0    0  0.48437537124E+02 -0.72780263509E+02  0.12401222401E+03  0.15173066092E+03  0.00000000000E+00 0.  1.
         11    1    1    2    0    0  0.80314231217E+02 -0.45898954884E+02  0.24500834505E+02  0.95694204040E+02  0.00000000000E+00 0. -1.
<mgrwt>
<rscale>  0 0.21068852E+03</rscale>
<asrwt>0</asrwt>
<pdfrwt beam="2">  1        2 0.41144802E-01 0.21513379E+03</pdfrwt>
<pdfrwt beam="1">  1       -2 0.38622900E-01 0.21513379E+03</pdfrwt>
<totfact> 0.78954257E+02</totfact>
</mgrwt>
</event>
<event>
 7    1  0.8165933E-006  0.1261253E+03  0.7546771E-02  0.1248837E+00
          1   -1    0    0  501    0  0.00000000000E+00  0.00000000000E+00  0.84501153397E+03  0.84501153397E+03  0.00000000000E+00 0. -1.
         -1   -1    0    0    0  501 -0.00000000000E+00 -0.00000000000E+00 -0.14147115591E+02  0.14147115591E+02  0.00000000000E+00 0.  1.
         23    2    1    2    0    0 -0.16128687055E+02 -0.47876098138E+01  0.50760072429E+03  0.52303544880E+03  0.12499811857E+03 0.  0.
          5    1    3    3  502    0  0.47074699322E+02 -0.31810584896E+02  0.24520942834E+03  0.25174926886E+03  0.47000000000E+01 0. -1.
         -5    1    3    3    0  502 -0.63203386377E+02  0.27022975082E+02  0.26239129595E+03  0.27128617994E+03  0.47000000000E+01 0. -1.
        -11    1    1    2    0    0 -0.13391870711E+02  0.36362087078E+02  0.23110474853E+03  0.23433085237E+03  0.00000000000E+00 0. -1.
         11    1    1    2    0    0  0.29520557766E+02 -0.31574477265E+02  0.92158945552E+02  0.10179234839E+03  0.00000000000E+00 0.  1.
<mgrwt>
<rscale>  0 0.11658621E+03</rscale>
<asrwt>0</asrwt>
<pdfrwt beam="1">  1        1 0.13000173E+00 0.12612528E+03</pdfrwt>
<pdfrwt beam="2">  1       -1 0.21764800E-02 0.12612528E+03</pdfrwt>
<totfact> 0.12206259E+04</totfact>
</mgrwt>
</event>
<event>
 6    1  0.8165933E-006  0.3002552E+03  0.7546771E-02  0.1112488E+00
         -2   -1    0    0    0  501 -0.00000000000E+00  0.00000000000E+00  0.10243160687E+03  0.10243160687E+03  0.00000000000E+00 0.  1.
          2   -1    0    0  501    0  0.00000000000E+00 -0.00000000000E+00 -0.50949132715E+03  0.50949132715E+03  0.00000000000E+00 0. -1.
          5    1    1    2  502    0  0.79182450047E+02  0.23882133307E+02 -0.31802092989E+03  0.32863295412E+03  0.47000000000E+01 0. -1.
         -5    1    1    2    0  502 -0.11888565555E+01 -0.11562971938E+03 -0.10159105222E+02  0.11617634356E+03  0.47000000000E+01 0.  1.
        -11    1    1    2    0    0 -0.60185436897E+02  0.19092577183E+02 -0.65760925126E+02  0.91166400562E+02  0.00000000000E+00 0. -1.
         11    1    1    2    0    0 -0.17808156595E+02  0.72655008887E+02 -0.13118760037E+02  0.75947235780E+02  0.00000000000E+00 0.  1.
<mgrwt>
<rscale>  0 0.25129727E+03</rscale>
<asrwt>0</asrwt>
<pdfrwt beam="2">  1        2 0.78383282E-01 0.30025518E+03</pdfrwt>
<pdfrwt beam="1">  1       -2 0.15758709E-01 0.30025518E+03</pdfrwt>
<totfact> 0.19212177E+03</totfact>
</mgrwt>
</event>
<event>
 7    1  0.8165933E-006  0.2065662E+03  0.7546771E-02  0.1147692E+00
         -2   -1    0    0    0  501 -0.00000000000E+00  0.00000000000E+00  0.63469825440E+02  0.63469825440E+02  0.00000000000E+00 0. -1.
          2   -1    0    0  501    0  0.00000000000E+00 -0.00000000000E+00 -0.91969999059E+03  0.91969999059E+03  0.00000000000E+00 0.  1.
         23    2    1    2    0    0 -0.57937919412E+02  0.15390842018E+03 -0.71965823038E+03  0.74871727337E+03  0.12499993031E+03 0.  0.
          5    1    3    3  502    0  0.27362558071E+01 -0.20520206948E+02 -0.93214556028E+02  0.95601304617E+02  0.47000000000E+01 0. -1.
         -5    1    3    3    0  502 -0.60674175219E+02  0.17442862713E+03 -0.62644367435E+03  0.65311596875E+03  0.47000000000E+01 0. -1.
        -11    1    1    2    0    0  0.48014969979E+02 -0.75768129478E+02 -0.12645296006E+03  0.15503740805E+03  0.00000000000E+00 0.  1.
         11    1    1    2    0    0  0.99229494323E+01 -0.78140290706E+02 -0.10118974713E+02  0.79415134618E+02  0.00000000000E+00 0. -1.
<mgrwt>
<rscale>  0 0.20244489E+03</rscale>
<asrwt>0</asrwt>
<pdfrwt beam="2">  1        2 0.14149232E+00 0.20656618E+03</pdfrwt>
<pdfrwt beam="1">  1       -2 0.97645874E-02 0.20656618E+03</pdfrwt>
<totfact> 0.20267041E+03</totfact>
</mgrwt>
</event>
<event>
 7    1  0.8165933E-006  0.1282380E+03  0.7546771E-02  0.1246887E+00
          2   -1    0    0  501    0  0.00000000000E+00  0.00000000000E+00  0.16205393258E+02  0.16205393258E+02  0.00000000000E+00 0. -1.
         -2   -1    0    0    0  501 -0.00000000000E+00 -0.00000000000E+00 -0.74227706696E+03  0.74227706696E+03  0.00000000000E+00 0.  1.
         23    2    1    2    0    0  0.28054319598E+02  0.53471594899E+01 -0.42035445110E+03  0.43948020870E+03  0.12501740806E+03 0.  0.
          5    1    3    3  502    0 -0.11091342375E+02  0.53226041792E+02 -0.29040602821E+03  0.29548905330E+03  0.47000000000E+01 0. -1.
         -5    1    3    3    0  502  0.39145661973E+02 -0.47878882302E+02 -0.12994842289E+03  0.14399115540E+03  0.47000000000E+01 0. -1.
        -11    1    1    2    0    0  0.48128890091E+01  0.30571761975E+02 -0.50858406721E+02  0.59534645922E+02  0.00000000000E+00 0. -1.
         11    1    1    2    0    0 -0.32867208607E+02 -0.35918921464E+02 -0.25485881588E+03  0.25946760559E+03  0.00000000000E+00 0.  1.
<mgrwt>
<rscale>  0 0.11773173E+03</rscale>
<asrwt>0</asrwt>
<pdfrwt beam="1">  1        2 0.24931371E-02 0.12823802E+03</pdfrwt>
<pdfrwt beam="2">  1       -2 0.11419648E+00 0.12823802E+03</pdfrwt>
<totfact> 0.24049483E+03</totfact>
</mgrwt>
</event>
<event>
 7    1  0.8165933E-006  0.1690805E+03  0.7546771E-02  0.1185362E+00
          2   -1    0    0  501    0  0.00000000000E+00  0.00000000000E+00  0.42466553912E+03  0.42466553912E+03  0.00000000000E+00 0. -1.
         -2   -1    0    0    0  501 -0.00000000000E+00 -0.00000000000E+00 -0.61274844069E+02  0.61274844069E+02  0.00000000000E+00 0.  1.
         23    2    1    2    0    0 -0.27373345955E+02  0.11052351335E+03  0.24647423191E+03  0.29889420646E+03  0.12499381019E+03 0.  0.
          5    1    3    3  502    0 -0.70392743889E+02  0.67286400600E+02  0.19851291431E+03  0.22116072266E+03  0.47000000000E+01 0.  1.
         -5    1    3    3    0  502  0.43019397934E+02  0.43237112754E+02  0.47961317603E+02  0.77733483803E+02  0.47000000000E+01 0.  1.
        -11    1    1    2    0    0  0.59436061607E+02 -0.50678960357E+02  0.62956458820E+02  0.10032207210E+03  0.00000000000E+00 0.  1.
         11    1    1    2    0    0 -0.32062715652E+02 -0.59844552997E+02  0.53960004314E+02  0.86724104631E+02  0.00000000000E+00 0. -1.
<mgrwt>
<rscale>  0 0.16298977E+03</rscale>
<asrwt>0</asrwt>
<pdfrwt beam="1">  1        2 0.65333158E-01 0.16908045E+03</pdfrwt>
<pdfrwt beam="2">  1       -2 0.94268994E-02 0.16908045E+03</pdfrwt>
<totfact> 0.52998385E+03</totfact>
</mgrwt>
</event>
<event>
 7    1  0.8165933E-006  0.1253569E+03  0.7546771E-02  0.1249802E+00
         -2   -1    0    0    0  501 -0.00000000000E+00  0.00000000000E+00  0.93959019871E+02  0.93959019871E+02  0.00000000000E+00 0.  1.
          2   -1    0    0  501    0  0.00000000000E+00 -0.00000000000E+00 -0.17922583334E+03  0.17922583334E+03  0.00000000000E+00 0. -1.
         23    2    1    2    0    0 -0.94789072677E+01 -0.28096438507E+00 -0.12125071277E+03  0.17440206515E+03  0.12499766541E+03 0.  0.
          5    1    3    3  502    0 -0.10937884259E+02 -0.22113140971E+02 -0.14180729430E+03  0.14401398207E+03  0.47000000000E+01 0. -1.
         -5    1    3    3    0  502  0.14589769909E+01  0.21832176586E+02  0.20556581537E+02  0.30388083073E+02  0.47000000000E+01 0. -1.
        -11    1    1    2    0    0  0.12980362797E+02 -0.35714877345E+02 -0.10935450373E+02  0.39542715600E+02  0.00000000000E+00 0. -1.
         11    1    1    2    0    0 -0.35014555292E+01  0.35995841730E+02  0.46919349666E+02  0.59240072466E+02  0.00000000000E+00 0.  1.
<mgrwt>
<rscale>  0 0.11602536E+03</rscale>
<asrwt>0</asrwt>
<pdfrwt beam="2">  1        2 0.27573205E-01 0.12535687E+03</pdfrwt>
<pdfrwt beam="1">  1       -2 0.14455234E-01 0.12535687E+03</pdfrwt>
<totfact> 0.66261131E+03</totfact>
</mgrwt>
</event>
<event>
 7    1  0.8165933E-006  0.1473512E+03  0.7546771E-02  0.1213418E+00
          2   -1    0    0  501    0  0.00000000000E+00  0.00000000000E+00  0.75423218777E+02  0.75423218777E+02  0.00000000000E+00 0. -1.
         -2   -1    0    0    0  501 -0.00000000000E+00 -0.00000000000E+00 -0.23677260678E+03  0.23677260678E+03  0.00000000000E+00 0.  1.
         23    2    1    2    0    0  0.76972052455E+02 -0.12762076596E+02 -0.92509344627E+02  0.17398375025E+03  0.12499919619E+03 0.  0.
          5    1    3    3  502    0 -0.29647764920E+02  0.18785711341E+01 -0.49646703390E+02  0.58046568820E+02  0.47000000000E+01 0. -1.
         -5    1    3    3    0  502  0.10661981738E+03 -0.14640647730E+02 -0.42862641236E+02  0.11593718143E+03  0.47000000000E+01 0. -1.
        -11    1    1    2    0    0 -0.39295193239E+02  0.42992052034E+02 -0.68487791825E+02  0.89905541425E+02  0.00000000000E+00 0.  1.
         11    1    1    2    0    0 -0.37676859217E+02 -0.30229975438E+02 -0.35225155590E+00  0.48306533891E+02  0.00000000000E+00 0. -1.
<mgrwt>
<rscale>  0 0.13993398E+03</rscale>
<asrwt>0</asrwt>
<pdfrwt beam="1">  1        2 0.11603572E-01 0.14735117E+03</pdfrwt>
<pdfrwt beam="2">  1       -2 0.36426555E-01 0.14735117E+03</pdfrwt>
<totfact> 0.36498422E+03</totfact>
</mgrwt>
</event>
<event>
 6    1  0.8165933E-006  0.1914158E+03  0.7546771E-02  0.1175684E+00
          1   -1    0    0  501    0  0.00000000000E+00  0.00000000000E+00  0.46123849359E+03  0.46123849359E+03  0.00000000000E+00 0. -1.
         -1   -1    0    0    0  501 -0.00000000000E+00 -0.00000000000E+00 -0.62181520632E+02  0.62181520632E+02  0.00000000000E+00 0.  1.
          5    1    1    2  502    0 -0.74832265484E+02 -0.96342071836E+02  0.18387085962E+03  0.22070850863E+03  0.47000000000E+01 0. -1.
         -5    1    1    2    0  502  0.66160501965E+02  0.11583675343E+02  0.14363313108E+03  0.15863152240E+03  0.47000000000E+01 0.  1.
        -11    1    1    2    0    0 -0.19161667872E+02  0.52617707619E+02  0.82930858656E+02  0.10006657778E+03  0.00000000000E+00 0. -1.
         11    1    1    2    0    0  0.27833431390E+02  0.32140688875E+02 -0.11377876406E+02  0.44013405410E+02  0.00000000000E+00 0.  1.
<mgrwt>
<rscale>  0 0.17209178E+03</rscale>
<asrwt>0</asrwt>
<pdfrwt beam="1">  1        1 0.70959766E-01 0.19141577E+03</pdfrwt>
<pdfrwt beam="2">  1       -1 0.95663881E-02 0.19141577E+03</pdfrwt>
<totfact> 0.32338630E+03</totfact>
</mgrwt>
</event>
<event>
 7    1  0.8165933E-006  0.1474017E+03  0.7546771E-02  0.1213939E+00
         -2   -1    0    0    0  501 -0.00000000000E+00  0.00000000000E+00  0.10466811810E+03  0.10466811810E+03  0.00000000000E+00 0.  1.
          2   -1    0    0  501    0  0.00000000000E+00 -0.00000000000E+00 -0.20733607744E+03  0.20733607744E+03  0.00000000000E+00 0. -1.
         23    2    1    2    0    0 -0.77763214272E+02  0.72908464435E+01 -0.12285686658E+03  0.19188818315E+03  0.12500796466E+03 0.  0.
          5    1    3    3  502    0  0.32642088297E+02  0.14020229514E+02 -0.39302517868E+02  0.53186940829E+02  0.47000000000E+01 0.  1.
         -5    1    3    3    0  502 -0.11040530257E+03 -0.67293830701E+01 -0.83554348714E+02  0.13870124232E+03  0.47000000000E+01 0.  1.
        -11    1    1    2    0    0  0.61891413165E+02  0.18723052642E+02  0.46669720910E+02  0.79744357629E+02  0.00000000000E+00 0.  1.
         11    1    1    2    0    0  0.15871801107E+02 -0.26013899086E+02 -0.26480813670E+02  0.40371654767E+02  0.00000000000E+00 0. -1.
<mgrwt>
<rscale>  0 0.13954730E+03</rscale>
<asrwt>0</asrwt>
<pdfrwt beam="2">  1        2 0.31897858E-01 0.14740171E+03</pdfrwt>
<pdfrwt beam="1">  1       -2 0.16102788E-01 0.14740171E+03</pdfrwt>
<totfact> 0.47909548E+03</totfact>
</mgrwt>
</event>
<event>
 7    1  0.8165933E-006  0.1369936E+03  0.7546771E-02  0.1229631E+00
          1   -1    0    0  501    0  0.00000000000E+00  0.00000000000E+00  0.20896398459E+03  0.20896398459E+03  0.00000000000E+00 0. -1.
         -1   -1    0    0    0  501 -0.00000000000E+00 -0.00000000000E+00 -0.73495541306E+02  0.73495541306E+02  0.00000000000E+00 0.  1.
         23    2    1    2    0    0 -0.54489790350E+02  0.13287474174E+02  0.10304658437E+03  0.17142303155E+03  0.12498625113E+03 0.  0.
          5    1    3    3  502    0  0.19933058013E+02 -0.23227149087E+01 -0.18682209512E+02  0.27817921536E+02  0.47000000000E+01 0.  1.
         -5    1    3    3    0  502 -0.74422848363E+02  0.15610189082E+02  0.12172879388E+03  0.14360511001E+03  0.47000000000E+01 0.  1.
        -11    1    1    2    0    0  0.30625901091E+02  0.66773776277E+01  0.61132360343E+02  0.68700063106E+02  0.00000000000E+00 0. -1.
         11    1    1    2    0    0  0.23863889258E+02 -0.19964851801E+02 -0.28710501429E+02  0.42336431242E+02  0.00000000000E+00 0.  1.
<mgrwt>
<rscale>  0 0.12854464E+03</rscale>
<asrwt>0</asrwt>
<pdfrwt beam="1">  1        1 0.32148305E-01 0.13699364E+03</pdfrwt>
<pdfrwt beam="2">  1       -1 0.11307006E-01 0.13699364E+03</pdfrwt>
<totfact> 0.66382019E+03</totfact>
</mgrwt>
</event>
<event>
 7    1  0.8165933E-006  0.1653234E+03  0.7546771E-02  0.1189813E+00
          1   -1    0    0  501    0  0.00000000000E+00  0.00000000000E+00  0.42604022722E+02  0.42604022722E+02  0.00000000000E+00 0. -1.
         -1   -1    0    0    0  501 -0.00000000000E+00 -0.00000000000E+00 -0.55768568025E+03  0.55768568025E+03  0.00000000000E+00 0.  1.
         23    2    1    2    0    0 -0.50952805356E+02  0.95421893070E+02 -0.24823841655E+03  0.29825181792E+03  0.12502123575E+03 0.  0.
          5    1    3    3  502    0 -0.42828297248E+02  0.99712571325E+02 -0.93942317429E+02  0.14361096382E+03  0.47000000000E+01 0. -1.
         -5    1    3    3    0  502 -0.81245081081E+01 -0.42906782553E+01 -0.15429609912E+03  0.15464085410E+03  0.47000000000E+01 0. -1.
        -11    1    1    2    0    0  0.48017837124E+02 -0.17476759102E+02 -0.17096930627E+03  0.17844229733E+03  0.00000000000E+00 0. -1.
         11    1    1    2    0    0  0.29349682322E+01 -0.77945133968E+02 -0.95873934701E+02  0.12359558772E+03  0.00000000000E+00 0.  1.
<mgrwt>
<rscale>  0 0.15901499E+03</rscale>
<asrwt>0</asrwt>
<pdfrwt beam="1">  1        1 0.65544653E-02 0.16532343E+03</pdfrwt>
<pdfrwt beam="2">  1       -1 0.85797793E-01 0.16532343E+03</pdfrwt>
<totfact> 0.15825465E+03</totfact>
</mgrwt>
</event>
<event>
 7    1  0.8165933E-006  0.1454015E+03  0.7546771E-02  0.1215418E+00
         -2   -1    0    0    0  501 -0.00000000000E+00  0.00000000000E+00  0.10071436385E+03  0.10071436385E+03  0.00000000000E+00 0. -1.
          2   -1    0    0  501    0  0.00000000000E+00 -0.00000000000E+00 -0.17604608217E+03  0.17604608217E+03  0.00000000000E+00 0.  1.
         23    2    1    2    0    0  0.40108608176E+02  0.62522127172E+02 -0.55164521850E+02  0.15551440926E+03  0.12499556065E+03 0.  0.
          5    1    3    3  502    0  0.51538225121E+02  0.63990096723E+02 -0.87947781241E+02  0.12044842611E+03  0.47000000000E+01 0.  1.
         -5    1    3    3    0  502 -0.11429616945E+02 -0.14679695508E+01  0.32783259391E+02  0.35065983152E+02  0.47000000000E+01 0.  1.
        -11    1    1    2    0    0  0.45762318285E+01 -0.33499903449E+02  0.32089807911E+02  0.46614817393E+02  0.00000000000E+00 0. -1.
         11    1    1    2    0    0 -0.44684840005E+02 -0.29022223723E+02 -0.52257004380E+02  0.74631219358E+02  0.00000000000E+00 0.  1.
<mgrwt>
<rscale>  0 0.13845879E+03</rscale>
<asrwt>0</asrwt>
<pdfrwt beam="2">  1        2 0.27084012E-01 0.14540154E+03</pdfrwt>
<pdfrwt beam="1">  1       -2 0.15494518E-01 0.14540154E+03</pdfrwt>
<totfact> 0.60933881E+03</totfact>
</mgrwt>
</event>
<event>
 7    1  0.8165933E-006  0.1357712E+03  0.7546771E-02  0.1230457E+00
          1   -1    0    0  501    0  0.00000000000E+00  0.00000000000E+00  0.14576727388E+03  0.14576727388E+03  0.00000000000E+00 0. -1.
         -1   -1    0    0    0  501 -0.00000000000E+00 -0.00000000000E+00 -0.10136711488E+03  0.10136711488E+03  0.00000000000E+00 0.  1.
         23    2    1    2    0    0 -0.29660991687E+02 -0.43895405086E+02  0.28222693420E+02  0.13867345980E+03  0.12500890773E+03 0.  0.
          5    1    3    3  502    0  0.46486881628E+02 -0.63475942209E+01  0.25480642042E+02  0.53597343542E+02  0.47000000000E+01 0.  1.
         -5    1    3    3    0  502 -0.76147873315E+02 -0.37547810865E+02  0.27420513781E+01  0.85076116254E+02  0.47000000000E+01 0.  1.
        -11    1    1    2    0    0 -0.75380475471E+01  0.45605491326E+02  0.42552493977E+02  0.62828319599E+02  0.00000000000E+00 0. -1.
         11    1    1    2    0    0  0.37199039234E+02 -0.17100862402E+01 -0.26375028394E+02  0.45632609368E+02  0.00000000000E+00 0.  1.
<mgrwt>
<rscale>  0 0.12799783E+03</rscale>
<asrwt>0</asrwt>
<pdfrwt beam="1">  1        1 0.22425734E-01 0.13577116E+03</pdfrwt>
<pdfrwt beam="2">  1       -1 0.15594941E-01 0.13577116E+03</pdfrwt>
<totfact> 0.63164611E+03</totfact>
</mgrwt>
</event>
<event>
 7    1  0.8165933E-006  0.1210344E+03  0.7546771E-02  0.1250977E+00
         -1   -1    0    0    0  501 -0.00000000000E+00  0.00000000000E+00  0.91750794394E+01  0.91750794394E+01  0.00000000000E+00 0.  1.
          1   -1    0    0  501    0  0.00000000000E+00 -0.00000000000E+00 -0.17043110840E+04  0.17043110840E+04  0.00000000000E+00 0. -1.
         23    2    1    2    0    0  0.29034145598E+02  0.27529383820E+02 -0.13114660940E+04  0.13170393502E+04  0.11422996802E+03 0.  0.
          5    1    3    3  502    0  0.50773261042E+02  0.28266621845E+02 -0.31652923206E+03  0.32185364794E+03  0.47000000000E+01 0.  1.
         -5    1    3    3    0  502 -0.21739115444E+02 -0.73723802555E+00 -0.99493686198E+03  0.99518570226E+03  0.47000000000E+01 0. -1.
        -11    1    1    2    0    0  0.27210046907E+02  0.10371296567E+01 -0.50657470966E+02  0.57512100077E+02  0.00000000000E+00 0.  1.
         11    1    1    2    0    0 -0.56244192505E+02 -0.28566513477E+02 -0.33301243952E+03  0.33893471312E+03  0.00000000000E+00 0. -1.
<mgrwt>
<rscale>  0 0.11534662E+03</rscale>
<asrwt>0</asrwt>
<pdfrwt beam="2">  1        1 0.26220150E+00 0.12103443E+03</pdfrwt>
<pdfrwt beam="1">  1       -1 0.14115518E-02 0.12103443E+03</pdfrwt>
<totfact> 0.58677394E+03</totfact>
</mgrwt>
</event>
<event>
 7    1  0.8165933E-006  0.1452069E+03  0.7546771E-02  0.1215426E+00
          1   -1    0    0  501    0  0.00000000000E+00  0.00000000000E+00  0.22228754185E+03  0.22228754185E+03  0.00000000000E+00 0. -1.
         -1   -1    0    0    0  501 -0.00000000000E+00 -0.00000000000E+00 -0.90362471510E+02  0.90362471510E+02  0.00000000000E+00 0.  1.
         23    2    1    2    0    0  0.83244647680E+00 -0.77819300486E+02  0.12638440721E+03  0.19250474001E+03  0.12259086444E+03 0.  0.
          5    1    3    3  502    0 -0.92384811306E+01 -0.11030328748E+03  0.99247972392E+02  0.14874278062E+03  0.47000000000E+01 0. -1.
         -5    1    3    3    0  502  0.10070927607E+02  0.32483986999E+02  0.27136434820E+02  0.43761959382E+02  0.47000000000E+01 0.  1.
        -11    1    1    2    0    0 -0.30950634330E+02 -0.51889355966E+01 -0.24683749781E+01  0.31479512276E+02  0.00000000000E+00 0. -1.
         11    1    1    2    0    0  0.30118187854E+02  0.83008236082E+02  0.80090381090E+01  0.88665761083E+02  0.00000000000E+00 0.  1.
<mgrwt>
<rscale>  0 0.13845277E+03</rscale>
<asrwt>0</asrwt>
<pdfrwt beam="1">  1        1 0.34198083E-01 0.14520694E+03</pdfrwt>
<pdfrwt beam="2">  1       -1 0.13901919E-01 0.14520694E+03</pdfrwt>
<totfact> 0.44799770E+03</totfact>
</mgrwt>
</event>
<event>
 7    1  0.8165933E-006  0.1267215E+03  0.7546771E-02  0.1248431E+00
         -2   -1    0    0    0  501 -0.00000000000E+00  0.00000000000E+00  0.41122030454E+02  0.41122030454E+02  0.00000000000E+00 0.  1.
          2   -1    0    0  501    0  0.00000000000E+00 -0.00000000000E+00 -0.29670871268E+03  0.29670871268E+03  0.00000000000E+00 0. -1.
         23    2    1    2    0    0  0.18019736595E+02  0.10450913272E+02 -0.12207727246E+03  0.17595791533E+03  0.12499758006E+03 0.  0.
          5    1    3    3  502    0  0.20300695941E+02  0.23396848946E+02  0.17363166339E+02  0.35820390026E+02  0.47000000000E+01 0. -1.
         -5    1    3    3    0  502 -0.22809593463E+01 -0.12945935674E+02 -0.13944043880E+03  0.14013752531E+03  0.47000000000E+01 0. -1.
        -11    1    1    2    0    0 -0.27928065008E+02  0.15120686877E+02 -0.13047130413E+03  0.13428094871E+03  0.00000000000E+00 0. -1.
         11    1    1    2    0    0  0.99083284131E+01 -0.25571600148E+02 -0.30381056432E+01  0.27591879095E+02  0.00000000000E+00 0.  1.
<mgrwt>
<rscale>  0 0.11682357E+03</rscale>
<asrwt>0</asrwt>
<pdfrwt beam="2">  1        2 0.45647493E-01 0.12672146E+03</pdfrwt>
<pdfrwt beam="1">  1       -2 0.63264663E-02 0.12672146E+03</pdfrwt>
<totfact> 0.14103839E+04</totfact>
</mgrwt>
</event>
<event>
 7    1  0.8165933E-006  0.1484335E+03  0.7546771E-02  0.1211656E+00
         -1   -1    0    0    0  501 -0.00000000000E+00  0.00000000000E+00  0.78705056874E+02  0.78705056874E+02  0.00000000000E+00 0.  1.
          1   -1    0    0  501    0  0.00000000000E+00 -0.00000000000E+00 -0.23424827920E+03  0.23424827920E+03  0.00000000000E+00 0. -1.
         23    2    1    2    0    0  0.32426759198E+02  0.73195350253E+02 -0.10121163705E+03  0.17965605546E+03  0.12499379495E+03 0.  0.
          5    1    3    3  502    0 -0.47651100654E+02  0.31055182137E+02 -0.48021104979E+02  0.74586649305E+02  0.47000000000E+01 0.  1.
         -5    1    3    3    0  502  0.80077859851E+02  0.42140168116E+02 -0.53190532075E+02  0.10506940615E+03  0.47000000000E+01 0.  1.
        -11    1    1    2    0    0 -0.53624551347E+01 -0.88932441278E+02 -0.48541087461E+02  0.10145921451E+03  0.00000000000E+00 0.  1.
         11    1    1    2    0    0 -0.27064304063E+02  0.15737091025E+02 -0.57904978069E+01  0.31838066103E+02  0.00000000000E+00 0. -1.
<mgrwt>
<rscale>  0 0.14125089E+03</rscale>
<asrwt>0</asrwt>
<pdfrwt beam="2">  1        1 0.36038196E-01 0.14843350E+03</pdfrwt>
<pdfrwt beam="1">  1       -1 0.12108471E-01 0.14843350E+03</pdfrwt>
<totfact> 0.52093608E+03</totfact>
</mgrwt>
</event>
<event>
 7    1  0.8165933E-006  0.1343928E+03  0.7546771E-02  0.1231622E+00
         -1   -1    0    0    0  501 -0.00000000000E+00  0.00000000000E+00  0.36194266382E+02  0.36194266382E+02  0.00000000000E+00 0.  1.
          1   -1    0    0  501    0  0.00000000000E+00 -0.00000000000E+00 -0.41917565623E+03  0.41917565623E+03  0.00000000000E+00 0. -1.
         23    2    1    2    0    0  0.45225489468E+02 -0.19774716963E+02 -0.25231291076E+03  0.28587272826E+03  0.12500010998E+03 0.  0.
          5    1    3    3  502    0 -0.21025401571E+02 -0.53269951842E+02 -0.13803863813E+03  0.14952093799E+03  0.47000000000E+01 0.  1.
         -5    1    3    3    0  502  0.66250891038E+02  0.33495234879E+02 -0.11427427263E+03  0.13635179026E+03  0.47000000000E+01 0.  1.
        -11    1    1    2    0    0 -0.71723367141E+01  0.49641012444E+02 -0.10095077129E+03  0.11272413564E+03  0.00000000000E+00 0. -1.
         11    1    1    2    0    0 -0.38053152754E+02 -0.29866295481E+02 -0.29717707798E+02  0.56773058725E+02  0.00000000000E+00 0.  1.
<mgrwt>
<rscale>  0 0.12723194E+03</rscale>
<asrwt>0</asrwt>
<pdfrwt beam="2">  1        1 0.64488563E-01 0.13439275E+03</pdfrwt>
<pdfrwt beam="1">  1       -1 0.55683486E-02 0.13439275E+03</pdfrwt>
<totfact> 0.81256960E+03</totfact>
</mgrwt>
</event>
<event>
 7    1  0.8165933E-006  0.1625579E+03  0.7546771E-02  0.1192751E+00
          2   -1    0    0  501    0  0.00000000000E+00  0.00000000000E+00  0.20348391772E+03  0.20348391772E+03  0.00000000000E+00 0. -1.
         -2   -1    0    0    0  501 -0.00000000000E+00 -0.00000000000E+00 -0.11298058662E+03  0.11298058662E+03  0.00000000000E+00 0.  1.
         23    2    1    2    0    0  0.56431392676E+02 -0.87267360808E+02  0.62584383323E+02  0.17418917971E+03  0.12499988379E+03 0.  0.
          5    1    3    3  502    0 -0.15166114894E+02 -0.82141064112E+02  0.58602522940E+02  0.10214456006E+03  0.47000000000E+01 0. -1.
         -5    1    3    3    0  502  0.71597507570E+02 -0.51262966960E+01  0.39818603830E+01  0.72044619647E+02  0.47000000000E+01 0. -1.
        -11    1    1    2    0    0 -0.51879316541E+02  0.39911666290E+02 -0.25945234755E+02  0.70409941040E+02  0.00000000000E+00 0.  1.
         11    1    1    2    0    0 -0.45520761352E+01  0.47355694518E+02  0.53864182532E+02  0.71865383602E+02  0.00000000000E+00 0. -1.
<mgrwt>
<rscale>  0 0.15646121E+03</rscale>
<asrwt>0</asrwt>
<pdfrwt beam="1">  1        2 0.31305218E-01 0.16255788E+03</pdfrwt>
<pdfrwt beam="2">  1       -2 0.17381629E-01 0.16255788E+03</pdfrwt>
<totfact> 0.43307587E+03</totfact>
</mgrwt>
</event>
<event>
 6    1  0.8165933E-006  0.2765852E+03  0.7546771E-02  0.1097569E+00
          1   -1    0    0  501    0  0.00000000000E+00  0.00000000000E+00  0.41141738120E+02  0.41141738120E+02  0.00000000000E+00 0. -1.
         -1   -1    0    0    0  501 -0.00000000000E+00 -0.00000000000E+00 -0.46485261595E+03  0.46485261595E+03  0.00000000000E+00 0.  1.
          5    1    1    2  502    0  0.52240444539E+02  0.14694465002E+02  0.31641101615E+01  0.54562743153E+02  0.47000000000E+01 0. -1.
         -5    1    1    2    0  502  0.67849581695E+01  0.63749172908E+01 -0.19052210195E+03  0.19080732836E+03  0.47000000000E+01 0.  1.
        -11    1    1    2    0    0 -0.58180574654E+02  0.25305808163E+02 -0.13650228455E+03  0.15052653215E+03  0.00000000000E+00 0. -1.
         11    1    1    2    0    0 -0.84482805426E+00 -0.46375190456E+02 -0.99850601493E+02  0.11009775040E+03  0.00000000000E+00 0.  1.
<mgrwt>
<rscale>  0 0.27658521E+03</rscale>
<asrwt>0</asrwt>
<pdfrwt beam="1">  1        1 0.63294985E-02 0.27658521E+03</pdfrwt>
<pdfrwt beam="2">  1       -1 0.71515783E-01 0.27658521E+03</pdfrwt>
<totfact> 0.24590439E+03</totfact>
</mgrwt>
</event>
<event>
 7    1  0.8165933E-006  0.3495355E+03  0.7546771E-02  0.1064017E+00
         -1   -1    0    0    0  501 -0.00000000000E+00  0.00000000000E+00  0.74609424932E+02  0.74609424932E+02  0.00000000000E+00 0.  1.
          1   -1    0    0  501    0  0.00000000000E+00 -0.00000000000E+00 -0.15912459946E+04  0.15912459946E+04  0.00000000000E+00 0. -1.
         23    2    1    2    0    0  0.22950249674E+03 -0.23212040883E+03 -0.71387356053E+03  0.79485252240E+03  0.12499516680E+03 0.  0.
          5    1    3    3  502    0  0.10681711790E+02 -0.54312307395E+01 -0.13635939412E+03  0.13696558545E+03  0.47000000000E+01 0.  1.
         -5    1    3    3    0  502  0.21882078495E+03 -0.22668917809E+03 -0.57751416641E+03  0.65788693694E+03  0.47000000000E+01 0.  1.
        -11    1    1    2    0    0 -0.20331393639E+03  0.20103534356E+03 -0.60573334962E+03  0.66982434782E+03  0.00000000000E+00 0.  1.
         11    1    1    2    0    0 -0.26188560348E+02  0.31085065271E+02 -0.19702965954E+03  0.20117854934E+03  0.00000000000E+00 0. -1.
<mgrwt>
<rscale>  0 0.34660522E+03</rscale>
<asrwt>0</asrwt>
<pdfrwt beam="2">  1        1 0.24480709E+00 0.34953551E+03</pdfrwt>
<pdfrwt beam="1">  1       -1 0.11478372E-01 0.34953551E+03</pdfrwt>
<totfact> 0.30342905E+02</totfact>
</mgrwt>
</event>
<event>
 7    1  0.8165933E-006  0.1489970E+03  0.7546771E-02  0.1212956E+00
         -1   -1    0    0    0  501 -0.00000000000E+00  0.00000000000E+00  0.19149544578E+02  0.19149544578E+02  0.00000000000E+00 0.  1.
          1   -1    0    0  501    0  0.00000000000E+00 -0.00000000000E+00 -0.11160482060E+04  0.11160482060E+04  0.00000000000E+00 0. -1.
         23    2    1    2    0    0  0.38307375962E+02 -0.71471879594E+02 -0.83691293012E+03  0.85007255513E+03  0.12499764702E+03 0.  0.
          5    1    3    3  502    0  0.64528772405E+02 -0.22992979976E+02 -0.21485928895E+03  0.22556427830E+03  0.47000000000E+01 0. -1.
         -5    1    3    3    0  502 -0.26221396443E+02 -0.48478899618E+02 -0.62205364117E+03  0.62450827683E+03  0.47000000000E+01 0. -1.
        -11    1    1    2    0    0 -0.36021932680E+00  0.21746353382E+02 -0.46519463257E+01  0.22241273524E+02  0.00000000000E+00 0.  1.
         11    1    1    2    0    0 -0.37947156635E+02  0.49725526212E+02 -0.25533378493E+03  0.26288392187E+03  0.00000000000E+00 0. -1.
<mgrwt>
<rscale>  0 0.14027755E+03</rscale>
<asrwt>0</asrwt>
<pdfrwt beam="2">  1        1 0.17169970E+00 0.14899697E+03</pdfrwt>
<pdfrwt beam="1">  1       -1 0.29460842E-02 0.14899697E+03</pdfrwt>
<totfact> 0.49962990E+03</totfact>
</mgrwt>
</event>
<event>
 7    1  0.8165933E-006  0.1270788E+03  0.7546771E-02  0.1246665E+00
         -2   -1    0    0    0  501 -0.00000000000E+00  0.00000000000E+00  0.94558262002E+02  0.94558262002E+02  0.00000000000E+00 0.  1.
          2   -1    0    0  501    0  0.00000000000E+00 -0.00000000000E+00 -0.70086632226E+03  0.70086632226E+03  0.00000000000E+00 0. -1.
         23    2    1    2    0    0  0.22678047720E+02 -0.34658920199E+01 -0.66993828609E+03  0.68188439776E+03  0.12499087361E+03 0.  0.
          5    1    3    3  502    0  0.64968235960E+02 -0.34932829100E+02 -0.41098596557E+03  0.41757960694E+03  0.47000000000E+01 0.  1.
         -5    1    3    3    0  502 -0.42290188241E+02  0.31466937080E+02 -0.25895232052E+03  0.26430479082E+03  0.47000000000E+01 0.  1.
        -11    1    1    2    0    0  0.98284325994E+00  0.29813765209E+02  0.71315920461E+02  0.77303215250E+02  0.00000000000E+00 0.  1.
         11    1    1    2    0    0 -0.23660890980E+02 -0.26347873189E+02 -0.76856946304E+01  0.36236971252E+02  0.00000000000E+00 0. -1.
<mgrwt>
<rscale>  0 0.11786291E+03</rscale>
<asrwt>0</asrwt>
<pdfrwt beam="2">  1        2 0.10782559E+00 0.12707881E+03</pdfrwt>
<pdfrwt beam="1">  1       -2 0.14547425E-01 0.12707881E+03</pdfrwt>
<totfact> 0.14950152E+03</totfact>
</mgrwt>
</event>
<event>
 7    1  0.8165933E-006  0.1963914E+03  0.7546771E-02  0.1157599E+00
         -1   -1    0    0    0  501 -0.00000000000E+00  0.00000000000E+00  0.43766395706E+03  0.43766395706E+03  0.00000000000E+00 0.  1.
          1   -1    0    0  501    0  0.00000000000E+00 -0.00000000000E+00 -0.80453995272E+02  0.80453995272E+02  0.00000000000E+00 0. -1.
         23    2    1    2    0    0 -0.82339702624E+02  0.12713788660E+03  0.15391030799E+03  0.24951546512E+03  0.12500286232E+03 0.  0.
          5    1    3    3  502    0  0.99942117322E+01  0.19246464838E+02 -0.16492374579E+02  0.27647768376E+02  0.47000000000E+01 0. -1.
         -5    1    3    3    0  502 -0.92333914356E+02  0.10789142176E+03  0.17040268257E+03  0.22186769674E+03  0.47000000000E+01 0. -1.
        -11    1    1    2    0    0  0.74145291973E+01 -0.87681569661E+02  0.79345781237E+02  0.11848538265E+03  0.00000000000E+00 0. -1.
         11    1    1    2    0    0  0.74925173426E+02 -0.39456316941E+02  0.12395387256E+03  0.15011710456E+03  0.00000000000E+00 0.  1.
<mgrwt>
<rscale>  0 0.19095888E+03</rscale>
<asrwt>0</asrwt>
<pdfrwt beam="2">  1        1 0.12377538E-01 0.19639141E+03</pdfrwt>
<pdfrwt beam="1">  1       -1 0.67332915E-01 0.19639141E+03</pdfrwt>
<totfact> 0.11079341E+03</totfact>
</mgrwt>
</event>
<event>
 7    1  0.8165933E-006  0.1451694E+03  0.7546771E-02  0.1216555E+00
          1   -1    0    0  501    0  0.00000000000E+00  0.00000000000E+00  0.12334922711E+03  0.12334922711E+03  0.00000000000E+00 0. -1.
         -1   -1    0    0    0  501 -0.00000000000E+00 -0.00000000000E+00 -0.14133841938E+03  0.14133841938E+03  0.00000000000E+00 0.  1.
         23    2    1    2    0    0 -0.10495228708E+02 -0.73043714337E+02  0.46562896097E+01  0.14524401511E+03  0.12501443461E+03 0.  0.
          5    1    3    3  502    0  0.26428403594E+02 -0.38779129832E+02 -0.51382801929E+02  0.69746424719E+02  0.47000000000E+01 0. -1.
         -5    1    3    3    0  502 -0.36923632302E+02 -0.34264584505E+02  0.56039091539E+02  0.75497590386E+02  0.47000000000E+01 0. -1.
        -11    1    1    2    0    0  0.43621339283E+02  0.45600533537E+02  0.11968115324E+02  0.64229788137E+02  0.00000000000E+00 0.  1.
         11    1    1    2    0    0 -0.33126110575E+02  0.27443180800E+02 -0.34613597204E+02  0.55213843242E+02  0.00000000000E+00 0. -1.
<mgrwt>
<rscale>  0 0.13762892E+03</rscale>
<asrwt>0</asrwt>
<pdfrwt beam="1">  1        1 0.18976804E-01 0.14516936E+03</pdfrwt>
<pdfrwt beam="2">  1       -1 0.21744372E-01 0.14516936E+03</pdfrwt>
<totfact> 0.46140873E+03</totfact>
</mgrwt>
</event>
<event>
 7    1  0.8165933E-006  0.3706839E+03  0.7546771E-02  0.1055397E+00
         -1   -1    0    0    0  501 -0.00000000000E+00  0.00000000000E+00  0.20865364115E+03  0.20865364115E+03  0.00000000000E+00 0.  1.
          1   -1    0    0  501    0  0.00000000000E+00 -0.00000000000E+00 -0.10173018274E+04  0.10173018274E+04  0.00000000000E+00 0. -1.
         23    2    1    2    0    0  0.32683468794E+03 -0.12231541468E+03 -0.78062269591E+03  0.86416336858E+03  0.12499824127E+03 0.  0.
          5    1    3    3  502    0  0.56431454487E+02 -0.38306461294E+02 -0.64136933709E+02  0.93741827899E+02  0.47000000000E+01 0.  1.
         -5    1    3    3    0  502  0.27040323346E+03 -0.84008953389E+02 -0.71648576220E+03  0.77042154068E+03  0.47000000000E+01 0.  1.
        -11    1    1    2    0    0 -0.18440462428E+03  0.39329720992E+02  0.21242116767E+02  0.18974488118E+03  0.00000000000E+00 0. -1.
         11    1    1    2    0    0 -0.14243006367E+03  0.82985693691E+02 -0.49267607158E+02  0.17204721883E+03  0.00000000000E+00 0.  1.
<mgrwt>
<rscale>  0 0.36816357E+03</rscale>
<asrwt>0</asrwt>
<pdfrwt beam="2">  1        1 0.15650797E+00 0.37068387E+03</pdfrwt>
<pdfrwt beam="1">  1       -1 0.32100561E-01 0.37068387E+03</pdfrwt>
<totfact> 0.14033939E+02</totfact>
</mgrwt>
</event>
<event>
 6    1  0.8165933E-006  0.2030592E+03  0.7546771E-02  0.1175247E+00
         -2   -1    0    0    0  501 -0.00000000000E+00  0.00000000000E+00  0.66464952508E+02  0.66464952508E+02  0.00000000000E+00 0.  1.
          2   -1    0    0  501    0  0.00000000000E+00 -0.00000000000E+00 -0.39584350454E+03  0.39584350454E+03  0.00000000000E+00 0. -1.
          5    1    1    2  502    0 -0.34432764347E+02  0.74393114977E+01 -0.28132315413E+03  0.28355910436E+03  0.47000000000E+01 0. -1.
         -5    1    1    2    0  502  0.42006023404E+02  0.44807760879E+02  0.21693728913E+01  0.61636333570E+02  0.47000000000E+01 0.  1.
        -11    1    1    2    0    0 -0.11691620105E+02 -0.78181015913E+02 -0.42450629484E+02  0.89727482821E+02  0.00000000000E+00 0. -1.
         11    1    1    2    0    0  0.41183610483E+01  0.25933943536E+02 -0.77741413084E+01  0.27385536295E+02  0.00000000000E+00 0.  1.
<mgrwt>
<rscale>  0 0.17251825E+03</rscale>
<asrwt>0</asrwt>
<pdfrwt beam="2">  1        2 0.60899000E-01 0.20305924E+03</pdfrwt>
<pdfrwt beam="1">  1       -2 0.10225377E-01 0.20305924E+03</pdfrwt>
<totfact> 0.50741289E+03</totfact>
</mgrwt>
</event>
<event>
 7    1  0.8165933E-006  0.1343295E+03  0.7546771E-02  0.1262206E+00
         -2   -1    0    0    0  501 -0.00000000000E+00  0.00000000000E+00  0.16444091831E+03  0.16444091831E+03  0.00000000000E+00 0. -1.
          2   -1    0    0  501    0  0.00000000000E+00 -0.00000000000E+00 -0.60649872356E+02  0.60649872356E+02  0.00000000000E+00 0.  1.
         23    2    1    2    0    0  0.10263066713E+00 -0.49187361456E+02  0.43771964182E+02  0.14128125746E+03  0.12500000721E+03 0.  0.
          5    1    3    3  502    0  0.37427903861E+02  0.11064463951E+02 -0.21506395270E+02  0.44809434134E+02  0.47000000000E+01 0. -1.
         -5    1    3    3    0  502 -0.37325273194E+02 -0.60251825407E+02  0.65278359453E+02  0.96471823330E+02  0.47000000000E+01 0. -1.
        -11    1    1    2    0    0 -0.10733200397E+02  0.42597467495E+02  0.54858118438E+02  0.70279150439E+02  0.00000000000E+00 0. -1.
         11    1    1    2    0    0  0.10630569730E+02  0.65898939607E+01  0.51609633357E+01  0.13530382765E+02  0.00000000000E+00 0.  1.
<mgrwt>
<rscale>  0 0.10912129E+03</rscale>
<asrwt>0</asrwt>
<pdfrwt beam="2">  1        2 0.93307497E-02 0.13432948E+03</pdfrwt>
<pdfrwt beam="1">  1       -2 0.25298603E-01 0.13432948E+03</pdfrwt>
<totfact> 0.91362858E+03</totfact>
</mgrwt>
</event>
<event>
 7    1  0.8165933E-006  0.1467146E+03  0.7546771E-02  0.1205626E+00
         -2   -1    0    0    0  501 -0.00000000000E+00  0.00000000000E+00  0.37028891124E+02  0.37028891124E+02  0.00000000000E+00 0.  1.
          2   -1    0    0  501    0  0.00000000000E+00 -0.00000000000E+00 -0.14632097348E+04  0.14632097348E+04  0.00000000000E+00 0. -1.
         23    2    1    2    0    0  0.76734491846E+02 -0.33805737971E+01 -0.13028593388E+04  0.13110940626E+04  0.12500229522E+03 0.  0.
          5    1    3    3  502    0  0.87233700439E+02  0.23162664993E+02 -0.12197523321E+04  0.12230960998E+04  0.47000000000E+01 0.  1.
         -5    1    3    3    0  502 -0.10499208594E+02 -0.26543238790E+02 -0.83107006634E+02  0.87997962807E+02  0.47000000000E+01 0.  1.
        -11    1    1    2    0    0 -0.30929601861E+02 -0.58225757947E+02 -0.47625260131E+02  0.81332924221E+02  0.00000000000E+00 0. -1.
         11    1    1    2    0    0 -0.45804889984E+02  0.61606331744E+02 -0.75696244796E+02  0.10781163914E+03  0.00000000000E+00 0.  1.
<mgrwt>
<rscale>  0 0.14588233E+03</rscale>
<asrwt>0</asrwt>
<pdfrwt beam="2">  1        2 0.22510921E+00 0.14671464E+03</pdfrwt>
<pdfrwt beam="1">  1       -2 0.56967521E-02 0.14671464E+03</pdfrwt>
<totfact> 0.22883742E+03</totfact>
</mgrwt>
</event>
<event>
 7    1  0.8165933E-006  0.1307130E+03  0.7546771E-02  0.1238764E+00
          2   -1    0    0  501    0  0.00000000000E+00  0.00000000000E+00  0.18495167599E+03  0.18495167599E+03  0.00000000000E+00 0. -1.
         -2   -1    0    0    0  501 -0.00000000000E+00 -0.00000000000E+00 -0.72827162641E+02  0.72827162641E+02  0.00000000000E+00 0.  1.
         23    2    1    2    0    0 -0.12552446661E+02  0.36105790104E+02  0.61135496231E+02  0.14430329511E+03  0.12499880033E+03 0.  0.
          5    1    3    3  502    0  0.12448562846E+02 -0.32212667410E+02  0.62307570636E+02  0.71392898927E+02  0.47000000000E+01 0.  1.
         -5    1    3    3    0  502 -0.25001009506E+02  0.68318457513E+02 -0.11720744054E+01  0.72910396184E+02  0.47000000000E+01 0.  1.
        -11    1    1    2    0    0 -0.30379093794E+02 -0.36361931926E+02  0.52237061931E+02  0.70525102427E+02  0.00000000000E+00 0. -1.
         11    1    1    2    0    0  0.42931540455E+02  0.25614182239E+00 -0.12480448103E+01  0.42950441096E+02  0.00000000000E+00 0.  1.
<mgrwt>
<rscale>  0 0.12266523E+03</rscale>
<asrwt>0</asrwt>
<pdfrwt beam="1">  1        2 0.28454104E-01 0.13071301E+03</pdfrwt>
<pdfrwt beam="2">  1       -2 0.11204179E-01 0.13071301E+03</pdfrwt>
<totfact> 0.96662031E+03</totfact>
</mgrwt>
</event>
<event>
 7    1  0.8165933E-006  0.1232314E+03  0.7546771E-02  0.1252907E+00
         -1   -1    0    0    0  501 -0.00000000000E+00  0.00000000000E+00  0.19011273628E+02  0.19011273628E+02  0.00000000000E+00 0.  1.
          1   -1    0    0  501    0  0.00000000000E+00 -0.00000000000E+00 -0.63261148474E+03  0.63261148474E+03  0.00000000000E+00 0. -1.
         23    2    1    2    0    0  0.94018559717E+01  0.41604214202E+02 -0.41973971670E+03  0.43745560783E+03  0.11561433089E+03 0.  0.
          5    1    3    3  502    0  0.51647972582E+02 -0.10271330724E+02 -0.13642049248E+03  0.14630671234E+03  0.47000000000E+01 0. -1.
         -5    1    3    3    0  502 -0.42246116611E+02  0.51875544926E+02 -0.28331922423E+03  0.29114889549E+03  0.47000000000E+01 0.  1.
        -11    1    1    2    0    0  0.18026054789E+02 -0.27194172637E+02 -0.17473897432E+03  0.17775874331E+03  0.00000000000E+00 0. -1.
         11    1    1    2    0    0 -0.27427910761E+02 -0.14410041565E+02 -0.19121520090E+02  0.36408407232E+02  0.00000000000E+00 0.  1.
<mgrwt>
<rscale>  0 0.11424364E+03</rscale>
<asrwt>0</asrwt>
<pdfrwt beam="2">  1        1 0.97324844E-01 0.12323140E+03</pdfrwt>
<pdfrwt beam="1">  1       -1 0.29248113E-02 0.12323140E+03</pdfrwt>
<totfact> 0.12095914E+04</totfact>
</mgrwt>
</event>
<event>
 7    1  0.8165933E-006  0.1694465E+03  0.7546771E-02  0.1184886E+00
         -2   -1    0    0    0  501 -0.00000000000E+00  0.00000000000E+00  0.13559776836E+03  0.13559776836E+03  0.00000000000E+00 0.  1.
          2   -1    0    0  501    0  0.00000000000E+00 -0.00000000000E+00 -0.18438460786E+03  0.18438460786E+03  0.00000000000E+00 0. -1.
         23    2    1    2    0    0 -0.69201635292E+02  0.91100435700E+02 -0.31678981881E+02  0.17238233168E+03  0.12499581862E+03 0.  0.
          5    1    3    3  502    0 -0.53876585509E+02  0.26662087344E+02 -0.72607739153E+02  0.94379696718E+02  0.47000000000E+01 0.  1.
         -5    1    3    3    0  502 -0.15325049783E+02  0.64438348356E+02  0.40928757272E+02  0.78002634965E+02  0.47000000000E+01 0.  1.
        -11    1    1    2    0    0 -0.20815950096E+02 -0.10601044988E+02  0.71432130460E+01  0.24427677456E+02  0.00000000000E+00 0.  1.
         11    1    1    2    0    0  0.90017585388E+02 -0.80499390712E+02 -0.24251070658E+02  0.12317236708E+03  0.00000000000E+00 0. -1.
<mgrwt>
<rscale>  0 0.16342248E+03</rscale>
<asrwt>0</asrwt>
<pdfrwt beam="2">  1        2 0.28366863E-01 0.16944648E+03</pdfrwt>
<pdfrwt beam="1">  1       -2 0.20861195E-01 0.16944648E+03</pdfrwt>
<totfact> 0.35504651E+03</totfact>
</mgrwt>
</event>
<event>
 7    1  0.8165933E-006  0.1280490E+03  0.7546771E-02  0.1244966E+00
          1   -1    0    0  501    0  0.00000000000E+00  0.00000000000E+00  0.12550371366E+03  0.12550371366E+03  0.00000000000E+00 0. -1.
         -1   -1    0    0    0  501 -0.00000000000E+00 -0.00000000000E+00 -0.10578101052E+03  0.10578101052E+03  0.00000000000E+00 0.  1.
         23    2    1    2    0    0 -0.95866201459E+01  0.26819521035E+02  0.39774769065E+02  0.13408419772E+03  0.12484129857E+03 0.  0.
          5    1    3    3  502    0 -0.34404445350E+00  0.52439756330E+02 -0.28896501425E+02  0.60059505535E+02  0.47000000000E+01 0.  1.
         -5    1    3    3    0  502 -0.92425756924E+01 -0.25620235295E+02  0.68671270490E+02  0.74024692183E+02  0.47000000000E+01 0.  1.
        -11    1    1    2    0    0  0.35496861395E+02 -0.49067973381E+02 -0.17057708247E+02  0.62917871795E+02  0.00000000000E+00 0.  1.
         11    1    1    2    0    0 -0.25910241249E+02  0.22248452346E+02 -0.29943576797E+01  0.34282654671E+02  0.00000000000E+00 0. -1.
<mgrwt>
<rscale>  0 0.11887439E+03</rscale>
<asrwt>0</asrwt>
<pdfrwt beam="1">  1        1 0.19308264E-01 0.12804897E+03</pdfrwt>
<pdfrwt beam="2">  1       -1 0.16274002E-01 0.12804897E+03</pdfrwt>
<totfact> 0.71106382E+03</totfact>
</mgrwt>
</event>
<event>
 7    1  0.8165933E-006  0.1414441E+03  0.7546771E-02  0.1219462E+00
          2   -1    0    0  501    0  0.00000000000E+00  0.00000000000E+00  0.49971350148E+03  0.49971350148E+03  0.00000000000E+00 0. -1.
         -2   -1    0    0    0  501 -0.00000000000E+00 -0.00000000000E+00 -0.44079876425E+02  0.44079876425E+02  0.00000000000E+00 0.  1.
         23    2    1    2    0    0 -0.76646465000E+02 -0.56579134887E+01  0.37240970518E+03  0.39836593235E+03  0.11874230487E+03 0.  0.
          5    1    3    3  502    0 -0.56237418624E+02  0.44487761797E+02  0.29602676399E+03  0.30462393734E+03  0.47000000000E+01 0. -1.
         -5    1    3    3    0  502 -0.20409046376E+02 -0.50145675286E+02  0.76382941189E+02  0.93741995010E+02  0.47000000000E+01 0.  1.
        -11    1    1    2    0    0 -0.14482422580E+02 -0.87131107610E+01  0.40249608708E+02  0.43654207862E+02  0.00000000000E+00 0. -1.
         11    1    1    2    0    0  0.91128887579E+02  0.14371024250E+02  0.42974311166E+02  0.10177323769E+03  0.00000000000E+00 0.  1.
<mgrwt>
<rscale>  0 0.13553835E+03</rscale>
<asrwt>0</asrwt>
<pdfrwt beam="1">  1        2 0.76878996E-01 0.14144408E+03</pdfrwt>
<pdfrwt beam="2">  1       -2 0.67815198E-02 0.14144408E+03</pdfrwt>
<totfact> 0.73209325E+03</totfact>
</mgrwt>
</event>
<event>
 7    1  0.8165933E-006  0.1859214E+03  0.7546771E-02  0.1167225E+00
         -2   -1    0    0    0  501 -0.00000000000E+00  0.00000000000E+00  0.45990316052E+02  0.45990316052E+02  0.00000000000E+00 0.  1.
          2   -1    0    0  501    0  0.00000000000E+00 -0.00000000000E+00 -0.84601900271E+03  0.84601900271E+03  0.00000000000E+00 0. -1.
         23    2    1    2    0    0 -0.76676631240E+02  0.11428747351E+03 -0.62077797730E+03  0.64802164443E+03  0.12500328863E+03 0.  0.
          5    1    3    3  502    0 -0.38822602961E+02  0.13193851986E+03 -0.39295546679E+03  0.41635448407E+03  0.47000000000E+01 0.  1.
         -5    1    3    3    0  502 -0.37854028279E+02 -0.17651046349E+02 -0.22782251051E+03  0.23166716036E+03  0.47000000000E+01 0.  1.
        -11    1    1    2    0    0  0.35388223749E+02 -0.28257170995E+02 -0.53167551835E+01  0.45596732102E+02  0.00000000000E+00 0.  1.
         11    1    1    2    0    0  0.41288407491E+02 -0.86030302520E+02 -0.17393395418E+03  0.19839094223E+03  0.00000000000E+00 0. -1.
<mgrwt>
<rscale>  0 0.18059850E+03</rscale>
<asrwt>0</asrwt>
<pdfrwt beam="2">  1        2 0.13015677E+00 0.18592137E+03</pdfrwt>
<pdfrwt beam="1">  1       -2 0.70754331E-02 0.18592137E+03</pdfrwt>
<totfact> 0.37343375E+03</totfact>
</mgrwt>
</event>
<event>
 7    1  0.8165933E-006  0.1530354E+03  0.7546771E-02  0.1205699E+00
         -2   -1    0    0    0  501 -0.00000000000E+00  0.00000000000E+00  0.19675455434E+02  0.19675455434E+02  0.00000000000E+00 0.  1.
          2   -1    0    0  501    0  0.00000000000E+00 -0.00000000000E+00 -0.10235441661E+04  0.10235441661E+04  0.00000000000E+00 0. -1.
         23    2    1    2    0    0 -0.47376422356E+02  0.74778282455E+02 -0.64195274772E+03  0.65994179864E+03  0.12483401122E+03 0.  0.
          5    1    3    3  502    0 -0.56044207054E+02  0.84257065410E+02 -0.28053401943E+03  0.29826436641E+03  0.47000000000E+01 0. -1.
         -5    1    3    3    0  502  0.86677846974E+01 -0.94787829545E+01 -0.36141872830E+03  0.36167743222E+03  0.47000000000E+01 0. -1.
        -11    1    1    2    0    0 -0.19769266097E+02 -0.25494142865E+02 -0.43555100487E+02  0.54201678765E+02  0.00000000000E+00 0.  1.
         11    1    1    2    0    0  0.67145688453E+02 -0.49284139590E+02 -0.31836086249E+03  0.32907614416E+03  0.00000000000E+00 0. -1.
<mgrwt>
<rscale>  0 0.14582519E+03</rscale>
<asrwt>0</asrwt>
<pdfrwt beam="2">  1        2 0.15746833E+00 0.15303544E+03</pdfrwt>
<pdfrwt beam="1">  1       -2 0.30269932E-02 0.15303544E+03</pdfrwt>
<totfact> 0.10303864E+04</totfact>
</mgrwt>
</event>
<event>
 7    1  0.8165933E-006  0.2150056E+03  0.7546771E-02  0.1141248E+00
          1   -1    0    0  501    0  0.00000000000E+00  0.00000000000E+00  0.21111050780E+04  0.21111050780E+04  0.00000000000E+00 0. -1.
         -1   -1    0    0    0  501 -0.00000000000E+00 -0.00000000000E+00 -0.20247833808E+02  0.20247833808E+02  0.00000000000E+00 0.  1.
         23    2    1    2    0    0  0.11495935553E+03 -0.13186359638E+03  0.11753894817E+04  0.11948923976E+04  0.12499498659E+03 0.  0.
          5    1    3    3  502    0  0.96118700723E+02 -0.14758261640E+03  0.11243060852E+04  0.11380271071E+04  0.47000000000E+01 0. -1.
         -5    1    3    3    0  502  0.18840654809E+02  0.15719020022E+02  0.51083396435E+02  0.56865290428E+02  0.47000000000E+01 0. -1.
        -11    1    1    2    0    0 -0.53571333526E+02  0.10933290035E+03  0.72319396127E+03  0.73337103603E+03  0.00000000000E+00 0. -1.
         11    1    1    2    0    0 -0.61388022006E+02  0.22530696027E+02  0.19227380123E+03  0.20308947818E+03  0.00000000000E+00 0.  1.
<mgrwt>
<rscale>  0 0.21040159E+03</rscale>
<asrwt>0</asrwt>
<pdfrwt beam="1">  1        1 0.32478522E+00 0.21500560E+03</pdfrwt>
<pdfrwt beam="2">  1       -1 0.31150530E-02 0.21500560E+03</pdfrwt>
<totfact> 0.10244267E+03</totfact>
</mgrwt>
</event>
<event>
 7    1  0.8165933E-006  0.1466217E+03  0.7546771E-02  0.1209723E+00
          1   -1    0    0  501    0  0.00000000000E+00  0.00000000000E+00  0.10606661095E+04  0.10606661095E+04  0.00000000000E+00 0. -1.
         -1   -1    0    0    0  501 -0.00000000000E+00 -0.00000000000E+00 -0.18671806662E+02  0.18671806662E+02  0.00000000000E+00 0.  1.
         23    2    1    2    0    0  0.18865568657E+02 -0.94242395533E+02  0.62989221796E+03  0.64673187820E+03  0.11072658776E+03 0.  0.
          5    1    3    3  502    0  0.46215877457E+02 -0.10598477108E+03  0.52469147282E+03  0.53730057760E+03  0.47000000000E+01 0. -1.
         -5    1    3    3    0  502 -0.27350308800E+02  0.11742375547E+02  0.10520074513E+03  0.10943130060E+03  0.47000000000E+01 0.  1.
        -11    1    1    2    0    0 -0.43473034817E+02  0.97518515394E+02  0.33218751544E+03  0.34892450619E+03  0.00000000000E+00 0.  1.
         11    1    1    2    0    0  0.24607466159E+02 -0.32761198601E+01  0.79914569396E+02  0.83681531737E+02  0.00000000000E+00 0. -1.
<mgrwt>
<rscale>  0 0.14271403E+03</rscale>
<asrwt>0</asrwt>
<pdfrwt beam="1">  1        1 0.16317935E+00 0.14662168E+03</pdfrwt>
<pdfrwt beam="2">  1       -1 0.28725865E-02 0.14662168E+03</pdfrwt>
<totfact> 0.56714352E+03</totfact>
</mgrwt>
</event>
<event>
 7    1  0.8165933E-006  0.1257419E+03  0.7546771E-02  0.1250657E+00
         -2   -1    0    0    0  501 -0.00000000000E+00  0.00000000000E+00  0.26542886123E+02  0.26542886123E+02  0.00000000000E+00 0.  1.
          2   -1    0    0  501    0  0.00000000000E+00 -0.00000000000E+00 -0.48735231228E+03  0.48735231228E+03  0.00000000000E+00 0. -1.
         23    2    1    2    0    0 -0.88993668351E+00  0.13655223360E+02 -0.34675424659E+03  0.36884891511E+03  0.12499503004E+03 0.  0.
          5    1    3    3  502    0 -0.73625775773E+01 -0.66697302091E+01  0.78922980710E+01  0.13530381313E+02  0.47000000000E+01 0.  1.
         -5    1    3    3    0  502  0.64726408938E+01  0.20324953569E+02 -0.35464654466E+03  0.35531853379E+03  0.47000000000E+01 0.  1.
        -11    1    1    2    0    0 -0.56146909293E+01 -0.43870725357E+02 -0.25055421729E+02  0.50832464583E+02  0.00000000000E+00 0.  1.
         11    1    1    2    0    0  0.65046276128E+01  0.30215501997E+02 -0.88999757841E+02  0.94213818716E+02  0.00000000000E+00 0. -1.
<mgrwt>
<rscale>  0 0.11553093E+03</rscale>
<asrwt>0</asrwt>
<pdfrwt beam="2">  1        2 0.74977278E-01 0.12574186E+03</pdfrwt>
<pdfrwt beam="1">  1       -2 0.40835210E-02 0.12574186E+03</pdfrwt>
<totfact> 0.16012124E+04</totfact>
</mgrwt>
</event>
<event>
 7    1  0.8165933E-006  0.1293199E+03  0.7546771E-02  0.1242389E+00
          2   -1    0    0  501    0  0.00000000000E+00  0.00000000000E+00  0.82925990840E+03  0.82925990840E+03  0.00000000000E+00 0. -1.
         -2   -1    0    0    0  501 -0.00000000000E+00 -0.00000000000E+00 -0.17397821997E+02  0.17397821997E+02  0.00000000000E+00 0.  1.
         23    2    1    2    0    0 -0.31358393468E+02  0.10733548863E+02  0.59640990128E+03  0.61026912536E+03  0.12500030846E+03 0.  0.
          5    1    3    3  502    0 -0.72116251647E+02 -0.56874310504E+00  0.22245128019E+03  0.23389685606E+03  0.47000000000E+01 0.  1.
         -5    1    3    3    0  502  0.40757858179E+02  0.11302291968E+02  0.37395862109E+03  0.37637226930E+03  0.47000000000E+01 0.  1.
        -11    1    1    2    0    0  0.14630478612E+02  0.32250720171E+02  0.16182290531E+03  0.16565268649E+03  0.00000000000E+00 0. -1.
         11    1    1    2    0    0  0.16727914856E+02 -0.42984269034E+02  0.53629279810E+02  0.70735918547E+02  0.00000000000E+00 0.  1.
<mgrwt>
<rscale>  0 0.12043008E+03</rscale>
<asrwt>0</asrwt>
<pdfrwt beam="1">  1        2 0.12757842E+00 0.12931989E+03</pdfrwt>
<pdfrwt beam="2">  1       -2 0.26765886E-02 0.12931989E+03</pdfrwt>
<totfact> 0.16143198E+04</totfact>
</mgrwt>
</event>
<event>
 7    1  0.8165933E-006  0.1260601E+03  0.7546771E-02  0.1249099E+00
          1   -1    0    0  501    0  0.00000000000E+00  0.00000000000E+00  0.18461879065E+03  0.18461879065E+03  0.00000000000E+00 0. -1.
         -1   -1    0    0    0  501 -0.00000000000E+00 -0.00000000000E+00 -0.94943620632E+02  0.94943620632E+02  0.00000000000E+00 0.  1.
         23    2    1    2    0    0  0.76951905348E+01 -0.14356980499E+02  0.12843840801E+03  0.17996549651E+03  0.12500326570E+03 0.  0.
          5    1    3    3  502    0  0.59074650583E+02 -0.12524238000E+02  0.10919498095E+03  0.12486915049E+03  0.47000000000E+01 0. -1.
         -5    1    3    3    0  502 -0.51379460048E+02 -0.18327424987E+01  0.19243427056E+02  0.55096346020E+02  0.47000000000E+01 0. -1.
        -11    1    1    2    0    0  0.12519978121E+02  0.17506998651E+02 -0.63760148584E+02  0.67294883916E+02  0.00000000000E+00 0.  1.
         11    1    1    2    0    0 -0.20215168656E+02 -0.31500181517E+01  0.24996910597E+02  0.32302030858E+02  0.00000000000E+00 0. -1.
<mgrwt>
<rscale>  0 0.11643343E+03</rscale>
<asrwt>0</asrwt>
<pdfrwt beam="1">  1        1 0.28402891E-01 0.12606013E+03</pdfrwt>
<pdfrwt beam="2">  1       -1 0.14606711E-01 0.12606013E+03</pdfrwt>
<totfact> 0.51794431E+03</totfact>
</mgrwt>
</event>
<event>
 6    1  0.8165933E-006  0.3490498E+03  0.7546771E-02  0.1112755E+00
          2   -1    0    0  501    0  0.00000000000E+00  0.00000000000E+00  0.65277173695E+03  0.65277173695E+03  0.00000000000E+00 0. -1.
         -2   -1    0    0    0  501 -0.00000000000E+00 -0.00000000000E+00 -0.14305534579E+03  0.14305534579E+03  0.00000000000E+00 0.  1.
          5    1    1    2  502    0  0.64298589206E+02 -0.93447848023E+01  0.58573239802E+03  0.58934384332E+03  0.47000000000E+01 0. -1.
         -5    1    1    2    0  502 -0.86841481309E+02  0.17855781226E+02 -0.42207559561E+01  0.88882937507E+02  0.47000000000E+01 0.  1.
        -11    1    1    2    0    0  0.41753948992E+02 -0.38174713410E+02 -0.53229207936E+02  0.77679145064E+02  0.00000000000E+00 0.  1.
         11    1    1    2    0    0 -0.19211056889E+02  0.29663716986E+02 -0.18566042964E+02  0.39921156842E+02  0.00000000000E+00 0. -1.
<mgrwt>
<rscale>  0 0.25087129E+03</rscale>
<asrwt>0</asrwt>
<pdfrwt beam="1">  1        2 0.10042642E+00 0.34904982E+03</pdfrwt>
<pdfrwt beam="2">  1       -2 0.22008515E-01 0.34904982E+03</pdfrwt>
<totfact> 0.81392597E+02</totfact>
</mgrwt>
</event>
<event>
 7    1  0.8165933E-006  0.1529448E+03  0.7546771E-02  0.1207017E+00
         -3   -1    0    0    0  501 -0.00000000000E+00  0.00000000000E+00  0.11034358819E+03  0.11034358819E+03  0.00000000000E+00 0.  1.
          3   -1    0    0  501    0  0.00000000000E+00 -0.00000000000E+00 -0.27821393529E+03  0.27821393529E+03  0.00000000000E+00 0. -1.
         23    2    1    2    0    0  0.50489029146E+02  0.72239650410E+02 -0.20900524652E+03  0.25898898082E+03  0.12499755981E+03 0.  0.
          5    1    3    3  502    0  0.60683009708E+02  0.27206712189E+02 -0.28313165456E+02  0.72431748519E+02  0.47000000000E+01 0. -1.
         -5    1    3    3    0  502 -0.10193980562E+02  0.45032938220E+02 -0.18069208107E+03  0.18655723230E+03  0.47000000000E+01 0. -1.
        -11    1    1    2    0    0 -0.44441027617E+02 -0.80514275563E+00  0.36873148994E+02  0.57751903061E+02  0.00000000000E+00 0.  1.
         11    1    1    2    0    0 -0.60480015294E+01 -0.71434507654E+02  0.42617504214E+01  0.71816639597E+02  0.00000000000E+00 0. -1.
<mgrwt>
<rscale>  0 0.14479662E+03</rscale>
<asrwt>0</asrwt>
<pdfrwt beam="2">  1        3 0.42802143E-01 0.15294476E+03</pdfrwt>
<pdfrwt beam="1">  1       -3 0.16975937E-01 0.15294476E+03</pdfrwt>
<totfact> 0.38505051E+02</totfact>
</mgrwt>
</event>
<event>
 7    1  0.8165933E-006  0.1651199E+03  0.7546771E-02  0.1190245E+00
         -2   -1    0    0    0  501 -0.00000000000E+00  0.00000000000E+00  0.45764049996E+02  0.45764049996E+02  0.00000000000E+00 0.  1.
          2   -1    0    0  501    0  0.00000000000E+00 -0.00000000000E+00 -0.80342949403E+03  0.80342949403E+03  0.00000000000E+00 0. -1.
         23    2    1    2    0    0  0.38141576715E+02  0.10099506219E+03 -0.65380405250E+03  0.67433249442E+03  0.12493915121E+03 0.  0.
          5    1    3    3  502    0 -0.12554625073E+02  0.95613213794E+02 -0.26248150330E+03  0.27967505223E+03  0.47000000000E+01 0.  1.
         -5    1    3    3    0  502  0.50696201788E+02  0.53818483958E+01 -0.39132254920E+03  0.39465744219E+03  0.47000000000E+01 0.  1.
        -11    1    1    2    0    0 -0.59773966435E+02 -0.10064662583E+03 -0.97402388687E+02  0.15228228944E+03  0.00000000000E+00 0.  1.
         11    1    1    2    0    0  0.21632389720E+02 -0.34843635618E+00 -0.64590028483E+01  0.22578760167E+02  0.00000000000E+00 0. -1.
<mgrwt>
<rscale>  0 0.15863647E+03</rscale>
<asrwt>0</asrwt>
<pdfrwt beam="2">  1        2 0.12360454E+00 0.16511988E+03</pdfrwt>
<pdfrwt beam="1">  1       -2 0.70406228E-02 0.16511988E+03</pdfrwt>
<totfact> 0.40036055E+03</totfact>
</mgrwt>
</event>
<event>
 7    1  0.8165933E-006  0.1696475E+03  0.7546771E-02  0.1184871E+00
          2   -1    0    0  501    0  0.00000000000E+00  0.00000000000E+00  0.41659921863E+03  0.41659921863E+03  0.00000000000E+00 0. -1.
         -2   -1    0    0    0  501 -0.00000000000E+00 -0.00000000000E+00 -0.67683598618E+02  0.67683598618E+02  0.00000000000E+00 0.  1.
         23    2    1    2    0    0  0.10477970080E+03  0.46650563216E+02  0.10371636474E+03  0.19884003480E+03  0.12500085751E+03 0.  0.
          5    1    3    3  502    0  0.75057491478E+02  0.61108715085E+02  0.77255364893E+01  0.97209443987E+02  0.47000000000E+01 0. -1.
         -5    1    3    3    0  502  0.29722209323E+02 -0.14458151868E+02  0.95990828246E+02  0.10163059082E+03  0.47000000000E+01 0. -1.
        -11    1    1    2    0    0 -0.24681695757E+02 -0.47257219416E+01  0.11163975960E+01  0.25154818562E+02  0.00000000000E+00 0.  1.
         11    1    1    2    0    0 -0.80098005044E+02 -0.41924841275E+02  0.24408285768E+03  0.26028796388E+03  0.00000000000E+00 0. -1.
<mgrwt>
<rscale>  0 0.16343603E+03</rscale>
<asrwt>0</asrwt>
<pdfrwt beam="1">  1        2 0.64092186E-01 0.16964750E+03</pdfrwt>
<pdfrwt beam="2">  1       -2 0.10412862E-01 0.16964750E+03</pdfrwt>
<totfact> 0.46254496E+03</totfact>
</mgrwt>
</event>
<event>
 7    1  0.8165933E-006  0.2802293E+03  0.7546771E-02  0.1097521E+00
         -1   -1    0    0    0  501 -0.00000000000E+00  0.00000000000E+00  0.37801423911E+03  0.37801423911E+03  0.00000000000E+00 0.  1.
          1   -1    0    0  501    0  0.00000000000E+00 -0.00000000000E+00 -0.20702960898E+03  0.20702960898E+03  0.00000000000E+00 0. -1.
         23    2    1    2    0    0  0.16289657588E+02 -0.25030172785E+03  0.24897226875E+02  0.28133314530E+03  0.12494862476E+03 0.  0.
          5    1    3    3  502    0  0.23906714192E+01  0.10095059004E+02 -0.13554308023E+02  0.17704089700E+02  0.47000000000E+01 0.  1.
         -5    1    3    3    0  502  0.13898986169E+02 -0.26039678686E+03  0.38451534898E+02  0.26362905560E+03  0.47000000000E+01 0.  1.
        -11    1    1    2    0    0 -0.29588188430E+02  0.34210537555E+02  0.54877379497E+01  0.45562452108E+02  0.00000000000E+00 0. -1.
         11    1    1    2    0    0  0.13298530841E+02  0.21609119030E+03  0.14059966531E+03  0.25814825068E+03  0.00000000000E+00 0.  1.
<mgrwt>
<rscale>  0 0.27667182E+03</rscale>
<asrwt>0</asrwt>
<pdfrwt beam="2">  1        1 0.31850709E-01 0.28022931E+03</pdfrwt>
<pdfrwt beam="1">  1       -1 0.58156037E-01 0.28022931E+03</pdfrwt>
<totfact> 0.43502657E+02</totfact>
</mgrwt>
</event>
<event>
 6    1  0.8165933E-006  0.1695436E+03  0.7546771E-02  0.1206375E+00
          2   -1    0    0  501    0  0.00000000000E+00  0.00000000000E+00  0.51695303510E+03  0.51695303510E+03  0.00000000000E+00 0. -1.
         -2   -1    0    0    0  501 -0.00000000000E+00 -0.00000000000E+00 -0.76317555395E+02  0.76317555395E+02  0.00000000000E+00 0.  1.
          5    1    1    2  502    0  0.48152864016E+02  0.61915902416E+02  0.25526316039E+03  0.26708359803E+03  0.47000000000E+01 0. -1.
         -5    1    1    2    0  502 -0.84524302090E+02 -0.28114225750E+02  0.21277930448E+03  0.23072037133E+03  0.47000000000E+01 0.  1.
        -11    1    1    2    0    0 -0.23606332247E+02 -0.17107425306E+02 -0.10006369044E+02  0.30822886695E+02  0.00000000000E+00 0.  1.
         11    1    1    2    0    0  0.59977770321E+02 -0.16694251360E+02 -0.17400616116E+02  0.64643734440E+02  0.00000000000E+00 0. -1.
<mgrwt>
<rscale>  0 0.14529633E+03</rscale>
<asrwt>0</asrwt>
<pdfrwt beam="1">  1        2 0.79531234E-01 0.16954363E+03</pdfrwt>
<pdfrwt beam="2">  1       -2 0.11741163E-01 0.16954363E+03</pdfrwt>
<totfact> 0.30155480E+03</totfact>
</mgrwt>
</event>
<event>
 7    1  0.8165933E-006  0.1344238E+03  0.7546771E-02  0.1233196E+00
         -3   -1    0    0    0  501 -0.00000000000E+00  0.00000000000E+00  0.21857059707E+03  0.21857059707E+03  0.00000000000E+00 0.  1.
          3   -1    0    0  501    0  0.00000000000E+00 -0.00000000000E+00 -0.67106435206E+02  0.67106435206E+02  0.00000000000E+00 0. -1.
         23    2    1    2    0    0 -0.30399128546E+02  0.38988145367E+02  0.61487458000E+02  0.14781905942E+03  0.12500233735E+03 0.  0.
          5    1    3    3  502    0  0.11882806092E+02  0.76306763712E+02  0.29420270795E+02  0.82774184397E+02  0.47000000000E+01 0.  1.
         -5    1    3    3    0  502 -0.42281934638E+02 -0.37318618346E+02  0.32067187205E+02  0.65044875026E+02  0.47000000000E+01 0.  1.
        -11    1    1    2    0    0  0.39516650888E+02 -0.55858946640E+02  0.95881666832E+02  0.11779253648E+03  0.00000000000E+00 0.  1.
         11    1    1    2    0    0 -0.91175223420E+01  0.16870801273E+02 -0.59049629624E+01  0.20065436373E+02  0.00000000000E+00 0. -1.
<mgrwt>
<rscale>  0 0.12620611E+03</rscale>
<asrwt>0</asrwt>
<pdfrwt beam="2">  1        3 0.10324067E-01 0.13442383E+03</pdfrwt>
<pdfrwt beam="1">  1       -3 0.33626245E-01 0.13442383E+03</pdfrwt>
<totfact> 0.13915295E+03</totfact>
</mgrwt>
</event>
<event>
 7    1  0.8165933E-006  0.1761556E+03  0.7546771E-02  0.1177380E+00
         -1   -1    0    0    0  501 -0.00000000000E+00  0.00000000000E+00  0.64035116662E+02  0.64035116662E+02  0.00000000000E+00 0. -1.
          1   -1    0    0  501    0  0.00000000000E+00 -0.00000000000E+00 -0.44268110178E+03  0.44268110178E+03  0.00000000000E+00 0.  1.
         23    2    1    2    0    0  0.82688861860E+02  0.92547659679E+02 -0.24945690484E+03  0.30538426805E+03  0.12501314576E+03 0.  0.
          5    1    3    3  502    0  0.35225517232E+02  0.11534656053E+03 -0.19614571852E+03  0.23030609846E+03  0.47000000000E+01 0. -1.
         -5    1    3    3    0  502  0.47463344627E+02 -0.22798900852E+02 -0.53311186321E+02  0.75078169598E+02  0.47000000000E+01 0. -1.
        -11    1    1    2    0    0 -0.36844538384E+02 -0.65514008010E+02 -0.12759324741E+03  0.14808660317E+03  0.00000000000E+00 0.  1.
         11    1    1    2    0    0 -0.45844323475E+02 -0.27033651669E+02 -0.15958328621E+01  0.53245347215E+02  0.00000000000E+00 0. -1.
<mgrwt>
<rscale>  0 0.17044978E+03</rscale>
<asrwt>0</asrwt>
<pdfrwt beam="2">  1        1 0.68104786E-01 0.17615562E+03</pdfrwt>
<pdfrwt beam="1">  1       -1 0.98515563E-02 0.17615562E+03</pdfrwt>
<totfact> 0.32500371E+03</totfact>
</mgrwt>
</event>
<event>
 7    1  0.8526903E-006  0.2280711E+03  0.7546771E-02  0.1131225E+00
         -1   -1    0    0    0  501 -0.00000000000E+00  0.00000000000E+00  0.60047371093E+02  0.60047371093E+02  0.00000000000E+00 0.  1.
          1   -1    0    0  501    0  0.00000000000E+00 -0.00000000000E+00 -0.87199630779E+03  0.87199630779E+03  0.00000000000E+00 0. -1.
         23    2    1    2    0    0 -0.96308413993E+02 -0.16467281769E+03 -0.55306004374E+03  0.59824060884E+03  0.12499586630E+03 0.  0.
          5    1    3    3  502    0 -0.98381001208E+02 -0.15842149019E+03 -0.55827378303E+03  0.58861523661E+03  0.47000000000E+01 0.  1.
         -5    1    3    3    0  502  0.20725872153E+01 -0.62513274983E+01  0.52137392862E+01  0.96253722318E+01  0.47000000000E+01 0.  1.
        -11    1    1    2    0    0  0.98629491488E+02  0.10596182157E+03 -0.14098894790E+03  0.20207317401E+03  0.00000000000E+00 0.  1.
         11    1    1    2    0    0 -0.23210774953E+01  0.58710996118E+02 -0.11789994505E+03  0.13172989603E+03  0.00000000000E+00 0. -1.
<mgrwt>
<rscale>  0 0.22360257E+03</rscale>
<asrwt>0</asrwt>
<pdfrwt beam="2">  1        1 0.13415327E+00 0.22807107E+03</pdfrwt>
<pdfrwt beam="1">  1       -1 0.92380578E-02 0.22807107E+03</pdfrwt>
<totfact> 0.13862537E+03</totfact>
</mgrwt>
</event>
<event>
 6    1  0.8165933E-006  0.2580084E+03  0.7546771E-02  0.1131512E+00
          1   -1    0    0  501    0  0.00000000000E+00  0.00000000000E+00  0.39595096545E+03  0.39595096545E+03  0.00000000000E+00 0. -1.
         -1   -1    0    0    0  501 -0.00000000000E+00 -0.00000000000E+00 -0.29163453693E+03  0.29163453693E+03  0.00000000000E+00 0.  1.
          5    1    1    2  502    0  0.43177205149E+02 -0.52800346056E+02  0.18540044923E+03  0.19760456513E+03  0.47000000000E+01 0. -1.
         -5    1    1    2    0  502 -0.15282272733E+03  0.68604582916E+02  0.14502903944E+03  0.22162329992E+03  0.47000000000E+01 0.  1.
        -11    1    1    2    0    0  0.63445404264E+02  0.32462918033E+02 -0.15599299129E+03  0.17150210991E+03  0.00000000000E+00 0.  1.
         11    1    1    2    0    0  0.46200117916E+02 -0.48267154893E+02 -0.70120068848E+02  0.96855527422E+02  0.00000000000E+00 0. -1.
<mgrwt>
<rscale>  0 0.22321038E+03</rscale>
<asrwt>0</asrwt>
<pdfrwt beam="1">  1        1 0.60915533E-01 0.25800844E+03</pdfrwt>
<pdfrwt beam="2">  1       -1 0.44866852E-01 0.25800844E+03</pdfrwt>
<totfact> 0.31061158E+02</totfact>
</mgrwt>
</event>
<event>
 7    1  0.1186448E-005  0.2870376E+03  0.7546771E-02  0.1093675E+00
          1   -1    0    0  501    0  0.00000000000E+00  0.00000000000E+00  0.12365823265E+04  0.12365823265E+04  0.00000000000E+00 0. -1.
         -1   -1    0    0    0  501 -0.00000000000E+00 -0.00000000000E+00 -0.64764156442E+02  0.64764156442E+02  0.00000000000E+00 0.  1.
         23    2    1    2    0    0 -0.73460441415E+02 -0.24772861619E+03  0.51337656758E+03  0.58817183508E+03  0.12499881481E+03 0.  0.
          5    1    3    3  502    0 -0.33278743121E+02 -0.23356757276E+03  0.47608742401E+03  0.53135921098E+03  0.47000000000E+01 0.  1.
         -5    1    3    3    0  502 -0.40181698294E+02 -0.14161043432E+02  0.37289143570E+02  0.56812624099E+02  0.47000000000E+01 0.  1.
        -11    1    1    2    0    0  0.43121127107E+02  0.69418230662E+02  0.30992988958E+03  0.32052278984E+03  0.00000000000E+00 0.  1.
         11    1    1    2    0    0  0.30339314308E+02  0.17831038553E+03  0.34851171286E+03  0.39265185799E+03  0.00000000000E+00 0. -1.
<mgrwt>
<rscale>  0 0.28371965E+03</rscale>
<asrwt>0</asrwt>
<pdfrwt beam="1">  1        1 0.19024342E+00 0.28703764E+03</pdfrwt>
<pdfrwt beam="2">  1       -1 0.99637173E-02 0.28703764E+03</pdfrwt>
<totfact> 0.66245923E+02</totfact>
</mgrwt>
</event>
<event>
 7    1  0.8165933E-006  0.1352994E+03  0.7546771E-02  0.1231253E+00
          2   -1    0    0  501    0  0.00000000000E+00  0.00000000000E+00  0.11575590998E+03  0.11575590998E+03  0.00000000000E+00 0. -1.
         -2   -1    0    0    0  501 -0.00000000000E+00 -0.00000000000E+00 -0.12662985809E+03  0.12662985809E+03  0.00000000000E+00 0.  1.
         23    2    1    2    0    0 -0.48203250579E+02  0.18898504463E+02 -0.11357944382E+02  0.13577533612E+03  0.12500092864E+03 0.  0.
          5    1    3    3  502    0  0.34528298700E+02  0.28200899927E+02  0.16636885544E+02  0.47816002849E+02  0.47000000000E+01 0. -1.
         -5    1    3    3    0  502 -0.82731549279E+02 -0.93023954644E+01 -0.27994829926E+02  0.87959333274E+02  0.47000000000E+01 0. -1.
        -11    1    1    2    0    0 -0.21789248811E+02  0.11421917806E+01  0.21704326023E+02  0.30775862846E+02  0.00000000000E+00 0.  1.
         11    1    1    2    0    0  0.69992499389E+02 -0.20040696244E+02 -0.21220329749E+02  0.75834569105E+02  0.00000000000E+00 0. -1.
<mgrwt>
<rscale>  0 0.12747376E+03</rscale>
<asrwt>0</asrwt>
<pdfrwt beam="1">  1        2 0.17808602E-01 0.13529944E+03</pdfrwt>
<pdfrwt beam="2">  1       -2 0.19481517E-01 0.13529944E+03</pdfrwt>
<totfact> 0.66270577E+03</totfact>
</mgrwt>
</event>
<event>
 6    1  0.8165933E-006  0.2701790E+03  0.7546771E-02  0.1135717E+00
         -1   -1    0    0    0  501 -0.00000000000E+00  0.00000000000E+00  0.43463021590E+03  0.43463021590E+03  0.00000000000E+00 0.  1.
          1   -1    0    0  501    0  0.00000000000E+00 -0.00000000000E+00 -0.89357138120E+02  0.89357138120E+02  0.00000000000E+00 0. -1.
          5    1    1    2  502    0 -0.10265515967E+03 -0.79324828392E+01  0.75358890844E+02  0.12767951488E+03  0.47000000000E+01 0. -1.
         -5    1    1    2    0  502  0.16607269014E+03 -0.16770059640E+02  0.10925805211E+03  0.19955146019E+03  0.47000000000E+01 0.  1.
        -11    1    1    2    0    0 -0.69808892391E+02 -0.16245437649E+02  0.92981971852E+02  0.11740035260E+03  0.00000000000E+00 0. -1.
         11    1    1    2    0    0  0.63913619162E+01  0.40947980128E+02  0.67674162974E+02  0.79356026349E+02  0.00000000000E+00 0.  1.
<mgrwt>
<rscale>  0 0.21755731E+03</rscale>
<asrwt>0</asrwt>
<pdfrwt beam="2">  1        1 0.13747252E-01 0.27017901E+03</pdfrwt>
<pdfrwt beam="1">  1       -1 0.66866186E-01 0.27017901E+03</pdfrwt>
<totfact> 0.98270950E+02</totfact>
</mgrwt>
</event>
<event>
 7    1  0.8165933E-006  0.1324830E+03  0.7546771E-02  0.1236530E+00
          2   -1    0    0  501    0  0.00000000000E+00  0.00000000000E+00  0.17845620187E+03  0.17845620187E+03  0.00000000000E+00 0. -1.
         -2   -1    0    0    0  501 -0.00000000000E+00 -0.00000000000E+00 -0.12434983871E+03  0.12434983871E+03  0.00000000000E+00 0.  1.
         23    2    1    2    0    0 -0.94530455529E+01  0.42857449464E+02  0.12220911896E+03  0.18024100859E+03  0.12500252548E+03 0.  0.
          5    1    3    3  502    0 -0.35555355823E+02 -0.21845863882E+02  0.97357333005E+02  0.10602813488E+03  0.47000000000E+01 0. -1.
         -5    1    3    3    0  502  0.26102310270E+02  0.64703313345E+02  0.24851785955E+02  0.74212873711E+02  0.47000000000E+01 0. -1.
        -11    1    1    2    0    0 -0.18564614357E+02  0.23174491813E+02 -0.25479038661E+02  0.39126504931E+02  0.00000000000E+00 0. -1.
         11    1    1    2    0    0  0.28017659910E+02 -0.66031941277E+02 -0.42623717135E+02  0.83438527061E+02  0.00000000000E+00 0.  1.
<mgrwt>
<rscale>  0 0.12407001E+03</rscale>
<asrwt>0</asrwt>
<pdfrwt beam="1">  1        2 0.27454800E-01 0.13248303E+03</pdfrwt>
<pdfrwt beam="2">  1       -2 0.19130744E-01 0.13248303E+03</pdfrwt>
<totfact> 0.42060133E+03</totfact>
</mgrwt>
</event>
<event>
 7    1  0.8165933E-006  0.1423432E+03  0.7546771E-02  0.1220794E+00
          1   -1    0    0  501    0  0.00000000000E+00  0.00000000000E+00  0.21213946524E+03  0.21213946524E+03  0.00000000000E+00 0. -1.
         -1   -1    0    0    0  501 -0.00000000000E+00 -0.00000000000E+00 -0.85697804441E+02  0.85697804441E+02  0.00000000000E+00 0.  1.
         23    2    1    2    0    0  0.60736850119E+02 -0.30789062301E+02  0.11590472626E+03  0.18356334472E+03  0.12499865854E+03 0.  0.
          5    1    3    3  502    0  0.41636890199E+02  0.19223930335E+02  0.12109294962E+03  0.12957153457E+03  0.47000000000E+01 0.  1.
         -5    1    3    3    0  502  0.19099959920E+02 -0.50012992636E+02 -0.51882233642E+01  0.53991810148E+02  0.47000000000E+01 0.  1.
        -11    1    1    2    0    0 -0.45682520513E+02  0.18339207542E+02 -0.37847934791E+02  0.62094165440E+02  0.00000000000E+00 0.  1.
         11    1    1    2    0    0 -0.15054329606E+02  0.12449854759E+02  0.48384869335E+02  0.52179759524E+02  0.00000000000E+00 0. -1.
<mgrwt>
<rscale>  0 0.13459405E+03</rscale>
<asrwt>0</asrwt>
<pdfrwt beam="1">  1        1 0.32636841E-01 0.14234323E+03</pdfrwt>
<pdfrwt beam="2">  1       -1 0.13184278E-01 0.14234323E+03</pdfrwt>
<totfact> 0.51503889E+03</totfact>
</mgrwt>
</event>
<event>
 7    1  0.8165933E-006  0.1529095E+03  0.7546771E-02  0.1202499E+00
         -1   -1    0    0    0  501 -0.00000000000E+00  0.00000000000E+00  0.20862683168E+03  0.20862683168E+03  0.00000000000E+00 0.  1.
          1   -1    0    0  501    0  0.00000000000E+00 -0.00000000000E+00 -0.15234843618E+03  0.15234843618E+03  0.00000000000E+00 0. -1.
         23    2    1    2    0    0  0.27662642869E+02  0.83618511443E+02 -0.76737742422E+02  0.17108472234E+03  0.12499609530E+03 0.  0.
          5    1    3    3  502    0 -0.20451989521E+01 -0.32424981286E+02 -0.12924822703E+02  0.35280352777E+02  0.47000000000E+01 0.  1.
         -5    1    3    3    0  502  0.29707841821E+02  0.11604349273E+03 -0.63812919719E+02  0.13580436957E+03  0.47000000000E+01 0.  1.
        -11    1    1    2    0    0  0.45780316335E+01  0.22996731152E+02  0.30833426851E+02  0.38736394110E+02  0.00000000000E+00 0.  1.
         11    1    1    2    0    0 -0.32240674502E+02 -0.10661524259E+03  0.10218271107E+03  0.15115415140E+03  0.00000000000E+00 0. -1.
<mgrwt>
<rscale>  0 0.14836279E+03</rscale>
<asrwt>0</asrwt>
<pdfrwt beam="2">  1        1 0.23438221E-01 0.15290945E+03</pdfrwt>
<pdfrwt beam="1">  1       -1 0.32096436E-01 0.15290945E+03</pdfrwt>
<totfact> 0.18543476E+03</totfact>
</mgrwt>
</event>
<event>
 7    1  0.8165933E-006  0.1333259E+03  0.7546771E-02  0.1234525E+00
         -2   -1    0    0    0  501 -0.00000000000E+00  0.00000000000E+00  0.40751038219E+02  0.40751038219E+02  0.00000000000E+00 0.  1.
          2   -1    0    0  501    0  0.00000000000E+00 -0.00000000000E+00 -0.34608674821E+03  0.34608674821E+03  0.00000000000E+00 0. -1.
         23    2    1    2    0    0  0.34111880610E+02  0.31404925418E+02 -0.17387842291E+03  0.21911068634E+03  0.12500358864E+03 0.  0.
          5    1    3    3  502    0 -0.64024356803E+00 -0.36613128892E+02 -0.10006904612E+02  0.38251264802E+02  0.47000000000E+01 0. -1.
         -5    1    3    3    0  502  0.34752124178E+02  0.68018054310E+02 -0.16387151830E+03  0.18085942153E+03  0.47000000000E+01 0. -1.
        -11    1    1    2    0    0 -0.21679165104E+02 -0.59336827791E+02 -0.11896827129E+03  0.13470076060E+03  0.00000000000E+00 0.  1.
         11    1    1    2    0    0 -0.12432715507E+02  0.27931902373E+02 -0.12489015789E+02  0.33026339495E+02  0.00000000000E+00 0. -1.
<mgrwt>
<rscale>  0 0.12534914E+03</rscale>
<asrwt>0</asrwt>
<pdfrwt beam="2">  1        2 0.53244115E-01 0.13332587E+03</pdfrwt>
<pdfrwt beam="1">  1       -2 0.62693905E-02 0.13332587E+03</pdfrwt>
<totfact> 0.12200456E+04</totfact>
</mgrwt>
</event>
<event>
 7    1  0.8165933E-006  0.1667382E+03  0.7546771E-02  0.1188033E+00
          1   -1    0    0  501    0  0.00000000000E+00  0.00000000000E+00  0.81052869570E+03  0.81052869570E+03  0.00000000000E+00 0. -1.
         -1   -1    0    0    0  501 -0.00000000000E+00 -0.00000000000E+00 -0.29723146083E+02  0.29723146083E+02  0.00000000000E+00 0.  1.
         23    2    1    2    0    0 -0.71415116486E+02  0.84140528271E+02  0.43547882301E+03  0.46630831572E+03  0.12498757005E+03 0.  0.
          5    1    3    3  502    0 -0.37968016491E+02  0.10341318154E+03  0.20692089333E+03  0.23446578106E+03  0.47000000000E+01 0.  1.
         -5    1    3    3    0  502 -0.33447099996E+02 -0.19272653265E+02  0.22855792967E+03  0.23184253466E+03  0.47000000000E+01 0.  1.
        -11    1    1    2    0    0 -0.86580246681E+01 -0.57433739435E+02  0.16260107087E+03  0.17266355743E+03  0.00000000000E+00 0.  1.
         11    1    1    2    0    0  0.80073141154E+02 -0.26706788836E+02  0.18272565574E+03  0.20127996862E+03  0.00000000000E+00 0. -1.
<mgrwt>
<rscale>  0 0.16058891E+03</rscale>
<asrwt>0</asrwt>
<pdfrwt beam="1">  1        1 0.12469671E+00 0.16673824E+03</pdfrwt>
<pdfrwt beam="2">  1       -1 0.45727923E-02 0.16673824E+03</pdfrwt>
<totfact> 0.44624592E+03</totfact>
</mgrwt>
</event>
<event>
 7    1  0.8165933E-006  0.2292239E+03  0.7546771E-02  0.1130274E+00
          2   -1    0    0  501    0  0.00000000000E+00  0.00000000000E+00  0.17002875916E+04  0.17002875916E+04  0.00000000000E+00 0. -1.
         -2   -1    0    0    0  501 -0.00000000000E+00 -0.00000000000E+00 -0.29372629418E+02  0.29372629418E+02  0.00000000000E+00 0.  1.
         23    2    1    2    0    0  0.12929668649E+03 -0.14212848408E+03  0.99884129444E+03  0.10248061011E+04  0.12500189692E+03 0.  0.
          5    1    3    3  502    0  0.14716053109E+03 -0.89173682092E+02  0.79249904368E+03  0.81097779977E+03  0.47000000000E+01 0.  1.
         -5    1    3    3    0  502 -0.17863844597E+02 -0.52954801984E+02  0.20634225076E+03  0.21382830132E+03  0.47000000000E+01 0.  1.
        -11    1    1    2    0    0 -0.13963720192E+03  0.11581433231E+03  0.53582943542E+03  0.56570724902E+03  0.00000000000E+00 0. -1.
         11    1    1    2    0    0  0.10340515427E+02  0.26314151763E+02  0.13624423235E+03  0.13914687094E+03  0.00000000000E+00 0.  1.
<mgrwt>
<rscale>  0 0.22491102E+03</rscale>
<asrwt>0</asrwt>
<pdfrwt beam="1">  1        2 0.26158263E+00 0.22922394E+03</pdfrwt>
<pdfrwt beam="2">  1       -2 0.45188674E-02 0.22922394E+03</pdfrwt>
<totfact> 0.24414299E+03</totfact>
</mgrwt>
</event>
<event>
 7    1  0.8165933E-006  0.1289496E+03  0.7546771E-02  0.1242513E+00
          2   -1    0    0  501    0  0.00000000000E+00  0.00000000000E+00  0.14236917738E+03  0.14236917738E+03  0.00000000000E+00 0. -1.
         -2   -1    0    0    0  501 -0.00000000000E+00 -0.00000000000E+00 -0.96631861500E+02  0.96631861500E+02  0.00000000000E+00 0.  1.
         23    2    1    2    0    0 -0.18642066273E+02 -0.24766765177E+02  0.56044197430E+02  0.14060207572E+03  0.12516817622E+03 0.  0.
          5    1    3    3  502    0  0.51865300601E+02 -0.98507203957E+01  0.73731536003E+01  0.53511676229E+02  0.47000000000E+01 0.  1.
         -5    1    3    3    0  502 -0.70507366874E+02 -0.14916044782E+02  0.48671043830E+02  0.87090399488E+02  0.47000000000E+01 0.  1.
        -11    1    1    2    0    0 -0.27054143820E+02 -0.19713336323E+02  0.16605502833E+01  0.33515664309E+02  0.00000000000E+00 0. -1.
         11    1    1    2    0    0  0.45696210093E+02  0.44480101500E+02 -0.11967431830E+02  0.64883298859E+02  0.00000000000E+00 0.  1.
<mgrwt>
<rscale>  0 0.12035486E+03</rscale>
<asrwt>0</asrwt>
<pdfrwt beam="1">  1        2 0.21902950E-01 0.12894957E+03</pdfrwt>
<pdfrwt beam="2">  1       -2 0.14866440E-01 0.12894957E+03</pdfrwt>
<totfact> 0.81778316E+03</totfact>
</mgrwt>
</event>
<event>
 7    1  0.8165933E-006  0.1897579E+03  0.7546771E-02  0.1163625E+00
          2   -1    0    0  501    0  0.00000000000E+00  0.00000000000E+00  0.20864179284E+04  0.20864179284E+04  0.00000000000E+00 0. -1.
         -2   -1    0    0    0  501 -0.00000000000E+00 -0.00000000000E+00 -0.15715409850E+02  0.15715409850E+02  0.00000000000E+00 0.  1.
         23    2    1    2    0    0  0.14108495861E+03  0.21852434787E+02  0.12335615175E+04  0.12480713407E+04  0.12500223771E+03 0.  0.
          5    1    3    3  502    0  0.36949028813E+02 -0.46942018840E+02  0.27820990477E+03  0.28459027562E+03  0.47000000000E+01 0.  1.
         -5    1    3    3    0  502  0.10413592980E+03  0.68794453627E+02  0.95535161275E+03  0.96348106505E+03  0.47000000000E+01 0.  1.
        -11    1    1    2    0    0  0.56754672066E+01  0.15433629150E+02  0.55323223541E+02  0.57715395691E+02  0.00000000000E+00 0. -1.
         11    1    1    2    0    0 -0.14676042582E+03 -0.37286063937E+02  0.78181777747E+03  0.79634660188E+03  0.00000000000E+00 0.  1.
<mgrwt>
<rscale>  0 0.18438585E+03</rscale>
<asrwt>0</asrwt>
<pdfrwt beam="1">  1        2 0.32098715E+00 0.18975788E+03</pdfrwt>
<pdfrwt beam="2">  1       -2 0.24177570E-02 0.18975788E+03</pdfrwt>
<totfact> 0.39057756E+03</totfact>
</mgrwt>
</event>
<event>
 7    1  0.8165933E-006  0.1321195E+03  0.7546771E-02  0.1236628E+00
         -1   -1    0    0    0  501 -0.00000000000E+00  0.00000000000E+00  0.27463211044E+02  0.27463211044E+02  0.00000000000E+00 0.  1.
          1   -1    0    0  501    0  0.00000000000E+00 -0.00000000000E+00 -0.70508364908E+03  0.70508364908E+03  0.00000000000E+00 0. -1.
         23    2    1    2    0    0 -0.39516516669E+02  0.16392680592E+02 -0.56498656471E+03  0.58022872590E+03  0.12500112393E+03 0.  0.
          5    1    3    3  502    0 -0.12621929416E+02  0.61787964298E+02 -0.43939635357E+03  0.44392376729E+03  0.47000000000E+01 0.  1.
         -5    1    3    3    0  502 -0.26894587253E+02 -0.45395283706E+02 -0.12559021114E+03  0.13630495861E+03  0.47000000000E+01 0.  1.
        -11    1    1    2    0    0 -0.36261109797E+01 -0.10854866569E+02  0.14197307529E+02  0.18235688913E+02  0.00000000000E+00 0.  1.
         11    1    1    2    0    0  0.43142627649E+02 -0.55378140224E+01 -0.12683118085E+03  0.13408244531E+03  0.00000000000E+00 0. -1.
<mgrwt>
<rscale>  0 0.12400761E+03</rscale>
<asrwt>0</asrwt>
<pdfrwt beam="2">  1        1 0.10847440E+00 0.13211948E+03</pdfrwt>
<pdfrwt beam="1">  1       -1 0.42251096E-02 0.13211948E+03</pdfrwt>
<totfact> 0.60979670E+03</totfact>
</mgrwt>
</event>
<event>
 6    1  0.8165933E-006  0.2197520E+03  0.7546771E-02  0.1156329E+00
          1   -1    0    0  501    0  0.00000000000E+00  0.00000000000E+00  0.81600505033E+03  0.81600505033E+03  0.00000000000E+00 0. -1.
         -1   -1    0    0    0  501 -0.00000000000E+00 -0.00000000000E+00 -0.85336656767E+02  0.85336656767E+02  0.00000000000E+00 0.  1.
          5    1    1    2  502    0  0.71421739870E+02  0.63715889125E+02  0.68239883973E+03  0.68909436649E+03  0.47000000000E+01 0. -1.
         -5    1    1    2    0  502 -0.67323779824E+01 -0.58968438378E+02  0.57583602560E+02  0.82828515149E+02  0.47000000000E+01 0.  1.
        -11    1    1    2    0    0 -0.47146932727E+02  0.37673103131E+02  0.31427048367E+02  0.68042305473E+02  0.00000000000E+00 0.  1.
         11    1    1    2    0    0 -0.17542429161E+02 -0.42420553877E+02 -0.40741097102E+02  0.61376519983E+02  0.00000000000E+00 0. -1.
<mgrwt>
<rscale>  0 0.19238314E+03</rscale>
<asrwt>0</asrwt>
<pdfrwt beam="1">  1        1 0.12553923E+00 0.21975195E+03</pdfrwt>
<pdfrwt beam="2">  1       -1 0.13128717E-01 0.21975195E+03</pdfrwt>
<totfact> 0.89119198E+02</totfact>
</mgrwt>
</event>
<event>
 7    1  0.8165933E-006  0.1575029E+03  0.7546771E-02  0.1200099E+00
          2   -1    0    0  501    0  0.00000000000E+00  0.00000000000E+00  0.17517261946E+04  0.17517261946E+04  0.00000000000E+00 0. -1.
         -2   -1    0    0    0  501 -0.00000000000E+00 -0.00000000000E+00 -0.13133904101E+02  0.13133904101E+02  0.00000000000E+00 0.  1.
         23    2    1    2    0    0 -0.44110855057E+02 -0.85063226395E+02  0.12174953265E+04  0.12276408399E+04  0.12500256687E+03 0.  0.
          5    1    3    3  502    0 -0.34812481632E+02  0.16467664592E+02  0.13856780384E+03  0.14389655700E+03  0.47000000000E+01 0. -1.
         -5    1    3    3    0  502 -0.92983734251E+01 -0.10153089099E+03  0.10789275226E+04  0.10837442829E+04  0.47000000000E+01 0. -1.
        -11    1    1    2    0    0  0.39516716948E+02 -0.11841241673E+00  0.99135224655E+02  0.10672102748E+03  0.00000000000E+00 0.  1.
         11    1    1    2    0    0  0.45941381098E+01  0.85181638812E+02  0.42196173932E+03  0.43049823130E+03  0.00000000000E+00 0. -1.
<mgrwt>
<rscale>  0 0.15030440E+03</rscale>
<asrwt>0</asrwt>
<pdfrwt beam="1">  1        2 0.26949615E+00 0.15750289E+03</pdfrwt>
<pdfrwt beam="2">  1       -2 0.20206020E-02 0.15750289E+03</pdfrwt>
<totfact> 0.75456677E+03</totfact>
</mgrwt>
</event>
<event>
 7    1  0.8165933E-006  0.1277999E+03  0.7546771E-02  0.1245236E+00
          1   -1    0    0  501    0  0.00000000000E+00  0.00000000000E+00  0.73641540803E+02  0.73641540803E+02  0.00000000000E+00 0.  1.
         -1   -1    0    0    0  501 -0.00000000000E+00 -0.00000000000E+00 -0.41193861405E+03  0.41193861405E+03  0.00000000000E+00 0. -1.
         23    2    1    2    0    0  0.67277285168E+00  0.26594396756E+02  0.64319343572E+01  0.12796163193E+03  0.12500037962E+03 0.  0.
          5    1    3    3  502    0  0.13344728206E+02  0.75051768412E+02 -0.44054361257E+01  0.76500637776E+02  0.47000000000E+01 0.  1.
         -5    1    3    3    0  502 -0.12671955354E+02 -0.48457371656E+02  0.10837370483E+02  0.51460994154E+02  0.47000000000E+01 0.  1.
        -11    1    1    2    0    0 -0.10665373382E+02  0.31582183909E+02 -0.85838098657E+02  0.92083460572E+02  0.00000000000E+00 0. -1.
         11    1    1    2    0    0  0.99926005301E+01 -0.58176580665E+02 -0.25889090895E+03  0.26553506235E+03  0.00000000000E+00 0.  1.
<mgrwt>
<rscale>  0 0.11871249E+03</rscale>
<asrwt>0</asrwt>
<pdfrwt beam="1">  1        1 0.11329468E-01 0.12779988E+03</pdfrwt>
<pdfrwt beam="2">  1       -1 0.63375172E-01 0.12779988E+03</pdfrwt>
<totfact> 0.13845263E+03</totfact>
</mgrwt>
</event>
<event>
 7    1  0.8165933E-006  0.3246251E+03  0.7546771E-02  0.1074916E+00
          1   -1    0    0  501    0  0.00000000000E+00  0.00000000000E+00  0.22611208538E+04  0.22611208538E+04  0.00000000000E+00 0. -1.
         -1   -1    0    0    0  501 -0.00000000000E+00 -0.00000000000E+00 -0.46751575105E+02  0.46751575105E+02  0.00000000000E+00 0.  1.
         23    2    1    2    0    0 -0.14672129558E+03  0.26145499723E+03  0.13562100738E+04  0.13945204201E+04  0.12448125920E+03 0.  0.
          5    1    3    3  502    0 -0.13179532962E+02  0.11171789651E+03  0.32464936186E+03  0.34361881009E+03  0.47000000000E+01 0. -1.
         -5    1    3    3    0  502 -0.13354176262E+03  0.14973710072E+03  0.10315607119E+04  0.10509016101E+04  0.47000000000E+01 0.  1.
        -11    1    1    2    0    0  0.10281827561E+03 -0.24442765381E+03  0.74503753362E+03  0.79082071436E+03  0.00000000000E+00 0. -1.
         11    1    1    2    0    0  0.43903019970E+02 -0.17027343418E+02  0.11312167127E+03  0.12253129436E+03  0.00000000000E+00 0.  1.
<mgrwt>
<rscale>  0 0.32159911E+03</rscale>
<asrwt>0</asrwt>
<pdfrwt beam="1">  1        1 0.34786466E+00 0.32462507E+03</pdfrwt>
<pdfrwt beam="2">  1       -1 0.71925518E-02 0.32462507E+03</pdfrwt>
<totfact> 0.22868627E+02</totfact>
</mgrwt>
</event>
<event>
 7    1  0.8165933E-006  0.1334631E+03  0.7546771E-02  0.1235366E+00
         -1   -1    0    0    0  501 -0.00000000000E+00  0.00000000000E+00  0.23701212264E+02  0.23701212264E+02  0.00000000000E+00 0.  1.
          1   -1    0    0  501    0  0.00000000000E+00 -0.00000000000E+00 -0.84231056901E+03  0.84231056901E+03  0.00000000000E+00 0. -1.
         23    2    1    2    0    0  0.43070950341E+02 -0.18236974087E+02 -0.68496042041E+03  0.69784179151E+03  0.12499877789E+03 0.  0.
          5    1    3    3  502    0  0.87233965466E+02 -0.91770310927E+01 -0.42936384542E+03  0.43825721259E+03  0.47000000000E+01 0. -1.
         -5    1    3    3    0  502 -0.44163015125E+02 -0.90599429945E+01 -0.25559657498E+03  0.25958457892E+03  0.47000000000E+01 0. -1.
        -11    1    1    2    0    0 -0.45572908560E+02  0.39020818140E+02 -0.13444157182E+03  0.14722109386E+03  0.00000000000E+00 0. -1.
         11    1    1    2    0    0  0.25019582189E+01 -0.20783844053E+02  0.79263548170E+00  0.20948895903E+02  0.00000000000E+00 0.  1.
<mgrwt>
<rscale>  0 0.12481007E+03</rscale>
<asrwt>0</asrwt>
<pdfrwt beam="2">  1        1 0.12958622E+00 0.13346306E+03</pdfrwt>
<pdfrwt beam="1">  1       -1 0.36463409E-02 0.13346306E+03</pdfrwt>
<totfact> 0.58168220E+03</totfact>
</mgrwt>
</event>
<event>
 7    1  0.8165933E-006  0.2360033E+03  0.7546771E-02  0.1124986E+00
          1   -1    0    0  501    0  0.00000000000E+00  0.00000000000E+00  0.15080759235E+03  0.15080759235E+03  0.00000000000E+00 0. -1.
         -1   -1    0    0    0  501 -0.00000000000E+00 -0.00000000000E+00 -0.40656461049E+03  0.40656461049E+03  0.00000000000E+00 0.  1.
         23    2    1    2    0    0 -0.19925071888E+03  0.19314184101E+02 -0.25015263344E+02  0.23732538236E+03  0.12499474800E+03 0.  0.
          5    1    3    3  502    0  0.72224686385E+01  0.20859960103E+02  0.14800903473E+02  0.26989974663E+02  0.47000000000E+01 0.  1.
         -5    1    3    3    0  502 -0.20647318752E+03 -0.15457760020E+01 -0.39816166817E+02  0.21033540769E+03  0.47000000000E+01 0.  1.
        -11    1    1    2    0    0  0.74299953924E+02 -0.11866902117E+02 -0.25124088919E+02  0.79325445873E+02  0.00000000000E+00 0. -1.
         11    1    1    2    0    0  0.12495076496E+03 -0.74472819832E+01 -0.20561766588E+03  0.24072137461E+03  0.00000000000E+00 0.  1.
<mgrwt>
<rscale>  0 0.23236528E+03</rscale>
<asrwt>0</asrwt>
<pdfrwt beam="1">  1        1 0.23201168E-01 0.23600333E+03</pdfrwt>
<pdfrwt beam="2">  1       -1 0.62548401E-01 0.23600333E+03</pdfrwt>
<totfact> 0.56613812E+02</totfact>
</mgrwt>
</event>
<event>
 7    1  0.8165933E-006  0.1599613E+03  0.7546771E-02  0.1197867E+00
         -1   -1    0    0    0  501 -0.00000000000E+00  0.00000000000E+00  0.20889337472E+03  0.20889337472E+03  0.00000000000E+00 0.  1.
          1   -1    0    0  501    0  0.00000000000E+00 -0.00000000000E+00 -0.10999736221E+03  0.10999736221E+03  0.00000000000E+00 0. -1.
         23    2    1    2    0    0 -0.65230281832E+01  0.99573732983E+02  0.92325177241E+01  0.16022747391E+03  0.12502050158E+03 0.  0.
          5    1    3    3  502    0  0.11831303196E+02  0.83062078245E+02 -0.48667993702E+02  0.97107940914E+02  0.47000000000E+01 0.  1.
         -5    1    3    3    0  502 -0.18354331379E+02  0.16511654738E+02  0.57900511426E+02  0.63119532999E+02  0.47000000000E+01 0.  1.
        -11    1    1    2    0    0 -0.47084946771E+01 -0.10358369626E+03  0.99118420974E+02  0.14344411256E+03  0.00000000000E+00 0.  1.
         11    1    1    2    0    0  0.11231522860E+02  0.40099632750E+01 -0.94549261956E+01  0.15219150456E+02  0.00000000000E+00 0. -1.
<mgrwt>
<rscale>  0 0.15214056E+03</rscale>
<asrwt>0</asrwt>
<pdfrwt beam="2">  1        1 0.16922671E-01 0.15996126E+03</pdfrwt>
<pdfrwt beam="1">  1       -1 0.32137442E-01 0.15996126E+03</pdfrwt>
<totfact> 0.28097812E+03</totfact>
</mgrwt>
</event>
<event>
 7    1  0.8165933E-006  0.2303748E+03  0.7546771E-02  0.1128379E+00
          2   -1    0    0  501    0  0.00000000000E+00  0.00000000000E+00  0.22447339349E+03  0.22447339349E+03  0.00000000000E+00 0. -1.
         -2   -1    0    0    0  501 -0.00000000000E+00 -0.00000000000E+00 -0.28476198826E+03  0.28476198826E+03  0.00000000000E+00 0.  1.
         23    2    1    2    0    0  0.11256145166E+03 -0.15740692688E+03  0.85715390791E+02  0.24580416483E+03  0.12500215278E+03 0.  0.
          5    1    3    3  502    0  0.28469100612E+02  0.27707063193E+01  0.55103003124E+02  0.62262327746E+02  0.47000000000E+01 0. -1.
         -5    1    3    3    0  502  0.84092351051E+02 -0.16017763320E+03  0.30612387668E+02  0.18354183708E+03  0.47000000000E+01 0. -1.
        -11    1    1    2    0    0 -0.77595600976E+02  0.15825881502E+03 -0.91298399845E+02  0.19850019556E+03  0.00000000000E+00 0. -1.
         11    1    1    2    0    0 -0.34965850687E+02 -0.85188814292E+00 -0.54705585712E+02  0.64931021366E+02  0.00000000000E+00 0.  1.
<mgrwt>
<rscale>  0 0.22754668E+03</rscale>
<asrwt>0</asrwt>
<pdfrwt beam="1">  1        2 0.34534368E-01 0.23037482E+03</pdfrwt>
<pdfrwt beam="2">  1       -2 0.43809537E-01 0.23037482E+03</pdfrwt>
<totfact> 0.74983329E+02</totfact>
</mgrwt>
</event>
<event>
 7    1  0.8165933E-006  0.1707394E+03  0.7546771E-02  0.1183165E+00
         -1   -1    0    0    0  501 -0.00000000000E+00  0.00000000000E+00  0.37760962493E+02  0.37760962493E+02  0.00000000000E+00 0.  1.
          1   -1    0    0  501    0  0.00000000000E+00 -0.00000000000E+00 -0.81492910634E+03  0.81492910634E+03  0.00000000000E+00 0. -1.
         23    2    1    2    0    0 -0.11420478333E+03 -0.22022363832E+02 -0.58600559557E+03  0.61037242979E+03  0.12499691186E+03 0.  0.
          5    1    3    3  502    0 -0.31180847141E+02  0.11283659840E+02 -0.42342126121E+03  0.42474371173E+03  0.47000000000E+01 0. -1.
         -5    1    3    3    0  502 -0.83023936189E+02 -0.33306023672E+02 -0.16258433435E+03  0.18562871806E+03  0.47000000000E+01 0. -1.
        -11    1    1    2    0    0  0.91238442339E+02  0.23238056020E+02 -0.19721460098E+03  0.21853617424E+03  0.00000000000E+00 0. -1.
         11    1    1    2    0    0  0.22966340992E+02 -0.12156921883E+01  0.60520527064E+01  0.23781464799E+02  0.00000000000E+00 0.  1.
<mgrwt>
<rscale>  0 0.16499949E+03</rscale>
<asrwt>0</asrwt>
<pdfrwt beam="2">  1        1 0.12537371E+00 0.17073941E+03</pdfrwt>
<pdfrwt beam="1">  1       -1 0.58093787E-02 0.17073941E+03</pdfrwt>
<totfact> 0.31010311E+03</totfact>
</mgrwt>
</event>
<event>
 7    1  0.8165933E-006  0.1436201E+03  0.7546771E-02  0.1226805E+00
          2   -1    0    0  501    0  0.00000000000E+00  0.00000000000E+00  0.28019261268E+03  0.28019261268E+03  0.00000000000E+00 0. -1.
         -2   -1    0    0    0  501 -0.00000000000E+00 -0.00000000000E+00 -0.52033768769E+02  0.52033768769E+02  0.00000000000E+00 0.  1.
         23    2    1    2    0    0 -0.51823748755E+02 -0.48130683761E+02  0.13001078920E+03  0.19372538433E+03  0.12499782226E+03 0.  0.
          5    1    3    3  502    0 -0.29257047475E+02 -0.73069088393E+01  0.14207491192E+03  0.14531598790E+03  0.47000000000E+01 0.  1.
         -5    1    3    3    0  502 -0.22566701280E+02 -0.40823774922E+02 -0.12064122714E+02  0.48409396427E+02  0.47000000000E+01 0.  1.
        -11    1    1    2    0    0 -0.14276489534E+02  0.26644324895E+01  0.45375148342E+01  0.15215334199E+02  0.00000000000E+00 0.  1.
         11    1    1    2    0    0  0.66100238289E+02  0.45466251272E+02  0.93610539874E+02  0.12328566292E+03  0.00000000000E+00 0. -1.
<mgrwt>
<rscale>  0 0.13043940E+03</rscale>
<asrwt>0</asrwt>
<pdfrwt beam="1">  1        2 0.43106555E-01 0.14362005E+03</pdfrwt>
<pdfrwt beam="2">  1       -2 0.80051953E-02 0.14362005E+03</pdfrwt>
<totfact> 0.10554416E+04</totfact>
</mgrwt>
</event>
<event>
 7    1  0.8165933E-006  0.1420334E+03  0.7546771E-02  0.1220967E+00
         -1   -1    0    0    0  501 -0.00000000000E+00  0.00000000000E+00  0.13052262129E+03  0.13052262129E+03  0.00000000000E+00 0.  1.
          1   -1    0    0  501    0  0.00000000000E+00 -0.00000000000E+00 -0.12611167188E+03  0.12611167188E+03  0.00000000000E+00 0. -1.
         23    2    1    2    0    0  0.60330986473E+02  0.30065658837E+02  0.99540262283E+01  0.14238179572E+03  0.12501888394E+03 0.  0.
          5    1    3    3  502    0  0.31406379754E+02  0.65104661539E+02  0.44586861212E+02  0.85059131409E+02  0.47000000000E+01 0.  1.
         -5    1    3    3    0  502  0.28924606720E+02 -0.35039002701E+02 -0.34632834984E+02  0.57322664306E+02  0.47000000000E+01 0.  1.
        -11    1    1    2    0    0  0.62269694893E+00  0.12351584793E+02 -0.32873356600E+02  0.35122741529E+02  0.00000000000E+00 0. -1.
         11    1    1    2    0    0 -0.60953683422E+02 -0.42417243630E+02  0.27330279783E+02  0.79129755926E+02  0.00000000000E+00 0.  1.
<mgrwt>
<rscale>  0 0.13447186E+03</rscale>
<asrwt>0</asrwt>
<pdfrwt beam="2">  1        1 0.19401796E-01 0.14203342E+03</pdfrwt>
<pdfrwt beam="1">  1       -1 0.20080403E-01 0.14203342E+03</pdfrwt>
<totfact> 0.50940603E+03</totfact>
</mgrwt>
</event>
<event>
 7    1  0.8165933E-006  0.1305157E+03  0.7546771E-02  0.1240569E+00
          3   -1    0    0  501    0  0.00000000000E+00  0.00000000000E+00  0.24565477061E+02  0.24565477061E+02  0.00000000000E+00 0. -1.
         -3   -1    0    0    0  501 -0.00000000000E+00 -0.00000000000E+00 -0.53357842387E+03  0.53357842387E+03  0.00000000000E+00 0.  1.
         23    2    1    2    0    0 -0.13189438475E+01  0.37519294009E+02 -0.30441991718E+03  0.33121869747E+03  0.12499961018E+03 0.  0.
          5    1    3    3  502    0  0.61685504112E+01 -0.42944098360E+02 -0.15796669305E+03  0.16388353399E+03  0.47000000000E+01 0. -1.
         -5    1    3    3    0  502 -0.74874942588E+01  0.80463392369E+02 -0.14645322413E+03  0.16733516349E+03  0.47000000000E+01 0. -1.
        -11    1    1    2    0    0  0.43571000592E+02 -0.85605421785E+01 -0.12095245494E+03  0.12884568806E+03  0.00000000000E+00 0.  1.
         11    1    1    2    0    0 -0.42252056744E+02 -0.28958751830E+02 -0.83640574682E+02  0.98079515394E+02  0.00000000000E+00 0. -1.
<mgrwt>
<rscale>  0 0.12154532E+03</rscale>
<asrwt>0</asrwt>
<pdfrwt beam="1">  1        3 0.37793040E-02 0.13051567E+03</pdfrwt>
<pdfrwt beam="2">  1       -3 0.82088992E-01 0.13051567E+03</pdfrwt>
<totfact> 0.11457516E+03</totfact>
</mgrwt>
</event>
<event>
 7    1  0.8165933E-006  0.1254963E+03  0.7546771E-02  0.1247603E+00
         -1   -1    0    0    0  501 -0.00000000000E+00  0.00000000000E+00  0.13929943663E+03  0.13929943663E+03  0.00000000000E+00 0.  1.
          1   -1    0    0  501    0  0.00000000000E+00 -0.00000000000E+00 -0.88696077620E+02  0.88696077620E+02  0.00000000000E+00 0. -1.
         23    2    1    2    0    0 -0.39063783008E+01 -0.99589531097E+01  0.17976653317E+02  0.12677730218E+03  0.12503952873E+03 0.  0.
          5    1    3    3  502    0 -0.29625211224E+02 -0.59577672177E+02 -0.33187184671E+01  0.66785148456E+02  0.47000000000E+01 0. -1.
         -5    1    3    3    0  502  0.25718832923E+02  0.49618719067E+02  0.21295371784E+02  0.59992153722E+02  0.47000000000E+01 0. -1.
        -11    1    1    2    0    0  0.41910380557E+02  0.10769775609E+02  0.43827276547E+02  0.61589757547E+02  0.00000000000E+00 0.  1.
         11    1    1    2    0    0 -0.38004002257E+02 -0.81082249956E+00 -0.11200570854E+02  0.39628454526E+02  0.00000000000E+00 0. -1.
<mgrwt>
<rscale>  0 0.11730925E+03</rscale>
<asrwt>0</asrwt>
<pdfrwt beam="2">  1        1 0.13645550E-01 0.12549631E+03</pdfrwt>
<pdfrwt beam="1">  1       -1 0.21430683E-01 0.12549631E+03</pdfrwt>
<totfact> 0.71547376E+03</totfact>
</mgrwt>
</event>
<event>
 7    1  0.8165933E-006  0.1496556E+03  0.7546771E-02  0.1210668E+00
          1   -1    0    0  501    0  0.00000000000E+00  0.00000000000E+00  0.46485490606E+02  0.46485490606E+02  0.00000000000E+00 0. -1.
         -1   -1    0    0    0  501 -0.00000000000E+00 -0.00000000000E+00 -0.42078226988E+03  0.42078226988E+03  0.00000000000E+00 0.  1.
         23    2    1    2    0    0 -0.82198173811E+02 -0.13482872384E+01 -0.14778508423E+03  0.21032648255E+03  0.12505375039E+03 0.  0.
          5    1    3    3  502    0  0.30015104705E+02 -0.21860695773E+01 -0.89454464303E+01  0.31745809526E+02  0.47000000000E+01 0.  1.
         -5    1    3    3    0  502 -0.11221327852E+03  0.83778233898E+00 -0.13883963780E+03  0.17858067303E+03  0.47000000000E+01 0.  1.
        -11    1    1    2    0    0 -0.15670204739E+02  0.69714895518E+01 -0.71539937217E+02  0.73567109500E+02  0.00000000000E+00 0.  1.
         11    1    1    2    0    0  0.97868378551E+02 -0.56232023135E+01 -0.15497175782E+03  0.18337416843E+03  0.00000000000E+00 0. -1.
<mgrwt>
<rscale>  0 0.14199597E+03</rscale>
<asrwt>0</asrwt>
<pdfrwt beam="1">  1        1 0.71516141E-02 0.14965560E+03</pdfrwt>
<pdfrwt beam="2">  1       -1 0.64735732E-01 0.14965560E+03</pdfrwt>
<totfact> 0.24702418E+03</totfact>
</mgrwt>
</event>
<event>
 7    1  0.8165933E-006  0.1269912E+03  0.7546771E-02  0.1247236E+00
          2   -1    0    0  501    0  0.00000000000E+00  0.00000000000E+00  0.95776518886E+03  0.95776518886E+03  0.00000000000E+00 0. -1.
         -2   -1    0    0    0  501 -0.00000000000E+00 -0.00000000000E+00 -0.14651612403E+02  0.14651612403E+02  0.00000000000E+00 0.  1.
         23    2    1    2    0    0  0.21770043650E+02  0.49088415272E+01  0.71198761081E+03  0.72322411701E+03  0.12501493493E+03 0.  0.
          5    1    3    3  502    0  0.29575971568E+02  0.46287767280E+02  0.61397661726E+03  0.61644681201E+03  0.47000000000E+01 0. -1.
         -5    1    3    3    0  502 -0.78059279183E+01 -0.41378925753E+02  0.98010993549E+02  0.10677730500E+03  0.47000000000E+01 0. -1.
        -11    1    1    2    0    0 -0.34069377052E+02  0.32243311781E+02  0.17205038937E+03  0.17833028371E+03  0.00000000000E+00 0. -1.
         11    1    1    2    0    0  0.12299333402E+02 -0.37152153308E+02  0.59075576286E+02  0.70862400546E+02  0.00000000000E+00 0.  1.
<mgrwt>
<rscale>  0 0.11752529E+03</rscale>
<asrwt>0</asrwt>
<pdfrwt beam="1">  1        2 0.14734844E+00 0.12699120E+03</pdfrwt>
<pdfrwt beam="2">  1       -2 0.22540950E-02 0.12699120E+03</pdfrwt>
<totfact> 0.17177434E+04</totfact>
</mgrwt>
</event>
<event>
 7    1  0.8165933E-006  0.1433377E+03  0.7546771E-02  0.1219320E+00
         -2   -1    0    0    0  501 -0.00000000000E+00  0.00000000000E+00  0.27455791436E+03  0.27455791436E+03  0.00000000000E+00 0.  1.
          2   -1    0    0  501    0  0.00000000000E+00 -0.00000000000E+00 -0.60756782144E+02  0.60756782144E+02  0.00000000000E+00 0. -1.
         23    2    1    2    0    0  0.69089652376E+02 -0.12114743484E+02  0.11584389954E+03  0.18429735957E+03  0.12500224241E+03 0.  0.
          5    1    3    3  502    0  0.91029927747E+02  0.29537466268E+02  0.72816140286E+02  0.12034612559E+03  0.47000000000E+01 0.  1.
         -5    1    3    3    0  502 -0.21940275372E+02 -0.41652209752E+02  0.43027759257E+02  0.63951233978E+02  0.47000000000E+01 0.  1.
        -11    1    1    2    0    0 -0.45831717038E+02  0.51102223136E+02  0.49592832600E+02  0.84684311070E+02  0.00000000000E+00 0. -1.
         11    1    1    2    0    0 -0.23257935337E+02 -0.38987479652E+02  0.48364400075E+02  0.66333025865E+02  0.00000000000E+00 0.  1.
<mgrwt>
<rscale>  0 0.13563938E+03</rscale>
<asrwt>0</asrwt>
<pdfrwt beam="2">  1        2 0.93471974E-02 0.14333774E+03</pdfrwt>
<pdfrwt beam="1">  1       -2 0.42239678E-01 0.14333774E+03</pdfrwt>
<totfact> 0.35895911E+03</totfact>
</mgrwt>
</event>
<event>
 7    1  0.8165933E-006  0.1579264E+03  0.7546771E-02  0.1198720E+00
          1   -1    0    0  501    0  0.00000000000E+00  0.00000000000E+00  0.25214896665E+03  0.25214896665E+03  0.00000000000E+00 0. -1.
         -1   -1    0    0    0  501 -0.00000000000E+00 -0.00000000000E+00 -0.84245797814E+02  0.84245797814E+02  0.00000000000E+00 0.  1.
         23    2    1    2    0    0 -0.64434578918E+01 -0.96286717131E+02  0.94022401606E+02  0.18379595209E+03  0.12501235922E+03 0.  0.
          5    1    3    3  502    0  0.53904674601E+02 -0.14534517537E+02  0.29261848702E+02  0.63208479916E+02  0.47000000000E+01 0. -1.
         -5    1    3    3    0  502 -0.60348132493E+02 -0.81752199595E+02  0.64760552904E+02  0.12058747218E+03  0.47000000000E+01 0. -1.
        -11    1    1    2    0    0 -0.33291472974E+01  0.19027761335E+02  0.72164722279E+02  0.74705328222E+02  0.00000000000E+00 0. -1.
         11    1    1    2    0    0  0.97726051893E+01  0.77258955796E+02  0.17160449552E+01  0.77893484151E+02  0.00000000000E+00 0.  1.
<mgrwt>
<rscale>  0 0.15143593E+03</rscale>
<asrwt>0</asrwt>
<pdfrwt beam="1">  1        1 0.38792149E-01 0.15792638E+03</pdfrwt>
<pdfrwt beam="2">  1       -1 0.12960892E-01 0.15792638E+03</pdfrwt>
<totfact> 0.42926144E+03</totfact>
</mgrwt>
</event>
<event>
 7    1  0.8165933E-006  0.1377065E+03  0.7546771E-02  0.1228018E+00
         -1   -1    0    0    0  501 -0.00000000000E+00  0.00000000000E+00  0.12088770356E+02  0.12088770356E+02  0.00000000000E+00 0.  1.
          1   -1    0    0  501    0  0.00000000000E+00 -0.00000000000E+00 -0.19532615285E+04  0.19532615285E+04  0.00000000000E+00 0. -1.
         23    2    1    2    0    0  0.48423003649E+02 -0.31540552669E+02 -0.16324258677E+04  0.16382238212E+04  0.12499392408E+03 0.  0.
          5    1    3    3  502    0 -0.25203247513E+02 -0.44879804222E+02 -0.10060964981E+04  0.10074232745E+04  0.47000000000E+01 0.  1.
         -5    1    3    3    0  502  0.73626251163E+02  0.13339251553E+02 -0.62632936961E+03  0.63080054671E+03  0.47000000000E+01 0.  1.
        -11    1    1    2    0    0 -0.65785148204E+02  0.21974536536E+02 -0.29489910670E+03  0.30294562072E+03  0.00000000000E+00 0. -1.
         11    1    1    2    0    0  0.17362144555E+02  0.95660161333E+01 -0.13847783768E+02  0.24180856964E+02  0.00000000000E+00 0.  1.
<mgrwt>
<rscale>  0 0.12962211E+03</rscale>
<asrwt>0</asrwt>
<pdfrwt beam="2">  1        1 0.30050161E+00 0.13770648E+03</pdfrwt>
<pdfrwt beam="1">  1       -1 0.18598119E-02 0.13770648E+03</pdfrwt>
<totfact> 0.27522843E+03</totfact>
</mgrwt>
</event>
<event>
 7    1  0.8165933E-006  0.1371137E+03  0.7546771E-02  0.1228816E+00
          4   -1    0    0  501    0  0.00000000000E+00  0.00000000000E+00  0.23388100266E+03  0.23388100266E+03  0.00000000000E+00 0.  1.
         -4   -1    0    0    0  501 -0.00000000000E+00 -0.00000000000E+00 -0.64433198289E+02  0.64433198289E+02  0.00000000000E+00 0. -1.
         23    2    1    2    0    0 -0.27971848590E+02 -0.48952009214E+02  0.10588552609E+03  0.17323948471E+03  0.12498580283E+03 0.  0.
          5    1    3    3  502    0 -0.44242421058E+02  0.27780129831E+02  0.68348263043E+02  0.86155107193E+02  0.47000000000E+01 0. -1.
         -5    1    3    3    0  502  0.16270572468E+02 -0.76732139045E+02  0.37537263043E+02  0.87084377517E+02  0.47000000000E+01 0. -1.
        -11    1    1    2    0    0 -0.24776090663E+02  0.48105203045E+02  0.40037565652E+02  0.67312494323E+02  0.00000000000E+00 0.  1.
         11    1    1    2    0    0  0.52747939254E+02  0.84680616849E+00  0.23524712634E+02  0.57762221916E+02  0.00000000000E+00 0. -1.
<mgrwt>
<rscale>  0 0.12908757E+03</rscale>
<asrwt>0</asrwt>
<pdfrwt beam="1">  1        4 0.35981692E-01 0.13711373E+03</pdfrwt>
<pdfrwt beam="2">  1       -4 0.99127998E-02 0.13711373E+03</pdfrwt>
<totfact> 0.95485663E+02</totfact>
</mgrwt>
</event>
<event>
 7    1  0.8165933E-006  0.2427376E+03  0.7546771E-02  0.1120662E+00
         -1   -1    0    0    0  501 -0.00000000000E+00  0.00000000000E+00  0.90150671827E+02  0.90150671827E+02  0.00000000000E+00 0.  1.
          1   -1    0    0  501    0  0.00000000000E+00 -0.00000000000E+00 -0.61540890571E+03  0.61540890571E+03  0.00000000000E+00 0. -1.
         23    2    1    2    0    0  0.14406793977E+03 -0.15013040121E+03 -0.29817537301E+03  0.38448681571E+03  0.12500739879E+03 0.  0.
          5    1    3    3  502    0  0.11541563320E+03 -0.37650523852E+02 -0.11318227151E+03  0.16604411136E+03  0.47000000000E+01 0.  1.
         -5    1    3    3    0  502  0.28652306568E+02 -0.11247987735E+03 -0.18499310150E+03  0.21844270435E+03  0.47000000000E+01 0.  1.
        -11    1    1    2    0    0 -0.15184359016E+03  0.13308960734E+03 -0.18037076703E+03  0.27074514410E+03  0.00000000000E+00 0.  1.
         11    1    1    2    0    0  0.77756503893E+01  0.17040793867E+02 -0.46712093841E+02  0.50327617723E+02  0.00000000000E+00 0. -1.
<mgrwt>
<rscale>  0 0.23869920E+03</rscale>
<asrwt>0</asrwt>
<pdfrwt beam="2">  1        1 0.94678294E-01 0.24273763E+03</pdfrwt>
<pdfrwt beam="1">  1       -1 0.13869334E-01 0.24273763E+03</pdfrwt>
<totfact> 0.12364161E+03</totfact>
</mgrwt>
</event>
<event>
 7    1  0.8165933E-006  0.1684452E+03  0.7546771E-02  0.1190087E+00
         -2   -1    0    0    0  501 -0.00000000000E+00  0.00000000000E+00  0.26023230271E+03  0.26023230271E+03  0.00000000000E+00 0.  1.
          2   -1    0    0  501    0  0.00000000000E+00 -0.00000000000E+00 -0.99276906669E+02  0.99276906669E+02  0.00000000000E+00 0. -1.
         23    2    1    2    0    0  0.92789218472E+02  0.64332508007E+02  0.26694979036E+02  0.17054737066E+03  0.12500109232E+03 0.  0.
          5    1    3    3  502    0  0.45145704566E+02  0.14224898914E+02 -0.48744818175E+02  0.68107486290E+02  0.47000000000E+01 0. -1.
         -5    1    3    3    0  502  0.47643513907E+02  0.50107609094E+02  0.75439797211E+02  0.10243988437E+03  0.47000000000E+01 0. -1.
        -11    1    1    2    0    0 -0.44996075972E+01 -0.41020805725E+02  0.35265780514E+02  0.54282854071E+02  0.00000000000E+00 0.  1.
         11    1    1    2    0    0 -0.88289610875E+02 -0.23311702282E+02  0.98994636494E+02  0.13467898465E+03  0.00000000000E+00 0. -1.
<mgrwt>
<rscale>  0 0.15877476E+03</rscale>
<asrwt>0</asrwt>
<pdfrwt beam="2">  1        2 0.15273370E-01 0.16844520E+03</pdfrwt>
<pdfrwt beam="1">  1       -2 0.40035739E-01 0.16844520E+03</pdfrwt>
<totfact> 0.22172290E+03</totfact>
</mgrwt>
</event>
<event>
 7    1  0.8165933E-006  0.1516307E+03  0.7546771E-02  0.1203778E+00
         -1   -1    0    0    0  501 -0.00000000000E+00  0.00000000000E+00  0.32370818134E+03  0.32370818134E+03  0.00000000000E+00 0.  1.
          1   -1    0    0  501    0  0.00000000000E+00 -0.00000000000E+00 -0.83924875244E+02  0.83924875244E+02  0.00000000000E+00 0. -1.
         23    2    1    2    0    0  0.69253263599E+02 -0.50708535203E+02  0.24755726362E+02  0.15363825955E+03  0.12499799497E+03 0.  0.
          5    1    3    3  502    0  0.66411970051E+02  0.27018928810E+02  0.23867037532E+02  0.75711939353E+02  0.47000000000E+01 0.  1.
         -5    1    3    3    0  502  0.28412935484E+01 -0.77727464014E+02  0.88868882980E+00  0.77926320193E+02  0.47000000000E+01 0.  1.
        -11    1    1    2    0    0 -0.37859293127E+02  0.52413479887E+02  0.21287882850E+03  0.22248122297E+03  0.00000000000E+00 0.  1.
         11    1    1    2    0    0 -0.31393970472E+02 -0.17049446834E+01  0.21487512276E+01  0.31513574063E+02  0.00000000000E+00 0. -1.
<mgrwt>
<rscale>  0 0.14734214E+03</rscale>
<asrwt>0</asrwt>
<pdfrwt beam="2">  1        1 0.12911519E-01 0.15163070E+03</pdfrwt>
<pdfrwt beam="1">  1       -1 0.49801258E-01 0.15163070E+03</pdfrwt>
<totfact> 0.18428896E+03</totfact>
</mgrwt>
</event>
<event>
 7    1  0.8165933E-006  0.1276900E+03  0.7546771E-02  0.1245801E+00
          1   -1    0    0  501    0  0.00000000000E+00  0.00000000000E+00  0.86474442883E+03  0.86474442883E+03  0.00000000000E+00 0. -1.
         -1   -1    0    0    0  501 -0.00000000000E+00 -0.00000000000E+00 -0.20665842922E+02  0.20665842922E+02  0.00000000000E+00 0.  1.
         23    2    1    2    0    0  0.24702879499E+02  0.83852331633E+01  0.71054762951E+03  0.72192982261E+03  0.12499676229E+03 0.  0.
          5    1    3    3  502    0 -0.18869649423E+02 -0.22489206641E+02  0.58057135238E+03  0.58133210241E+03  0.47000000000E+01 0.  1.
         -5    1    3    3    0  502  0.43572528922E+02  0.30874439805E+02  0.12997627712E+03  0.14059772020E+03  0.47000000000E+01 0.  1.
        -11    1    1    2    0    0 -0.17549502550E+02 -0.43322759268E+02  0.34132470438E+02  0.57878079171E+02  0.00000000000E+00 0.  1.
         11    1    1    2    0    0 -0.71533769491E+01  0.34937526104E+02  0.99398485961E+02  0.10560236997E+03  0.00000000000E+00 0. -1.
<mgrwt>
<rscale>  0 0.11837581E+03</rscale>
<asrwt>0</asrwt>
<pdfrwt beam="1">  1        1 0.13303758E+00 0.12769000E+03</pdfrwt>
<pdfrwt beam="2">  1       -1 0.31793611E-02 0.12769000E+03</pdfrwt>
<totfact> 0.68064023E+03</totfact>
</mgrwt>
</event>
<event>
 7    1  0.8165933E-006  0.1750395E+03  0.7546771E-02  0.1176648E+00
          1   -1    0    0  501    0  0.00000000000E+00  0.00000000000E+00  0.64455422081E+03  0.64455422081E+03  0.00000000000E+00 0. -1.
         -1   -1    0    0    0  501 -0.00000000000E+00 -0.00000000000E+00 -0.43736981551E+02  0.43736981551E+02  0.00000000000E+00 0.  1.
         23    2    1    2    0    0  0.12807073865E+02 -0.12186725672E+03  0.29087274565E+03  0.33947870189E+03  0.12499274168E+03 0.  0.
          5    1    3    3  502    0 -0.50977845165E+02 -0.89175028089E+02  0.18221450762E+03  0.20922510155E+03  0.47000000000E+01 0. -1.
         -5    1    3    3    0  502  0.63784919030E+02 -0.32692228632E+02  0.10865823803E+03  0.13025360034E+03  0.47000000000E+01 0. -1.
        -11    1    1    2    0    0  0.17521817014E+02 -0.12755526776E+02  0.50410040173E+02  0.54871574472E+02  0.00000000000E+00 0. -1.
         11    1    1    2    0    0 -0.30328890879E+02  0.13462278350E+03  0.25953445343E+03  0.29394092600E+03  0.00000000000E+00 0.  1.
<mgrwt>
<rscale>  0 0.17115586E+03</rscale>
<asrwt>0</asrwt>
<pdfrwt beam="1">  1        1 0.99162181E-01 0.17503952E+03</pdfrwt>
<pdfrwt beam="2">  1       -1 0.67287668E-02 0.17503952E+03</pdfrwt>
<totfact> 0.35081889E+03</totfact>
</mgrwt>
</event>
<event>
 7    1  0.8165933E-006  0.2027366E+03  0.7546771E-02  0.1151119E+00
          2   -1    0    0  501    0  0.00000000000E+00  0.00000000000E+00  0.13246163560E+03  0.13246163560E+03  0.00000000000E+00 0. -1.
         -2   -1    0    0    0  501 -0.00000000000E+00 -0.00000000000E+00 -0.31599385331E+03  0.31599385331E+03  0.00000000000E+00 0.  1.
         23    2    1    2    0    0 -0.14251735526E+03  0.71877290923E+02 -0.25163270047E+02  0.20429223855E+03  0.12499834827E+03 0.  0.
          5    1    3    3  502    0 -0.32863676572E+02 -0.56012051202E+01 -0.57022750355E+02  0.66219927474E+02  0.47000000000E+01 0. -1.
         -5    1    3    3    0  502 -0.10965367869E+03  0.77478496043E+02  0.31859480308E+02  0.13807231107E+03  0.47000000000E+01 0. -1.
        -11    1    1    2    0    0  0.81573803264E+02 -0.44425798431E+02 -0.15050597592E+03  0.17686148742E+03  0.00000000000E+00 0.  1.
         11    1    1    2    0    0  0.60943552000E+02 -0.27451492492E+02 -0.78629717437E+01  0.67301762941E+02  0.00000000000E+00 0. -1.
<mgrwt>
<rscale>  0 0.19837252E+03</rscale>
<asrwt>0</asrwt>
<pdfrwt beam="1">  1        2 0.20378713E-01 0.20273660E+03</pdfrwt>
<pdfrwt beam="2">  1       -2 0.48614438E-01 0.20273660E+03</pdfrwt>
<totfact> 0.10964285E+03</totfact>
</mgrwt>
</event>
<event>
 7    1  0.8165933E-006  0.2099980E+03  0.7546771E-02  0.1144964E+00
          2   -1    0    0  501    0  0.00000000000E+00  0.00000000000E+00  0.17195298915E+04  0.17195298915E+04  0.00000000000E+00 0. -1.
         -2   -1    0    0    0  501 -0.00000000000E+00 -0.00000000000E+00 -0.33532844638E+02  0.33532844638E+02  0.00000000000E+00 0.  1.
         23    2    1    2    0    0  0.16683964882E+03 -0.25287240971E+02  0.13420958299E+04  0.13584256922E+04  0.12499692677E+03 0.  0.
          5    1    3    3  502    0  0.17276559305E+03  0.10675123012E+02  0.11218714397E+04  0.11351561679E+04  0.47000000000E+01 0. -1.
         -5    1    3    3    0  502 -0.59259442360E+01 -0.35962363984E+02  0.22022439021E+03  0.22326952430E+03  0.47000000000E+01 0. -1.
        -11    1    1    2    0    0 -0.60033156778E+02 -0.11226578770E+01  0.22399177374E+03  0.23189988137E+03  0.00000000000E+00 0.  1.
         11    1    1    2    0    0 -0.10680649204E+03  0.26409898848E+02  0.11990944322E+03  0.16273716254E+03  0.00000000000E+00 0. -1.
<mgrwt>
<rscale>  0 0.20576537E+03</rscale>
<asrwt>0</asrwt>
<pdfrwt beam="1">  1        2 0.26454299E+00 0.20999796E+03</pdfrwt>
<pdfrwt beam="2">  1       -2 0.51589005E-02 0.20999796E+03</pdfrwt>
<totfact> 0.19526332E+03</totfact>
</mgrwt>
</event>
<event>
 7    1  0.8165933E-006  0.1274466E+03  0.7546771E-02  0.1243824E+00
          2   -1    0    0  501    0  0.00000000000E+00  0.00000000000E+00  0.41978965157E+02  0.41978965157E+02  0.00000000000E+00 0.  1.
         -2   -1    0    0    0  501 -0.00000000000E+00 -0.00000000000E+00 -0.32505177679E+03  0.32505177679E+03  0.00000000000E+00 0. -1.
         23    2    1    2    0    0  0.24155926938E+02  0.58107223723E+01 -0.11270422230E+03  0.17013194163E+03  0.12500145014E+03 0.  0.
          5    1    3    3  502    0 -0.24037037573E+02 -0.43454317060E+02 -0.78605977820E+02  0.93096974148E+02  0.47000000000E+01 0.  1.
         -5    1    3    3    0  502  0.48192964510E+02  0.49265039432E+02 -0.34098244482E+02  0.77034967484E+02  0.47000000000E+01 0.  1.
        -11    1    1    2    0    0  0.29138720807E+02 -0.27762702326E+02 -0.57803160765E+02  0.70434636971E+02  0.00000000000E+00 0.  1.
         11    1    1    2    0    0 -0.53294647745E+02  0.21951979954E+02 -0.11256542857E+03  0.12646416335E+03  0.00000000000E+00 0. -1.
<mgrwt>
<rscale>  0 0.11956018E+03</rscale>
<asrwt>0</asrwt>
<pdfrwt beam="1">  1        2 0.64583023E-02 0.12744660E+03</pdfrwt>
<pdfrwt beam="2">  1       -2 0.50007966E-01 0.12744660E+03</pdfrwt>
<totfact> 0.40838839E+03</totfact>
</mgrwt>
</event>
<event>
 7    1  0.8165933E-006  0.1334672E+03  0.7546771E-02  0.1234707E+00
         -1   -1    0    0    0  501 -0.00000000000E+00  0.00000000000E+00  0.33915415642E+02  0.33915415642E+02  0.00000000000E+00 0.  1.
          1   -1    0    0  501    0  0.00000000000E+00 -0.00000000000E+00 -0.44140046408E+03  0.44140046408E+03  0.00000000000E+00 0. -1.
         23    2    1    2    0    0  0.44108810188E+02  0.15472348143E+02 -0.28696484863E+03  0.31648432445E+03  0.12501408954E+03 0.  0.
          5    1    3    3  502    0  0.79498809457E+02 -0.11784907392E+02 -0.12728265639E+03  0.15060514388E+03  0.47000000000E+01 0. -1.
         -5    1    3    3    0  502 -0.35389999269E+02  0.27257255535E+02 -0.15968219224E+03  0.16587918057E+03  0.47000000000E+01 0. -1.
        -11    1    1    2    0    0 -0.15470884902E+02 -0.23310089740E+02  0.62199625876E+01  0.28660015665E+02  0.00000000000E+00 0.  1.
         11    1    1    2    0    0 -0.28637925286E+02  0.78377415967E+01 -0.12674016240E+03  0.13017153961E+03  0.00000000000E+00 0. -1.
<mgrwt>
<rscale>  0 0.12523216E+03</rscale>
<asrwt>0</asrwt>
<pdfrwt beam="2">  1        1 0.67907757E-01 0.13346724E+03</pdfrwt>
<pdfrwt beam="1">  1       -1 0.52177568E-02 0.13346724E+03</pdfrwt>
<totfact> 0.83755628E+03</totfact>
</mgrwt>
</event>
<event>
 7    1  0.8165933E-006  0.1478814E+03  0.7546771E-02  0.1214174E+00
          2   -1    0    0  501    0  0.00000000000E+00  0.00000000000E+00  0.78678165413E+02  0.78678165413E+02  0.00000000000E+00 0. -1.
         -2   -1    0    0    0  501 -0.00000000000E+00 -0.00000000000E+00 -0.28027367733E+03  0.28027367733E+03  0.00000000000E+00 0.  1.
         23    2    1    2    0    0 -0.70409794346E+01 -0.78708213423E+02 -0.29125750313E+02  0.15072234892E+03  0.12499743549E+03 0.  0.
          5    1    3    3  502    0  0.23288561137E+02 -0.63317969191E+02 -0.70005946592E+02  0.97336760068E+02  0.47000000000E+01 0.  1.
         -5    1    3    3    0  502 -0.30329540571E+02 -0.15390244232E+02  0.40880196279E+02  0.53385588848E+02  0.47000000000E+01 0.  1.
        -11    1    1    2    0    0 -0.25800484978E+02  0.48775246183E+02 -0.14699283765E+03  0.15700822903E+03  0.00000000000E+00 0.  1.
         11    1    1    2    0    0  0.32841464412E+02  0.29932967240E+02 -0.25476923957E+02  0.51221264792E+02  0.00000000000E+00 0. -1.
<mgrwt>
<rscale>  0 0.13937416E+03</rscale>
<asrwt>0</asrwt>
<pdfrwt beam="1">  1        2 0.12104333E-01 0.14788143E+03</pdfrwt>
<pdfrwt beam="2">  1       -2 0.43119027E-01 0.14788143E+03</pdfrwt>
<totfact> 0.25211349E+03</totfact>
</mgrwt>
</event>
<event>
 7    1  0.8165933E-006  0.1310459E+03  0.7546771E-02  0.1239953E+00
         -2   -1    0    0    0  501 -0.00000000000E+00  0.00000000000E+00  0.16646463999E+02  0.16646463999E+02  0.00000000000E+00 0.  1.
          2   -1    0    0  501    0  0.00000000000E+00 -0.00000000000E+00 -0.80675874035E+03  0.80675874035E+03  0.00000000000E+00 0. -1.
         23    2    1    2    0    0 -0.26116447994E+02 -0.29402268363E+02 -0.39043291478E+03  0.41183843461E+03  0.12500589202E+03 0.  0.
          5    1    3    3  502    0  0.15963363202E+00  0.46835621286E+02 -0.18993227197E+03  0.19567820226E+03  0.47000000000E+01 0.  1.
         -5    1    3    3    0  502 -0.26276081626E+02 -0.76237889649E+02 -0.20050064281E+03  0.21616023235E+03  0.47000000000E+01 0.  1.
        -11    1    1    2    0    0  0.50670404159E+02 -0.90864198696E+01 -0.18133119571E+03  0.18849683133E+03  0.00000000000E+00 0.  1.
         11    1    1    2    0    0 -0.24553956165E+02  0.38488688233E+02 -0.21834816586E+03  0.22306993841E+03  0.00000000000E+00 0. -1.
<mgrwt>
<rscale>  0 0.12192636E+03</rscale>
<asrwt>0</asrwt>
<pdfrwt beam="2">  1        2 0.12411673E+00 0.13104593E+03</pdfrwt>
<pdfrwt beam="1">  1       -2 0.25609945E-02 0.13104593E+03</pdfrwt>
<totfact> 0.17840488E+04</totfact>
</mgrwt>
</event>
<event>
 7    1  0.1422934E-005  0.2233792E+03  0.7546771E-02  0.1134583E+00
          1   -1    0    0  501    0  0.00000000000E+00  0.00000000000E+00  0.29335700976E+03  0.29335700976E+03  0.00000000000E+00 0. -1.
         -1   -1    0    0    0  501 -0.00000000000E+00 -0.00000000000E+00 -0.15847334888E+03  0.15847334888E+03  0.00000000000E+00 0.  1.
         23    2    1    2    0    0  0.13025098166E+03 -0.13155857328E+03  0.87127373080E+02  0.23976952498E+03  0.12500107817E+03 0.  0.
          5    1    3    3  502    0  0.12116118762E+03 -0.68788616953E+02  0.10405331140E+03  0.17395714651E+03  0.47000000000E+01 0. -1.
         -5    1    3    3    0  502  0.90897940386E+01 -0.62769956326E+02 -0.16925938317E+02  0.65812378477E+02  0.47000000000E+01 0. -1.
        -11    1    1    2    0    0 -0.70792101657E+02  0.27319895868E+02 -0.13900863413E+02  0.77143582824E+02  0.00000000000E+00 0.  1.
         11    1    1    2    0    0 -0.59458880001E+02  0.10423867741E+03  0.61657151213E+02  0.13491725084E+03  0.00000000000E+00 0. -1.
<mgrwt>
<rscale>  0 0.21906432E+03</rscale>
<asrwt>0</asrwt>
<pdfrwt beam="1">  1        1 0.45131848E-01 0.22337915E+03</pdfrwt>
<pdfrwt beam="2">  1       -1 0.24380515E-01 0.22337915E+03</pdfrwt>
<totfact> 0.13052568E+03</totfact>
</mgrwt>
</event>
<event>
 7    1  0.8165933E-006  0.2301719E+03  0.7546771E-02  0.1129574E+00
         -2   -1    0    0    0  501 -0.00000000000E+00  0.00000000000E+00  0.54852727517E+02  0.54852727517E+02  0.00000000000E+00 0.  1.
          2   -1    0    0  501    0  0.00000000000E+00 -0.00000000000E+00 -0.14058724060E+04  0.14058724060E+04  0.00000000000E+00 0. -1.
         23    2    1    2    0    0  0.46738068107E+02 -0.18753838905E+03 -0.11309146428E+04  0.11541000922E+04  0.12499599608E+03 0.  0.
          5    1    3    3  502    0 -0.34482226756E+02 -0.93193720981E+02 -0.63676654252E+03  0.64449035157E+03  0.47000000000E+01 0. -1.
         -5    1    3    3    0  502  0.81220294863E+02 -0.94344668067E+02 -0.49414810032E+03  0.50960974062E+03  0.47000000000E+01 0. -1.
        -11    1    1    2    0    0 -0.62889518409E+02  0.71328140601E+02 -0.11379994778E+03  0.14830112367E+03  0.00000000000E+00 0. -1.
         11    1    1    2    0    0  0.16151450303E+02  0.11621024845E+03 -0.10630508783E+03  0.15832391761E+03  0.00000000000E+00 0.  1.
<mgrwt>
<rscale>  0 0.22587974E+03</rscale>
<asrwt>0</asrwt>
<pdfrwt beam="2">  1        2 0.21628804E+00 0.23017188E+03</pdfrwt>
<pdfrwt beam="1">  1       -2 0.84388819E-02 0.23017188E+03</pdfrwt>
<totfact> 0.13375514E+03</totfact>
</mgrwt>
</event>
<event>
 7    1  0.8165933E-006  0.1998609E+03  0.7546771E-02  0.1154581E+00
         -2   -1    0    0    0  501 -0.00000000000E+00  0.00000000000E+00  0.16298481467E+03  0.16298481467E+03  0.00000000000E+00 0. -1.
          2   -1    0    0  501    0  0.00000000000E+00 -0.00000000000E+00 -0.22327685688E+03  0.22327685688E+03  0.00000000000E+00 0.  1.
         23    2    1    2    0    0  0.13981345906E+03 -0.69073954963E+02 -0.55499889519E+02  0.20742379880E+03  0.12500151993E+03 0.  0.
          5    1    3    3  502    0  0.11995291443E+02 -0.42300899934E+01  0.35216267771E+02  0.37736669088E+02  0.47000000000E+01 0.  1.
         -5    1    3    3    0  502  0.12781816762E+03 -0.64843864970E+02 -0.90716157290E+02  0.16968712972E+03  0.47000000000E+01 0.  1.
        -11    1    1    2    0    0 -0.11598204548E+03  0.14174199797E+02 -0.16040616571E+02  0.11794085040E+03  0.00000000000E+00 0.  1.
         11    1    1    2    0    0 -0.23831413578E+02  0.54899755166E+02  0.11248463887E+02  0.60897022343E+02  0.00000000000E+00 0. -1.
<mgrwt>
<rscale>  0 0.19436668E+03</rscale>
<asrwt>0</asrwt>
<pdfrwt beam="2">  1        2 0.34350286E-01 0.19986094E+03</pdfrwt>
<pdfrwt beam="1">  1       -2 0.25074587E-01 0.19986094E+03</pdfrwt>
<totfact> 0.21087354E+03</totfact>
</mgrwt>
</event>
<event>
 7    1  0.8165933E-006  0.1442812E+03  0.7546771E-02  0.1217574E+00
          4   -1    0    0  501    0  0.00000000000E+00  0.00000000000E+00  0.16650259854E+03  0.16650259854E+03  0.00000000000E+00 0.  1.
         -4   -1    0    0    0  501 -0.00000000000E+00 -0.00000000000E+00 -0.10414734347E+03  0.10414734347E+03  0.00000000000E+00 0. -1.
         23    2    1    2    0    0  0.69373706275E+02 -0.19481749591E+02  0.51636201551E+02  0.15324283779E+03  0.12499928134E+03 0.  0.
          5    1    3    3  502    0  0.79237661172E+02 -0.42142710060E+02 -0.62890906158E+01  0.90090274836E+02  0.47000000000E+01 0.  1.
         -5    1    3    3    0  502 -0.98639548977E+01  0.22660960469E+02  0.57925292166E+02  0.63152562958E+02  0.47000000000E+01 0.  1.
        -11    1    1    2    0    0 -0.19949181396E+02  0.37607734728E+02  0.38924376848E+02  0.57683781627E+02  0.00000000000E+00 0.  1.
         11    1    1    2    0    0 -0.49424524879E+02 -0.18125985137E+02 -0.28205323329E+02  0.59723322587E+02  0.00000000000E+00 0. -1.
<mgrwt>
<rscale>  0 0.13689152E+03</rscale>
<asrwt>0</asrwt>
<pdfrwt beam="1">  1        4 0.25615785E-01 0.14428122E+03</pdfrwt>
<pdfrwt beam="2">  1       -4 0.16022668E-01 0.14428122E+03</pdfrwt>
<totfact> 0.80412561E+02</totfact>
</mgrwt>
</event>
<event>
 7    1  0.1273601E-005  0.1361146E+03  0.7546771E-02  0.1230999E+00
         -1   -1    0    0    0  501 -0.00000000000E+00  0.00000000000E+00  0.18996164998E+03  0.18996164998E+03  0.00000000000E+00 0.  1.
          1   -1    0    0  501    0  0.00000000000E+00 -0.00000000000E+00 -0.79249838463E+02  0.79249838463E+02  0.00000000000E+00 0. -1.
         23    2    1    2    0    0 -0.10303278504E+02 -0.52881194216E+02  0.38118576198E+02  0.14135141522E+03  0.12499847393E+03 0.  0.
          5    1    3    3  502    0  0.35298311754E+01 -0.83088479258E+02  0.58778079311E+02  0.10194659240E+03  0.47000000000E+01 0. -1.
         -5    1    3    3    0  502 -0.13833109679E+02  0.30207285043E+02 -0.20659503113E+02  0.39404822826E+02  0.47000000000E+01 0. -1.
        -11    1    1    2    0    0  0.23984639092E+02  0.55888216237E+02  0.88042497916E+02  0.10700578052E+03  0.00000000000E+00 0.  1.
         11    1    1    2    0    0 -0.13681360588E+02 -0.30070220209E+01 -0.15449262598E+02  0.20854292695E+02  0.00000000000E+00 0. -1.
<mgrwt>
<rscale>  0 0.12764046E+03</rscale>
<asrwt>0</asrwt>
<pdfrwt beam="2">  1        1 0.12192283E-01 0.13611465E+03</pdfrwt>
<pdfrwt beam="1">  1       -1 0.29224869E-01 0.13611465E+03</pdfrwt>
<totfact> 0.50082859E+03</totfact>
</mgrwt>
</event>
<event>
 6    1  0.8165933E-006  0.1673186E+03  0.7546771E-02  0.1196991E+00
         -2   -1    0    0    0  501 -0.00000000000E+00  0.00000000000E+00  0.32971225972E+03  0.32971225972E+03  0.00000000000E+00 0.  1.
          2   -1    0    0  501    0  0.00000000000E+00 -0.00000000000E+00 -0.17688647181E+03  0.17688647181E+03  0.00000000000E+00 0. -1.
          5    1    1    2  502    0  0.81104236346E+02  0.16183199213E+02 -0.13537036949E+03  0.15870419032E+03  0.47000000000E+01 0. -1.
         -5    1    1    2    0  502 -0.13577582011E+02 -0.44824114243E+02  0.12713372035E+02  0.48757274119E+02  0.47000000000E+01 0.  1.
        -11    1    1    2    0    0  0.11336354133E+02 -0.19376977441E+02  0.77444308304E+02  0.80632506276E+02  0.00000000000E+00 0. -1.
         11    1    1    2    0    0 -0.78863008469E+02  0.48017892471E+02  0.19803847706E+03  0.21850476081E+03  0.00000000000E+00 0.  1.
<mgrwt>
<rscale>  0 0.15286920E+03</rscale>
<asrwt>0</asrwt>
<pdfrwt beam="2">  1        2 0.27213303E-01 0.16731862E+03</pdfrwt>
<pdfrwt beam="1">  1       -2 0.50724963E-01 0.16731862E+03</pdfrwt>
<totfact> 0.72581917E+02</totfact>
</mgrwt>
</event>
<event>
 6    1  0.8165933E-006  0.1965207E+03  0.7546771E-02  0.1173052E+00
         -2   -1    0    0    0  501 -0.00000000000E+00  0.00000000000E+00  0.27642894849E+02  0.27642894849E+02  0.00000000000E+00 0.  1.
          2   -1    0    0  501    0  0.00000000000E+00 -0.00000000000E+00 -0.94823053526E+03  0.94823053526E+03  0.00000000000E+00 0. -1.
          5    1    1    2  502    0  0.40420405006E+02  0.93576051980E+02 -0.23328539939E+03  0.25462610670E+03  0.47000000000E+01 0. -1.
         -5    1    1    2    0  502 -0.77392715524E+02 -0.24747360641E+02 -0.41031449661E+03  0.41830866642E+03  0.47000000000E+01 0.  1.
        -11    1    1    2    0    0  0.33065483118E+02  0.86333450736E+00 -0.18245139138E+03  0.18542540747E+03  0.00000000000E+00 0. -1.
         11    1    1    2    0    0  0.39068273994E+01 -0.69692025846E+02 -0.94536353035E+02  0.11751324952E+03  0.00000000000E+00 0.  1.
<mgrwt>
<rscale>  0 0.17468150E+03</rscale>
<asrwt>0</asrwt>
<pdfrwt beam="2">  1        2 0.14588161E+00 0.19652069E+03</pdfrwt>
<pdfrwt beam="1">  1       -2 0.42527533E-02 0.19652069E+03</pdfrwt>
<totfact> 0.69821743E+03</totfact>
</mgrwt>
</event>
<event>
 7    1  0.8165933E-006  0.1275660E+03  0.7546771E-02  0.1245189E+00
         -1   -1    0    0    0  501 -0.00000000000E+00  0.00000000000E+00  0.12596966884E+02  0.12596966884E+02  0.00000000000E+00 0.  1.
          1   -1    0    0  501    0  0.00000000000E+00 -0.00000000000E+00 -0.13648498857E+04  0.13648498857E+04  0.00000000000E+00 0. -1.
         23    2    1    2    0    0 -0.17754092238E+02 -0.18169358711E+02 -0.11043052332E+04  0.11116488384E+04  0.12501103283E+03 0.  0.
          5    1    3    3  502    0  0.31523490446E+02  0.36065533327E+02 -0.28260533978E+03  0.28667459115E+03  0.47000000000E+01 0. -1.
         -5    1    3    3    0  502 -0.49277582684E+02 -0.54234892038E+02 -0.82169989345E+03  0.82497424721E+03  0.47000000000E+01 0. -1.
        -11    1    1    2    0    0  0.51091907825E+02  0.23625212130E+02 -0.10751055243E+03  0.12135506820E+03  0.00000000000E+00 0.  1.
         11    1    1    2    0    0 -0.33337815587E+02 -0.54558534188E+01 -0.14043713319E+03  0.14444294604E+03  0.00000000000E+00 0. -1.
<mgrwt>
<rscale>  0 0.11874097E+03</rscale>
<asrwt>0</asrwt>
<pdfrwt beam="2">  1        1 0.20997687E+00 0.12756603E+03</pdfrwt>
<pdfrwt beam="1">  1       -1 0.19379953E-02 0.12756603E+03</pdfrwt>
<totfact> 0.61773927E+03</totfact>
</mgrwt>
</event>
<event>
 7    1  0.8165933E-006  0.2667442E+03  0.7546771E-02  0.1105262E+00
         -2   -1    0    0    0  501 -0.00000000000E+00  0.00000000000E+00  0.48832721440E+02  0.48832721440E+02  0.00000000000E+00 0.  1.
          2   -1    0    0  501    0  0.00000000000E+00 -0.00000000000E+00 -0.21026405187E+04  0.21026405187E+04  0.00000000000E+00 0. -1.
         23    2    1    2    0    0  0.67463345475E+02 -0.22578058032E+03 -0.16751243941E+04  0.16962294088E+04  0.12499719239E+03 0.  0.
          5    1    3    3  502    0 -0.36382363408E+02 -0.55166447555E+02 -0.47275245558E+03  0.47737195934E+03  0.47000000000E+01 0. -1.
         -5    1    3    3    0  502  0.10384570888E+03 -0.17061413277E+03 -0.12023719385E+04  0.12188574495E+04  0.47000000000E+01 0. -1.
        -11    1    1    2    0    0 -0.87183531688E+02  0.18870466292E+03 -0.33780236371E+03  0.39663693088E+03  0.00000000000E+00 0.  1.
         11    1    1    2    0    0  0.19720186213E+02  0.37075917401E+02 -0.40881039414E+02  0.58606900438E+02  0.00000000000E+00 0. -1.
<mgrwt>
<rscale>  0 0.26315572E+03</rscale>
<asrwt>0</asrwt>
<pdfrwt beam="2">  1        2 0.32348317E+00 0.26674421E+03</pdfrwt>
<pdfrwt beam="1">  1       -2 0.75127261E-02 0.26674421E+03</pdfrwt>
<totfact> 0.68536303E+02</totfact>
</mgrwt>
</event>
<event>
 7    1  0.8165933E-006  0.1417580E+03  0.7546771E-02  0.1221558E+00
         -2   -1    0    0    0  501 -0.00000000000E+00  0.00000000000E+00  0.13477042847E+03  0.13477042847E+03  0.00000000000E+00 0.  1.
          2   -1    0    0  501    0  0.00000000000E+00 -0.00000000000E+00 -0.12544384999E+03  0.12544384999E+03  0.00000000000E+00 0. -1.
         23    2    1    2    0    0  0.64039338784E+02  0.19226008368E+02 -0.19870049029E+02  0.14314376586E+03  0.12499857018E+03 0.  0.
          5    1    3    3  502    0  0.33274758279E+02 -0.40850313616E+02 -0.46503440817E+02  0.70431652464E+02  0.47000000000E+01 0. -1.
         -5    1    3    3    0  502  0.30764580505E+02  0.60076321984E+02  0.26633391788E+02  0.72712113399E+02  0.47000000000E+01 0. -1.
        -11    1    1    2    0    0 -0.21958726435E+02  0.34012381347E+02  0.27954201706E+02  0.49198222982E+02  0.00000000000E+00 0.  1.
         11    1    1    2    0    0 -0.42080612348E+02 -0.53238389715E+02  0.12424258071E+01  0.67872289610E+02  0.00000000000E+00 0. -1.
<mgrwt>
<rscale>  0 0.13405605E+03</rscale>
<asrwt>0</asrwt>
<pdfrwt beam="2">  1        2 0.19299054E-01 0.14175796E+03</pdfrwt>
<pdfrwt beam="1">  1       -2 0.20733912E-01 0.14175796E+03</pdfrwt>
<totfact> 0.54574458E+03</totfact>
</mgrwt>
</event>
<event>
 7    1  0.8165933E-006  0.1681288E+03  0.7546771E-02  0.1186961E+00
         -1   -1    0    0    0  501 -0.00000000000E+00  0.00000000000E+00  0.54311401719E+02  0.54311401719E+02  0.00000000000E+00 0.  1.
          1   -1    0    0  501    0  0.00000000000E+00 -0.00000000000E+00 -0.51667995463E+03  0.51667995463E+03  0.00000000000E+00 0. -1.
         23    2    1    2    0    0 -0.45309815950E+02  0.10290796722E+03 -0.35206180899E+03  0.39014716315E+03  0.12499704965E+03 0.  0.
          5    1    3    3  502    0  0.35940221082E+02  0.40558394029E+01 -0.11594301633E+03  0.12154432262E+03  0.47000000000E+01 0. -1.
         -5    1    3    3    0  502 -0.81250037032E+02  0.98852127816E+02 -0.23611879266E+03  0.26860284053E+03  0.47000000000E+01 0. -1.
        -11    1    1    2    0    0  0.62777140002E+02 -0.63345637389E+02 -0.38758293230E+02  0.97241166062E+02  0.00000000000E+00 0. -1.
         11    1    1    2    0    0 -0.17467324052E+02 -0.39562329830E+02 -0.71548450686E+02  0.83603027138E+02  0.00000000000E+00 0.  1.
<mgrwt>
<rscale>  0 0.16154697E+03</rscale>
<asrwt>0</asrwt>
<pdfrwt beam="2">  1        1 0.79489221E-01 0.16812879E+03</pdfrwt>
<pdfrwt beam="1">  1       -1 0.83556005E-02 0.16812879E+03</pdfrwt>
<totfact> 0.34103546E+03</totfact>
</mgrwt>
</event>
<event>
 7    1  0.8165933E-006  0.1814067E+03  0.7546771E-02  0.1172138E+00
          2   -1    0    0  501    0  0.00000000000E+00  0.00000000000E+00  0.10053720281E+04  0.10053720281E+04  0.00000000000E+00 0. -1.
         -2   -1    0    0    0  501 -0.00000000000E+00 -0.00000000000E+00 -0.53435007795E+02  0.53435007795E+02  0.00000000000E+00 0.  1.
         23    2    1    2    0    0  0.62619188557E+02  0.11532572437E+03  0.85133392528E+03  0.87044692040E+03  0.12524856653E+03 0.  0.
          5    1    3    3  502    0  0.97687964405E+02  0.79357525825E+02  0.69024551898E+03  0.70164201824E+03  0.47000000000E+01 0.  1.
         -5    1    3    3    0  502 -0.35068775848E+02  0.35968198548E+02  0.16108840630E+03  0.16880490215E+03  0.47000000000E+01 0.  1.
        -11    1    1    2    0    0  0.68265718353E+01 -0.16202348807E+02  0.57106519161E+02  0.59751759142E+02  0.00000000000E+00 0. -1.
         11    1    1    2    0    0 -0.69445760392E+02 -0.99123375566E+02  0.43496575907E+02  0.12860835640E+03  0.00000000000E+00 0.  1.
<mgrwt>
<rscale>  0 0.17559233E+03</rscale>
<asrwt>0</asrwt>
<pdfrwt beam="1">  1        2 0.15467261E+00 0.18140669E+03</pdfrwt>
<pdfrwt beam="2">  1       -2 0.82207712E-02 0.18140669E+03</pdfrwt>
<totfact> 0.23470030E+03</totfact>
</mgrwt>
</event>
<event>
 7    1  0.8165933E-006  0.1327305E+03  0.7546771E-02  0.1236236E+00
         -2   -1    0    0    0  501 -0.00000000000E+00  0.00000000000E+00  0.16021504909E+03  0.16021504909E+03  0.00000000000E+00 0.  1.
          2   -1    0    0  501    0  0.00000000000E+00 -0.00000000000E+00 -0.10150461772E+03  0.10150461772E+03  0.00000000000E+00 0. -1.
         23    2    1    2    0    0  0.44398903027E+02  0.44411187677E+01 -0.18261147995E+02  0.13398082740E+03  0.12500562571E+03 0.  0.
          5    1    3    3  502    0 -0.25047425253E+02  0.44372063064E+02  0.20282156381E+01  0.51209932152E+02  0.47000000000E+01 0.  1.
         -5    1    3    3    0  502  0.69446328280E+02 -0.39930944296E+02 -0.20289363633E+02  0.82770895251E+02  0.47000000000E+01 0.  1.
        -11    1    1    2    0    0 -0.49173601024E+02 -0.24442639745E+02  0.88508774626E+02  0.10415991965E+03  0.00000000000E+00 0.  1.
         11    1    1    2    0    0  0.47746979975E+01  0.20001520977E+02 -0.11537195259E+02  0.23578919755E+02  0.00000000000E+00 0. -1.
<mgrwt>
<rscale>  0 0.12425634E+03</rscale>
<asrwt>0</asrwt>
<pdfrwt beam="2">  1        2 0.15616095E-01 0.13273053E+03</pdfrwt>
<pdfrwt beam="1">  1       -2 0.24648469E-01 0.13273053E+03</pdfrwt>
<totfact> 0.51481438E+03</totfact>
</mgrwt>
</event>
<event>
 7    1  0.8165933E-006  0.4099049E+03  0.7546771E-02  0.1041162E+00
          2   -1    0    0  501    0  0.00000000000E+00  0.00000000000E+00  0.18135394294E+04  0.18135394294E+04  0.00000000000E+00 0. -1.
         -2   -1    0    0    0  501 -0.00000000000E+00 -0.00000000000E+00 -0.90855022425E+02  0.90855022425E+02  0.00000000000E+00 0.  1.
         23    2    1    2    0    0  0.28272239000E+03  0.26919255875E+03  0.82445948982E+03  0.92073638585E+03  0.12500183354E+03 0.  0.
          5    1    3    3  502    0  0.14770680824E+03  0.11168621930E+03  0.52238051044E+03  0.55425138743E+03  0.47000000000E+01 0. -1.
         -5    1    3    3    0  502  0.13501558176E+03  0.15750633946E+03  0.30207897938E+03  0.36648499842E+03  0.47000000000E+01 0. -1.
        -11    1    1    2    0    0 -0.77786565741E+02 -0.68108739398E+02  0.34792848639E+03  0.36296526258E+03  0.00000000000E+00 0. -1.
         11    1    1    2    0    0 -0.20493582426E+03 -0.20108381935E+03  0.55029643075E+03  0.62069280338E+03  0.00000000000E+00 0.  1.
<mgrwt>
<rscale>  0 0.40765214E+03</rscale>
<asrwt>0</asrwt>
<pdfrwt beam="1">  1        2 0.27900604E+00 0.40990492E+03</pdfrwt>
<pdfrwt beam="2">  1       -2 0.13977697E-01 0.40990492E+03</pdfrwt>
<totfact> 0.35219897E+02</totfact>
</mgrwt>
</event>
<event>
 7    1  0.8165933E-006  0.1282067E+03  0.7546771E-02  0.1244725E+00
          1   -1    0    0  501    0  0.00000000000E+00  0.00000000000E+00  0.11443675558E+04  0.11443675558E+04  0.00000000000E+00 0. -1.
         -1   -1    0    0    0  501 -0.00000000000E+00 -0.00000000000E+00 -0.12458412737E+02  0.12458412737E+02  0.00000000000E+00 0.  1.
         23    2    1    2    0    0 -0.23666883054E+02  0.15847782333E+02  0.84134999219E+03  0.85106214761E+03  0.12500278466E+03 0.  0.
          5    1    3    3  502    0 -0.14082916390E+02  0.15062398886E+02  0.84000903703E+03  0.84027523865E+03  0.47000000000E+01 0.  1.
         -5    1    3    3    0  502 -0.95839666641E+01  0.78538344645E+00  0.13409551621E+01  0.10786908961E+02  0.47000000000E+01 0.  1.
        -11    1    1    2    0    0  0.46881057147E+02  0.20528627676E+02  0.17817906423E+03  0.18538348633E+03  0.00000000000E+00 0.  1.
         11    1    1    2    0    0 -0.23214174093E+02 -0.36376410009E+02  0.11238008659E+03  0.12038033455E+03  0.00000000000E+00 0. -1.
<mgrwt>
<rscale>  0 0.11901877E+03</rscale>
<asrwt>0</asrwt>
<pdfrwt beam="1">  1        1 0.17605646E+00 0.12820675E+03</pdfrwt>
<pdfrwt beam="2">  1       -1 0.19166798E-02 0.12820675E+03</pdfrwt>
<totfact> 0.88403836E+03</totfact>
</mgrwt>
</event>
<event>
 7    1  0.8165933E-006  0.1252967E+03  0.7546771E-02  0.1247793E+00
         -1   -1    0    0    0  501 -0.00000000000E+00  0.00000000000E+00  0.34072993299E+02  0.34072993299E+02  0.00000000000E+00 0.  1.
          1   -1    0    0  501    0  0.00000000000E+00 -0.00000000000E+00 -0.66694907890E+03  0.66694907890E+03  0.00000000000E+00 0. -1.
         23    2    1    2    0    0  0.19724667290E+01 -0.82303908370E+01 -0.57610073777E+03  0.58956876493E+03  0.12501055383E+03 0.  0.
          5    1    3    3  502    0  0.40110215592E+02 -0.50745795664E+02 -0.37037819215E+03  0.37601337794E+03  0.47000000000E+01 0.  1.
         -5    1    3    3    0  502 -0.38137748863E+02  0.42515404827E+02 -0.20572254562E+03  0.21355538699E+03  0.47000000000E+01 0.  1.
        -11    1    1    2    0    0 -0.26911699439E+02 -0.35915288220E+02 -0.31251470178E+02  0.54688224353E+02  0.00000000000E+00 0. -1.
         11    1    1    2    0    0  0.24939232710E+02  0.44145679057E+02 -0.25523877653E+02  0.56765082912E+02  0.00000000000E+00 0.  1.
<mgrwt>
<rscale>  0 0.11719763E+03</rscale>
<asrwt>0</asrwt>
<pdfrwt beam="2">  1        1 0.10260755E+00 0.12529672E+03</pdfrwt>
<pdfrwt beam="1">  1       -1 0.52419992E-02 0.12529672E+03</pdfrwt>
<totfact> 0.47878232E+03</totfact>
</mgrwt>
</event>
<event>
 7    1  0.8165933E-006  0.1755000E+03  0.7546771E-02  0.1178142E+00
         -1   -1    0    0    0  501 -0.00000000000E+00  0.00000000000E+00  0.35816967634E+03  0.35816967634E+03  0.00000000000E+00 0.  1.
          1   -1    0    0  501    0  0.00000000000E+00 -0.00000000000E+00 -0.85916841032E+02  0.85916841032E+02  0.00000000000E+00 0. -1.
         23    2    1    2    0    0 -0.11124683317E+03 -0.52902093113E+02  0.67148162063E+02  0.18790718353E+03  0.12500297839E+03 0.  0.
          5    1    3    3  502    0  0.52057153099E+01 -0.24707462932E+02  0.62878822925E+02  0.67921974124E+02  0.47000000000E+01 0. -1.
         -5    1    3    3    0  502 -0.11645254848E+03 -0.28194630181E+02  0.42693391385E+01  0.11998520941E+03  0.47000000000E+01 0. -1.
        -11    1    1    2    0    0  0.42638479189E+02 -0.21910756074E+02  0.95078291614E+02  0.10648005764E+03  0.00000000000E+00 0.  1.
         11    1    1    2    0    0  0.68608353985E+02  0.74812849187E+02  0.11002638163E+03  0.14969927620E+03  0.00000000000E+00 0. -1.
<mgrwt>
<rscale>  0 0.16971862E+03</rscale>
<asrwt>0</asrwt>
<pdfrwt beam="2">  1        1 0.13217976E-01 0.17549995E+03</pdfrwt>
<pdfrwt beam="1">  1       -1 0.55103026E-01 0.17549995E+03</pdfrwt>
<totfact> 0.14890385E+03</totfact>
</mgrwt>
</event>
<event>
 7    1  0.8165933E-006  0.1352077E+03  0.7546771E-02  0.1232940E+00
          1   -1    0    0  501    0  0.00000000000E+00  0.00000000000E+00  0.67795831522E+02  0.67795831522E+02  0.00000000000E+00 0. -1.
         -1   -1    0    0    0  501 -0.00000000000E+00 -0.00000000000E+00 -0.20995861549E+03  0.20995861549E+03  0.00000000000E+00 0.  1.
         23    2    1    2    0    0  0.20669365014E+02  0.47212996736E+02 -0.74635863098E+02  0.15443974656E+03  0.12499933419E+03 0.  0.
          5    1    3    3  502    0  0.24794690038E+02 -0.34707909428E+02 -0.55368978016E+02  0.70051619235E+02  0.47000000000E+01 0. -1.
         -5    1    3    3    0  502 -0.41253250241E+01  0.81920906164E+02 -0.19266885083E+02  0.84388127329E+02  0.47000000000E+01 0. -1.
        -11    1    1    2    0    0 -0.45375052664E+02 -0.57676513910E+02 -0.35460049254E+02  0.81503930912E+02  0.00000000000E+00 0. -1.
         11    1    1    2    0    0  0.24705687650E+02  0.10463517174E+02 -0.32066871618E+02  0.41810769537E+02  0.00000000000E+00 0.  1.
<mgrwt>
<rscale>  0 0.12637251E+03</rscale>
<asrwt>0</asrwt>
<pdfrwt beam="1">  1        1 0.10430128E-01 0.13520770E+03</pdfrwt>
<pdfrwt beam="2">  1       -1 0.32301325E-01 0.13520770E+03</pdfrwt>
<totfact> 0.51943314E+03</totfact>
</mgrwt>
</event>
<event>
 7    1  0.8165933E-006  0.1433130E+03  0.7546771E-02  0.1219245E+00
          1   -1    0    0  501    0  0.00000000000E+00  0.00000000000E+00  0.40849044059E+03  0.40849044059E+03  0.00000000000E+00 0. -1.
         -1   -1    0    0    0  501 -0.00000000000E+00 -0.00000000000E+00 -0.52567633498E+02  0.52567633498E+02  0.00000000000E+00 0.  1.
         23    2    1    2    0    0  0.48579156618E+02 -0.50521568698E+02  0.30116756972E+03  0.33352739538E+03  0.12500502013E+03 0.  0.
          5    1    3    3  502    0  0.64103211102E+02 -0.22429266871E+02  0.61711527130E+02  0.91884145894E+02  0.47000000000E+01 0.  1.
         -5    1    3    3    0  502 -0.15524054484E+02 -0.28092301827E+02  0.23945604259E+03  0.24164324949E+03  0.47000000000E+01 0.  1.
        -11    1    1    2    0    0 -0.68608899238E+02  0.48082377986E+02  0.18136376531E+02  0.85720617596E+02  0.00000000000E+00 0.  1.
         11    1    1    2    0    0  0.20029742620E+02  0.24391907115E+01  0.36618860841E+02  0.41810061110E+02  0.00000000000E+00 0. -1.
<mgrwt>
<rscale>  0 0.13569269E+03</rscale>
<asrwt>0</asrwt>
<pdfrwt beam="1">  1        1 0.62844681E-01 0.14331301E+03</pdfrwt>
<pdfrwt beam="2">  1       -1 0.80873285E-02 0.14331301E+03</pdfrwt>
<totfact> 0.48191954E+03</totfact>
</mgrwt>
</event>
<event>
 7    1  0.8165933E-006  0.1537591E+03  0.7546771E-02  0.1205717E+00
         -2   -1    0    0    0  501 -0.00000000000E+00  0.00000000000E+00  0.39766214962E+02  0.39766214962E+02  0.00000000000E+00 0.  1.
          2   -1    0    0  501    0  0.00000000000E+00 -0.00000000000E+00 -0.50598187068E+03  0.50598187068E+03  0.00000000000E+00 0. -1.
         23    2    1    2    0    0 -0.78303030991E+02 -0.43436767907E+02 -0.31041573340E+03  0.34640987273E+03  0.12499501954E+03 0.  0.
          5    1    3    3  502    0 -0.44813439727E+02  0.33752341050E+02 -0.19840407086E+03  0.20623707290E+03  0.47000000000E+01 0.  1.
         -5    1    3    3    0  502 -0.33489591264E+02 -0.77189108957E+02 -0.11201166254E+03  0.14017279982E+03  0.47000000000E+01 0.  1.
        -11    1    1    2    0    0  0.72649699934E+02  0.11997117862E+01 -0.59082618495E+02  0.93649207242E+02  0.00000000000E+00 0.  1.
         11    1    1    2    0    0  0.56533310570E+01  0.42237056121E+02 -0.96717303825E+02  0.10568900568E+03  0.00000000000E+00 0. -1.
<mgrwt>
<rscale>  0 0.14581066E+03</rscale>
<asrwt>0</asrwt>
<pdfrwt beam="2">  1        2 0.77843370E-01 0.15375914E+03</pdfrwt>
<pdfrwt beam="1">  1       -2 0.61178788E-02 0.15375914E+03</pdfrwt>
<totfact> 0.84928831E+03</totfact>
</mgrwt>
</event>
<event>
 7    1  0.8165933E-006  0.1998060E+03  0.7546771E-02  0.1153883E+00
         -2   -1    0    0    0  501 -0.00000000000E+00  0.00000000000E+00  0.31345201301E+03  0.31345201301E+03  0.00000000000E+00 0.  1.
          2   -1    0    0  501    0  0.00000000000E+00 -0.00000000000E+00 -0.13366766223E+03  0.13366766223E+03  0.00000000000E+00 0. -1.
         23    2    1    2    0    0 -0.15197749344E+03 -0.34639070647E+02  0.12812318063E+02  0.20021632069E+03  0.12500158339E+03 0.  0.
          5    1    3    3  502    0 -0.58805678365E+02 -0.42968957601E+02 -0.49081536531E+02  0.87951841104E+02  0.47000000000E+01 0. -1.
         -5    1    3    3    0  502 -0.93171815073E+02  0.83298869544E+01  0.61893854593E+02  0.11226447959E+03  0.47000000000E+01 0. -1.
        -11    1    1    2    0    0  0.52938975887E+02 -0.15991345006E+02  0.12745827720E+02  0.56751338375E+02  0.00000000000E+00 0. -1.
         11    1    1    2    0    0  0.99038517551E+02  0.50630415653E+02  0.15422620500E+03  0.19015201618E+03  0.00000000000E+00 0.  1.
<mgrwt>
<rscale>  0 0.19516622E+03</rscale>
<asrwt>0</asrwt>
<pdfrwt beam="2">  1        2 0.20564256E-01 0.19980595E+03</pdfrwt>
<pdfrwt beam="1">  1       -2 0.48223386E-01 0.19980595E+03</pdfrwt>
<totfact> 0.11022460E+03</totfact>
</mgrwt>
</event>
<event>
 7    1  0.8165933E-006  0.1294007E+03  0.7546771E-02  0.1242002E+00
          1   -1    0    0  501    0  0.00000000000E+00  0.00000000000E+00  0.17342544421E+04  0.17342544421E+04  0.00000000000E+00 0. -1.
         -1   -1    0    0    0  501 -0.00000000000E+00 -0.00000000000E+00 -0.98619183637E+01  0.98619183637E+01  0.00000000000E+00 0.  1.
         23    2    1    2    0    0 -0.29350202628E+02 -0.16042592004E+02  0.13812153084E+04  0.13872635881E+04  0.12500294316E+03 0.  0.
          5    1    3    3  502    0 -0.72109624653E+02  0.17405916267E+02  0.73116387815E+03  0.73493228980E+03  0.47000000000E+01 0.  1.
         -5    1    3    3    0  502  0.42759422025E+02 -0.33448508271E+02  0.65005143021E+03  0.65233129834E+03  0.47000000000E+01 0.  1.
        -11    1    1    2    0    0 -0.22482795374E+02  0.25674458547E+02  0.61963394067E+02  0.70739777451E+02  0.00000000000E+00 0.  1.
         11    1    1    2    0    0  0.51832998003E+02 -0.96318665422E+01  0.28121382128E+03  0.28611299483E+03  0.00000000000E+00 0. -1.
<mgrwt>
<rscale>  0 0.12066606E+03</rscale>
<asrwt>0</asrwt>
<pdfrwt beam="1">  1        1 0.26680813E+00 0.12940068E+03</pdfrwt>
<pdfrwt beam="2">  1       -1 0.15172196E-02 0.12940068E+03</pdfrwt>
<totfact> 0.50749951E+03</totfact>
</mgrwt>
</event>
<event>
 7    1  0.8165933E-006  0.1774300E+03  0.7546771E-02  0.1176408E+00
         -1   -1    0    0    0  501 -0.00000000000E+00  0.00000000000E+00  0.36101384505E+03  0.36101384505E+03  0.00000000000E+00 0. -1.
          1   -1    0    0  501    0  0.00000000000E+00 -0.00000000000E+00 -0.76404210634E+02  0.76404210634E+02  0.00000000000E+00 0.  1.
         23    2    1    2    0    0 -0.98481579701E+02  0.78924304236E+02  0.14347000605E+03  0.22817765431E+03  0.12471460199E+03 0.  0.
          5    1    3    3  502    0 -0.86881984131E+02  0.11073221316E+03  0.99250387752E+02  0.17228706181E+03  0.47000000000E+01 0.  1.
         -5    1    3    3    0  502 -0.11599595570E+02 -0.31807908923E+02  0.44219618303E+02  0.55890592503E+02  0.47000000000E+01 0.  1.
        -11    1    1    2    0    0  0.24513885032E+02 -0.75206510293E+02  0.59270929125E+02  0.98843273869E+02  0.00000000000E+00 0. -1.
         11    1    1    2    0    0  0.73967694670E+02 -0.37177939431E+01  0.81868699236E+02  0.11039712750E+03  0.00000000000E+00 0.  1.
<mgrwt>
<rscale>  0 0.17138850E+03</rscale>
<asrwt>0</asrwt>
<pdfrwt beam="2">  1        1 0.11754494E-01 0.17742998E+03</pdfrwt>
<pdfrwt beam="1">  1       -1 0.55540591E-01 0.17742998E+03</pdfrwt>
<totfact> 0.17132548E+03</totfact>
</mgrwt>
</event>
<event>
 7    1  0.8165933E-006  0.1501835E+03  0.7546771E-02  0.1209559E+00
          3   -1    0    0  501    0  0.00000000000E+00  0.00000000000E+00  0.12277363175E+04  0.12277363175E+04  0.00000000000E+00 0. -1.
         -3   -1    0    0    0  501 -0.00000000000E+00 -0.00000000000E+00 -0.15249063170E+02  0.15249063170E+02  0.00000000000E+00 0.  1.
         23    2    1    2    0    0  0.44850200238E+02  0.70132364003E+02  0.70680576339E+03  0.72258526626E+03  0.12499996363E+03 0.  0.
          5    1    3    3  502    0  0.22228709729E+02 -0.34651216516E+02  0.15493936245E+03  0.16038428345E+03  0.47000000000E+01 0. -1.
         -5    1    3    3    0  502  0.22621490509E+02  0.10478358052E+03  0.55186640094E+03  0.56220098280E+03  0.47000000000E+01 0. -1.
        -11    1    1    2    0    0 -0.45577034795E+02  0.64405421164E+01  0.20732671015E+03  0.21237493125E+03  0.00000000000E+00 0.  1.
         11    1    1    2    0    0  0.72683455656E+00 -0.76572906119E+02  0.29835478079E+03  0.30802518316E+03  0.00000000000E+00 0. -1.
<mgrwt>
<rscale>  0 0.14283932E+03</rscale>
<asrwt>0</asrwt>
<pdfrwt beam="1">  1        3 0.18888243E+00 0.15018349E+03</pdfrwt>
<pdfrwt beam="2">  1       -3 0.23460107E-02 0.15018349E+03</pdfrwt>
<totfact> 0.33299217E+02</totfact>
</mgrwt>
</event>
<event>
 7    1  0.8165933E-006  0.3272639E+03  0.7546771E-02  0.1073618E+00
          2   -1    0    0  501    0  0.00000000000E+00  0.00000000000E+00  0.11207344596E+04  0.11207344596E+04  0.00000000000E+00 0. -1.
         -2   -1    0    0    0  501 -0.00000000000E+00 -0.00000000000E+00 -0.97026915665E+02  0.97026915665E+02  0.00000000000E+00 0.  1.
         23    2    1    2    0    0 -0.19580846489E+03 -0.23051389719E+03  0.38658894815E+03  0.50651031919E+03  0.12499630753E+03 0.  0.
          5    1    3    3  502    0 -0.90311421322E+01  0.14845873934E+02  0.30711302685E+02  0.35598252958E+02  0.47000000000E+01 0.  1.
         -5    1    3    3    0  502 -0.18677732276E+03 -0.24535977112E+03  0.35587764547E+03  0.47091206623E+03  0.47000000000E+01 0.  1.
        -11    1    1    2    0    0  0.15502444571E+03  0.11391089006E+03  0.37390028963E+03  0.42048745074E+03  0.00000000000E+00 0.  1.
         11    1    1    2    0    0  0.40784019175E+02  0.11660300713E+03  0.26321830613E+03  0.29076360531E+03  0.00000000000E+00 0. -1.
<mgrwt>
<rscale>  0 0.32445225E+03</rscale>
<asrwt>0</asrwt>
<pdfrwt beam="1">  1        2 0.17242068E+00 0.32726394E+03</pdfrwt>
<pdfrwt beam="2">  1       -2 0.14927219E-01 0.32726394E+03</pdfrwt>
<totfact> 0.76608080E+02</totfact>
</mgrwt>
</event>
<event>
 7    1  0.8165933E-006  0.1468802E+03  0.7546771E-02  0.1212933E+00
          1   -1    0    0  501    0  0.00000000000E+00  0.00000000000E+00  0.28981170628E+03  0.28981170628E+03  0.00000000000E+00 0. -1.
         -1   -1    0    0    0  501 -0.00000000000E+00 -0.00000000000E+00 -0.63653979250E+02  0.63653979250E+02  0.00000000000E+00 0.  1.
         23    2    1    2    0    0  0.55233206935E+02 -0.77727167002E+02  0.14709120908E+03  0.20786924973E+03  0.11172099873E+03 0.  0.
          5    1    3    3  502    0 -0.14247313044E+02 -0.71005980118E+02  0.99899637438E+02  0.12347818715E+03  0.47000000000E+01 0. -1.
         -5    1    3    3    0  502  0.69480519980E+02 -0.67211868841E+01  0.47191571643E+02  0.84391062583E+02  0.47000000000E+01 0.  1.
        -11    1    1    2    0    0 -0.71156592364E+01  0.60213002559E+02  0.13001384882E+02  0.62010275700E+02  0.00000000000E+00 0.  1.
         11    1    1    2    0    0 -0.48117547699E+02  0.17514164443E+02  0.66065133069E+02  0.83586160099E+02  0.00000000000E+00 0. -1.
<mgrwt>
<rscale>  0 0.14029463E+03</rscale>
<asrwt>0</asrwt>
<pdfrwt beam="1">  1        1 0.44586415E-01 0.14688023E+03</pdfrwt>
<pdfrwt beam="2">  1       -1 0.97929201E-02 0.14688023E+03</pdfrwt>
<totfact> 0.55414731E+03</totfact>
</mgrwt>
</event>
<event>
 7    1  0.8165933E-006  0.1414564E+03  0.7546771E-02  0.1222549E+00
         -2   -1    0    0    0  501 -0.00000000000E+00  0.00000000000E+00  0.12869065639E+03  0.12869065639E+03  0.00000000000E+00 0.  1.
          2   -1    0    0  501    0  0.00000000000E+00 -0.00000000000E+00 -0.18534112147E+03  0.18534112147E+03  0.00000000000E+00 0. -1.
         23    2    1    2    0    0 -0.36765637287E+01  0.66108516586E+02 -0.12006129830E+03  0.18553872195E+03  0.12500419556E+03 0.  0.
          5    1    3    3  502    0  0.28817084278E+01  0.77153288399E+02 -0.14082801225E+03  0.16067219171E+03  0.47000000000E+01 0. -1.
         -5    1    3    3    0  502 -0.65582721565E+01 -0.11044771814E+02  0.20766713947E+02  0.24866530241E+02  0.47000000000E+01 0. -1.
        -11    1    1    2    0    0  0.30429844312E+02 -0.30829273528E+02  0.71389643909E+02  0.83503896847E+02  0.00000000000E+00 0.  1.
         11    1    1    2    0    0 -0.26753280584E+02 -0.35279243057E+02 -0.79788106862E+01  0.44989159057E+02  0.00000000000E+00 0. -1.
<mgrwt>
<rscale>  0 0.13336293E+03</rscale>
<asrwt>0</asrwt>
<pdfrwt beam="2">  1        2 0.28514018E-01 0.14145636E+03</pdfrwt>
<pdfrwt beam="1">  1       -2 0.19798563E-01 0.14145636E+03</pdfrwt>
<totfact> 0.38228843E+03</totfact>
</mgrwt>
</event>
<event>
 7    1  0.8165933E-006  0.4372053E+03  0.7546771E-02  0.1032270E+00
         -2   -1    0    0    0  501 -0.00000000000E+00  0.00000000000E+00  0.16910714180E+03  0.16910714180E+03  0.00000000000E+00 0.  1.
          2   -1    0    0  501    0  0.00000000000E+00 -0.00000000000E+00 -0.11745659916E+04  0.11745659916E+04  0.00000000000E+00 0. -1.
         23    2    1    2    0    0  0.47939746718E+02  0.41620192627E+03 -0.66664044966E+03  0.79721891271E+03  0.12500497153E+03 0.  0.
          5    1    3    3  502    0  0.22664316767E+02  0.16205635426E+02 -0.14526874318E+02  0.31771275573E+02  0.47000000000E+01 0. -1.
         -5    1    3    3    0  502  0.25275429951E+02  0.39999629084E+03 -0.65211357534E+03  0.76544763713E+03  0.47000000000E+01 0. -1.
        -11    1    1    2    0    0 -0.60233979601E+02 -0.20197841533E+03 -0.13362129239E+03  0.24955572992E+03  0.00000000000E+00 0.  1.
         11    1    1    2    0    0  0.12294232883E+02 -0.21422351094E+03 -0.20519710777E+03  0.29689849080E+03  0.00000000000E+00 0. -1.
<mgrwt>
<rscale>  0 0.43507237E+03</rscale>
<asrwt>0</asrwt>
<pdfrwt beam="2">  1        2 0.18070245E+00 0.43720534E+03</pdfrwt>
<pdfrwt beam="1">  1       -2 0.26016485E-01 0.43720534E+03</pdfrwt>
<totfact> 0.27039037E+02</totfact>
</mgrwt>
</event>
<event>
 7    1  0.8165933E-006  0.1545126E+03  0.7546771E-02  0.1203290E+00
         -2   -1    0    0    0  501 -0.00000000000E+00  0.00000000000E+00  0.12104034608E+02  0.12104034608E+02  0.00000000000E+00 0.  1.
          2   -1    0    0  501    0  0.00000000000E+00 -0.00000000000E+00 -0.16699420084E+04  0.16699420084E+04  0.00000000000E+00 0. -1.
         23    2    1    2    0    0  0.85843571340E+02  0.29672112120E+02 -0.96211419539E+03  0.97444234038E+03  0.12499838714E+03 0.  0.
          5    1    3    3  502    0  0.10289958696E+03 -0.15609422240E+02 -0.58459809868E+03  0.59380889690E+03  0.47000000000E+01 0. -1.
         -5    1    3    3    0  502 -0.17056015623E+02  0.45281534360E+02 -0.37751609671E+03  0.38063344348E+03  0.47000000000E+01 0. -1.
        -11    1    1    2    0    0 -0.54165728548E+02  0.29563081006E+02 -0.31179911628E+03  0.31784680401E+03  0.00000000000E+00 0. -1.
         11    1    1    2    0    0 -0.31677842792E+02 -0.59235193126E+02 -0.38392466216E+03  0.38975689865E+03  0.00000000000E+00 0.  1.
<mgrwt>
<rscale>  0 0.14773029E+03</rscale>
<asrwt>0</asrwt>
<pdfrwt beam="2">  1        2 0.25691412E+00 0.15451262E+03</pdfrwt>
<pdfrwt beam="1">  1       -2 0.18621594E-02 0.15451262E+03</pdfrwt>
<totfact> 0.93585752E+03</totfact>
</mgrwt>
</event>
<event>
 6    1  0.8165933E-006  0.2265262E+03  0.7546771E-02  0.1168424E+00
          1   -1    0    0  501    0  0.00000000000E+00  0.00000000000E+00  0.19340724094E+03  0.19340724094E+03  0.00000000000E+00 0. -1.
         -1   -1    0    0    0  501 -0.00000000000E+00 -0.00000000000E+00 -0.13204186643E+03  0.13204186643E+03  0.00000000000E+00 0.  1.
          5    1    1    2  502    0  0.10034598937E+03 -0.42573693935E+02  0.67482664093E+02  0.12828810136E+03  0.47000000000E+01 0. -1.
         -5    1    1    2    0  502 -0.95272781019E+02  0.50535823007E+02 -0.44517766755E+00  0.10794934179E+03  0.47000000000E+01 0.  1.
        -11    1    1    2    0    0 -0.45142692546E+02  0.58569211709E+01  0.41283951534E+01  0.45707875278E+02  0.00000000000E+00 0.  1.
         11    1    1    2    0    0  0.40069484193E+02 -0.13819050243E+02 -0.98005070733E+01  0.43503788939E+02  0.00000000000E+00 0. -1.
<mgrwt>
<rscale>  0 0.17935946E+03</rscale>
<asrwt>0</asrwt>
<pdfrwt beam="1">  1        1 0.29754960E-01 0.22652617E+03</pdfrwt>
<pdfrwt beam="2">  1       -1 0.20314133E-01 0.22652617E+03</pdfrwt>
<totfact> 0.29746483E+03</totfact>
</mgrwt>
</event>
<event>
 7    1  0.8165933E-006  0.1572665E+03  0.7546771E-02  0.1199053E+00
         -1   -1    0    0    0  501 -0.00000000000E+00  0.00000000000E+00  0.88080241796E+02  0.88080241796E+02  0.00000000000E+00 0.  1.
          1   -1    0    0  501    0  0.00000000000E+00 -0.00000000000E+00 -0.36933069085E+03  0.36933069085E+03  0.00000000000E+00 0. -1.
         23    2    1    2    0    0  0.89766760715E+02  0.32381671772E+02 -0.28232908907E+03  0.32317558027E+03  0.12500438852E+03 0.  0.
          5    1    3    3  502    0 -0.11607332075E+02  0.51176505050E+02 -0.76046374102E+02  0.92514354784E+02  0.47000000000E+01 0. -1.
         -5    1    3    3    0  502  0.10137409279E+03 -0.18794833279E+02 -0.20628271497E+03  0.23066122549E+03  0.47000000000E+01 0. -1.
        -11    1    1    2    0    0 -0.48790267634E+02  0.11326012260E+02 -0.37855622236E+02  0.62783890485E+02  0.00000000000E+00 0. -1.
         11    1    1    2    0    0 -0.40976493080E+02 -0.43707684032E+02  0.38934262257E+02  0.71451461889E+02  0.00000000000E+00 0.  1.
<mgrwt>
<rscale>  0 0.15116119E+03</rscale>
<asrwt>0</asrwt>
<pdfrwt beam="2">  1        1 0.56820107E-01 0.15726647E+03</pdfrwt>
<pdfrwt beam="1">  1       -1 0.13550806E-01 0.15726647E+03</pdfrwt>
<totfact> 0.24883476E+03</totfact>
</mgrwt>
</event>
<event>
 7    1  0.8165933E-006  0.1272920E+03  0.7546771E-02  0.1290485E+00
          1   -1    0    0  501    0  0.00000000000E+00  0.00000000000E+00  0.17819092572E+03  0.17819092572E+03  0.00000000000E+00 0. -1.
         -1   -1    0    0    0  501 -0.00000000000E+00 -0.00000000000E+00 -0.39448770691E+02  0.39448770691E+02  0.00000000000E+00 0.  1.
         23    2    1    2    0    0 -0.52258874337E+00 -0.24041861978E+02  0.11170583460E+03  0.16935596228E+03  0.12499985700E+03 0.  0.
          5    1    3    3  502    0  0.50809168080E+02 -0.46918065727E+02  0.74682204699E+02  0.10189405356E+03  0.47000000000E+01 0. -1.
         -5    1    3    3    0  502 -0.51331756823E+02  0.22876203748E+02  0.37023629900E+02  0.67461908715E+02  0.47000000000E+01 0. -1.
        -11    1    1    2    0    0  0.15397715253E+02  0.58918899416E+01  0.12364375834E+02  0.20607809002E+02  0.00000000000E+00 0.  1.
         11    1    1    2    0    0 -0.14875126510E+02  0.18149972037E+02  0.14671944592E+02  0.27675925129E+02  0.00000000000E+00 0. -1.
<mgrwt>
<rscale>  0 0.95307674E+02</rscale>
<asrwt>0</asrwt>
<pdfrwt beam="1">  1        1 0.27413988E-01 0.12729198E+03</pdfrwt>
<pdfrwt beam="2">  1       -1 0.60690418E-02 0.12729198E+03</pdfrwt>
<totfact> 0.20592393E+04</totfact>
</mgrwt>
</event>
<event>
 7    1  0.8165933E-006  0.1347725E+03  0.7546771E-02  0.1228065E+00
         -3   -1    0    0    0  501 -0.00000000000E+00  0.00000000000E+00  0.32353381106E+03  0.32353381106E+03  0.00000000000E+00 0.  1.
          3   -1    0    0  501    0  0.00000000000E+00 -0.00000000000E+00 -0.53787340974E+02  0.53787340974E+02  0.00000000000E+00 0. -1.
         23    2    1    2    0    0 -0.13474780647E+02 -0.48562455740E+02  0.84187431643E+02  0.15890611668E+03  0.12499499371E+03 0.  0.
          5    1    3    3  502    0  0.29030266069E+02 -0.76997941891E+02  0.61100704236E+02  0.10260031901E+03  0.47000000000E+01 0.  1.
         -5    1    3    3    0  502 -0.42505046716E+02  0.28435486151E+02  0.23086727407E+02  0.56305797670E+02  0.47000000000E+01 0.  1.
        -11    1    1    2    0    0  0.23513644043E+02 -0.37637218122E+01 -0.15543993471E+01  0.23863637933E+02  0.00000000000E+00 0. -1.
         11    1    1    2    0    0 -0.10038863396E+02  0.52326177553E+02  0.18711343779E+03  0.19455139742E+03  0.00000000000E+00 0.  1.
<mgrwt>
<rscale>  0 0.12959016E+03</rscale>
<asrwt>0</asrwt>
<pdfrwt beam="2">  1        3 0.82749757E-02 0.13477251E+03</pdfrwt>
<pdfrwt beam="1">  1       -3 0.49774432E-01 0.13477251E+03</pdfrwt>
<totfact> 0.93788994E+02</totfact>
</mgrwt>
</event>
<event>
 6    1  0.8165933E-006  0.1479244E+03  0.7546771E-02  0.1221429E+00
         -1   -1    0    0    0  501 -0.00000000000E+00  0.00000000000E+00  0.10802740775E+02  0.10802740775E+02  0.00000000000E+00 0.  1.
          1   -1    0    0  501    0  0.00000000000E+00 -0.00000000000E+00 -0.14276083319E+04  0.14276083319E+04  0.00000000000E+00 0. -1.
          5    1    1    2  502    0  0.29686282518E+02  0.47699495979E+02 -0.49678230601E+03  0.49997126603E+03  0.47000000000E+01 0. -1.
         -5    1    1    2    0  502 -0.67604398423E+02 -0.50446141638E+02 -0.38796010591E+03  0.39705201381E+03  0.47000000000E+01 0.  1.
        -11    1    1    2    0    0 -0.89876621189E+01  0.39466324691E+02 -0.21375245837E+03  0.21755110277E+03  0.00000000000E+00 0.  1.
         11    1    1    2    0    0  0.46905778023E+02 -0.36719679032E+02 -0.31831072082E+03  0.32383669006E+03  0.00000000000E+00 0. -1.
<mgrwt>
<rscale>  0 0.13414717E+03</rscale>
<asrwt>0</asrwt>
<pdfrwt beam="2">  1        1 0.21963188E+00 0.14792440E+03</pdfrwt>
<pdfrwt beam="1">  1       -1 0.16619614E-02 0.14792440E+03</pdfrwt>
<totfact> 0.70488864E+03</totfact>
</mgrwt>
</event>
<event>
 7    1  0.8165933E-006  0.1400649E+03  0.7546771E-02  0.1222223E+00
          1   -1    0    0  501    0  0.00000000000E+00  0.00000000000E+00  0.59361866713E+03  0.59361866713E+03  0.00000000000E+00 0. -1.
         -1   -1    0    0    0  501 -0.00000000000E+00 -0.00000000000E+00 -0.27827092534E+02  0.27827092534E+02  0.00000000000E+00 0.  1.
         23    2    1    2    0    0  0.73955385745E+01 -0.62765485266E+02  0.33764212689E+03  0.36554121049E+03  0.12499588227E+03 0.  0.
          5    1    3    3  502    0  0.21026619818E+02  0.32735929973E+02  0.14271593357E+03  0.14799894441E+03  0.47000000000E+01 0.  1.
         -5    1    3    3    0  502 -0.13631081243E+02 -0.95501415239E+02  0.19492619332E+03  0.21754226608E+03  0.47000000000E+01 0.  1.
        -11    1    1    2    0    0  0.19051191496E+02  0.63098633629E+02  0.72333184686E+02  0.97859465920E+02  0.00000000000E+00 0.  1.
         11    1    1    2    0    0 -0.26446730071E+02 -0.33314836295E+00  0.15581626302E+03  0.15804508325E+03  0.00000000000E+00 0. -1.
<mgrwt>
<rscale>  0 0.13359079E+03</rscale>
<asrwt>0</asrwt>
<pdfrwt beam="1">  1        1 0.91325939E-01 0.14006488E+03</pdfrwt>
<pdfrwt beam="2">  1       -1 0.42810916E-02 0.14006488E+03</pdfrwt>
<totfact> 0.76260000E+03</totfact>
</mgrwt>
</event>
<event>
 7    1  0.8165933E-006  0.1616092E+03  0.7546771E-02  0.1195770E+00
          2   -1    0    0  501    0  0.00000000000E+00  0.00000000000E+00  0.15455410397E+03  0.15455410397E+03  0.00000000000E+00 0. -1.
         -2   -1    0    0    0  501 -0.00000000000E+00 -0.00000000000E+00 -0.15133440744E+03  0.15133440744E+03  0.00000000000E+00 0.  1.
         23    2    1    2    0    0  0.59741305884E+02 -0.83215249566E+02  0.42903846226E+02  0.16720728009E+03  0.12499493231E+03 0.  0.
          5    1    3    3  502    0  0.35397952691E+02 -0.98456323125E+02  0.71179367115E+02  0.12663038704E+03  0.47000000000E+01 0.  1.
         -5    1    3    3    0  502  0.24343353193E+02  0.15241073560E+02 -0.28275520890E+02  0.40576893049E+02  0.47000000000E+01 0.  1.
        -11    1    1    2    0    0 -0.74194574641E+02  0.37405978284E+02 -0.35845695358E+02  0.90492850509E+02  0.00000000000E+00 0.  1.
         11    1    1    2    0    0  0.14453268757E+02  0.45809271281E+02 -0.38384543373E+01  0.48188380807E+02  0.00000000000E+00 0. -1.
<mgrwt>
<rscale>  0 0.15389205E+03</rscale>
<asrwt>0</asrwt>
<pdfrwt beam="1">  1        2 0.23777555E-01 0.16160920E+03</pdfrwt>
<pdfrwt beam="2">  1       -2 0.23282216E-01 0.16160920E+03</pdfrwt>
<totfact> 0.35632489E+03</totfact>
</mgrwt>
</event>
<event>
 7    1  0.8165933E-006  0.1345472E+03  0.7546771E-02  0.1233371E+00
         -1   -1    0    0    0  501 -0.00000000000E+00  0.00000000000E+00  0.12078537064E+03  0.12078537064E+03  0.00000000000E+00 0.  1.
          1   -1    0    0  501    0  0.00000000000E+00 -0.00000000000E+00 -0.11759965885E+03  0.11759965885E+03  0.00000000000E+00 0. -1.
         23    2    1    2    0    0  0.48714362436E+02  0.10272287831E+02 -0.11670752588E+00  0.13454725915E+03  0.12499736925E+03 0.  0.
          5    1    3    3  502    0  0.88664747033E+01  0.64389556403E+02 -0.11643763040E+02  0.66198916646E+02  0.47000000000E+01 0.  1.
         -5    1    3    3    0  502  0.39847887733E+02 -0.54117268572E+02  0.11527055514E+02  0.68348342506E+02  0.47000000000E+01 0.  1.
        -11    1    1    2    0    0 -0.11855689916E+02 -0.44096499553E+01  0.45662141187E+02  0.47381784832E+02  0.00000000000E+00 0.  1.
         11    1    1    2    0    0 -0.36858672520E+02 -0.58626378757E+01 -0.42359721870E+02  0.56455985508E+02  0.00000000000E+00 0. -1.
<mgrwt>
<rscale>  0 0.12609269E+03</rscale>
<asrwt>0</asrwt>
<pdfrwt beam="2">  1        1 0.18092255E-01 0.13454721E+03</pdfrwt>
<pdfrwt beam="1">  1       -1 0.18582365E-01 0.13454721E+03</pdfrwt>
<totfact> 0.62837778E+03</totfact>
</mgrwt>
</event>
<event>
 7    1  0.8165933E-006  0.1565585E+03  0.7546771E-02  0.1201693E+00
          1   -1    0    0  501    0  0.00000000000E+00  0.00000000000E+00  0.17153368280E+04  0.17153368280E+04  0.00000000000E+00 0. -1.
         -1   -1    0    0    0  501 -0.00000000000E+00 -0.00000000000E+00 -0.12951728436E+02  0.12951728436E+02  0.00000000000E+00 0.  1.
         23    2    1    2    0    0  0.35392659628E+02 -0.87374810167E+02  0.11797270740E+04  0.11900699684E+04  0.12499425117E+03 0.  0.
          5    1    3    3  502    0 -0.25227363165E+02 -0.15292600221E+02  0.72761452674E+03  0.72822748712E+03  0.47000000000E+01 0. -1.
         -5    1    3    3    0  502  0.60620022793E+02 -0.72082209946E+02  0.45211254724E+03  0.46184248129E+03  0.47000000000E+01 0. -1.
        -11    1    1    2    0    0  0.26977321522E+02  0.29709076326E+02  0.11488088890E+03  0.12168822345E+03  0.00000000000E+00 0.  1.
         11    1    1    2    0    0 -0.62369981150E+02  0.57665733841E+02  0.40777713668E+03  0.41653036456E+03  0.00000000000E+00 0. -1.
<mgrwt>
<rscale>  0 0.14901114E+03</rscale>
<asrwt>0</asrwt>
<pdfrwt beam="1">  1        1 0.26389779E+00 0.15655849E+03</pdfrwt>
<pdfrwt beam="2">  1       -1 0.19925750E-02 0.15655849E+03</pdfrwt>
<totfact> 0.35383614E+03</totfact>
</mgrwt>
</event>
<event>
 7    1  0.8165933E-006  0.1561870E+03  0.7546771E-02  0.1200737E+00
          2   -1    0    0  501    0  0.00000000000E+00  0.00000000000E+00  0.85447949029E+03  0.85447949029E+03  0.00000000000E+00 0. -1.
         -2   -1    0    0    0  501 -0.00000000000E+00 -0.00000000000E+00 -0.38270278567E+02  0.38270278567E+02  0.00000000000E+00 0.  1.
         23    2    1    2    0    0  0.69270062399E+02  0.63015613750E+02  0.69868068884E+03  0.71592533758E+03  0.12500029965E+03 0.  0.
          5    1    3    3  502    0 -0.98450298244E+01 -0.24331351990E+02  0.50562510077E+02  0.57162896420E+02  0.47000000000E+01 0. -1.
         -5    1    3    3    0  502  0.79115092224E+02  0.87346965740E+02  0.64811817877E+03  0.65876244116E+03  0.47000000000E+01 0. -1.
        -11    1    1    2    0    0 -0.75382395685E+02 -0.29184629048E+02  0.36282134646E+02  0.88603845550E+02  0.00000000000E+00 0.  1.
         11    1    1    2    0    0  0.61123332858E+01 -0.33830984702E+02  0.81246388238E+02  0.88220585726E+02  0.00000000000E+00 0. -1.
<mgrwt>
<rscale>  0 0.14978569E+03</rscale>
<asrwt>0</asrwt>
<pdfrwt beam="1">  1        2 0.13145837E+00 0.15618702E+03</pdfrwt>
<pdfrwt beam="2">  1       -2 0.58877358E-02 0.15618702E+03</pdfrwt>
<totfact> 0.48568439E+03</totfact>
</mgrwt>
</event>
<event>
 7    1  0.8165933E-006  0.1255296E+03  0.7546771E-02  0.1249942E+00
          2   -1    0    0  501    0  0.00000000000E+00  0.00000000000E+00  0.92303090942E+02  0.92303090942E+02  0.00000000000E+00 0. -1.
         -2   -1    0    0    0  501 -0.00000000000E+00 -0.00000000000E+00 -0.15634701273E+03  0.15634701273E+03  0.00000000000E+00 0.  1.
         23    2    1    2    0    0 -0.32706218930E+01  0.11027726031E+02  0.16810224455E+02  0.12665018423E+03  0.12500151123E+03 0.  0.
          5    1    3    3  502    0 -0.57234561289E+02 -0.21472671633E+02  0.11273763577E+00  0.61310466828E+02  0.47000000000E+01 0. -1.
         -5    1    3    3    0  502  0.53963939396E+02  0.32500397664E+02  0.16697486820E+02  0.65339717397E+02  0.47000000000E+01 0. -1.
        -11    1    1    2    0    0  0.10524862030E+02 -0.50022395866E+02 -0.52262140279E+02  0.73105021137E+02  0.00000000000E+00 0.  1.
         11    1    1    2    0    0 -0.72542401373E+01  0.38994669835E+02 -0.28592005961E+02  0.48894898306E+02  0.00000000000E+00 0. -1.
<mgrwt>
<rscale>  0 0.11594400E+03</rscale>
<asrwt>0</asrwt>
<pdfrwt beam="1">  1        2 0.14200476E-01 0.12552962E+03</pdfrwt>
<pdfrwt beam="2">  1       -2 0.24053386E-01 0.12552962E+03</pdfrwt>
<totfact> 0.59791292E+03</totfact>
</mgrwt>
</event>
<event>
 7    1  0.8165933E-006  0.1977020E+03  0.7546771E-02  0.1156022E+00
          2   -1    0    0  501    0  0.00000000000E+00  0.00000000000E+00  0.67153940278E+02  0.67153940278E+02  0.00000000000E+00 0. -1.
         -2   -1    0    0    0  501 -0.00000000000E+00 -0.00000000000E+00 -0.52787795802E+03  0.52787795802E+03  0.00000000000E+00 0.  1.
         23    2    1    2    0    0  0.12754122968E+03 -0.84819395666E+02 -0.23013961473E+03  0.30339796323E+03  0.12499994670E+03 0.  0.
          5    1    3    3  502    0  0.11229136674E+03 -0.23229900264E+01 -0.14842751720E+03  0.18619228016E+03  0.47000000000E+01 0.  1.
         -5    1    3    3    0  502  0.15249862943E+02 -0.82496405640E+02 -0.81712097522E+02  0.11720568307E+03  0.47000000000E+01 0.  1.
        -11    1    1    2    0    0 -0.32730385560E+02  0.48928674693E+02 -0.15312907984E+03  0.16405428503E+03  0.00000000000E+00 0.  1.
         11    1    1    2    0    0 -0.94810844119E+02  0.35890720974E+02 -0.77455323176E+02  0.12757965003E+03  0.00000000000E+00 0. -1.
<mgrwt>
<rscale>  0 0.19273035E+03</rscale>
<asrwt>0</asrwt>
<pdfrwt beam="1">  1        2 0.10331376E-01 0.19770200E+03</pdfrwt>
<pdfrwt beam="2">  1       -2 0.81211993E-01 0.19770200E+03</pdfrwt>
<totfact> 0.83989983E+02</totfact>
</mgrwt>
</event>
<event>
 7    1  0.8165933E-006  0.2209154E+03  0.7546771E-02  0.1136617E+00
         -2   -1    0    0    0  501 -0.00000000000E+00  0.00000000000E+00  0.16379295936E+03  0.16379295936E+03  0.00000000000E+00 0.  1.
          2   -1    0    0  501    0  0.00000000000E+00 -0.00000000000E+00 -0.28534920302E+03  0.28534920302E+03  0.00000000000E+00 0. -1.
         23    2    1    2    0    0 -0.17867114236E+03  0.35418581945E+02 -0.10661674327E+03  0.24529724030E+03  0.12500301233E+03 0.  0.
          5    1    3    3  502    0 -0.77265327532E+01 -0.34249644538E+02 -0.25293503047E+02  0.43526873949E+02  0.47000000000E+01 0.  1.
         -5    1    3    3    0  502 -0.17094460961E+03  0.69668226483E+02 -0.81323240226E+02  0.20177036635E+03  0.47000000000E+01 0.  1.
        -11    1    1    2    0    0  0.24990544879E+02 -0.40191910200E+02  0.91801440830E+01  0.48209874759E+02  0.00000000000E+00 0.  1.
         11    1    1    2    0    0  0.15368059748E+03  0.47733282543E+01 -0.24119644471E+02  0.15563504732E+03  0.00000000000E+00 0. -1.
<mgrwt>
<rscale>  0 0.21637250E+03</rscale>
<asrwt>0</asrwt>
<pdfrwt beam="2">  1        2 0.43899877E-01 0.22091538E+03</pdfrwt>
<pdfrwt beam="1">  1       -2 0.25198917E-01 0.22091538E+03</pdfrwt>
<totfact> 0.16086878E+03</totfact>
</mgrwt>
</event>
<event>
 7    1  0.8165933E-006  0.1479203E+03  0.7546771E-02  0.1209918E+00
         -1   -1    0    0    0  501 -0.00000000000E+00  0.00000000000E+00  0.10474710597E+03  0.10474710597E+03  0.00000000000E+00 0.  1.
          1   -1    0    0  501    0  0.00000000000E+00 -0.00000000000E+00 -0.19270343944E+03  0.19270343944E+03  0.00000000000E+00 0. -1.
         23    2    1    2    0    0 -0.31289061146E+02 -0.72636261088E+02 -0.83228655044E+02  0.16972747489E+03  0.12500149975E+03 0.  0.
          5    1    3    3  502    0 -0.12054899107E+02 -0.53924589047E+02  0.23018928025E+02  0.60042842569E+02  0.47000000000E+01 0.  1.
         -5    1    3    3    0  502 -0.19234162039E+02 -0.18711672041E+02 -0.10624758307E+03  0.10968463232E+03  0.47000000000E+01 0.  1.
        -11    1    1    2    0    0  0.20838585959E+02  0.84361368838E+02  0.28103367070E+02  0.91328453713E+02  0.00000000000E+00 0.  1.
         11    1    1    2    0    0  0.10450475187E+02 -0.11725107750E+02 -0.32831045496E+02  0.36394616796E+02  0.00000000000E+00 0. -1.
<mgrwt>
<rscale>  0 0.14256525E+03</rscale>
<asrwt>0</asrwt>
<pdfrwt beam="2">  1        1 0.29646683E-01 0.14792027E+03</pdfrwt>
<pdfrwt beam="1">  1       -1 0.16114940E-01 0.14792027E+03</pdfrwt>
<totfact> 0.42479202E+03</totfact>
</mgrwt>
</event>
<event>
 7    1  0.8165933E-006  0.1373920E+03  0.7546771E-02  0.1229793E+00
          1   -1    0    0  501    0  0.00000000000E+00  0.00000000000E+00  0.65543474667E+02  0.65543474667E+02  0.00000000000E+00 0. -1.
         -1   -1    0    0    0  501 -0.00000000000E+00 -0.00000000000E+00 -0.30668508346E+03  0.30668508346E+03  0.00000000000E+00 0.  1.
         23    2    1    2    0    0 -0.54738699295E+02  0.16170886812E+02 -0.36345791937E+02  0.14211821674E+03  0.12497499013E+03 0.  0.
          5    1    3    3  502    0  0.66976461596E+01 -0.30253962382E+02 -0.54494790600E+02  0.62864400947E+02  0.47000000000E+01 0.  1.
         -5    1    3    3    0  502 -0.61436345455E+02  0.46424849195E+02  0.18148998663E+02  0.79253815795E+02  0.47000000000E+01 0.  1.
        -11    1    1    2    0    0  0.54019423486E+02  0.12345625297E+02 -0.56655883439E+02  0.79248985520E+02  0.00000000000E+00 0. -1.
         11    1    1    2    0    0  0.71927580955E+00 -0.28516512109E+02 -0.14813993342E+03  0.15086135587E+03  0.00000000000E+00 0.  1.
<mgrwt>
<rscale>  0 0.12843750E+03</rscale>
<asrwt>0</asrwt>
<pdfrwt beam="1">  1        1 0.10083611E-01 0.13739203E+03</pdfrwt>
<pdfrwt beam="2">  1       -1 0.47182321E-01 0.13739203E+03</pdfrwt>
<totfact> 0.28040650E+03</totfact>
</mgrwt>
</event>
<event>
 7    1  0.8165933E-006  0.1697609E+03  0.7546771E-02  0.1184428E+00
         -1   -1    0    0    0  501 -0.00000000000E+00  0.00000000000E+00  0.57359091482E+03  0.57359091482E+03  0.00000000000E+00 0.  1.
          1   -1    0    0  501    0  0.00000000000E+00 -0.00000000000E+00 -0.47732286926E+02  0.47732286926E+02  0.00000000000E+00 0. -1.
         23    2    1    2    0    0 -0.49181206310E+02 -0.10380121837E+03  0.19121162847E+03  0.25569642134E+03  0.12500115615E+03 0.  0.
          5    1    3    3  502    0 -0.19187105497E+02 -0.83645357430E+02  0.30958548432E+02  0.91352134939E+02  0.47000000000E+01 0. -1.
         -5    1    3    3    0  502 -0.29994100813E+02 -0.20155860938E+02  0.16025308003E+03  0.16434428640E+03  0.47000000000E+01 0. -1.
        -11    1    1    2    0    0  0.43556441322E+02  0.53967987818E+02  0.79065321409E+02  0.10517144260E+03  0.00000000000E+00 0. -1.
         11    1    1    2    0    0  0.56247649872E+01  0.49833230550E+02  0.25558167802E+03  0.26045533780E+03  0.00000000000E+00 0.  1.
<mgrwt>
<rscale>  0 0.16384062E+03</rscale>
<asrwt>0</asrwt>
<pdfrwt beam="2">  1        1 0.73434292E-02 0.16976093E+03</pdfrwt>
<pdfrwt beam="1">  1       -1 0.88244751E-01 0.16976093E+03</pdfrwt>
<totfact> 0.12791889E+03</totfact>
</mgrwt>
</event>
<event>
 7    1  0.8165933E-006  0.1617485E+03  0.7546771E-02  0.1193968E+00
          1   -1    0    0  501    0  0.00000000000E+00  0.00000000000E+00  0.17562136249E+04  0.17562136249E+04  0.00000000000E+00 0. -1.
         -1   -1    0    0    0  501 -0.00000000000E+00 -0.00000000000E+00 -0.20441452430E+02  0.20441452430E+02  0.00000000000E+00 0.  1.
         23    2    1    2    0    0 -0.61594367525E+02  0.82121944547E+02  0.14538857301E+04  0.14628555298E+04  0.12499882038E+03 0.  0.
          5    1    3    3  502    0 -0.34172729223E+02  0.11637996769E+02  0.11152993834E+04  0.11158933743E+04  0.47000000000E+01 0.  1.
         -5    1    3    3    0  502 -0.27421638302E+02  0.70483947778E+02  0.33858634670E+03  0.34696215545E+03  0.47000000000E+01 0.  1.
        -11    1    1    2    0    0  0.24827465585E+02  0.15053532730E+02  0.32191468843E+02  0.43350923419E+02  0.00000000000E+00 0.  1.
         11    1    1    2    0    0  0.36766901940E+02 -0.97175477276E+02  0.24969497359E+03  0.27044862413E+03  0.00000000000E+00 0. -1.
<mgrwt>
<rscale>  0 0.15541880E+03</rscale>
<asrwt>0</asrwt>
<pdfrwt beam="1">  1        1 0.27018659E+00 0.16174852E+03</pdfrwt>
<pdfrwt beam="2">  1       -1 0.31448402E-02 0.16174852E+03</pdfrwt>
<totfact> 0.17146836E+03</totfact>
</mgrwt>
</event>
<event>
 7    1  0.8165933E-006  0.1253462E+03  0.7546771E-02  0.1249135E+00
         -1   -1    0    0    0  501 -0.00000000000E+00  0.00000000000E+00  0.12565687204E+03  0.12565687204E+03  0.00000000000E+00 0.  1.
          1   -1    0    0  501    0  0.00000000000E+00 -0.00000000000E+00 -0.95317471588E+02  0.95317471588E+02  0.00000000000E+00 0. -1.
         23    2    1    2    0    0  0.28139438066E+01  0.87835277326E+01  0.22932413497E+02  0.12742670755E+03  0.12500640611E+03 0.  0.
          5    1    3    3  502    0  0.21793405928E+02  0.54171170567E+02  0.44440640385E+02  0.73529101588E+02  0.47000000000E+01 0.  1.
         -5    1    3    3    0  502 -0.18979462122E+02 -0.45387642834E+02 -0.21508226888E+02  0.53897605961E+02  0.47000000000E+01 0.  1.
        -11    1    1    2    0    0 -0.40144869620E+02  0.15163549179E+02  0.20140332321E+02  0.47404396067E+02  0.00000000000E+00 0.  1.
         11    1    1    2    0    0  0.37330925813E+02 -0.23947076911E+02 -0.12733345366E+02  0.46143240013E+02  0.00000000000E+00 0. -1.
<mgrwt>
<rscale>  0 0.11641265E+03</rscale>
<asrwt>0</asrwt>
<pdfrwt beam="2">  1        1 0.14664226E-01 0.12534620E+03</pdfrwt>
<pdfrwt beam="1">  1       -1 0.19331826E-01 0.12534620E+03</pdfrwt>
<totfact> 0.76891408E+03</totfact>
</mgrwt>
</event>
<event>
 7    1  0.8165933E-006  0.1281753E+03  0.7546771E-02  0.1244220E+00
         -1   -1    0    0    0  501 -0.00000000000E+00  0.00000000000E+00  0.10522951520E+03  0.10522951520E+03  0.00000000000E+00 0.  1.
          1   -1    0    0  501    0  0.00000000000E+00 -0.00000000000E+00 -0.13694353365E+03  0.13694353365E+03  0.00000000000E+00 0. -1.
         23    2    1    2    0    0 -0.13197739598E+01  0.28364235898E+02 -0.60444336334E+02  0.14171245861E+03  0.12499052543E+03 0.  0.
          5    1    3    3  502    0  0.77733788292E+01  0.72953716102E+01  0.38401076050E+02  0.40129546561E+02  0.47000000000E+01 0. -1.
         -5    1    3    3    0  502 -0.90931527889E+01  0.21068864288E+02 -0.98845412384E+02  0.10158291204E+03  0.47000000000E+01 0. -1.
        -11    1    1    2    0    0 -0.19718318390E+02  0.63750487861E+01 -0.25404580929E+02  0.32784844965E+02  0.00000000000E+00 0. -1.
         11    1    1    2    0    0  0.21038092350E+02 -0.34739284684E+02  0.54134898816E+02  0.67675745286E+02  0.00000000000E+00 0.  1.
<mgrwt>
<rscale>  0 0.11932186E+03</rscale>
<asrwt>0</asrwt>
<pdfrwt beam="2">  1        1 0.21068236E-01 0.12817528E+03</pdfrwt>
<pdfrwt beam="1">  1       -1 0.16189156E-01 0.12817528E+03</pdfrwt>
<totfact> 0.64190155E+03</totfact>
</mgrwt>
</event>
<event>
 7    1  0.8165933E-006  0.1328709E+03  0.7546771E-02  0.1235257E+00
          1   -1    0    0  501    0  0.00000000000E+00  0.00000000000E+00  0.39894698813E+02  0.39894698813E+02  0.00000000000E+00 0. -1.
         -1   -1    0    0    0  501 -0.00000000000E+00 -0.00000000000E+00 -0.35192084873E+03  0.35192084873E+03  0.00000000000E+00 0.  1.
         23    2    1    2    0    0 -0.25867387233E+02 -0.36846347109E+02 -0.16347128099E+03  0.21065975508E+03  0.12501159020E+03 0.  0.
          5    1    3    3  502    0 -0.42018153710E+02 -0.65845231133E+02 -0.51255226507E+02  0.93543080709E+02  0.47000000000E+01 0. -1.
         -5    1    3    3    0  502  0.16150766478E+02  0.28998884024E+02 -0.11221605448E+03  0.11711667437E+03  0.47000000000E+01 0. -1.
        -11    1    1    2    0    0 -0.33062615159E+00  0.39344711605E+02 -0.14972930632E+03  0.15481272822E+03  0.00000000000E+00 0.  1.
         11    1    1    2    0    0  0.26198013384E+02 -0.24983644953E+01  0.11744374017E+01  0.26343064242E+02  0.00000000000E+00 0. -1.
<mgrwt>
<rscale>  0 0.12487996E+03</rscale>
<asrwt>0</asrwt>
<pdfrwt beam="1">  1        1 0.61376463E-02 0.13287089E+03</pdfrwt>
<pdfrwt beam="2">  1       -1 0.54141666E-01 0.13287089E+03</pdfrwt>
<totfact> 0.42355618E+03</totfact>
</mgrwt>
</event>
<event>
 7    1  0.8165933E-006  0.1564421E+03  0.7546771E-02  0.1200052E+00
         -2   -1    0    0    0  501 -0.00000000000E+00  0.00000000000E+00  0.29983543414E+03  0.29983543414E+03  0.00000000000E+00 0.  1.
          2   -1    0    0  501    0  0.00000000000E+00 -0.00000000000E+00 -0.71962683876E+02  0.71962683876E+02  0.00000000000E+00 0. -1.
         23    2    1    2    0    0 -0.93436382311E+02  0.10894325196E+02  0.15285006792E+03  0.21871730438E+03  0.12500028844E+03 0.  0.
          5    1    3    3  502    0 -0.23793422406E+02  0.24531321193E+01  0.14606003016E+03  0.14808027289E+03  0.47000000000E+01 0.  1.
         -5    1    3    3    0  502 -0.69642959905E+02  0.84411930770E+01  0.67900377518E+01  0.70637031489E+02  0.47000000000E+01 0.  1.
        -11    1    1    2    0    0  0.23770299000E+02  0.57941129576E+01  0.77632151121E+02  0.81396251432E+02  0.00000000000E+00 0.  1.
         11    1    1    2    0    0  0.69666083311E+02 -0.16688438154E+02 -0.26094687694E+01  0.71684562210E+02  0.00000000000E+00 0. -1.
<mgrwt>
<rscale>  0 0.15034324E+03</rscale>
<asrwt>0</asrwt>
<pdfrwt beam="2">  1        2 0.11071182E-01 0.15644205E+03</pdfrwt>
<pdfrwt beam="1">  1       -2 0.46128528E-01 0.15644205E+03</pdfrwt>
<totfact> 0.24720452E+03</totfact>
</mgrwt>
</event>
<event>
 7    1  0.8165933E-006  0.1369012E+03  0.7546771E-02  0.1229815E+00
          2   -1    0    0  501    0  0.00000000000E+00  0.00000000000E+00  0.29929475734E+03  0.29929475734E+03  0.00000000000E+00 0. -1.
         -2   -1    0    0    0  501 -0.00000000000E+00 -0.00000000000E+00 -0.53097899518E+02  0.53097899518E+02  0.00000000000E+00 0.  1.
         23    2    1    2    0    0 -0.55762871051E+02 -0.28570602874E+01  0.18447693134E+03  0.22972521930E+03  0.12499711038E+03 0.  0.
          5    1    3    3  502    0 -0.75473380606E+02  0.31148916701E+02  0.66891463279E+02  0.10565530773E+03  0.47000000000E+01 0. -1.
         -5    1    3    3    0  502  0.19710509554E+02 -0.34005976988E+02  0.11758546806E+03  0.12406991157E+03  0.47000000000E+01 0. -1.
        -11    1    1    2    0    0 -0.15106325890E+02 -0.24285741997E+02  0.80309943749E+01  0.29706821050E+02  0.00000000000E+00 0.  1.
         11    1    1    2    0    0  0.70869196941E+02  0.27142802285E+02  0.53688932107E+02  0.92960616509E+02  0.00000000000E+00 0. -1.
<mgrwt>
<rscale>  0 0.12842256E+03</rscale>
<asrwt>0</asrwt>
<pdfrwt beam="1">  1        2 0.46045346E-01 0.13690120E+03</pdfrwt>
<pdfrwt beam="2">  1       -2 0.81689078E-02 0.13690120E+03</pdfrwt>
<totfact> 0.95044981E+03</totfact>
</mgrwt>
</event>
<event>
 7    1  0.8165933E-006  0.1808499E+03  0.7546771E-02  0.1173202E+00
          1   -1    0    0  501    0  0.00000000000E+00  0.00000000000E+00  0.98339132988E+02  0.98339132988E+02  0.00000000000E+00 0. -1.
         -1   -1    0    0    0  501 -0.00000000000E+00 -0.00000000000E+00 -0.29187862836E+03  0.29187862836E+03  0.00000000000E+00 0.  1.
         23    2    1    2    0    0  0.12476003868E+03 -0.38974375986E+02 -0.87808370206E+02  0.20103978051E+03  0.12499045657E+03 0.  0.
          5    1    3    3  502    0  0.95555212029E+02 -0.78290159296E+02 -0.34176810607E+02  0.12825869160E+03  0.47000000000E+01 0.  1.
         -5    1    3    3    0  502  0.29204826655E+02  0.39315783309E+02 -0.53631559599E+02  0.72781088905E+02  0.47000000000E+01 0.  1.
        -11    1    1    2    0    0 -0.39104200641E+02  0.55259353889E+02 -0.31487431400E+02  0.74660518590E+02  0.00000000000E+00 0. -1.
         11    1    1    2    0    0 -0.85655838043E+02 -0.16284977903E+02 -0.74243693768E+02  0.11451746225E+03  0.00000000000E+00 0.  1.
<mgrwt>
<rscale>  0 0.17453236E+03</rscale>
<asrwt>0</asrwt>
<pdfrwt beam="1">  1        1 0.15129098E-01 0.18084989E+03</pdfrwt>
<pdfrwt beam="2">  1       -1 0.44904403E-01 0.18084989E+03</pdfrwt>
<totfact> 0.18187078E+03</totfact>
</mgrwt>
</event>
<event>
 7    1  0.8165933E-006  0.1273052E+03  0.7546771E-02  0.1247313E+00
          2   -1    0    0  501    0  0.00000000000E+00  0.00000000000E+00  0.45167217383E+03  0.45167217383E+03  0.00000000000E+00 0. -1.
         -2   -1    0    0    0  501 -0.00000000000E+00 -0.00000000000E+00 -0.30659994004E+02  0.30659994004E+02  0.00000000000E+00 0.  1.
         23    2    1    2    0    0 -0.13166275112E+02 -0.20185808243E+02  0.32541831381E+03  0.34943339139E+03  0.12500319354E+03 0.  0.
          5    1    3    3  502    0  0.44002949760E+02 -0.35977047024E+02  0.89487654862E+02  0.10611662392E+03  0.47000000000E+01 0.  1.
         -5    1    3    3    0  502 -0.57169224872E+02  0.15791238781E+02  0.23593065895E+03  0.24331676746E+03  0.47000000000E+01 0.  1.
        -11    1    1    2    0    0 -0.38370317273E+02  0.10977678879E+02  0.43780468586E+02  0.59241202814E+02  0.00000000000E+00 0.  1.
         11    1    1    2    0    0  0.51536592385E+02  0.92081293635E+01  0.51813397426E+02  0.73657573635E+02  0.00000000000E+00 0. -1.
<mgrwt>
<rscale>  0 0.11748013E+03</rscale>
<asrwt>0</asrwt>
<pdfrwt beam="1">  1        2 0.69488022E-01 0.12730521E+03</pdfrwt>
<pdfrwt beam="2">  1       -2 0.47169225E-02 0.12730521E+03</pdfrwt>
<totfact> 0.14042183E+04</totfact>
</mgrwt>
</event>
<event>
 7    1  0.8165933E-006  0.1454286E+03  0.7546771E-02  0.1217677E+00
          2   -1    0    0  501    0  0.00000000000E+00  0.00000000000E+00  0.25542322316E+03  0.25542322316E+03  0.00000000000E+00 0. -1.
         -2   -1    0    0    0  501 -0.00000000000E+00 -0.00000000000E+00 -0.88091245455E+02  0.88091245455E+02  0.00000000000E+00 0.  1.
         23    2    1    2    0    0  0.74329716004E+02 -0.44679075303E+00  0.17711618943E+03  0.22917163104E+03  0.12499754243E+03 0.  0.
          5    1    3    3  502    0 -0.33555574807E+01 -0.16816916784E+01 -0.18066246582E+02  0.19041195301E+02  0.47000000000E+01 0. -1.
         -5    1    3    3    0  502  0.77685273485E+02  0.12349009254E+01  0.19518243602E+03  0.21013043574E+03  0.47000000000E+01 0. -1.
        -11    1    1    2    0    0  0.53023118662E+01  0.28477356300E+02 -0.73574871546E+01  0.29886568056E+02  0.00000000000E+00 0.  1.
         11    1    1    2    0    0 -0.79632027870E+02 -0.28030565547E+02 -0.24267245781E+01  0.84456269511E+02  0.00000000000E+00 0. -1.
<mgrwt>
<rscale>  0 0.13681722E+03</rscale>
<asrwt>0</asrwt>
<pdfrwt beam="1">  1        2 0.39295880E-01 0.14542865E+03</pdfrwt>
<pdfrwt beam="2">  1       -2 0.13552499E-01 0.14542865E+03</pdfrwt>
<totfact> 0.50727005E+03</totfact>
</mgrwt>
</event>
<event>
 6    1  0.8165933E-006  0.2497852E+03  0.7546771E-02  0.1149584E+00
          1   -1    0    0  501    0  0.00000000000E+00  0.00000000000E+00  0.16067139479E+03  0.16067139479E+03  0.00000000000E+00 0. -1.
         -1   -1    0    0    0  501 -0.00000000000E+00 -0.00000000000E+00 -0.39975795863E+03  0.39975795863E+03  0.00000000000E+00 0.  1.
          5    1    1    2  502    0  0.16157352850E+01  0.86861418613E+02 -0.80364100914E+02  0.11843983857E+03  0.47000000000E+01 0.  1.
         -5    1    1    2    0  502 -0.98720582502E+01 -0.41038591334E+02  0.12929674904E+03  0.13609321373E+03  0.47000000000E+01 0. -1.
        -11    1    1    2    0    0  0.50174546669E+02 -0.25693421090E+02 -0.14904506296E+03  0.15934888708E+03  0.00000000000E+00 0. -1.
         11    1    1    2    0    0 -0.41918223703E+02 -0.20129406188E+02 -0.13897414899E+03  0.14654741403E+03  0.00000000000E+00 0.  1.
<mgrwt>
<rscale>  0 0.20018327E+03</rscale>
<asrwt>0</asrwt>
<pdfrwt beam="1">  1        1 0.24718676E-01 0.24978525E+03</pdfrwt>
<pdfrwt beam="2">  1       -1 0.61501224E-01 0.24978525E+03</pdfrwt>
<totfact> 0.53942889E+02</totfact>
</mgrwt>
</event>
<event>
 7    1  0.8165933E-006  0.1332780E+03  0.7546771E-02  0.1236936E+00
          2   -1    0    0  501    0  0.00000000000E+00  0.00000000000E+00  0.87461443707E+03  0.87461443707E+03  0.00000000000E+00 0.  1.
         -2   -1    0    0    0  501 -0.00000000000E+00 -0.00000000000E+00 -0.15927738444E+02  0.15927738444E+02  0.00000000000E+00 0. -1.
         23    2    1    2    0    0  0.19425712394E+02 -0.41919863698E+02  0.56604432328E+03  0.58152317240E+03  0.12501356263E+03 0.  0.
          5    1    3    3  502    0  0.12875878658E+02 -0.54304112243E+02  0.56380199110E+03  0.56657700274E+03  0.47000000000E+01 0.  1.
         -5    1    3    3    0  502  0.65498337361E+01  0.12384248544E+02  0.22423321794E+01  0.14946169662E+02  0.47000000000E+01 0.  1.
        -11    1    1    2    0    0  0.31124921963E+02  0.21344972142E+02  0.17919449711E+03  0.18312573931E+03  0.00000000000E+00 0.  1.
         11    1    1    2    0    0 -0.50550634357E+02  0.20574891556E+02  0.11344787824E+03  0.12589326381E+03  0.00000000000E+00 0. -1.
<mgrwt>
<rscale>  0 0.12381291E+03</rscale>
<asrwt>0</asrwt>
<pdfrwt beam="1">  1        2 0.13455603E+00 0.13327800E+03</pdfrwt>
<pdfrwt beam="2">  1       -2 0.24504220E-02 0.13327800E+03</pdfrwt>
<totfact> 0.17199128E+04</totfact>
</mgrwt>
</event>
<event>
 7    1  0.8165933E-006  0.1323043E+03  0.7546771E-02  0.1228168E+00
          1   -1    0    0  501    0  0.00000000000E+00  0.00000000000E+00  0.28818440285E+02  0.28818440285E+02  0.00000000000E+00 0. -1.
         -1   -1    0    0    0  501 -0.00000000000E+00 -0.00000000000E+00 -0.58749103181E+03  0.58749103181E+03  0.00000000000E+00 0.  1.
         23    2    1    2    0    0  0.38617356598E+02 -0.19699930473E+02 -0.22270077469E+03  0.25903680617E+03  0.12500017766E+03 0.  0.
          5    1    3    3  502    0  0.32503280337E+01 -0.59329895731E+02 -0.18326628761E+03  0.19271539465E+03  0.47000000000E+01 0.  1.
         -5    1    3    3    0  502  0.35367028565E+02  0.39629965257E+02 -0.39434487073E+02  0.66321411524E+02  0.47000000000E+01 0.  1.
        -11    1    1    2    0    0  0.12102024865E+02  0.44108930485E+02 -0.25241411864E+03  0.25652474353E+03  0.00000000000E+00 0.  1.
         11    1    1    2    0    0 -0.50719381464E+02 -0.24409000012E+02 -0.83557698194E+02  0.10074792239E+03  0.00000000000E+00 0. -1.
<mgrwt>
<rscale>  0 0.12952122E+03</rscale>
<asrwt>0</asrwt>
<pdfrwt beam="1">  1        1 0.44336066E-02 0.13230432E+03</pdfrwt>
<pdfrwt beam="2">  1       -1 0.90383228E-01 0.13230432E+03</pdfrwt>
<totfact> 0.23953869E+03</totfact>
</mgrwt>
</event>
<event>
 7    1  0.8165933E-006  0.1813680E+03  0.7546771E-02  0.1171802E+00
          2   -1    0    0  501    0  0.00000000000E+00  0.00000000000E+00  0.79965793095E+03  0.79965793095E+03  0.00000000000E+00 0. -1.
         -2   -1    0    0    0  501 -0.00000000000E+00 -0.00000000000E+00 -0.44044293159E+02  0.44044293159E+02  0.00000000000E+00 0.  1.
         23    2    1    2    0    0  0.12403920699E+03 -0.43411798969E+02  0.57057746742E+03  0.59870945152E+03  0.12499620735E+03 0.  0.
          5    1    3    3  502    0  0.12172352377E+03 -0.59511447337E+02  0.31966214571E+03  0.34722356775E+03  0.47000000000E+01 0. -1.
         -5    1    3    3    0  502  0.23156832297E+01  0.16099648368E+02  0.25091532171E+03  0.25148588377E+03  0.47000000000E+01 0. -1.
        -11    1    1    2    0    0 -0.78200437025E+01  0.28697731148E+02  0.87952967276E+02  0.92846310154E+02  0.00000000000E+00 0. -1.
         11    1    1    2    0    0 -0.11621916329E+03  0.14714067821E+02  0.97083203094E+02  0.15214646243E+03  0.00000000000E+00 0.  1.
<mgrwt>
<rscale>  0 0.17592898E+03</rscale>
<asrwt>0</asrwt>
<pdfrwt beam="1">  1        2 0.12302429E+00 0.18136803E+03</pdfrwt>
<pdfrwt beam="2">  1       -2 0.67760457E-02 0.18136803E+03</pdfrwt>
<totfact> 0.42852323E+03</totfact>
</mgrwt>
</event>
<event>
 7    1  0.8165933E-006  0.1420224E+03  0.7546771E-02  0.1226619E+00
          1   -1    0    0  501    0  0.00000000000E+00  0.00000000000E+00  0.19189493564E+03  0.19189493564E+03  0.00000000000E+00 0. -1.
         -1   -1    0    0    0  501 -0.00000000000E+00 -0.00000000000E+00 -0.95264457284E+02  0.95264457284E+02  0.00000000000E+00 0.  1.
         23    2    1    2    0    0 -0.64638633268E+02  0.19322105415E+02  0.11661083027E+03  0.18376193626E+03  0.12497546485E+03 0.  0.
          5    1    3    3  502    0 -0.31709470992E+02 -0.18712004630E+02  0.12688328574E+03  0.13220093747E+03  0.47000000000E+01 0.  1.
         -5    1    3    3    0  502 -0.32929162275E+02  0.38034110045E+02 -0.10272455468E+02  0.51560998792E+02  0.47000000000E+01 0.  1.
        -11    1    1    2    0    0  0.59594280030E+02  0.13830158560E+02  0.52925464582E+01  0.61406535044E+02  0.00000000000E+00 0. -1.
         11    1    1    2    0    0  0.50443532377E+01 -0.33152263974E+02 -0.25272898373E+02  0.41990921619E+02  0.00000000000E+00 0.  1.
<mgrwt>
<rscale>  0 0.13056572E+03</rscale>
<asrwt>0</asrwt>
<pdfrwt beam="1">  1        1 0.29522298E-01 0.14202240E+03</pdfrwt>
<pdfrwt beam="2">  1       -1 0.14656070E-01 0.14202240E+03</pdfrwt>
<totfact> 0.49460607E+03</totfact>
</mgrwt>
</event>
<event>
 7    1  0.8165933E-006  0.2012664E+03  0.7546771E-02  0.1152349E+00
         -1   -1    0    0    0  501 -0.00000000000E+00  0.00000000000E+00  0.16403711198E+03  0.16403711198E+03  0.00000000000E+00 0.  1.
          1   -1    0    0  501    0  0.00000000000E+00 -0.00000000000E+00 -0.22858585332E+03  0.22858585332E+03  0.00000000000E+00 0. -1.
         23    2    1    2    0    0 -0.13804480843E+03  0.76334126670E+02 -0.16356277781E+02  0.20192996165E+03  0.12499965424E+03 0.  0.
          5    1    3    3  502    0 -0.84369136102E+01  0.15264890571E+02 -0.51294329169E+02  0.54381951053E+02  0.47000000000E+01 0. -1.
         -5    1    3    3    0  502 -0.12960789482E+03  0.61069236099E+02  0.34938051388E+02  0.14754801060E+03  0.47000000000E+01 0. -1.
        -11    1    1    2    0    0  0.31482691504E+02 -0.48253523987E+01  0.27173996983E+02  0.41867290360E+02  0.00000000000E+00 0.  1.
         11    1    1    2    0    0  0.10656211692E+03 -0.71508774271E+02 -0.75366460544E+02  0.14882571329E+03  0.00000000000E+00 0. -1.
<mgrwt>
<rscale>  0 0.19693790E+03</rscale>
<asrwt>0</asrwt>
<pdfrwt beam="2">  1        1 0.35167054E-01 0.20126644E+03</pdfrwt>
<pdfrwt beam="1">  1       -1 0.25236479E-01 0.20126644E+03</pdfrwt>
<totfact> 0.16814650E+03</totfact>
</mgrwt>
</event>
<event>
 7    1  0.8165933E-006  0.1592721E+03  0.7546771E-02  0.1192728E+00
          2   -1    0    0  501    0  0.00000000000E+00  0.00000000000E+00  0.35760818351E+03  0.35760818351E+03  0.00000000000E+00 0. -1.
         -2   -1    0    0    0  501 -0.00000000000E+00 -0.00000000000E+00 -0.71128658162E+02  0.71128658162E+02  0.00000000000E+00 0.  1.
         23    2    1    2    0    0 -0.18793801966E+02  0.96872898089E+02  0.20448282828E+03  0.25919262709E+03  0.12502010039E+03 0.  0.
          5    1    3    3  502    0 -0.29006740542E+02  0.67602909328E+02  0.26288253401E+02  0.78260504811E+02  0.47000000000E+01 0. -1.
         -5    1    3    3    0  502  0.10212938576E+02  0.29269988761E+02  0.17819457488E+03  0.18093212228E+03  0.47000000000E+01 0. -1.
        -11    1    1    2    0    0 -0.35677782131E+02  0.17579524323E+01  0.20225637369E+02  0.41049615608E+02  0.00000000000E+00 0.  1.
         11    1    1    2    0    0  0.54471584097E+02 -0.98630850521E+02  0.61771059698E+02  0.12849459897E+03  0.00000000000E+00 0. -1.
<mgrwt>
<rscale>  0 0.15648088E+03</rscale>
<asrwt>0</asrwt>
<pdfrwt beam="1">  1        2 0.55016643E-01 0.15927207E+03</pdfrwt>
<pdfrwt beam="2">  1       -2 0.10942871E-01 0.15927207E+03</pdfrwt>
<totfact> 0.50211563E+03</totfact>
</mgrwt>
</event>
<event>
 7    1  0.8165933E-006  0.1475895E+03  0.7546771E-02  0.1211910E+00
         -1   -1    0    0    0  501 -0.00000000000E+00  0.00000000000E+00  0.30811638709E+03  0.30811638709E+03  0.00000000000E+00 0.  1.
          1   -1    0    0  501    0  0.00000000000E+00 -0.00000000000E+00 -0.84920373273E+02  0.84920373273E+02  0.00000000000E+00 0. -1.
         23    2    1    2    0    0  0.26915854420E+02 -0.73743929743E+02  0.11388805238E+02  0.14802828390E+03  0.12498014865E+03 0.  0.
          5    1    3    3  502    0  0.31839716237E+02  0.19509974901E+02  0.35210888289E+02  0.51539337450E+02  0.47000000000E+01 0. -1.
         -5    1    3    3    0  502 -0.49238618172E+01 -0.93253904643E+02 -0.23822083052E+02  0.96488946452E+02  0.47000000000E+01 0. -1.
        -11    1    1    2    0    0  0.41351635523E+01  0.37767892796E+02  0.18810303827E+03  0.19190171002E+03  0.00000000000E+00 0.  1.
         11    1    1    2    0    0 -0.31051017972E+02  0.35976036947E+02  0.23704170314E+02  0.53106766441E+02  0.00000000000E+00 0. -1.
<mgrwt>
<rscale>  0 0.14105991E+03</rscale>
<asrwt>0</asrwt>
<pdfrwt beam="2">  1        1 0.13064673E-01 0.14758953E+03</pdfrwt>
<pdfrwt beam="1">  1       -1 0.47402521E-01 0.14758953E+03</pdfrwt>
<totfact> 0.19831215E+03</totfact>
</mgrwt>
</event>
<event>
 7    1  0.8165933E-006  0.1250752E+03  0.7546771E-02  0.1250340E+00
          4   -1    0    0  501    0  0.00000000000E+00  0.00000000000E+00  0.43811798089E+03  0.43811798089E+03  0.00000000000E+00 0. -1.
         -4   -1    0    0    0  501 -0.00000000000E+00 -0.00000000000E+00 -0.28121405909E+02  0.28121405909E+02  0.00000000000E+00 0.  1.
         23    2    1    2    0    0  0.30740765252E+01  0.35509648171E+01  0.28516736289E+03  0.31139079263E+03  0.12498696565E+03 0.  0.
          5    1    3    3  502    0  0.50469395453E+02  0.15551362354E+02  0.23604212621E+03  0.24192350050E+03  0.47000000000E+01 0. -1.
         -5    1    3    3    0  502 -0.47395318927E+02 -0.12000397537E+02  0.49125236674E+02  0.69467292128E+02  0.47000000000E+01 0. -1.
        -11    1    1    2    0    0 -0.43021117513E+02  0.14875898975E+01  0.31920374255E+02  0.53590482069E+02  0.00000000000E+00 0.  1.
         11    1    1    2    0    0  0.39947040988E+02 -0.50385547146E+01  0.92908837845E+02  0.10125811210E+03  0.00000000000E+00 0. -1.
<mgrwt>
<rscale>  0 0.11571398E+03</rscale>
<asrwt>0</asrwt>
<pdfrwt beam="1">  1        4 0.67402761E-01 0.12507518E+03</pdfrwt>
<pdfrwt beam="2">  1       -4 0.43263705E-02 0.12507518E+03</pdfrwt>
<totfact> 0.10134728E+03</totfact>
</mgrwt>
</event>
<event>
 7    1  0.8165933E-006  0.1328559E+03  0.7546771E-02  0.1236543E+00
         -2   -1    0    0    0  501 -0.00000000000E+00  0.00000000000E+00  0.24469227307E+03  0.24469227307E+03  0.00000000000E+00 0.  1.
          2   -1    0    0  501    0  0.00000000000E+00 -0.00000000000E+00 -0.56909212272E+02  0.56909212272E+02  0.00000000000E+00 0. -1.
         23    2    1    2    0    0 -0.34280771247E+02  0.29175139965E+02  0.86387944534E+02  0.15847262271E+03  0.12499734044E+03 0.  0.
          5    1    3    3  502    0 -0.59190818215E+02 -0.14606301083E+02  0.88809017235E+02  0.10782406287E+03  0.47000000000E+01 0. -1.
         -5    1    3    3    0  502  0.24910046968E+02  0.43781441048E+02 -0.24210727009E+01  0.50648559833E+02  0.47000000000E+01 0. -1.
        -11    1    1    2    0    0  0.27001871099E+02  0.15924856678E+02  0.91040562424E+02  0.96286479370E+02  0.00000000000E+00 0.  1.
         11    1    1    2    0    0  0.72789001481E+01 -0.45099996643E+02  0.10354553837E+02  0.46842383262E+02  0.00000000000E+00 0. -1.
<mgrwt>
<rscale>  0 0.12406143E+03</rscale>
<asrwt>0</asrwt>
<pdfrwt beam="2">  1        2 0.87552636E-02 0.13285592E+03</pdfrwt>
<pdfrwt beam="1">  1       -2 0.37644964E-01 0.13285592E+03</pdfrwt>
<totfact> 0.48165332E+03</totfact>
</mgrwt>
</event>
<event>
 7    1  0.8165933E-006  0.1266604E+03  0.7546771E-02  0.1248019E+00
          1   -1    0    0  501    0  0.00000000000E+00  0.00000000000E+00  0.38136418126E+02  0.38136418126E+02  0.00000000000E+00 0. -1.
         -1   -1    0    0    0  501 -0.00000000000E+00 -0.00000000000E+00 -0.32456789803E+03  0.32456789803E+03  0.00000000000E+00 0.  1.
         23    2    1    2    0    0  0.13633719096E+02  0.14748213797E+02 -0.13358223617E+03  0.18408440343E+03  0.12505784926E+03 0.  0.
          5    1    3    3  502    0 -0.24567968571E+02 -0.45609266243E+02 -0.36863824535E+02  0.63755955065E+02  0.47000000000E+01 0.  1.
         -5    1    3    3    0  502  0.38201687667E+02  0.60357480040E+02 -0.96718411635E+02  0.12032844837E+03  0.47000000000E+01 0.  1.
        -11    1    1    2    0    0 -0.26804699172E+02 -0.38193764612E+02 -0.14226239954E+03  0.14971922347E+03  0.00000000000E+00 0.  1.
         11    1    1    2    0    0  0.13170980076E+02  0.23445550815E+02 -0.10586844188E+02  0.28900689249E+02  0.00000000000E+00 0. -1.
<mgrwt>
<rscale>  0 0.11706490E+03</rscale>
<asrwt>0</asrwt>
<pdfrwt beam="1">  1        1 0.58671412E-02 0.12666039E+03</pdfrwt>
<pdfrwt beam="2">  1       -1 0.49933523E-01 0.12666039E+03</pdfrwt>
<totfact> 0.52071216E+03</totfact>
</mgrwt>
</event>
<event>
 6    1  0.8165933E-006  0.2011764E+03  0.7546771E-02  0.1156351E+00
          2   -1    0    0  501    0  0.00000000000E+00  0.00000000000E+00  0.25978857599E+04  0.25978857599E+04  0.00000000000E+00 0. -1.
         -2   -1    0    0    0  501 -0.00000000000E+00 -0.00000000000E+00 -0.28666400985E+02  0.28666400985E+02  0.00000000000E+00 0.  1.
          5    1    1    2  502    0 -0.52705445394E+02 -0.13980131960E+03  0.14042503719E+04  0.14121839363E+04  0.47000000000E+01 0. -1.
         -5    1    1    2    0  502  0.38537165525E+02 -0.72072104191E+00  0.89809423926E+03  0.89893324845E+03  0.47000000000E+01 0.  1.
        -11    1    1    2    0    0  0.39451431230E+02  0.12078249967E+03  0.24681896566E+03  0.27760480807E+03  0.00000000000E+00 0.  1.
         11    1    1    2    0    0 -0.25283151361E+02  0.19739540972E+02  0.20055782066E+02  0.37830168051E+02  0.00000000000E+00 0. -1.
<mgrwt>
<rscale>  0 0.19235881E+03</rscale>
<asrwt>0</asrwt>
<pdfrwt beam="1">  1        2 0.39967455E+00 0.20117637E+03</pdfrwt>
<pdfrwt beam="2">  1       -2 0.44102176E-02 0.20117637E+03</pdfrwt>
<totfact> 0.85119234E+02</totfact>
</mgrwt>
</event>
<event>
 7    1  0.8165933E-006  0.1303378E+03  0.7546771E-02  0.1241405E+00
          2   -1    0    0  501    0  0.00000000000E+00  0.00000000000E+00  0.69209750210E+03  0.69209750210E+03  0.00000000000E+00 0. -1.
         -2   -1    0    0    0  501 -0.00000000000E+00 -0.00000000000E+00 -0.22434149000E+02  0.22434149000E+02  0.00000000000E+00 0.  1.
         23    2    1    2    0    0  0.16600783495E+01  0.36851752590E+02  0.52109689412E+03  0.53714981513E+03  0.12500857295E+03 0.  0.
          5    1    3    3  502    0  0.15102566726E+02  0.61966578467E+02  0.49207354778E+03  0.49621206233E+03  0.47000000000E+01 0. -1.
         -5    1    3    3    0  502 -0.13442488377E+02 -0.25114825876E+02  0.29023346332E+02  0.40937752807E+02  0.47000000000E+01 0. -1.
        -11    1    1    2    0    0  0.32034987592E+02 -0.17670267825E+02  0.17225506316E+02  0.40437567469E+02  0.00000000000E+00 0.  1.
         11    1    1    2    0    0 -0.33695065941E+02 -0.19181484765E+02  0.13134095267E+03  0.13694426850E+03  0.00000000000E+00 0. -1.
<mgrwt>
<rscale>  0 0.12103180E+03</rscale>
<asrwt>0</asrwt>
<pdfrwt beam="1">  1        2 0.10647652E+00 0.13033783E+03</pdfrwt>
<pdfrwt beam="2">  1       -2 0.34514081E-02 0.13033783E+03</pdfrwt>
<totfact> 0.13857320E+04</totfact>
</mgrwt>
</event>
<event>
 7    1  0.8165933E-006  0.1365329E+03  0.7546771E-02  0.1230083E+00
         -1   -1    0    0    0  501 -0.00000000000E+00  0.00000000000E+00  0.15139686516E+03  0.15139686516E+03  0.00000000000E+00 0.  1.
          1   -1    0    0  501    0  0.00000000000E+00 -0.00000000000E+00 -0.98029962655E+02  0.98029962655E+02  0.00000000000E+00 0. -1.
         23    2    1    2    0    0  0.42998004012E+02 -0.34177167783E+02  0.19730849943E+02  0.13795126736E+03  0.12499735430E+03 0.  0.
          5    1    3    3  502    0  0.82131901051E+02 -0.57860262201E+01  0.30968782835E+02  0.88092467215E+02  0.47000000000E+01 0. -1.
         -5    1    3    3    0  502 -0.39133897039E+02 -0.28391141563E+02 -0.11237932892E+02  0.49858800150E+02  0.47000000000E+01 0. -1.
        -11    1    1    2    0    0 -0.64454226344E+02  0.48317386330E+02  0.24371999706E+02  0.84160034963E+02  0.00000000000E+00 0.  1.
         11    1    1    2    0    0  0.21456222332E+02 -0.14140218547E+02  0.92640528550E+01  0.27315525487E+02  0.00000000000E+00 0. -1.
<mgrwt>
<rscale>  0 0.12824513E+03</rscale>
<asrwt>0</asrwt>
<pdfrwt beam="2">  1        1 0.15081533E-01 0.13653295E+03</pdfrwt>
<pdfrwt beam="1">  1       -1 0.23291825E-01 0.13653295E+03</pdfrwt>
<totfact> 0.55234929E+03</totfact>
</mgrwt>
</event>
<event>
 7    1  0.8165933E-006  0.1822520E+03  0.7546771E-02  0.1171071E+00
         -1   -1    0    0    0  501 -0.00000000000E+00  0.00000000000E+00  0.17308868148E+03  0.17308868148E+03  0.00000000000E+00 0.  1.
          1   -1    0    0  501    0  0.00000000000E+00 -0.00000000000E+00 -0.33156587341E+03  0.33156587341E+03  0.00000000000E+00 0. -1.
         23    2    1    2    0    0  0.82044116724E+02  0.10419612705E+03 -0.25768524723E+03  0.31562234447E+03  0.12501083034E+03 0.  0.
          5    1    3    3  502    0  0.66731432428E+02  0.62345051732E+02 -0.25480649457E+03  0.27071835775E+03  0.47000000000E+01 0. -1.
         -5    1    3    3    0  502  0.15312684296E+02  0.41851075320E+02 -0.28787526613E+01  0.44903986712E+02  0.47000000000E+01 0. -1.
        -11    1    1    2    0    0  0.74797226343E+01 -0.50151018383E+02  0.56928937214E+02  0.76236308855E+02  0.00000000000E+00 0.  1.
         11    1    1    2    0    0 -0.89523839358E+02 -0.54045108668E+02  0.42279118087E+02  0.11279590157E+03  0.00000000000E+00 0. -1.
<mgrwt>
<rscale>  0 0.17666383E+03</rscale>
<asrwt>0</asrwt>
<pdfrwt beam="2">  1        1 0.51010134E-01 0.18225196E+03</pdfrwt>
<pdfrwt beam="1">  1       -1 0.26629028E-01 0.18225196E+03</pdfrwt>
<totfact> 0.96404969E+02</totfact>
</mgrwt>
</event>
<event>
 6    1  0.8165933E-006  0.2013185E+03  0.7546771E-02  0.1156487E+00
         -1   -1    0    0    0  501 -0.00000000000E+00  0.00000000000E+00  0.40125681440E+03  0.40125681440E+03  0.00000000000E+00 0.  1.
          1   -1    0    0  501    0  0.00000000000E+00 -0.00000000000E+00 -0.96747816108E+02  0.96747816108E+02  0.00000000000E+00 0. -1.
          5    1    1    2  502    0  0.88188232287E+02 -0.50206471630E+02  0.82935334021E+01  0.10192510389E+03  0.47000000000E+01 0. -1.
         -5    1    1    2    0  502 -0.39176833165E+02 -0.81495994272E+02  0.68521298729E+02  0.11355034002E+03  0.47000000000E+01 0.  1.
        -11    1    1    2    0    0  0.12579118045E+02  0.65328942087E+02  0.50445322367E+02  0.83491529114E+02  0.00000000000E+00 0. -1.
         11    1    1    2    0    0 -0.61590517167E+02  0.66373523815E+02  0.17724884379E+03  0.19903765748E+03  0.00000000000E+00 0.  1.
<mgrwt>
<rscale>  0 0.19220518E+03</rscale>
<asrwt>0</asrwt>
<pdfrwt beam="2">  1        1 0.14884280E-01 0.20131852E+03</pdfrwt>
<pdfrwt beam="1">  1       -1 0.61731817E-01 0.20131852E+03</pdfrwt>
<totfact> 0.10300328E+03</totfact>
</mgrwt>
</event>
<event>
 7    1  0.8165933E-006  0.4962339E+03  0.7546771E-02  0.1015276E+00
          2   -1    0    0  501    0  0.00000000000E+00  0.00000000000E+00  0.49704246236E+03  0.49704246236E+03  0.00000000000E+00 0. -1.
         -2   -1    0    0    0  501 -0.00000000000E+00 -0.00000000000E+00 -0.64042714914E+03  0.64042714914E+03  0.00000000000E+00 0.  1.
         23    2    1    2    0    0 -0.33853464559E+03 -0.34061548695E+03  0.20552471085E+03  0.53711127598E+03  0.12499399906E+03 0.  0.
          5    1    3    3  502    0 -0.24714822203E+03 -0.29631667908E+03  0.20158991790E+03  0.43536927195E+03  0.47000000000E+01 0. -1.
         -5    1    3    3    0  502 -0.91386423560E+02 -0.44298807869E+02  0.39347929466E+01  0.10174200404E+03  0.47000000000E+01 0. -1.
        -11    1    1    2    0    0  0.27397526768E+03  0.26651197121E+03 -0.22997673841E+03  0.44607216715E+03  0.00000000000E+00 0.  1.
         11    1    1    2    0    0  0.64559377915E+02  0.74103515739E+02 -0.11893265921E+03  0.15428616837E+03  0.00000000000E+00 0. -1.
<mgrwt>
<rscale>  0 0.49430461E+03</rscale>
<asrwt>0</asrwt>
<pdfrwt beam="1">  1        2 0.76468071E-01 0.49623393E+03</pdfrwt>
<pdfrwt beam="2">  1       -2 0.98527254E-01 0.49623393E+03</pdfrwt>
<totfact> 0.54749420E+01</totfact>
</mgrwt>
</event>
<event>
 7    1  0.8165933E-006  0.1641182E+03  0.7546771E-02  0.1191543E+00
          2   -1    0    0  501    0  0.00000000000E+00  0.00000000000E+00  0.21651891900E+03  0.21651891900E+03  0.00000000000E+00 0. -1.
         -2   -1    0    0    0  501 -0.00000000000E+00 -0.00000000000E+00 -0.12006658551E+03  0.12006658551E+03  0.00000000000E+00 0.  1.
         23    2    1    2    0    0 -0.52435415803E+02  0.92547970132E+02  0.10866095269E+03  0.19682986336E+03  0.12498076998E+03 0.  0.
          5    1    3    3  502    0 -0.75105547241E+02  0.21095930436E+02  0.20079753250E+02  0.80691808741E+02  0.47000000000E+01 0.  1.
         -5    1    3    3    0  502  0.22670131438E+02  0.71452039696E+02  0.88581199440E+02  0.11613805462E+03  0.47000000000E+01 0.  1.
        -11    1    1    2    0    0  0.39987105861E+02  0.32311898525E+01 -0.15768947803E+02  0.43105323776E+02  0.00000000000E+00 0. -1.
         11    1    1    2    0    0  0.12448309942E+02 -0.95779159984E+02  0.35603286035E+01  0.96650317369E+02  0.00000000000E+00 0.  1.
<mgrwt>
<rscale>  0 0.15750491E+03</rscale>
<asrwt>0</asrwt>
<pdfrwt beam="1">  1        2 0.33310603E-01 0.16411823E+03</pdfrwt>
<pdfrwt beam="2">  1       -2 0.18471782E-01 0.16411823E+03</pdfrwt>
<totfact> 0.36586420E+03</totfact>
</mgrwt>
</event>
<event>
 6    1  0.8165933E-006  0.3510892E+03  0.7546771E-02  0.1106904E+00
         -2   -1    0    0    0  501 -0.00000000000E+00  0.00000000000E+00  0.19155744090E+03  0.19155744090E+03  0.00000000000E+00 0.  1.
          2   -1    0    0  501    0  0.00000000000E+00 -0.00000000000E+00 -0.34276961309E+03  0.34276961309E+03  0.00000000000E+00 0. -1.
          5    1    1    2  502    0 -0.22753108073E+02 -0.68644255235E+02 -0.28074042759E+03  0.28994312440E+03  0.47000000000E+01 0. -1.
         -5    1    1    2    0  502  0.75521563616E+02  0.66726626913E+02  0.66984050118E+02  0.12109872948E+03  0.47000000000E+01 0.  1.
        -11    1    1    2    0    0 -0.78115708903E+02  0.75602761562E+00  0.58489933916E+02  0.97589486753E+02  0.00000000000E+00 0.  1.
         11    1    1    2    0    0  0.25347253360E+02  0.11616007060E+01  0.40542713698E+01  0.25695713367E+02  0.00000000000E+00 0. -1.
<mgrwt>
<rscale>  0 0.26039799E+03</rscale>
<asrwt>0</asrwt>
<pdfrwt beam="2">  1        2 0.52733787E-01 0.35108919E+03</pdfrwt>
<pdfrwt beam="1">  1       -2 0.29470375E-01 0.35108919E+03</pdfrwt>
<totfact> 0.10024203E+03</totfact>
</mgrwt>
</event>
<event>
 7    1  0.8165933E-006  0.2302382E+03  0.7546771E-02  0.1129368E+00
         -1   -1    0    0    0  501 -0.00000000000E+00  0.00000000000E+00  0.30954204942E+02  0.30954204942E+02  0.00000000000E+00 0.  1.
          1   -1    0    0  501    0  0.00000000000E+00 -0.00000000000E+00 -0.16027502189E+04  0.16027502189E+04  0.00000000000E+00 0. -1.
         23    2    1    2    0    0  0.47917309413E+02  0.18732117650E+03 -0.76304861058E+03  0.79702747830E+03  0.12499730937E+03 0.  0.
          5    1    3    3  502    0  0.11500522743E+02  0.18324683756E+02 -0.32973806576E+03  0.33048046549E+03  0.47000000000E+01 0.  1.
         -5    1    3    3    0  502  0.36416786670E+02  0.16899649275E+03 -0.43331054482E+03  0.46654701281E+03  0.47000000000E+01 0.  1.
        -11    1    1    2    0    0  0.39308105412E+01 -0.10226170226E+03 -0.26889470932E+03  0.28771039557E+03  0.00000000000E+00 0.  1.
         11    1    1    2    0    0 -0.51848119954E+02 -0.85059474239E+02 -0.53985269403E+03  0.54896654994E+03  0.00000000000E+00 0. -1.
<mgrwt>
<rscale>  0 0.22616517E+03</rscale>
<asrwt>0</asrwt>
<pdfrwt beam="2">  1        1 0.24657695E+00 0.23023818E+03</pdfrwt>
<pdfrwt beam="1">  1       -1 0.47621855E-02 0.23023818E+03</pdfrwt>
<totfact> 0.11622687E+03</totfact>
</mgrwt>
</event>
<event>
 7    1  0.8165933E-006  0.1794293E+03  0.7546771E-02  0.1173118E+00
          3   -1    0    0  501    0  0.00000000000E+00  0.00000000000E+00  0.42014196827E+03  0.42014196827E+03  0.00000000000E+00 0. -1.
         -3   -1    0    0    0  501 -0.00000000000E+00 -0.00000000000E+00 -0.69895111105E+02  0.69895111105E+02  0.00000000000E+00 0.  1.
         23    2    1    2    0    0  0.12821837102E+03 -0.11420297818E+02  0.21320036169E+03  0.27865619692E+03  0.12499803192E+03 0.  0.
          5    1    3    3  502    0  0.11784122736E+03 -0.49474914755E+02  0.19883681160E+03  0.23641592523E+03  0.47000000000E+01 0.  1.
         -5    1    3    3    0  502  0.10377143665E+02  0.38054616937E+02  0.14363550091E+02  0.42240271686E+02  0.47000000000E+01 0.  1.
        -11    1    1    2    0    0  0.10430719747E+02 -0.12798768693E+02  0.31110215649E+02  0.35220078254E+02  0.00000000000E+00 0. -1.
         11    1    1    2    0    0 -0.13864909077E+03  0.24219066511E+02  0.10593627983E+03  0.17616080421E+03  0.00000000000E+00 0.  1.
<mgrwt>
<rscale>  0 0.17461551E+03</rscale>
<asrwt>0</asrwt>
<pdfrwt beam="1">  1        3 0.64637224E-01 0.17942932E+03</pdfrwt>
<pdfrwt beam="2">  1       -3 0.10753094E-01 0.17942932E+03</pdfrwt>
<totfact> 0.37146556E+02</totfact>
</mgrwt>
</event>
<event>
 7    1  0.8165933E-006  0.1287859E+03  0.7546771E-02  0.1242154E+00
          1   -1    0    0  501    0  0.00000000000E+00  0.00000000000E+00  0.53471570946E+02  0.53471570946E+02  0.00000000000E+00 0. -1.
         -1   -1    0    0    0  501 -0.00000000000E+00 -0.00000000000E+00 -0.26381209309E+03  0.26381209309E+03  0.00000000000E+00 0.  1.
         23    2    1    2    0    0  0.25940790433E+02  0.17016305494E+02 -0.73078984318E+02  0.14807546215E+03  0.12499330094E+03 0.  0.
          5    1    3    3  502    0 -0.41334697736E+02 -0.73107429135E+01  0.44578818828E+01  0.42473131622E+02  0.47000000000E+01 0.  1.
         -5    1    3    3    0  502  0.67275488170E+02  0.24327048407E+02 -0.77536866201E+02  0.10560233053E+03  0.47000000000E+01 0.  1.
        -11    1    1    2    0    0 -0.36637407456E+02 -0.22296570978E+02 -0.14742492422E+03  0.15353678707E+03  0.00000000000E+00 0.  1.
         11    1    1    2    0    0  0.10696617022E+02  0.52802654848E+01  0.10163386395E+02  0.15671414816E+02  0.00000000000E+00 0. -1.
<mgrwt>
<rscale>  0 0.12057377E+03</rscale>
<asrwt>0</asrwt>
<pdfrwt beam="1">  1        1 0.82263954E-02 0.12878589E+03</pdfrwt>
<pdfrwt beam="2">  1       -1 0.40586476E-01 0.12878589E+03</pdfrwt>
<totfact> 0.47889854E+03</totfact>
</mgrwt>
</event>
<event>
 7    1  0.8165933E-006  0.1386732E+03  0.7546771E-02  0.1225342E+00
          2   -1    0    0  501    0  0.00000000000E+00  0.00000000000E+00  0.22612925788E+02  0.22612925788E+02  0.00000000000E+00 0. -1.
         -2   -1    0    0    0  501 -0.00000000000E+00 -0.00000000000E+00 -0.74561269651E+03  0.74561269651E+03  0.00000000000E+00 0.  1.
         23    2    1    2    0    0 -0.59729263200E+02  0.60557686868E+01 -0.29711900545E+03  0.32788709582E+03  0.12500394788E+03 0.  0.
          5    1    3    3  502    0 -0.34121620065E+02  0.37565561081E+02 -0.27822968980E+03  0.28285916394E+03  0.47000000000E+01 0. -1.
         -5    1    3    3    0  502 -0.25607643135E+02 -0.31509792394E+02 -0.18889315647E+02  0.45027931878E+02  0.47000000000E+01 0. -1.
        -11    1    1    2    0    0  0.78263840247E+02 -0.38245493286E+01 -0.40421310619E+03  0.41173789124E+03  0.00000000000E+00 0.  1.
         11    1    1    2    0    0 -0.18534577048E+02 -0.22312193582E+01 -0.21667659082E+02  0.28600635242E+02  0.00000000000E+00 0. -1.
<mgrwt>
<rscale>  0 0.13143481E+03</rscale>
<asrwt>0</asrwt>
<pdfrwt beam="1">  1        2 0.34789127E-02 0.13867316E+03</pdfrwt>
<pdfrwt beam="2">  1       -2 0.11470961E+00 0.13867316E+03</pdfrwt>
<totfact> 0.15287052E+03</totfact>
</mgrwt>
</event>
<event>
 7    1  0.8165933E-006  0.1385006E+03  0.7546771E-02  0.1228924E+00
         -2   -1    0    0    0  501 -0.00000000000E+00  0.00000000000E+00  0.17562939573E+02  0.17562939573E+02  0.00000000000E+00 0.  1.
          2   -1    0    0  501    0  0.00000000000E+00 -0.00000000000E+00 -0.85722049836E+03  0.85722049836E+03  0.00000000000E+00 0. -1.
         23    2    1    2    0    0 -0.56969813074E+02 -0.17765539191E+02 -0.54081921126E+03  0.55827218994E+03  0.12498497830E+03 0.  0.
          5    1    3    3  502    0 -0.72233063697E+01  0.48412776967E+02 -0.12619987042E+03  0.13544176026E+03  0.47000000000E+01 0. -1.
         -5    1    3    3    0  502 -0.49746506705E+02 -0.66178316158E+02 -0.41461934084E+03  0.42283042968E+03  0.47000000000E+01 0. -1.
        -11    1    1    2    0    0  0.50169219556E+02  0.35039364158E+02 -0.28918191846E+03  0.29558567217E+03  0.00000000000E+00 0.  1.
         11    1    1    2    0    0  0.68005935181E+01 -0.17273824967E+02 -0.96564290653E+01  0.20925575822E+02  0.00000000000E+00 0. -1.
<mgrwt>
<rscale>  0 0.12901568E+03</rscale>
<asrwt>0</asrwt>
<pdfrwt beam="2">  1        2 0.13188008E+00 0.13850061E+03</pdfrwt>
<pdfrwt beam="1">  1       -2 0.27019906E-02 0.13850061E+03</pdfrwt>
<totfact> 0.15339871E+04</totfact>
</mgrwt>
</event>
<event>
 6    1  0.8165933E-006  0.1348573E+03  0.7546771E-02  0.1243544E+00
         -1   -1    0    0    0  501 -0.00000000000E+00  0.00000000000E+00  0.20320077997E+02  0.20320077997E+02  0.00000000000E+00 0.  1.
          1   -1    0    0  501    0  0.00000000000E+00 -0.00000000000E+00 -0.77330581167E+03  0.77330581167E+03  0.00000000000E+00 0. -1.
          5    1    1    2  502    0  0.24007294419E+01  0.34776363633E+02 -0.47027836940E+02  0.58727050127E+02  0.47000000000E+01 0. -1.
         -5    1    1    2    0  502 -0.28020420692E+02 -0.46119479026E+02 -0.58644033968E+03  0.58893676428E+03  0.47000000000E+01 0.  1.
        -11    1    1    2    0    0  0.94595934496E+01 -0.23655511013E+02 -0.61345014809E+01  0.26204946440E+02  0.00000000000E+00 0.  1.
         11    1    1    2    0    0  0.16160097800E+02  0.34998626406E+02 -0.11338305557E+03  0.11975712882E+03  0.00000000000E+00 0. -1.
<mgrwt>
<rscale>  0 0.11972963E+03</rscale>
<asrwt>0</asrwt>
<pdfrwt beam="2">  1        1 0.11897014E+00 0.13485728E+03</pdfrwt>
<pdfrwt beam="1">  1       -1 0.31261656E-02 0.13485728E+03</pdfrwt>
<totfact> 0.82925188E+03</totfact>
</mgrwt>
</event>
<event>
 7    1  0.8165933E-006  0.2213760E+03  0.7546771E-02  0.1136112E+00
          1   -1    0    0  501    0  0.00000000000E+00  0.00000000000E+00  0.53045119995E+03  0.53045119995E+03  0.00000000000E+00 0. -1.
         -1   -1    0    0    0  501 -0.00000000000E+00 -0.00000000000E+00 -0.10238640818E+03  0.10238640818E+03  0.00000000000E+00 0.  1.
         23    2    1    2    0    0 -0.15586850295E+03  0.95329680575E+02  0.34957327470E+03  0.41377385403E+03  0.12499835873E+03 0.  0.
          5    1    3    3  502    0  0.43172347225E+01 -0.11119050655E+01  0.10830566012E+03  0.10849922056E+03  0.47000000000E+01 0. -1.
         -5    1    3    3    0  502 -0.16018573767E+03  0.96441585640E+02  0.24126761458E+03  0.30527463347E+03  0.47000000000E+01 0. -1.
        -11    1    1    2    0    0  0.10503088731E+03 -0.10934051495E+03  0.62134614589E+02  0.16385220727E+03  0.00000000000E+00 0. -1.
         11    1    1    2    0    0  0.50837615645E+02  0.14010834376E+02  0.16356902482E+02  0.55211546829E+02  0.00000000000E+00 0.  1.
<mgrwt>
<rscale>  0 0.21703575E+03</rscale>
<asrwt>0</asrwt>
<pdfrwt beam="1">  1        1 0.81607876E-01 0.22137599E+03</pdfrwt>
<pdfrwt beam="2">  1       -1 0.15751755E-01 0.22137599E+03</pdfrwt>
<totfact> 0.12376927E+03</totfact>
</mgrwt>
</event>
<event>
 7    1  0.8165933E-006  0.1277196E+03  0.7546771E-02  0.1247051E+00
          1   -1    0    0  501    0  0.00000000000E+00  0.00000000000E+00  0.13041275139E+04  0.13041275139E+04  0.00000000000E+00 0. -1.
         -1   -1    0    0    0  501 -0.00000000000E+00 -0.00000000000E+00 -0.94182632220E+01  0.94182632220E+01  0.00000000000E+00 0.  1.
         23    2    1    2    0    0  0.23557312212E+02  0.11455330715E+02  0.83834862350E+03  0.84802164738E+03  0.12500451328E+03 0.  0.
          5    1    3    3  502    0 -0.11602861010E+02  0.24264874401E+02  0.76552107306E+03  0.76600784188E+03  0.47000000000E+01 0. -1.
         -5    1    3    3    0  502  0.35160173222E+02 -0.12809543686E+02  0.72827550439E+02  0.82013805505E+02  0.47000000000E+01 0. -1.
        -11    1    1    2    0    0  0.32566024228E+02  0.52429950802E+01  0.18503015732E+03  0.18794731721E+03  0.00000000000E+00 0.  1.
         11    1    1    2    0    0 -0.56123336440E+02 -0.16698325795E+02  0.27133046982E+03  0.27757681248E+03  0.00000000000E+00 0. -1.
<mgrwt>
<rscale>  0 0.11763470E+03</rscale>
<asrwt>0</asrwt>
<pdfrwt beam="1">  1        1 0.20063486E+00 0.12771961E+03</pdfrwt>
<pdfrwt beam="2">  1       -1 0.14489646E-02 0.12771961E+03</pdfrwt>
<totfact> 0.10287878E+04</totfact>
</mgrwt>
</event>
<event>
 7    1  0.8165933E-006  0.1357209E+03  0.7546771E-02  0.1233494E+00
          2   -1    0    0  501    0  0.00000000000E+00  0.00000000000E+00  0.68169895376E+03  0.68169895376E+03  0.00000000000E+00 0. -1.
         -2   -1    0    0    0  501 -0.00000000000E+00 -0.00000000000E+00 -0.20615035066E+02  0.20615035066E+02  0.00000000000E+00 0.  1.
         23    2    1    2    0    0 -0.41370671307E+02  0.32926259232E+02  0.35628233135E+03  0.38125747021E+03  0.12499795185E+03 0.  0.
          5    1    3    3  502    0 -0.57677353943E+02 -0.16064222983E+02  0.79357657965E+02  0.99521175112E+02  0.47000000000E+01 0.  1.
         -5    1    3    3    0  502  0.16306682636E+02  0.48990482215E+02  0.27692467339E+03  0.28173629510E+03  0.47000000000E+01 0.  1.
        -11    1    1    2    0    0  0.66430750707E+02 -0.31010703697E+02  0.19276415312E+03  0.20623464091E+03  0.00000000000E+00 0.  1.
         11    1    1    2    0    0 -0.25060079400E+02 -0.19155555352E+01  0.11203743422E+03  0.11482187770E+03  0.00000000000E+00 0. -1.
<mgrwt>
<rscale>  0 0.12601366E+03</rscale>
<asrwt>0</asrwt>
<pdfrwt beam="1">  1        2 0.10487674E+00 0.13572089E+03</pdfrwt>
<pdfrwt beam="2">  1       -2 0.31715444E-02 0.13572089E+03</pdfrwt>
<totfact> 0.16027852E+04</totfact>
</mgrwt>
</event>
<event>
 7    1  0.8165933E-006  0.1304930E+03  0.7546771E-02  0.1240637E+00
          1   -1    0    0  501    0  0.00000000000E+00  0.00000000000E+00  0.11173439048E+03  0.11173439048E+03  0.00000000000E+00 0. -1.
         -1   -1    0    0    0  501 -0.00000000000E+00 -0.00000000000E+00 -0.13071831421E+03  0.13071831421E+03  0.00000000000E+00 0.  1.
         23    2    1    2    0    0  0.24826060230E+02 -0.28041369160E+02  0.28363238998E+02  0.13353984834E+03  0.12500306443E+03 0.  0.
          5    1    3    3  502    0 -0.29497214438E+01  0.16199531428E+02 -0.42244848893E+02  0.45583362459E+02  0.47000000000E+01 0. -1.
         -5    1    3    3    0  502  0.27775781674E+02 -0.44240900587E+02  0.70608087892E+02  0.87956485879E+02  0.47000000000E+01 0. -1.
        -11    1    1    2    0    0 -0.47110456553E+02  0.47915710093E+02 -0.39860526590E+02  0.78129200497E+02  0.00000000000E+00 0.  1.
         11    1    1    2    0    0  0.22284396323E+02 -0.19874340933E+02 -0.74866361376E+01  0.30783655853E+02  0.00000000000E+00 0. -1.
<mgrwt>
<rscale>  0 0.12150347E+03</rscale>
<asrwt>0</asrwt>
<pdfrwt beam="1">  1        1 0.17189906E-01 0.13049298E+03</pdfrwt>
<pdfrwt beam="2">  1       -1 0.20110510E-01 0.13049298E+03</pdfrwt>
<totfact> 0.59000568E+03</totfact>
</mgrwt>
</event>
<event>
 6    1  0.8165933E-006  0.1415606E+03  0.7546771E-02  0.1222572E+00
         -1   -1    0    0    0  501 -0.00000000000E+00  0.00000000000E+00  0.48784075462E+02  0.48784075462E+02  0.00000000000E+00 0.  1.
          1   -1    0    0  501    0  0.00000000000E+00 -0.00000000000E+00 -0.43437608328E+03  0.43437608328E+03  0.00000000000E+00 0. -1.
          5    1    1    2  502    0  0.91301134871E+02 -0.24947476601E+02 -0.28304798539E+03  0.29849041166E+03  0.47000000000E+01 0. -1.
         -5    1    1    2    0  502 -0.37667004597E+02  0.28508084932E+01 -0.45943302808E+02  0.59664121692E+02  0.47000000000E+01 0.  1.
        -11    1    1    2    0    0 -0.19418194199E+02 -0.37745017026E+02 -0.19317604948E+02  0.46636063697E+02  0.00000000000E+00 0.  1.
         11    1    1    2    0    0 -0.34215936075E+02  0.59841685133E+02 -0.37283114673E+02  0.78369561699E+02  0.00000000000E+00 0. -1.
<mgrwt>
<rscale>  0 0.13334725E+03</rscale>
<asrwt>0</asrwt>
<pdfrwt beam="2">  1        1 0.66827089E-01 0.14156059E+03</pdfrwt>
<pdfrwt beam="1">  1       -1 0.75052424E-02 0.14156059E+03</pdfrwt>
<totfact> 0.49856767E+03</totfact>
</mgrwt>
</event>
<event>
 7    1  0.8165933E-006  0.1372052E+03  0.7546771E-02  0.1229158E+00
         -1   -1    0    0    0  501 -0.00000000000E+00  0.00000000000E+00  0.43103938857E+02  0.43103938857E+02  0.00000000000E+00 0.  1.
          1   -1    0    0  501    0  0.00000000000E+00 -0.00000000000E+00 -0.42055857504E+03  0.42055857504E+03  0.00000000000E+00 0. -1.
         23    2    1    2    0    0 -0.73857694618E+01 -0.56091408573E+02 -0.30559412530E+03  0.33498213630E+03  0.12499786606E+03 0.  0.
          5    1    3    3  502    0 -0.32539636406E+02 -0.31218444757E+02 -0.24311211280E+02  0.51444574295E+02  0.47000000000E+01 0. -1.
         -5    1    3    3    0  502  0.25153866945E+02 -0.24872963817E+02 -0.28128291402E+03  0.28353756201E+03  0.47000000000E+01 0. -1.
        -11    1    1    2    0    0 -0.34932079321E+02 -0.14453541569E+01 -0.28666521180E+02  0.45211819814E+02  0.00000000000E+00 0.  1.
         11    1    1    2    0    0  0.42317848783E+02  0.57536762730E+02 -0.43193989703E+02  0.83468557778E+02  0.00000000000E+00 0. -1.
<mgrwt>
<rscale>  0 0.12885930E+03</rscale>
<asrwt>0</asrwt>
<pdfrwt beam="2">  1        1 0.64701320E-01 0.13720518E+03</pdfrwt>
<pdfrwt beam="1">  1       -1 0.66313752E-02 0.13720518E+03</pdfrwt>
<totfact> 0.62448150E+03</totfact>
</mgrwt>
</event>
<event>
 7    1  0.8165933E-006  0.1296523E+03  0.7546771E-02  0.1241996E+00
         -1   -1    0    0    0  501 -0.00000000000E+00  0.00000000000E+00  0.44312034610E+02  0.44312034610E+02  0.00000000000E+00 0.  1.
          1   -1    0    0  501    0  0.00000000000E+00 -0.00000000000E+00 -0.31393385055E+03  0.31393385055E+03  0.00000000000E+00 0. -1.
         23    2    1    2    0    0 -0.26644695636E+02  0.21782525302E+02 -0.20101608367E+03  0.23920112690E+03  0.12500118001E+03 0.  0.
          5    1    3    3  502    0 -0.32074383519E+02  0.58918903101E+02 -0.18723354888E+03  0.19894394951E+03  0.47000000000E+01 0. -1.
         -5    1    3    3    0  502  0.54296878826E+01 -0.37136377799E+02 -0.13782534788E+02  0.40257177394E+02  0.47000000000E+01 0. -1.
        -11    1    1    2    0    0  0.46926102972E+01 -0.49532032423E+02 -0.10247675738E+02  0.50798205533E+02  0.00000000000E+00 0.  1.
         11    1    1    2    0    0  0.21952085339E+02  0.27749507121E+02 -0.58358056534E+02  0.68246552724E+02  0.00000000000E+00 0. -1.
<mgrwt>
<rscale>  0 0.12067010E+03</rscale>
<asrwt>0</asrwt>
<pdfrwt beam="2">  1        1 0.48297518E-01 0.12965228E+03</pdfrwt>
<pdfrwt beam="1">  1       -1 0.68172357E-02 0.12965228E+03</pdfrwt>
<totfact> 0.86056213E+03</totfact>
</mgrwt>
</event>
<event>
 7    1  0.8165933E-006  0.1423841E+03  0.7546771E-02  0.1219823E+00
         -1   -1    0    0    0  501 -0.00000000000E+00  0.00000000000E+00  0.10653354632E+03  0.10653354632E+03  0.00000000000E+00 0.  1.
          1   -1    0    0  501    0  0.00000000000E+00 -0.00000000000E+00 -0.16693805843E+03  0.16693805843E+03  0.00000000000E+00 0. -1.
         23    2    1    2    0    0  0.39438035667E+02  0.55630011455E+02 -0.66781868957E+02  0.15726747514E+03  0.12499273533E+03 0.  0.
          5    1    3    3  502    0  0.43275896549E+02  0.85554814784E+02 -0.15005042587E+02  0.97157968577E+02  0.47000000000E+01 0.  1.
         -5    1    3    3    0  502 -0.38378608821E+01 -0.29924803330E+02 -0.51776826370E+02  0.60109506564E+02  0.47000000000E+01 0.  1.
        -11    1    1    2    0    0  0.24806699629E+01 -0.28658425085E+02 -0.39227000838E+02  0.48643772948E+02  0.00000000000E+00 0. -1.
         11    1    1    2    0    0 -0.41918705629E+02 -0.26971586369E+02  0.45604357684E+02  0.67560356665E+02  0.00000000000E+00 0.  1.
<mgrwt>
<rscale>  0 0.13528132E+03</rscale>
<asrwt>0</asrwt>
<pdfrwt beam="2">  1        1 0.25682778E-01 0.14238413E+03</pdfrwt>
<pdfrwt beam="1">  1       -1 0.16389776E-01 0.14238413E+03</pdfrwt>
<totfact> 0.49387658E+03</totfact>
</mgrwt>
</event>
<event>
 7    1  0.8165933E-006  0.1274929E+03  0.7546771E-02  0.1246528E+00
          1   -1    0    0  501    0  0.00000000000E+00  0.00000000000E+00  0.39520196786E+03  0.39520196786E+03  0.00000000000E+00 0. -1.
         -1   -1    0    0    0  501 -0.00000000000E+00 -0.00000000000E+00 -0.33881315513E+02  0.33881315513E+02  0.00000000000E+00 0.  1.
         23    2    1    2    0    0 -0.18125961501E+02 -0.17341522656E+02  0.26943987571E+03  0.29808098934E+03  0.12500060277E+03 0.  0.
          5    1    3    3  502    0 -0.51971956448E+02 -0.24494246208E+02  0.25301477106E+03  0.25949877982E+03  0.47000000000E+01 0. -1.
         -5    1    3    3    0  502  0.33845994947E+02  0.71527235521E+01  0.16425104647E+02  0.38582209512E+02  0.47000000000E+01 0. -1.
        -11    1    1    2    0    0  0.53530367216E+02  0.17805806198E+01  0.63270887928E+02  0.82896778832E+02  0.00000000000E+00 0.  1.
         11    1    1    2    0    0 -0.35404405715E+02  0.15560942036E+02  0.28609888709E+02  0.48105515204E+02  0.00000000000E+00 0. -1.
<mgrwt>
<rscale>  0 0.11794404E+03</rscale>
<asrwt>0</asrwt>
<pdfrwt beam="1">  1        1 0.60800299E-01 0.12749286E+03</pdfrwt>
<pdfrwt beam="2">  1       -1 0.52125104E-02 0.12749286E+03</pdfrwt>
<totfact> 0.96163700E+03</totfact>
</mgrwt>
</event>
<event>
 7    1  0.8165933E-006  0.1524799E+03  0.7546771E-02  0.1206818E+00
          2   -1    0    0  501    0  0.00000000000E+00  0.00000000000E+00  0.10457340656E+04  0.10457340656E+04  0.00000000000E+00 0. -1.
         -2   -1    0    0    0  501 -0.00000000000E+00 -0.00000000000E+00 -0.25524807316E+02  0.25524807316E+02  0.00000000000E+00 0.  1.
         23    2    1    2    0    0 -0.70462005361E+02 -0.51565938188E+02  0.83016432596E+03  0.84405149220E+03  0.12500469277E+03 0.  0.
          5    1    3    3  502    0 -0.16442026937E+02  0.40193505208E+02  0.31164319591E+03  0.31468941779E+03  0.47000000000E+01 0.  1.
         -5    1    3    3    0  502 -0.54019978424E+02 -0.91759443396E+02  0.51852113005E+03  0.52936207442E+03  0.47000000000E+01 0.  1.
        -11    1    1    2    0    0  0.91938302618E+01 -0.23121381475E+02  0.62021939331E+02  0.66826983731E+02  0.00000000000E+00 0. -1.
         11    1    1    2    0    0  0.61268175099E+02  0.74687319663E+02  0.12802299295E+03  0.16038039694E+03  0.00000000000E+00 0.  1.
<mgrwt>
<rscale>  0 0.14495136E+03</rscale>
<asrwt>0</asrwt>
<pdfrwt beam="1">  1        2 0.16088213E+00 0.15247988E+03</pdfrwt>
<pdfrwt beam="2">  1       -2 0.39268942E-02 0.15247988E+03</pdfrwt>
<totfact> 0.67970986E+03</totfact>
</mgrwt>
</event>
<event>
 7    1  0.8165933E-006  0.1284408E+03  0.7546771E-02  0.1243697E+00
          1   -1    0    0  501    0  0.00000000000E+00  0.00000000000E+00  0.17481769725E+03  0.17481769725E+03  0.00000000000E+00 0. -1.
         -1   -1    0    0    0  501 -0.00000000000E+00 -0.00000000000E+00 -0.10790323803E+03  0.10790323803E+03  0.00000000000E+00 0.  1.
         23    2    1    2    0    0 -0.13001268916E+02  0.26492671144E+02  0.11708181677E+03  0.17379638310E+03  0.12500454529E+03 0.  0.
          5    1    3    3  502    0  0.54574382744E+02  0.39965759423E+01  0.66840228896E+02  0.86510358166E+02  0.47000000000E+01 0.  1.
         -5    1    3    3    0  502 -0.67575651660E+02  0.22496095202E+02  0.50241587873E+02  0.87286024933E+02  0.47000000000E+01 0.  1.
        -11    1    1    2    0    0  0.24368602024E+02 -0.46040470483E+02 -0.63920160891E+02  0.82458114551E+02  0.00000000000E+00 0.  1.
         11    1    1    2    0    0 -0.11367333108E+02  0.19547799339E+02  0.13752803346E+02  0.26466437631E+02  0.00000000000E+00 0. -1.
<mgrwt>
<rscale>  0 0.11963708E+03</rscale>
<asrwt>0</asrwt>
<pdfrwt beam="1">  1        1 0.26895030E-01 0.12844077E+03</pdfrwt>
<pdfrwt beam="2">  1       -1 0.16600498E-01 0.12844077E+03</pdfrwt>
<totfact> 0.45406976E+03</totfact>
</mgrwt>
</event>
<event>
 7    1  0.8165933E-006  0.1466714E+03  0.7546771E-02  0.1214615E+00
         -3   -1    0    0    0  501 -0.00000000000E+00  0.00000000000E+00  0.36765805094E+02  0.36765805094E+02  0.00000000000E+00 0.  1.
          3   -1    0    0  501    0  0.00000000000E+00 -0.00000000000E+00 -0.62175882568E+03  0.62175882568E+03  0.00000000000E+00 0. -1.
         23    2    1    2    0    0  0.28733667015E+02 -0.71139051553E+02 -0.47402004526E+03  0.49619302282E+03  0.12500449714E+03 0.  0.
          5    1    3    3  502    0  0.64005188032E+02 -0.36276236072E+02 -0.40149756931E+03  0.40820952655E+03  0.47000000000E+01 0. -1.
         -5    1    3    3    0  502 -0.35271521018E+02 -0.34862815481E+02 -0.72522475949E+02  0.87983496270E+02  0.47000000000E+01 0. -1.
        -11    1    1    2    0    0 -0.23109593034E+02 -0.87430902126E+01  0.93139044574E+00  0.24725743767E+02  0.00000000000E+00 0.  1.
         11    1    1    2    0    0 -0.56240739804E+01  0.79882141765E+02 -0.11190436577E+03  0.13760586419E+03  0.00000000000E+00 0. -1.
<mgrwt>
<rscale>  0 0.13904863E+03</rscale>
<asrwt>0</asrwt>
<pdfrwt beam="2">  1        3 0.95655199E-01 0.14667144E+03</pdfrwt>
<pdfrwt beam="1">  1       -3 0.56562780E-02 0.14667144E+03</pdfrwt>
<totfact> 0.44085705E+02</totfact>
</mgrwt>
</event>
<event>
 7    1  0.8165933E-006  0.1635335E+03  0.7546771E-02  0.1191961E+00
         -3   -1    0    0    0  501 -0.00000000000E+00  0.00000000000E+00  0.48530973259E+03  0.48530973259E+03  0.00000000000E+00 0.  1.
          3   -1    0    0  501    0  0.00000000000E+00 -0.00000000000E+00 -0.47474267141E+02  0.47474267141E+02  0.00000000000E+00 0. -1.
         23    2    1    2    0    0  0.86666062436E+02 -0.60062404264E+02  0.25312054685E+03  0.30135233706E+03  0.12499888412E+03 0.  0.
          5    1    3    3  502    0  0.71876296518E+02 -0.65816473634E+02  0.26406197959E+03  0.28151168584E+03  0.47000000000E+01 0. -1.
         -5    1    3    3    0  502  0.14789765918E+02  0.57540693700E+01 -0.10941432740E+02  0.19840651215E+02  0.47000000000E+01 0. -1.
        -11    1    1    2    0    0  0.18883654052E+02  0.39005950867E+01  0.33586535433E+02  0.38728056946E+02  0.00000000000E+00 0.  1.
         11    1    1    2    0    0 -0.10554971649E+03  0.56161809177E+02  0.15112838317E+03  0.19270360573E+03  0.00000000000E+00 0. -1.
<mgrwt>
<rscale>  0 0.15714298E+03</rscale>
<asrwt>0</asrwt>
<pdfrwt beam="2">  1        3 0.73037338E-02 0.16353354E+03</pdfrwt>
<pdfrwt beam="1">  1       -3 0.74663032E-01 0.16353354E+03</pdfrwt>
<totfact> 0.51049680E+02</totfact>
</mgrwt>
</event>
<event>
 6    1  0.8165933E-006  0.1524899E+03  0.7546771E-02  0.1224705E+00
          1   -1    0    0  501    0  0.00000000000E+00  0.00000000000E+00  0.57728854967E+02  0.57728854967E+02  0.00000000000E+00 0. -1.
         -1   -1    0    0    0  501 -0.00000000000E+00 -0.00000000000E+00 -0.24564725220E+03  0.24564725220E+03  0.00000000000E+00 0.  1.
          5    1    1    2  502    0  0.55187168052E+01  0.76831375297E+01  0.36379962721E+02  0.37882430295E+02  0.47000000000E+01 0. -1.
         -5    1    1    2    0  502 -0.23307022294E+02  0.17478554792E+02 -0.14846508202E+03  0.15136937519E+03  0.47000000000E+01 0.  1.
        -11    1    1    2    0    0 -0.23610564089E+02 -0.35295537961E+02 -0.33939850475E+02  0.54361265500E+02  0.00000000000E+00 0. -1.
         11    1    1    2    0    0  0.41398869578E+02  0.10133845639E+02 -0.41893427461E+02  0.59763036186E+02  0.00000000000E+00 0.  1.
<mgrwt>
<rscale>  0 0.13187122E+03</rscale>
<asrwt>0</asrwt>
<pdfrwt beam="1">  1        1 0.88813625E-02 0.15248991E+03</pdfrwt>
<pdfrwt beam="2">  1       -1 0.37791884E-01 0.15248991E+03</pdfrwt>
<totfact> 0.49505105E+03</totfact>
</mgrwt>
</event>
<event>
 7    1  0.8165933E-006  0.1949259E+03  0.7546771E-02  0.1159049E+00
          1   -1    0    0  501    0  0.00000000000E+00  0.00000000000E+00  0.13656520693E+04  0.13656520693E+04  0.00000000000E+00 0. -1.
         -1   -1    0    0    0  501 -0.00000000000E+00 -0.00000000000E+00 -0.29950836166E+02  0.29950836166E+02  0.00000000000E+00 0.  1.
         23    2    1    2    0    0 -0.69322769070E+02 -0.13253169954E+03  0.98736490982E+03  0.10064221733E+04  0.12500331229E+03 0.  0.
          5    1    3    3  502    0 -0.48868052483E+02 -0.40110332800E+02  0.13893504585E+03  0.15271529824E+03  0.47000000000E+01 0. -1.
         -5    1    3    3    0  502 -0.20454716587E+02 -0.92421366741E+02  0.84842986397E+03  0.85370687507E+03  0.47000000000E+01 0. -1.
        -11    1    1    2    0    0  0.82939272565E+02  0.10619386295E+03  0.22439699121E+03  0.26174428194E+03  0.00000000000E+00 0.  1.
         11    1    1    2    0    0 -0.13616503495E+02  0.26337836592E+02  0.12393933213E+03  0.12743645025E+03  0.00000000000E+00 0. -1.
<mgrwt>
<rscale>  0 0.18935001E+03</rscale>
<asrwt>0</asrwt>
<pdfrwt beam="1">  1        1 0.21010027E+00 0.19492595E+03</pdfrwt>
<pdfrwt beam="2">  1       -1 0.46078220E-02 0.19492595E+03</pdfrwt>
<totfact> 0.17529889E+03</totfact>
</mgrwt>
</event>
<event>
 7    1  0.8165933E-006  0.1421201E+03  0.7546771E-02  0.1221275E+00
          2   -1    0    0  501    0  0.00000000000E+00  0.00000000000E+00  0.31553029961E+03  0.31553029961E+03  0.00000000000E+00 0. -1.
         -2   -1    0    0    0  501 -0.00000000000E+00 -0.00000000000E+00 -0.66439900524E+02  0.66439900524E+02  0.00000000000E+00 0.  1.
         23    2    1    2    0    0  0.60052829258E+02 -0.31055615335E+02  0.22520649331E+03  0.26630076062E+03  0.12500934737E+03 0.  0.
          5    1    3    3  502    0  0.62469497245E+02  0.45559647092E+01  0.22135450376E+03  0.23009367926E+03  0.47000000000E+01 0. -1.
         -5    1    3    3    0  502 -0.24166679876E+01 -0.35611580044E+02  0.38519895575E+01  0.36207081365E+02  0.47000000000E+01 0. -1.
        -11    1    1    2    0    0 -0.21256740419E+02 -0.31818891773E+02  0.82840660027E+00  0.38275019848E+02  0.00000000000E+00 0.  1.
         11    1    1    2    0    0 -0.38796088839E+02  0.62874507108E+02  0.23055499174E+02  0.77394419666E+02  0.00000000000E+00 0. -1.
<mgrwt>
<rscale>  0 0.13425516E+03</rscale>
<asrwt>0</asrwt>
<pdfrwt beam="1">  1        2 0.48543122E-01 0.14212013E+03</pdfrwt>
<pdfrwt beam="2">  1       -2 0.10221523E-01 0.14212013E+03</pdfrwt>
<totfact> 0.63491649E+03</totfact>
</mgrwt>
</event>
<event>
 7    1  0.8866306E-006  0.1605626E+03  0.7546771E-02  0.1195857E+00
         -1   -1    0    0    0  501 -0.00000000000E+00  0.00000000000E+00  0.61027745195E+02  0.61027745195E+02  0.00000000000E+00 0. -1.
          1   -1    0    0  501    0  0.00000000000E+00 -0.00000000000E+00 -0.43973315009E+03  0.43973315009E+03  0.00000000000E+00 0.  1.
         23    2    1    2    0    0 -0.99483524121E+02 -0.16082101040E+02 -0.30989312899E+03  0.34901878629E+03  0.12499902497E+03 0.  0.
          5    1    3    3  502    0 -0.11669612771E+03 -0.36314247864E+02 -0.29218339970E+03  0.31674901718E+03  0.47000000000E+01 0.  1.
         -5    1    3    3    0  502  0.17212603588E+02  0.20232146824E+02 -0.17709729289E+02  0.32269769117E+02  0.47000000000E+01 0.  1.
        -11    1    1    2    0    0  0.11565981364E+02  0.29626616146E+02  0.95364631663E+01  0.33203199227E+02  0.00000000000E+00 0. -1.
         11    1    1    2    0    0  0.87917542757E+02 -0.13544515106E+02 -0.78348739065E+02  0.11853890976E+03  0.00000000000E+00 0.  1.
<mgrwt>
<rscale>  0 0.15381960E+03</rscale>
<asrwt>0</asrwt>
<pdfrwt beam="2">  1        1 0.67651252E-01 0.16056264E+03</pdfrwt>
<pdfrwt beam="1">  1       -1 0.93888842E-02 0.16056264E+03</pdfrwt>
<totfact> 0.35160094E+03</totfact>
</mgrwt>
</event>
<event>
 7    1  0.8165933E-006  0.1520258E+03  0.7546771E-02  0.1206797E+00
          4   -1    0    0  501    0  0.00000000000E+00  0.00000000000E+00  0.10798152854E+04  0.10798152854E+04  0.00000000000E+00 0. -1.
         -4   -1    0    0    0  501 -0.00000000000E+00 -0.00000000000E+00 -0.17863951069E+02  0.17863951069E+02  0.00000000000E+00 0.  1.
         23    2    1    2    0    0  0.83684550296E+02 -0.21994427202E+02  0.57088997254E+03  0.59078524452E+03  0.12499994241E+03 0.  0.
          5    1    3    3  502    0 -0.11130604127E+02 -0.47869026426E+02  0.26171183942E+03  0.26632782606E+03  0.47000000000E+01 0.  1.
         -5    1    3    3    0  502  0.94815154423E+02  0.25874599224E+02  0.30917813312E+03  0.32445741846E+03  0.47000000000E+01 0.  1.
        -11    1    1    2    0    0  0.19797117497E+02  0.64899393660E+01  0.93521644978E+02  0.95814107801E+02  0.00000000000E+00 0. -1.
         11    1    1    2    0    0 -0.10348166779E+03  0.15504487836E+02  0.39753971682E+03  0.41107988416E+03  0.00000000000E+00 0.  1.
<mgrwt>
<rscale>  0 0.14496762E+03</rscale>
<asrwt>0</asrwt>
<pdfrwt beam="1">  1        4 0.16612538E+00 0.15202580E+03</pdfrwt>
<pdfrwt beam="2">  1       -4 0.27483010E-02 0.15202580E+03</pdfrwt>
<totfact> 0.25729846E+02</totfact>
</mgrwt>
</event>
<event>
 7    1  0.8165933E-006  0.1419397E+03  0.7546771E-02  0.1220277E+00
          2   -1    0    0  501    0  0.00000000000E+00  0.00000000000E+00  0.83899881539E+03  0.83899881539E+03  0.00000000000E+00 0.  1.
         -2   -1    0    0    0  501 -0.00000000000E+00 -0.00000000000E+00 -0.20496624097E+02  0.20496624097E+02  0.00000000000E+00 0. -1.
         23    2    1    2    0    0  0.49373020565E+02  0.45650019355E+02  0.37173851589E+03  0.39791506497E+03  0.12500102124E+03 0.  0.
          5    1    3    3  502    0  0.93600864348E+01  0.63760368418E+02  0.33285143335E+03  0.33906513014E+03  0.47000000000E+01 0.  1.
         -5    1    3    3    0  502  0.40012934130E+02 -0.18110349063E+02  0.38887082540E+02  0.58849934829E+02  0.47000000000E+01 0.  1.
        -11    1    1    2    0    0  0.22096789759E+02 -0.37773499690E+02  0.15205389427E+03  0.15822607926E+03  0.00000000000E+00 0. -1.
         11    1    1    2    0    0 -0.71469810324E+02 -0.78765196646E+01  0.29470978114E+03  0.30335429525E+03  0.00000000000E+00 0.  1.
<mgrwt>
<rscale>  0 0.13495939E+03</rscale>
<asrwt>0</asrwt>
<pdfrwt beam="1">  1        2 0.12907671E+00 0.14193969E+03</pdfrwt>
<pdfrwt beam="2">  1       -2 0.31533274E-02 0.14193969E+03</pdfrwt>
<totfact> 0.12584587E+04</totfact>
</mgrwt>
</event>
<event>
 7    1  0.8165933E-006  0.1270236E+03  0.7546771E-02  0.1246130E+00
          3   -1    0    0  501    0  0.00000000000E+00  0.00000000000E+00  0.38352714151E+02  0.38352714151E+02  0.00000000000E+00 0. -1.
         -3   -1    0    0    0  501 -0.00000000000E+00 -0.00000000000E+00 -0.32957058231E+03  0.32957058231E+03  0.00000000000E+00 0.  1.
         23    2    1    2    0    0 -0.16672212009E+02  0.15220004108E+02 -0.13807873081E+03  0.18761856273E+03  0.12500151200E+03 0.  0.
          5    1    3    3  502    0 -0.56689979285E+01  0.50173649251E+02 -0.14169599813E+03  0.15049710463E+03  0.47000000000E+01 0. -1.
         -5    1    3    3    0  502 -0.11003214080E+02 -0.34953645143E+02  0.36172673172E+01  0.37121458103E+02  0.47000000000E+01 0. -1.
        -11    1    1    2    0    0  0.45490754478E+01 -0.41051677452E+02 -0.14480102962E+03  0.15057646724E+03  0.00000000000E+00 0.  1.
         11    1    1    2    0    0  0.12123136561E+02  0.25831673344E+02 -0.83381077352E+01  0.29728266489E+02  0.00000000000E+00 0. -1.
<mgrwt>
<rscale>  0 0.11817987E+03</rscale>
<asrwt>0</asrwt>
<pdfrwt beam="1">  1        3 0.59004174E-02 0.12702358E+03</pdfrwt>
<pdfrwt beam="2">  1       -3 0.50703167E-01 0.12702358E+03</pdfrwt>
<totfact> 0.15436030E+03</totfact>
</mgrwt>
</event>
<event>
 7    1  0.1108717E-005  0.2916768E+03  0.7546771E-02  0.1090957E+00
          1   -1    0    0  501    0  0.00000000000E+00  0.00000000000E+00  0.16808502264E+04  0.16808502264E+04  0.00000000000E+00 0. -1.
         -1   -1    0    0    0  501 -0.00000000000E+00 -0.00000000000E+00 -0.49805909902E+02  0.49805909902E+02  0.00000000000E+00 0.  1.
         23    2    1    2    0    0  0.11545543551E+03 -0.23689877139E+03  0.96054561560E+03  0.10038541896E+04  0.12499747500E+03 0.  0.
          5    1    3    3  502    0  0.12185577915E+03 -0.12832650333E+03  0.49355025292E+03  0.52433812042E+03  0.47000000000E+01 0. -1.
         -5    1    3    3    0  502 -0.64003436337E+01 -0.10857226806E+03  0.46699536268E+03  0.47951606913E+03  0.47000000000E+01 0. -1.
        -11    1    1    2    0    0 -0.37160925386E+02  0.80254941688E+02  0.11965963531E+03  0.14879589498E+03  0.00000000000E+00 0.  1.
         11    1    1    2    0    0 -0.78294510128E+02  0.15664382970E+03  0.55083906559E+03  0.57800605177E+03  0.00000000000E+00 0. -1.
<mgrwt>
<rscale>  0 0.28883800E+03</rscale>
<asrwt>0</asrwt>
<pdfrwt beam="1">  1        1 0.25859230E+00 0.29167680E+03</pdfrwt>
<pdfrwt beam="2">  1       -1 0.76624490E-02 0.29167680E+03</pdfrwt>
<totfact> 0.49976525E+02</totfact>
</mgrwt>
</event>
<event>
 7    1  0.8165933E-006  0.1305716E+03  0.7546771E-02  0.1240056E+00
         -2   -1    0    0    0  501 -0.00000000000E+00  0.00000000000E+00  0.15202671547E+03  0.15202671547E+03  0.00000000000E+00 0.  1.
          2   -1    0    0  501    0  0.00000000000E+00 -0.00000000000E+00 -0.93605588293E+02  0.93605588293E+02  0.00000000000E+00 0. -1.
         23    2    1    2    0    0  0.36839507040E+02  0.81464183074E+01 -0.97799583537E-01  0.13057166557E+03  0.12500174749E+03 0.  0.
          5    1    3    3  502    0  0.40187348484E+02  0.62069859829E+02 -0.11976202712E+02  0.75054712769E+02  0.47000000000E+01 0. -1.
         -5    1    3    3    0  502 -0.33478414444E+01 -0.53923441522E+02  0.11878403128E+02  0.55516952805E+02  0.47000000000E+01 0. -1.
        -11    1    1    2    0    0 -0.43950953928E+01  0.92960085637E+01 -0.23225539778E+02  0.25399967258E+02  0.00000000000E+00 0. -1.
         11    1    1    2    0    0 -0.32444411647E+02 -0.17442426871E+02  0.81744466542E+02  0.89660670935E+02  0.00000000000E+00 0.  1.
<mgrwt>
<rscale>  0 0.12186249E+03</rscale>
<asrwt>0</asrwt>
<pdfrwt beam="2">  1        2 0.14400860E-01 0.13057163E+03</pdfrwt>
<pdfrwt beam="1">  1       -2 0.23388725E-01 0.13057163E+03</pdfrwt>
<totfact> 0.61917443E+03</totfact>
</mgrwt>
</event>
<event>
 7    1  0.8165933E-006  0.1415315E+03  0.7546771E-02  0.1222569E+00
          1   -1    0    0  501    0  0.00000000000E+00  0.00000000000E+00  0.42828720015E+03  0.42828720015E+03  0.00000000000E+00 0. -1.
         -1   -1    0    0    0  501 -0.00000000000E+00 -0.00000000000E+00 -0.38404778704E+02  0.38404778704E+02  0.00000000000E+00 0.  1.
         23    2    1    2    0    0  0.64767717883E+02 -0.14472239734E+02  0.25524248430E+03  0.29185596331E+03  0.12500749790E+03 0.  0.
          5    1    3    3  502    0 -0.37257606154E+02 -0.46254144277E+01  0.53609906017E+02  0.65617342968E+02  0.47000000000E+01 0.  1.
         -5    1    3    3    0  502  0.10202532404E+03 -0.98468253061E+01  0.20163257828E+03  0.22623862035E+03  0.47000000000E+01 0.  1.
        -11    1    1    2    0    0 -0.55717545510E+01 -0.92366852940E+01 -0.11269968967E+02  0.15600416805E+02  0.00000000000E+00 0.  1.
         11    1    1    2    0    0 -0.59195963332E+02  0.23708925028E+02  0.14590990612E+03  0.15923559874E+03  0.00000000000E+00 0. -1.
<mgrwt>
<rscale>  0 0.13334946E+03</rscale>
<asrwt>0</asrwt>
<pdfrwt beam="1">  1        1 0.65890335E-01 0.14153154E+03</pdfrwt>
<pdfrwt beam="2">  1       -1 0.59084278E-02 0.14153154E+03</pdfrwt>
<totfact> 0.72633845E+03</totfact>
</mgrwt>
</event>
<event>
 7    1  0.8256471E-006  0.1354227E+03  0.7546771E-02  0.1231813E+00
          1   -1    0    0  501    0  0.00000000000E+00  0.00000000000E+00  0.56514204259E+03  0.56514204259E+03  0.00000000000E+00 0. -1.
         -1   -1    0    0    0  501 -0.00000000000E+00 -0.00000000000E+00 -0.26938143642E+02  0.26938143642E+02  0.00000000000E+00 0.  1.
         23    2    1    2    0    0  0.45931656893E+02 -0.24579079577E+02  0.36702011627E+03  0.39120721053E+03  0.12500187023E+03 0.  0.
          5    1    3    3  502    0  0.41129035209E+02 -0.66014604502E+02  0.31430991195E+03  0.32382454554E+03  0.47000000000E+01 0.  1.
         -5    1    3    3    0  502  0.48026216844E+01  0.41435524925E+02  0.52710204323E+02  0.67382664986E+02  0.47000000000E+01 0.  1.
        -11    1    1    2    0    0 -0.52396039094E+01  0.88508796936E+01 -0.10099081754E+02  0.14414679072E+02  0.00000000000E+00 0.  1.
         11    1    1    2    0    0 -0.40692052984E+02  0.15728199883E+02  0.18128286442E+03  0.18645829663E+03  0.00000000000E+00 0. -1.
<mgrwt>
<rscale>  0 0.12710705E+03</rscale>
<asrwt>0</asrwt>
<pdfrwt beam="1">  1        1 0.86944921E-01 0.13542273E+03</pdfrwt>
<pdfrwt beam="2">  1       -1 0.41443302E-02 0.13542273E+03</pdfrwt>
<totfact> 0.85300186E+03</totfact>
</mgrwt>
</event>
<event>
 6    1  0.8165933E-006  0.1564609E+03  0.7546771E-02  0.1207457E+00
         -2   -1    0    0    0  501 -0.00000000000E+00  0.00000000000E+00  0.65441529545E+02  0.65441529545E+02  0.00000000000E+00 0.  1.
          2   -1    0    0  501    0  0.00000000000E+00 -0.00000000000E+00 -0.57591537345E+03  0.57591537345E+03  0.00000000000E+00 0. -1.
          5    1    1    2  502    0  0.30658841761E+02  0.63395938914E+02 -0.31376285965E+03  0.32160259910E+03  0.47000000000E+01 0. -1.
         -5    1    1    2    0  502  0.36146368368E+02 -0.70462543558E+02 -0.18996753123E+03  0.20586714869E+03  0.47000000000E+01 0.  1.
        -11    1    1    2    0    0 -0.22301526290E+02  0.43842686506E+02  0.16162985760E+02  0.51776262356E+02  0.00000000000E+00 0.  1.
         11    1    1    2    0    0 -0.44503683839E+02 -0.36776081862E+02 -0.22906438784E+02  0.62110892846E+02  0.00000000000E+00 0. -1.
<mgrwt>
<rscale>  0 0.14445497E+03</rscale>
<asrwt>0</asrwt>
<pdfrwt beam="2">  1        2 0.88602364E-01 0.15646095E+03</pdfrwt>
<pdfrwt beam="1">  1       -2 0.10067928E-01 0.15646095E+03</pdfrwt>
<totfact> 0.34008525E+03</totfact>
</mgrwt>
</event>
<event>
 7    1  0.8165933E-006  0.1383528E+03  0.7546771E-02  0.1226754E+00
         -3   -1    0    0    0  501 -0.00000000000E+00  0.00000000000E+00  0.68903144352E+02  0.68903144352E+02  0.00000000000E+00 0.  1.
          3   -1    0    0  501    0  0.00000000000E+00 -0.00000000000E+00 -0.27598291352E+03  0.27598291352E+03  0.00000000000E+00 0. -1.
         23    2    1    2    0    0 -0.33473807857E+02 -0.48942447883E+02 -0.18860279900E+03  0.23390707457E+03  0.12500257887E+03 0.  0.
          5    1    3    3  502    0 -0.32407943826E+02  0.28178007808E+02 -0.18344953872E+02  0.46935085807E+02  0.47000000000E+01 0. -1.
         -5    1    3    3    0  502 -0.10658640303E+01 -0.77120455691E+02 -0.17025784513E+03  0.18697198876E+03  0.47000000000E+01 0. -1.
        -11    1    1    2    0    0  0.46473834803E+01  0.62608674079E+02 -0.38184010568E+02  0.73481037732E+02  0.00000000000E+00 0.  1.
         11    1    1    2    0    0  0.28826424376E+02 -0.13666226196E+02  0.19707040402E+02  0.37497945573E+02  0.00000000000E+00 0. -1.
<mgrwt>
<rscale>  0 0.13047436E+03</rscale>
<asrwt>0</asrwt>
<pdfrwt beam="2">  1        3 0.42458911E-01 0.13835282E+03</pdfrwt>
<pdfrwt beam="1">  1       -3 0.10600483E-01 0.13835282E+03</pdfrwt>
<totfact> 0.85715620E+02</totfact>
</mgrwt>
</event>
<event>
 7    1  0.8165933E-006  0.1325540E+03  0.7546771E-02  0.1237371E+00
          1   -1    0    0  501    0  0.00000000000E+00  0.00000000000E+00  0.61787348937E+02  0.61787348937E+02  0.00000000000E+00 0. -1.
         -1   -1    0    0    0  501 -0.00000000000E+00 -0.00000000000E+00 -0.23908905974E+03  0.23908905974E+03  0.00000000000E+00 0.  1.
         23    2    1    2    0    0  0.35668545054E+02 -0.25815939795E+02 -0.56613598256E+02  0.14413764232E+03  0.12502740728E+03 0.  0.
          5    1    3    3  502    0  0.20947344292E+02 -0.42706774596E+02  0.28735397035E+02  0.55771613497E+02  0.47000000000E+01 0. -1.
         -5    1    3    3    0  502  0.14721200762E+02  0.16890834801E+02 -0.85348995291E+02  0.88366028819E+02  0.47000000000E+01 0. -1.
        -11    1    1    2    0    0  0.19768720984E+02  0.34641562446E+02 -0.29314763404E+02  0.49499449810E+02  0.00000000000E+00 0. -1.
         11    1    1    2    0    0 -0.55437266038E+02 -0.88256226509E+01 -0.91373349141E+02  0.10723931655E+03  0.00000000000E+00 0.  1.
<mgrwt>
<rscale>  0 0.12353850E+03</rscale>
<asrwt>0</asrwt>
<pdfrwt beam="1">  1        1 0.95057460E-02 0.13255399E+03</pdfrwt>
<pdfrwt beam="2">  1       -1 0.36782932E-01 0.13255399E+03</pdfrwt>
<totfact> 0.46969545E+03</totfact>
</mgrwt>
</event>
<event>
 7    1  0.8165933E-006  0.1568350E+03  0.7546771E-02  0.1200375E+00
          1   -1    0    0  501    0  0.00000000000E+00  0.00000000000E+00  0.87392093475E+02  0.87392093475E+02  0.00000000000E+00 0. -1.
         -1   -1    0    0    0  501 -0.00000000000E+00 -0.00000000000E+00 -0.26334098184E+03  0.26334098184E+03  0.00000000000E+00 0.  1.
         23    2    1    2    0    0 -0.87307673584E+02  0.36719600033E+02 -0.40578050803E+02  0.16199940245E+03  0.12500507707E+03 0.  0.
          5    1    3    3  502    0 -0.69672417868E+02  0.86112253386E+01  0.35542814521E+02  0.78827537558E+02  0.47000000000E+01 0.  1.
         -5    1    3    3    0  502 -0.17635255717E+02  0.28108374694E+02 -0.76120865325E+02  0.83171864894E+02  0.47000000000E+01 0.  1.
        -11    1    1    2    0    0  0.73393633863E+02  0.12524163267E+02 -0.10660399927E+03  0.13003035345E+03  0.00000000000E+00 0.  1.
         11    1    1    2    0    0  0.13914039721E+02 -0.49243763300E+02 -0.28766838291E+02  0.58703319417E+02  0.00000000000E+00 0. -1.
<mgrwt>
<rscale>  0 0.15008000E+03</rscale>
<asrwt>0</asrwt>
<pdfrwt beam="1">  1        1 0.13444937E-01 0.15683503E+03</pdfrwt>
<pdfrwt beam="2">  1       -1 0.40513998E-01 0.15683503E+03</pdfrwt>
<totfact> 0.25350138E+03</totfact>
</mgrwt>
</event>
<event>
 7    1  0.8165933E-006  0.2126150E+03  0.7546771E-02  0.1143478E+00
          1   -1    0    0  501    0  0.00000000000E+00  0.00000000000E+00  0.17020153506E+04  0.17020153506E+04  0.00000000000E+00 0. -1.
         -1   -1    0    0    0  501 -0.00000000000E+00 -0.00000000000E+00 -0.25597327431E+02  0.25597327431E+02  0.00000000000E+00 0.  1.
         23    2    1    2    0    0 -0.12705550804E+03 -0.11592159454E+03  0.10777312382E+04  0.10985034175E+04  0.12499687363E+03 0.  0.
          5    1    3    3  502    0 -0.77404024679E+02 -0.11330174160E+03  0.97107857323E+03  0.98073663798E+03  0.47000000000E+01 0. -1.
         -5    1    3    3    0  502 -0.49651483361E+02 -0.26198529382E+01  0.10665266492E+03  0.11776677954E+03  0.47000000000E+01 0. -1.
        -11    1    1    2    0    0  0.66522902777E+02  0.48578912857E+02  0.42837086603E+03  0.43621875960E+03  0.00000000000E+00 0.  1.
         11    1    1    2    0    0  0.60532605263E+02  0.67342681683E+02  0.17031591895E+03  0.19289050086E+03  0.00000000000E+00 0. -1.
<mgrwt>
<rscale>  0 0.20760390E+03</rscale>
<asrwt>0</asrwt>
<pdfrwt beam="1">  1        1 0.26184843E+00 0.21261500E+03</pdfrwt>
<pdfrwt beam="2">  1       -1 0.39380517E-02 0.21261500E+03</pdfrwt>
<totfact> 0.13308763E+03</totfact>
</mgrwt>
</event>
<event>
 7    1  0.8165933E-006  0.1433298E+03  0.7546771E-02  0.1219112E+00
         -2   -1    0    0    0  501 -0.00000000000E+00  0.00000000000E+00  0.10210672315E+03  0.10210672315E+03  0.00000000000E+00 0. -1.
          2   -1    0    0  501    0  0.00000000000E+00 -0.00000000000E+00 -0.17330809807E+03  0.17330809807E+03  0.00000000000E+00 0.  1.
         23    2    1    2    0    0  0.63917611364E+02 -0.28832407996E+02 -0.71005860194E+02  0.15995392887E+03  0.12500663337E+03 0.  0.
          5    1    3    3  502    0  0.22509168585E+02 -0.75964770150E+02 -0.49133127279E+02  0.93345932801E+02  0.47000000000E+01 0. -1.
         -5    1    3    3    0  502  0.41408442778E+02  0.47132362154E+02 -0.21872732915E+02  0.66607996072E+02  0.47000000000E+01 0. -1.
        -11    1    1    2    0    0 -0.15954573469E+02 -0.51388159748E+01 -0.40743168264E+02  0.44056345790E+02  0.00000000000E+00 0.  1.
         11    1    1    2    0    0 -0.47963037895E+02  0.33971223970E+02  0.40547653534E+02  0.71404546559E+02  0.00000000000E+00 0. -1.
<mgrwt>
<rscale>  0 0.13578785E+03</rscale>
<asrwt>0</asrwt>
<pdfrwt beam="2">  1        2 0.26662785E-01 0.14332978E+03</pdfrwt>
<pdfrwt beam="1">  1       -2 0.15708726E-01 0.14332978E+03</pdfrwt>
<totfact> 0.60551395E+03</totfact>
</mgrwt>
</event>
<event>
 6    1  0.8165933E-006  0.1350343E+03  0.7546771E-02  0.1236268E+00
         -2   -1    0    0    0  501 -0.00000000000E+00  0.00000000000E+00  0.63450994229E+02  0.63450994229E+02  0.00000000000E+00 0.  1.
          2   -1    0    0  501    0  0.00000000000E+00 -0.00000000000E+00 -0.21088199405E+04  0.21088199405E+04  0.00000000000E+00 0. -1.
          5    1    1    2  502    0 -0.10523422506E+02  0.30136310660E+02 -0.19800852421E+04  0.19803480996E+04  0.47000000000E+01 0. -1.
         -5    1    1    2    0  502  0.26918859113E+02 -0.13426749899E+01 -0.88325033044E+02  0.92465286537E+02  0.47000000000E+01 0.  1.
        -11    1    1    2    0    0  0.86515578135E+01 -0.57059022749E+02  0.59924385905E+01  0.58021468871E+02  0.00000000000E+00 0.  1.
         11    1    1    2    0    0 -0.25046994420E+02  0.28265387078E+02  0.17048890333E+02  0.41436079662E+02  0.00000000000E+00 0. -1.
<mgrwt>
<rscale>  0 0.12423611E+03</rscale>
<asrwt>0</asrwt>
<pdfrwt beam="2">  1        2 0.32443383E+00 0.13503432E+03</pdfrwt>
<pdfrwt beam="1">  1       -2 0.97616917E-02 0.13503432E+03</pdfrwt>
<totfact> 0.46581299E+02</totfact>
</mgrwt>
</event>
<event>
 7    1  0.8165933E-006  0.1406946E+03  0.7546771E-02  0.1223672E+00
         -2   -1    0    0    0  501 -0.00000000000E+00  0.00000000000E+00  0.80669101687E+02  0.80669101687E+02  0.00000000000E+00 0.  1.
          2   -1    0    0  501    0  0.00000000000E+00 -0.00000000000E+00 -0.22841666031E+03  0.22841666031E+03  0.00000000000E+00 0. -1.
         23    2    1    2    0    0  0.71399363121E-01  0.64615779270E+02 -0.13902382751E+03  0.19779429892E+03  0.12497902242E+03 0.  0.
          5    1    3    3  502    0  0.71658452561E+01  0.98423012318E+02 -0.12703221476E+03  0.16092766163E+03  0.47000000000E+01 0. -1.
         -5    1    3    3    0  502 -0.70944458930E+01 -0.33807233048E+02 -0.11991612749E+02  0.36866637292E+02  0.47000000000E+01 0. -1.
        -11    1    1    2    0    0 -0.18294507907E+02 -0.70585187330E+02  0.21033763857E+02  0.75890558780E+02  0.00000000000E+00 0.  1.
         11    1    1    2    0    0  0.18223108544E+02  0.59694080606E+01 -0.29757494972E+02  0.35400904291E+02  0.00000000000E+00 0. -1.
<mgrwt>
<rscale>  0 0.13258331E+03</rscale>
<asrwt>0</asrwt>
<pdfrwt beam="2">  1        2 0.35141025E-01 0.14069456E+03</pdfrwt>
<pdfrwt beam="1">  1       -2 0.12410631E-01 0.14069456E+03</pdfrwt>
<totfact> 0.65742110E+03</totfact>
</mgrwt>
</event>
<event>
 7    1  0.8165933E-006  0.1425605E+03  0.7546771E-02  0.1214839E+00
          1   -1    0    0  501    0  0.00000000000E+00  0.00000000000E+00  0.11838590522E+03  0.11838590522E+03  0.00000000000E+00 0. -1.
         -1   -1    0    0    0  501 -0.00000000000E+00 -0.00000000000E+00 -0.16129008780E+03  0.16129008780E+03  0.00000000000E+00 0.  1.
         23    2    1    2    0    0 -0.26772015878E+02 -0.63074449384E+02  0.49265558996E+01  0.14264555068E+03  0.12501341998E+03 0.  0.
          5    1    3    3  502    0  0.46435578498E+02 -0.79085290524E+01  0.16502621305E+02  0.50132168237E+02  0.47000000000E+01 0.  1.
         -5    1    3    3    0  502 -0.73207594376E+02 -0.55165920331E+02 -0.11576065406E+02  0.92513382441E+02  0.47000000000E+01 0.  1.
        -11    1    1    2    0    0  0.52893549522E+02  0.30758034760E+02  0.13777578265E+02  0.62718465751E+02  0.00000000000E+00 0. -1.
         11    1    1    2    0    0 -0.26121533643E+02  0.32316414624E+02 -0.61608316743E+02  0.74311976599E+02  0.00000000000E+00 0.  1.
<mgrwt>
<rscale>  0 0.13888343E+03</rscale>
<asrwt>0</asrwt>
<pdfrwt beam="1">  1        1 0.18213216E-01 0.14256045E+03</pdfrwt>
<pdfrwt beam="2">  1       -1 0.24813860E-01 0.14256045E+03</pdfrwt>
<totfact> 0.39160991E+03</totfact>
</mgrwt>
</event>
<event>
 7    1  0.8165933E-006  0.1519204E+03  0.7546771E-02  0.1205595E+00
          2   -1    0    0  501    0  0.00000000000E+00  0.00000000000E+00  0.43521825522E+03  0.43521825522E+03  0.00000000000E+00 0. -1.
         -2   -1    0    0    0  501 -0.00000000000E+00 -0.00000000000E+00 -0.45745571621E+02  0.45745571621E+02  0.00000000000E+00 0.  1.
         23    2    1    2    0    0 -0.84128016532E+01  0.85927367942E+02  0.18991991018E+03  0.24320643211E+03  0.12500203415E+03 0.  0.
          5    1    3    3  502    0 -0.65000018660E+02  0.33779442489E+02  0.10926625985E+03  0.13163304564E+03  0.47000000000E+01 0. -1.
         -5    1    3    3    0  502  0.56587217007E+02  0.52147925453E+02  0.80653650325E+02  0.11157338647E+03  0.47000000000E+01 0. -1.
        -11    1    1    2    0    0  0.39084416167E+02 -0.89409119072E+02  0.16232622635E+03  0.18939742849E+03  0.00000000000E+00 0.  1.
         11    1    1    2    0    0 -0.30671614514E+02  0.34817511307E+01  0.37226547074E+02  0.48359966242E+02  0.00000000000E+00 0. -1.
<mgrwt>
<rscale>  0 0.14590668E+03</rscale>
<asrwt>0</asrwt>
<pdfrwt beam="1">  1        2 0.66956652E-01 0.15192036E+03</pdfrwt>
<pdfrwt beam="2">  1       -2 0.70377805E-02 0.15192036E+03</pdfrwt>
<totfact> 0.80763574E+03</totfact>
</mgrwt>
</event>
<event>
 7    1  0.8165933E-006  0.1275851E+03  0.7546771E-02  0.1247699E+00
         -1   -1    0    0    0  501 -0.00000000000E+00  0.00000000000E+00  0.90197717954E+02  0.90197717954E+02  0.00000000000E+00 0.  1.
          1   -1    0    0  501    0  0.00000000000E+00 -0.00000000000E+00 -0.14797817565E+03  0.14797817565E+03  0.00000000000E+00 0. -1.
         23    2    1    2    0    0 -0.10763579006E+00  0.13116755803E+02 -0.71316766629E+02  0.14616440932E+03  0.12690899290E+03 0.  0.
          5    1    3    3  502    0 -0.54748151794E+02  0.21660791901E+02 -0.68698708797E+02  0.90598855518E+02  0.47000000000E+01 0. -1.
         -5    1    3    3    0  502  0.54640516004E+02 -0.85440360977E+01 -0.26180578316E+01  0.55565553798E+02  0.47000000000E+01 0.  1.
        -11    1    1    2    0    0 -0.24197451697E+02 -0.41930454398E+02  0.22315065211E+02  0.53307052160E+02  0.00000000000E+00 0.  1.
         11    1    1    2    0    0  0.24305087487E+02  0.28813698595E+02 -0.87787562759E+01  0.38704432126E+02  0.00000000000E+00 0. -1.
<mgrwt>
<rscale>  0 0.11725263E+03</rscale>
<asrwt>0</asrwt>
<pdfrwt beam="2">  1        1 0.22765873E-01 0.12758508E+03</pdfrwt>
<pdfrwt beam="1">  1       -1 0.13876572E-01 0.12758508E+03</pdfrwt>
<totfact> 0.74060546E+03</totfact>
</mgrwt>
</event>
<event>
 7    1  0.8165933E-006  0.1388068E+03  0.7546771E-02  0.1219712E+00
         -3   -1    0    0    0  501 -0.00000000000E+00  0.00000000000E+00  0.34451480484E+03  0.34451480484E+03  0.00000000000E+00 0.  1.
          3   -1    0    0  501    0  0.00000000000E+00 -0.00000000000E+00 -0.62258983068E+02  0.62258983068E+02  0.00000000000E+00 0. -1.
         23    2    1    2    0    0  0.83690866803E+02  0.53120947113E+01  0.59368849157E+02  0.15097012398E+03  0.11061165647E+03 0.  0.
          5    1    3    3  502    0 -0.34896231453E+01  0.42536143011E+02  0.10435368906E+02  0.44186964777E+02  0.47000000000E+01 0. -1.
         -5    1    3    3    0  502  0.87180489948E+02 -0.37224048300E+02  0.48933480251E+02  0.10678315920E+03  0.47000000000E+01 0.  1.
        -11    1    1    2    0    0 -0.10288459235E+02 -0.29907420064E+02  0.13512918598E+03  0.13878113370E+03  0.00000000000E+00 0.  1.
         11    1    1    2    0    0 -0.73402407568E+02  0.24595325352E+02  0.87757786636E+02  0.11702253023E+03  0.00000000000E+00 0. -1.
<mgrwt>
<rscale>  0 0.13536047E+03</rscale>
<asrwt>0</asrwt>
<pdfrwt beam="2">  1        3 0.95783053E-02 0.13880677E+03</pdfrwt>
<pdfrwt beam="1">  1       -3 0.53002277E-01 0.13880677E+03</pdfrwt>
<totfact> 0.65350786E+02</totfact>
</mgrwt>
</event>
<event>
 6    1  0.8165933E-006  0.1935787E+03  0.7546771E-02  0.1166235E+00
         -2   -1    0    0    0  501 -0.00000000000E+00  0.00000000000E+00  0.91400684093E+02  0.91400684093E+02  0.00000000000E+00 0.  1.
          2   -1    0    0  501    0  0.00000000000E+00 -0.00000000000E+00 -0.40358231743E+03  0.40358231743E+03  0.00000000000E+00 0. -1.
          5    1    1    2  502    0 -0.24394380214E+02 -0.18703070165E+02 -0.21539290561E+03  0.21762601960E+03  0.47000000000E+01 0. -1.
         -5    1    1    2    0  502  0.32694987975E+02 -0.99708377045E+02 -0.66447857653E+02  0.12429050840E+03  0.47000000000E+01 0.  1.
        -11    1    1    2    0    0 -0.30079759258E+01  0.12978508569E+03 -0.11361825582E+02  0.13031618267E+03  0.00000000000E+00 0.  1.
         11    1    1    2    0    0 -0.52926318354E+01 -0.11373638476E+02 -0.18979044488E+02  0.22750290847E+02  0.00000000000E+00 0. -1.
<mgrwt>
<rscale>  0 0.18162979E+03</rscale>
<asrwt>0</asrwt>
<pdfrwt beam="2">  1        2 0.62089586E-01 0.19357866E+03</pdfrwt>
<pdfrwt beam="1">  1       -2 0.14061644E-01 0.19357866E+03</pdfrwt>
<totfact> 0.29681332E+03</totfact>
</mgrwt>
</event>
<event>
 7    1  0.8165933E-006  0.1397852E+03  0.7546771E-02  0.1224502E+00
          1   -1    0    0  501    0  0.00000000000E+00  0.00000000000E+00  0.70203714953E+03  0.70203714953E+03  0.00000000000E+00 0.  1.
         -1   -1    0    0    0  501 -0.00000000000E+00 -0.00000000000E+00 -0.30145399549E+02  0.30145399549E+02  0.00000000000E+00 0. -1.
         23    2    1    2    0    0 -0.16209539906E+01 -0.62548910085E+02  0.54873632330E+03  0.56626095448E+03  0.12499968968E+03 0.  0.
          5    1    3    3  502    0 -0.22809293486E+02 -0.33434802209E+02  0.51526880210E+03  0.51687733389E+03  0.47000000000E+01 0.  1.
         -5    1    3    3    0  502  0.21188339496E+02 -0.29114107876E+02  0.33467521199E+02  0.49383620596E+02  0.47000000000E+01 0.  1.
        -11    1    1    2    0    0 -0.36774959257E+02  0.21423209945E+02  0.92563580991E+02  0.10187918373E+03  0.00000000000E+00 0. -1.
         11    1    1    2    0    0  0.38395913247E+02  0.41125700140E+02  0.30591845690E+02  0.64042410860E+02  0.00000000000E+00 0.  1.
<mgrwt>
<rscale>  0 0.13201104E+03</rscale>
<asrwt>0</asrwt>
<pdfrwt beam="1">  1        1 0.10800570E+00 0.13978525E+03</pdfrwt>
<pdfrwt beam="2">  1       -1 0.46377543E-02 0.13978525E+03</pdfrwt>
<totfact> 0.53637651E+03</totfact>
</mgrwt>
</event>
<event>
 7    1  0.8165933E-006  0.1432558E+03  0.7546771E-02  0.1221792E+00
         -1   -1    0    0    0  501 -0.00000000000E+00  0.00000000000E+00  0.85974897576E+02  0.85974897576E+02  0.00000000000E+00 0.  1.
          1   -1    0    0  501    0  0.00000000000E+00 -0.00000000000E+00 -0.19382454425E+03  0.19382454425E+03  0.00000000000E+00 0. -1.
         23    2    1    2    0    0  0.52661163412E+02 -0.46080019232E+02 -0.89606373145E+02  0.16897196438E+03  0.12500262531E+03 0.  0.
          5    1    3    3  502    0  0.45168163147E+02 -0.77589587647E+02 -0.20064565425E+02  0.92113972116E+02  0.47000000000E+01 0.  1.
         -5    1    3    3    0  502  0.74930002650E+01  0.31509568415E+02 -0.69541807720E+02  0.76857992269E+02  0.47000000000E+01 0.  1.
        -11    1    1    2    0    0 -0.20456707910E+02  0.63255140354E+02  0.64011173964E+01  0.66788202429E+02  0.00000000000E+00 0.  1.
         11    1    1    2    0    0 -0.32204455502E+02 -0.17175121122E+02 -0.24644390930E+02  0.44039275017E+02  0.00000000000E+00 0. -1.
<mgrwt>
<rscale>  0 0.13389203E+03</rscale>
<asrwt>0</asrwt>
<pdfrwt beam="2">  1        1 0.29819161E-01 0.14325579E+03</pdfrwt>
<pdfrwt beam="1">  1       -1 0.13226907E-01 0.14325579E+03</pdfrwt>
<totfact> 0.57360071E+03</totfact>
</mgrwt>
</event>
<event>
 7    1  0.8165933E-006  0.1672154E+03  0.7546771E-02  0.1187683E+00
         -2   -1    0    0    0  501 -0.00000000000E+00  0.00000000000E+00  0.14934960520E+03  0.14934960520E+03  0.00000000000E+00 0. -1.
          2   -1    0    0  501    0  0.00000000000E+00 -0.00000000000E+00 -0.16186941658E+03  0.16186941658E+03  0.00000000000E+00 0.  1.
         23    2    1    2    0    0  0.94551656267E+02 -0.58270064167E+02 -0.14577353282E+02  0.16784956625E+03  0.12500224631E+03 0.  0.
          5    1    3    3  502    0  0.37947795656E+00 -0.26685093033E+01 -0.51913045571E+02  0.52195011695E+02  0.47000000000E+01 0. -1.
         -5    1    3    3    0  502  0.94172178310E+02 -0.55601554863E+02  0.37335692289E+02  0.11565455456E+03  0.47000000000E+01 0. -1.
        -11    1    1    2    0    0  0.99381335824E+01  0.33842228944E+02  0.69554273964E+01  0.35950534478E+02  0.00000000000E+00 0.  1.
         11    1    1    2    0    0 -0.10448978985E+03  0.24427835223E+02 -0.48978854982E+01  0.10741892105E+03  0.00000000000E+00 0. -1.
<mgrwt>
<rscale>  0 0.16090151E+03</rscale>
<asrwt>0</asrwt>
<pdfrwt beam="2">  1        2 0.24902987E-01 0.16721536E+03</pdfrwt>
<pdfrwt beam="1">  1       -2 0.22976862E-01 0.16721536E+03</pdfrwt>
<totfact> 0.34687777E+03</totfact>
</mgrwt>
</event>
<event>
 7    1  0.8165933E-006  0.1263330E+03  0.7546771E-02  0.1248049E+00
         -2   -1    0    0    0  501 -0.00000000000E+00  0.00000000000E+00  0.80706681044E+02  0.80706681044E+02  0.00000000000E+00 0. -1.
          2   -1    0    0  501    0  0.00000000000E+00 -0.00000000000E+00 -0.14923208809E+03  0.14923208809E+03  0.00000000000E+00 0.  1.
         23    2    1    2    0    0 -0.13668957843E+02  0.12114703596E+02 -0.42309356279E+02  0.13322955867E+03  0.12500570876E+03 0.  0.
          5    1    3    3  502    0 -0.41098506192E+02  0.26054260448E+02 -0.74077327076E+02  0.88755011607E+02  0.47000000000E+01 0.  1.
         -5    1    3    3    0  502  0.27429548349E+02 -0.13939556852E+02  0.31767970797E+02  0.44474547063E+02  0.47000000000E+01 0.  1.
        -11    1    1    2    0    0  0.22798802273E+02  0.10929643615E+02 -0.53908984558E+02  0.59543438855E+02  0.00000000000E+00 0.  1.
         11    1    1    2    0    0 -0.91298444296E+01 -0.23044347211E+02  0.27692933788E+02  0.37165771612E+02  0.00000000000E+00 0. -1.
<mgrwt>
<rscale>  0 0.11704724E+03</rscale>
<asrwt>0</asrwt>
<pdfrwt beam="2">  1        2 0.22958783E-01 0.12633303E+03</pdfrwt>
<pdfrwt beam="1">  1       -2 0.12416413E-01 0.12633303E+03</pdfrwt>
<totfact> 0.10361323E+04</totfact>
</mgrwt>
</event>
<event>
 7    1  0.8165933E-006  0.1276376E+03  0.7546771E-02  0.1250244E+00
          2   -1    0    0  501    0  0.00000000000E+00  0.00000000000E+00  0.17935511376E+04  0.17935511376E+04  0.00000000000E+00 0. -1.
         -2   -1    0    0    0  501 -0.00000000000E+00 -0.00000000000E+00 -0.10871486080E+02  0.10871486080E+02  0.00000000000E+00 0.  1.
         23    2    1    2    0    0  0.25773616945E+02 -0.16119345258E+01  0.15654836678E+04  0.15706783434E+04  0.12499786634E+03 0.  0.
          5    1    3    3  502    0  0.26698335193E+02  0.49501845142E+02  0.38876830041E+03  0.39284362688E+03  0.47000000000E+01 0. -1.
         -5    1    3    3    0  502 -0.92471824826E+00 -0.51113779668E+02  0.11767153674E+04  0.11778347165E+04  0.47000000000E+01 0. -1.
        -11    1    1    2    0    0 -0.39873010565E+02 -0.31041375446E+02  0.11799129152E+03  0.12835641330E+03  0.00000000000E+00 0.  1.
         11    1    1    2    0    0  0.14099393620E+02  0.32653309972E+02  0.99204692147E+02  0.10538786693E+03  0.00000000000E+00 0. -1.
<mgrwt>
<rscale>  0 0.11576916E+03</rscale>
<asrwt>0</asrwt>
<pdfrwt beam="1">  1        2 0.27593071E+00 0.12763755E+03</pdfrwt>
<pdfrwt beam="2">  1       -2 0.16725377E-02 0.12763755E+03</pdfrwt>
<totfact> 0.93870976E+03</totfact>
</mgrwt>
</event>
<event>
 6    1  0.8165933E-006  0.2474285E+03  0.7546771E-02  0.1142578E+00
         -1   -1    0    0    0  501 -0.00000000000E+00  0.00000000000E+00  0.81967644017E+02  0.81967644017E+02  0.00000000000E+00 0.  1.
          1   -1    0    0  501    0  0.00000000000E+00 -0.00000000000E+00 -0.53179057194E+03  0.53179057194E+03  0.00000000000E+00 0. -1.
          5    1    1    2  502    0  0.16073081190E+03  0.39754575501E+02 -0.29841916557E+03  0.34130764502E+03  0.47000000000E+01 0. -1.
         -5    1    1    2    0  502 -0.78650861235E+02 -0.18250066272E+02 -0.11749264423E+03  0.14263812373E+03  0.47000000000E+01 0.  1.
        -11    1    1    2    0    0 -0.96571227551E+02 -0.25732576334E+02 -0.85592509049E+01  0.10030667102E+03  0.00000000000E+00 0.  1.
         11    1    1    2    0    0  0.14491276884E+02  0.42280671054E+01 -0.25351867205E+02  0.29505776180E+02  0.00000000000E+00 0. -1.
<mgrwt>
<rscale>  0 0.20872732E+03</rscale>
<asrwt>0</asrwt>
<pdfrwt beam="2">  1        1 0.81813934E-01 0.24742852E+03</pdfrwt>
<pdfrwt beam="1">  1       -1 0.12610407E-01 0.24742852E+03</pdfrwt>
<totfact> 0.17556134E+03</totfact>
</mgrwt>
</event>
<event>
 7    1  0.8165933E-006  0.1441352E+03  0.7546771E-02  0.1217890E+00
          1   -1    0    0  501    0  0.00000000000E+00  0.00000000000E+00  0.11392228322E+03  0.11392228322E+03  0.00000000000E+00 0. -1.
         -1   -1    0    0    0  501 -0.00000000000E+00 -0.00000000000E+00 -0.15087152356E+03  0.15087152356E+03  0.00000000000E+00 0.  1.
         23    2    1    2    0    0 -0.71192079213E+02 -0.89589446461E+01 -0.60055594119E+01  0.14426030808E+03  0.12500557952E+03 0.  0.
          5    1    3    3  502    0 -0.82031318173E+02 -0.53503542013E+02 -0.39558781098E+01  0.98130041989E+02  0.47000000000E+01 0.  1.
         -5    1    3    3    0  502  0.10839238961E+02  0.44544597367E+02 -0.20496813021E+01  0.46130266087E+02  0.47000000000E+01 0.  1.
        -11    1    1    2    0    0  0.16328981635E+01 -0.30484251141E+02  0.80458492141E+01  0.31570423082E+02  0.00000000000E+00 0.  1.
         11    1    1    2    0    0  0.69559181049E+02  0.39443195787E+02 -0.38989530147E+02  0.88963075617E+02  0.00000000000E+00 0. -1.
<mgrwt>
<rscale>  0 0.13666377E+03</rscale>
<asrwt>0</asrwt>
<pdfrwt beam="1">  1        1 0.17526505E-01 0.14413525E+03</pdfrwt>
<pdfrwt beam="2">  1       -1 0.23211004E-01 0.14413525E+03</pdfrwt>
<totfact> 0.45922173E+03</totfact>
</mgrwt>
</event>
<event>
 6    1  0.8165933E-006  0.3651899E+03  0.7546771E-02  0.1085877E+00
         -1   -1    0    0    0  501 -0.00000000000E+00  0.00000000000E+00  0.76594349403E+02  0.76594349403E+02  0.00000000000E+00 0.  1.
          1   -1    0    0  501    0  0.00000000000E+00 -0.00000000000E+00 -0.10045921983E+04  0.10045921983E+04  0.00000000000E+00 0. -1.
          5    1    1    2  502    0  0.23435261003E+03 -0.73589013057E+02 -0.43411825945E+03  0.49881583962E+03  0.47000000000E+01 0. -1.
         -5    1    1    2    0  502 -0.10310357876E+03  0.34212726548E+02 -0.34320890683E+03  0.36002125262E+03  0.47000000000E+01 0.  1.
        -11    1    1    2    0    0 -0.95049186707E+02  0.90990218720E+01 -0.14663747365E+03  0.17498482440E+03  0.00000000000E+00 0. -1.
         11    1    1    2    0    0 -0.36199844561E+02  0.30277264637E+02 -0.40332089630E+01  0.47364631052E+02  0.00000000000E+00 0.  1.
<mgrwt>
<rscale>  0 0.29873037E+03</rscale>
<asrwt>0</asrwt>
<pdfrwt beam="2">  1        1 0.15455265E+00 0.36518985E+03</pdfrwt>
<pdfrwt beam="1">  1       -1 0.11783746E-01 0.36518985E+03</pdfrwt>
<totfact> 0.74604322E+02</totfact>
</mgrwt>
</event>
<event>
 7    1  0.8165933E-006  0.1270830E+03  0.7546771E-02  0.1247764E+00
         -1   -1    0    0    0  501 -0.00000000000E+00  0.00000000000E+00  0.10301761481E+03  0.10301761481E+03  0.00000000000E+00 0.  1.
          1   -1    0    0  501    0  0.00000000000E+00 -0.00000000000E+00 -0.40622765031E+03  0.40622765031E+03  0.00000000000E+00 0. -1.
         23    2    1    2    0    0 -0.15200163370E+02  0.17165022624E+02 -0.37282932444E+03  0.39389311389E+03  0.12499758814E+03 0.  0.
          5    1    3    3  502    0 -0.46754948379E+02  0.50871803783E+02 -0.13664833642E+03  0.15319537677E+03  0.47000000000E+01 0.  1.
         -5    1    3    3    0  502  0.31554785008E+02 -0.33706781159E+02 -0.23618098802E+03  0.24069773712E+03  0.47000000000E+01 0.  1.
        -11    1    1    2    0    0  0.72805268525E+01 -0.24318360842E+02  0.89368571196E+02  0.92903876468E+02  0.00000000000E+00 0.  1.
         11    1    1    2    0    0  0.79196365177E+01  0.71533382177E+01 -0.19749282257E+02  0.22448274764E+02  0.00000000000E+00 0. -1.
<mgrwt>
<rscale>  0 0.11721472E+03</rscale>
<asrwt>0</asrwt>
<pdfrwt beam="2">  1        1 0.62496563E-01 0.12708297E+03</pdfrwt>
<pdfrwt beam="1">  1       -1 0.15848864E-01 0.12708297E+03</pdfrwt>
<totfact> 0.17155232E+03</totfact>
</mgrwt>
</event>
<event>
 7    1  0.8165933E-006  0.1629416E+03  0.7546771E-02  0.1192721E+00
         -2   -1    0    0    0  501 -0.00000000000E+00  0.00000000000E+00  0.51731853544E+02  0.51731853544E+02  0.00000000000E+00 0.  1.
          2   -1    0    0  501    0  0.00000000000E+00 -0.00000000000E+00 -0.61356734911E+03  0.61356734911E+03  0.00000000000E+00 0. -1.
         23    2    1    2    0    0  0.79828137146E+00  0.10451905229E+03 -0.47392984713E+03  0.50115813477E+03  0.12500042599E+03 0.  0.
          5    1    3    3  502    0 -0.36023590233E+01  0.10039183963E+03 -0.48060066838E+03  0.49100976661E+03  0.47000000000E+01 0.  1.
         -5    1    3    3    0  502  0.44006403947E+01  0.41272126639E+01  0.66708212481E+01  0.10148368163E+02  0.47000000000E+01 0.  1.
        -11    1    1    2    0    0  0.35353865748E+02 -0.35897036840E+02 -0.50332090606E+01  0.50634240102E+02  0.00000000000E+00 0.  1.
         11    1    1    2    0    0 -0.36152147120E+02 -0.68622015451E+02 -0.82872439372E+02  0.11350682778E+03  0.00000000000E+00 0. -1.
<mgrwt>
<rscale>  0 0.15648719E+03</rscale>
<asrwt>0</asrwt>
<pdfrwt beam="2">  1        2 0.94394981E-01 0.16294163E+03</pdfrwt>
<pdfrwt beam="1">  1       -2 0.79587463E-02 0.16294163E+03</pdfrwt>
<totfact> 0.45761342E+03</totfact>
</mgrwt>
</event>
<event>
 7    1  0.8165933E-006  0.1398392E+03  0.7546771E-02  0.1224369E+00
         -1   -1    0    0    0  501 -0.00000000000E+00  0.00000000000E+00  0.13256159228E+02  0.13256159228E+02  0.00000000000E+00 0.  1.
          1   -1    0    0  501    0  0.00000000000E+00 -0.00000000000E+00 -0.12167185608E+04  0.12167185608E+04  0.00000000000E+00 0. -1.
         23    2    1    2    0    0  0.48056722904E+01 -0.62514360469E+02 -0.75883099726E+03  0.77160837858E+03  0.12499547089E+03 0.  0.
          5    1    3    3  502    0  0.47894494933E+02 -0.76785568602E+02 -0.58053771288E+03  0.58756789588E+03  0.47000000000E+01 0.  1.
         -5    1    3    3    0  502 -0.43088822643E+02  0.14271208133E+02 -0.17829328438E+03  0.18404048270E+03  0.47000000000E+01 0.  1.
        -11    1    1    2    0    0 -0.16906970094E+02  0.82050378810E+02 -0.39333940684E+03  0.40216165814E+03  0.00000000000E+00 0. -1.
         11    1    1    2    0    0  0.12101297804E+02 -0.19536018341E+02 -0.51291997428E+02  0.56204683268E+02  0.00000000000E+00 0.  1.
<mgrwt>
<rscale>  0 0.13210246E+03</rscale>
<asrwt>0</asrwt>
<pdfrwt beam="2">  1        1 0.18718753E+00 0.13983922E+03</pdfrwt>
<pdfrwt beam="1">  1       -1 0.20394085E-02 0.13983922E+03</pdfrwt>
<totfact> 0.72395935E+03</totfact>
</mgrwt>
</event>
<event>
 7    1  0.8165933E-006  0.1374198E+03  0.7546771E-02  0.1228179E+00
          2   -1    0    0  501    0  0.00000000000E+00  0.00000000000E+00  0.21049130665E+03  0.21049130665E+03  0.00000000000E+00 0. -1.
         -2   -1    0    0    0  501 -0.00000000000E+00 -0.00000000000E+00 -0.13803891172E+03  0.13803891172E+03  0.00000000000E+00 0.  1.
         23    2    1    2    0    0  0.11314665763E+02  0.55931682004E+02  0.15874295279E+03  0.20996074559E+03  0.12501125915E+03 0.  0.
          5    1    3    3  502    0 -0.31054327763E+02  0.80625717140E+02  0.11614535759E+03  0.14483339265E+03  0.47000000000E+01 0.  1.
         -5    1    3    3    0  502  0.42368993526E+02 -0.24694035137E+02  0.42597595204E+02  0.65127352940E+02  0.47000000000E+01 0.  1.
        -11    1    1    2    0    0  0.33496334503E+02 -0.51916316117E+02 -0.37839181255E+02  0.72450755292E+02  0.00000000000E+00 0.  1.
         11    1    1    2    0    0 -0.44811000267E+02 -0.40153658866E+01 -0.48451376608E+02  0.66118717496E+02  0.00000000000E+00 0. -1.
<mgrwt>
<rscale>  0 0.12951401E+03</rscale>
<asrwt>0</asrwt>
<pdfrwt beam="1">  1        2 0.32383278E-01 0.13741976E+03</pdfrwt>
<pdfrwt beam="2">  1       -2 0.21236756E-01 0.13741976E+03</pdfrwt>
<totfact> 0.29523831E+03</totfact>
</mgrwt>
</event>
<event>
 7    1  0.8165933E-006  0.1447640E+03  0.7546771E-02  0.1216895E+00
          2   -1    0    0  501    0  0.00000000000E+00  0.00000000000E+00  0.18971131280E+03  0.18971131280E+03  0.00000000000E+00 0.  1.
         -2   -1    0    0    0  501 -0.00000000000E+00 -0.00000000000E+00 -0.10798635592E+03  0.10798635592E+03  0.00000000000E+00 0. -1.
         23    2    1    2    0    0 -0.28572229389E+02 -0.67185155173E+02  0.10391319438E+03  0.17819810160E+03  0.12500557620E+03 0.  0.
          5    1    3    3  502    0  0.33041613038E+02  0.13078504435E+02  0.55154351625E+02  0.65779084621E+02  0.47000000000E+01 0. -1.
         -5    1    3    3    0  502 -0.61613842427E+02 -0.80263659608E+02  0.48758842756E+02  0.11241901698E+03  0.47000000000E+01 0. -1.
        -11    1    1    2    0    0 -0.25788613889E+02  0.11788909340E+02 -0.30257938015E+02  0.41467744123E+02  0.00000000000E+00 0. -1.
         11    1    1    2    0    0  0.54360843278E+02  0.55396245833E+02  0.80697005162E+01  0.78031823000E+02  0.00000000000E+00 0.  1.
<mgrwt>
<rscale>  0 0.13738281E+03</rscale>
<asrwt>0</asrwt>
<pdfrwt beam="1">  1        2 0.29186356E-01 0.14476399E+03</pdfrwt>
<pdfrwt beam="2">  1       -2 0.16613285E-01 0.14476399E+03</pdfrwt>
<totfact> 0.50047371E+03</totfact>
</mgrwt>
</event>
<event>
 7    1  0.8165933E-006  0.1539686E+03  0.7546771E-02  0.1204126E+00
          1   -1    0    0  501    0  0.00000000000E+00  0.00000000000E+00  0.51804097140E+03  0.51804097140E+03  0.00000000000E+00 0. -1.
         -1   -1    0    0    0  501 -0.00000000000E+00 -0.00000000000E+00 -0.50708464013E+02  0.50708464013E+02  0.00000000000E+00 0.  1.
         23    2    1    2    0    0 -0.89315681266E+02 -0.10196244255E+02  0.38945204110E+03  0.41878303774E+03  0.12500034423E+03 0.  0.
          5    1    3    3  502    0 -0.59421055930E+02 -0.66141014614E+02  0.25366450509E+03  0.26883687776E+03  0.47000000000E+01 0.  1.
         -5    1    3    3    0  502 -0.29894625337E+02  0.55944770359E+02  0.13578753602E+03  0.14994615998E+03  0.47000000000E+01 0.  1.
        -11    1    1    2    0    0  0.85523626061E+02 -0.25028383843E+02  0.38723235825E+02  0.97160689609E+02  0.00000000000E+00 0.  1.
         11    1    1    2    0    0  0.37920552051E+01  0.35224628098E+02  0.39157230454E+02  0.52805708064E+02  0.00000000000E+00 0. -1.
<mgrwt>
<rscale>  0 0.14706553E+03</rscale>
<asrwt>0</asrwt>
<pdfrwt beam="1">  1        1 0.79698607E-01 0.15396863E+03</pdfrwt>
<pdfrwt beam="2">  1       -1 0.78013025E-02 0.15396863E+03</pdfrwt>
<totfact> 0.37580544E+03</totfact>
</mgrwt>
</event>
<event>
 7    1  0.8165933E-006  0.1385788E+03  0.7546771E-02  0.1226406E+00
         -1   -1    0    0    0  501 -0.00000000000E+00  0.00000000000E+00  0.15797917483E+03  0.15797917483E+03  0.00000000000E+00 0.  1.
          1   -1    0    0  501    0  0.00000000000E+00 -0.00000000000E+00 -0.97674763259E+02  0.97674763259E+02  0.00000000000E+00 0. -1.
         23    2    1    2    0    0  0.54992364468E+02 -0.23600802577E+02  0.38456174694E+02  0.14381570530E+03  0.12499168647E+03 0.  0.
          5    1    3    3  502    0 -0.31087980108E+02  0.16194517014E+02  0.33534445197E+02  0.48737807739E+02  0.47000000000E+01 0.  1.
         -5    1    3    3    0  502  0.86080344577E+02 -0.39795319591E+02  0.49217294974E+01  0.95077897563E+02  0.47000000000E+01 0.  1.
        -11    1    1    2    0    0  0.92263869118E+01 -0.47066317589E+01  0.38366177913E+02  0.39739680492E+02  0.00000000000E+00 0.  1.
         11    1    1    2    0    0 -0.64218751380E+02  0.28307434336E+02 -0.16517941033E+02  0.72098552298E+02  0.00000000000E+00 0. -1.
<mgrwt>
<rscale>  0 0.13070969E+03</rscale>
<asrwt>0</asrwt>
<pdfrwt beam="2">  1        1 0.15026887E-01 0.13857879E+03</pdfrwt>
<pdfrwt beam="1">  1       -1 0.24304488E-01 0.13857879E+03</pdfrwt>
<totfact> 0.51815630E+03</totfact>
</mgrwt>
</event>
<event>
 7    1  0.8165933E-006  0.1763281E+03  0.7546771E-02  0.1177242E+00
         -1   -1    0    0    0  501 -0.00000000000E+00  0.00000000000E+00  0.28101184913E+02  0.28101184913E+02  0.00000000000E+00 0.  1.
          1   -1    0    0  501    0  0.00000000000E+00 -0.00000000000E+00 -0.97858172928E+03  0.97858172928E+03  0.00000000000E+00 0. -1.
         23    2    1    2    0    0  0.79680788523E+02 -0.95526710406E+02 -0.54319069629E+03  0.57109344096E+03  0.12496881736E+03 0.  0.
          5    1    3    3  502    0  0.29666858977E+02 -0.11660786655E+03 -0.40605068112E+03  0.42352893962E+03  0.47000000000E+01 0. -1.
         -5    1    3    3    0  502  0.50013929546E+02  0.21081156146E+02 -0.13714001518E+03  0.14756450134E+03  0.47000000000E+01 0. -1.
        -11    1    1    2    0    0 -0.19409778292E+02  0.95881745839E+01 -0.85685007844E+01  0.23282864748E+02  0.00000000000E+00 0.  1.
         11    1    1    2    0    0 -0.60271010231E+02  0.85938535822E+02 -0.39872134729E+03  0.41230660848E+03  0.00000000000E+00 0. -1.
<mgrwt>
<rscale>  0 0.17058245E+03</rscale>
<asrwt>0</asrwt>
<pdfrwt beam="2">  1        1 0.15055102E+00 0.17632806E+03</pdfrwt>
<pdfrwt beam="1">  1       -1 0.43232595E-02 0.17632806E+03</pdfrwt>
<totfact> 0.35935654E+03</totfact>
</mgrwt>
</event>
<event>
 7    1  0.8165933E-006  0.1449279E+03  0.7546771E-02  0.1217072E+00
         -1   -1    0    0    0  501 -0.00000000000E+00  0.00000000000E+00  0.10559752598E+03  0.10559752598E+03  0.00000000000E+00 0.  1.
          1   -1    0    0  501    0  0.00000000000E+00 -0.00000000000E+00 -0.17628374235E+03  0.17628374235E+03  0.00000000000E+00 0. -1.
         23    2    1    2    0    0  0.21377635317E+02  0.70151258380E+02 -0.78885426147E+02  0.16500610333E+03  0.12500360529E+03 0.  0.
          5    1    3    3  502    0 -0.14108316249E+02 -0.75722464869E+01 -0.77654085326E+02  0.79426887589E+02  0.47000000000E+01 0.  1.
         -5    1    3    3    0  502  0.35485951566E+02  0.77723504867E+02 -0.12313408208E+01  0.85579215745E+02  0.47000000000E+01 0.  1.
        -11    1    1    2    0    0 -0.46986821645E+02 -0.43821682040E+02  0.33320230805E+02  0.72376370495E+02  0.00000000000E+00 0.  1.
         11    1    1    2    0    0  0.25609186328E+02 -0.26329576340E+02 -0.25121021032E+02  0.44498794504E+02  0.00000000000E+00 0. -1.
<mgrwt>
<rscale>  0 0.13725456E+03</rscale>
<asrwt>0</asrwt>
<pdfrwt beam="2">  1        1 0.27120576E-01 0.14492793E+03</pdfrwt>
<pdfrwt beam="1">  1       -1 0.16245773E-01 0.14492793E+03</pdfrwt>
<totfact> 0.46822979E+03</totfact>
</mgrwt>
</event>
<event>
 7    1  0.8165933E-006  0.1536857E+03  0.7546771E-02  0.1204578E+00
          2   -1    0    0  501    0  0.00000000000E+00  0.00000000000E+00  0.50540472239E+03  0.50540472239E+03  0.00000000000E+00 0. -1.
         -2   -1    0    0    0  501 -0.00000000000E+00 -0.00000000000E+00 -0.51019215334E+02  0.51019215334E+02  0.00000000000E+00 0.  1.
         23    2    1    2    0    0  0.16034364581E+02  0.84352522707E+02  0.37713359231E+03  0.40724566996E+03  0.12746309394E+03 0.  0.
          5    1    3    3  502    0 -0.46113282192E+02  0.45748403106E+02  0.26781761751E+03  0.27562241823E+03  0.47000000000E+01 0. -1.
         -5    1    3    3    0  502  0.62147646773E+02  0.38604119602E+02  0.10931597479E+03  0.13162325173E+03  0.47000000000E+01 0.  1.
        -11    1    1    2    0    0 -0.37237547923E+02 -0.96253017293E+02  0.60185592546E+02  0.11947210496E+03  0.00000000000E+00 0.  1.
         11    1    1    2    0    0  0.21203183342E+02  0.11900494586E+02  0.17066322203E+02  0.29706162808E+02  0.00000000000E+00 0. -1.
<mgrwt>
<rscale>  0 0.14670768E+03</rscale>
<asrwt>0</asrwt>
<pdfrwt beam="1">  1        2 0.77754569E-01 0.15368568E+03</pdfrwt>
<pdfrwt beam="2">  1       -2 0.78491104E-02 0.15368568E+03</pdfrwt>
<totfact> 0.58013625E+03</totfact>
</mgrwt>
</event>
<event>
 7    1  0.8165933E-006  0.1359615E+03  0.7546771E-02  0.1232270E+00
         -2   -1    0    0    0  501 -0.00000000000E+00  0.00000000000E+00  0.47755762231E+02  0.47755762231E+02  0.00000000000E+00 0.  1.
          2   -1    0    0  501    0  0.00000000000E+00 -0.00000000000E+00 -0.37072434262E+03  0.37072434262E+03  0.00000000000E+00 0. -1.
         23    2    1    2    0    0  0.18424630944E+02 -0.50188957101E+02 -0.27105198957E+03  0.30324033267E+03  0.12500847917E+03 0.  0.
          5    1    3    3  502    0  0.58950615215E+02  0.10975603483E+02 -0.15000353027E+03  0.16161308115E+03  0.47000000000E+01 0.  1.
         -5    1    3    3    0  502 -0.40525984271E+02 -0.61164560584E+02 -0.12104845930E+03  0.14162725152E+03  0.47000000000E+01 0.  1.
        -11    1    1    2    0    0 -0.39756324726E+02  0.20254465593E+02  0.76257551451E+01  0.45265449006E+02  0.00000000000E+00 0. -1.
         11    1    1    2    0    0  0.21331693783E+02  0.29934491508E+02 -0.59542345959E+02  0.69974323175E+02  0.00000000000E+00 0.  1.
<mgrwt>
<rscale>  0 0.12680827E+03</rscale>
<asrwt>0</asrwt>
<pdfrwt beam="2">  1        2 0.57034512E-01 0.13596146E+03</pdfrwt>
<pdfrwt beam="1">  1       -2 0.73470407E-02 0.13596146E+03</pdfrwt>
<totfact> 0.89129775E+03</totfact>
</mgrwt>
</event>
<event>
 7    1  0.8165933E-006  0.1253572E+03  0.7546771E-02  0.1249113E+00
         -4   -1    0    0    0  501 -0.00000000000E+00  0.00000000000E+00  0.24318483099E+03  0.24318483099E+03  0.00000000000E+00 0.  1.
          4   -1    0    0  501    0  0.00000000000E+00 -0.00000000000E+00 -0.56109671276E+02  0.56109671276E+02  0.00000000000E+00 0. -1.
         23    2    1    2    0    0  0.94461951272E+01  0.35661269212E+00  0.53307895540E+02  0.13622095047E+03  0.12500023138E+03 0.  0.
          5    1    3    3  502    0  0.72099034003E+01  0.40658499517E+02  0.78206397193E+02  0.88563123544E+02  0.47000000000E+01 0. -1.
         -5    1    3    3    0  502  0.22362917269E+01 -0.40301886825E+02 -0.24898501654E+02  0.47657826922E+02  0.47000000000E+01 0. -1.
        -11    1    1    2    0    0 -0.13203477191E+02 -0.36259691561E+02  0.11713399475E+03  0.12332667906E+03  0.00000000000E+00 0.  1.
         11    1    1    2    0    0  0.37572820635E+01  0.35903078868E+02  0.16633269422E+02  0.39746872738E+02  0.00000000000E+00 0. -1.
<mgrwt>
<rscale>  0 0.11642531E+03</rscale>
<asrwt>0</asrwt>
<pdfrwt beam="2">  1        4 0.86322572E-02 0.12535715E+03</pdfrwt>
<pdfrwt beam="1">  1       -4 0.37413050E-01 0.12535715E+03</pdfrwt>
<totfact> 0.10946148E+03</totfact>
</mgrwt>
</event>
<event>
 7    1  0.8165933E-006  0.1423218E+03  0.7546771E-02  0.1221634E+00
         -2   -1    0    0    0  501 -0.00000000000E+00  0.00000000000E+00  0.24907994766E+02  0.24907994766E+02  0.00000000000E+00 0.  1.
          2   -1    0    0  501    0  0.00000000000E+00 -0.00000000000E+00 -0.65205795513E+03  0.65205795513E+03  0.00000000000E+00 0. -1.
         23    2    1    2    0    0 -0.16882399257E+02 -0.65867466748E+02 -0.32587598232E+03  0.35559900408E+03  0.12502782598E+03 0.  0.
          5    1    3    3  502    0 -0.22821463769E+02  0.16245219638E+02 -0.21786328904E+03  0.21970714390E+03  0.47000000000E+01 0. -1.
         -5    1    3    3    0  502  0.59390645126E+01 -0.82112686386E+02 -0.10801269328E+03  0.13589186017E+03  0.47000000000E+01 0. -1.
        -11    1    1    2    0    0  0.10605521978E+02  0.42185220636E+01  0.22060212215E+01  0.11624953955E+02  0.00000000000E+00 0.  1.
         11    1    1    2    0    0  0.62768772793E+01  0.61648944684E+02 -0.30347999926E+03  0.30974199186E+03  0.00000000000E+00 0. -1.
<mgrwt>
<rscale>  0 0.13400278E+03</rscale>
<asrwt>0</asrwt>
<pdfrwt beam="2">  1        2 0.10031659E+00 0.14232180E+03</pdfrwt>
<pdfrwt beam="1">  1       -2 0.38320000E-02 0.14232180E+03</pdfrwt>
<totfact> 0.12808134E+04</totfact>
</mgrwt>
</event>
<event>
 7    1  0.8165933E-006  0.1512075E+03  0.7546771E-02  0.1208387E+00
          1   -1    0    0  501    0  0.00000000000E+00  0.00000000000E+00  0.60146430865E+03  0.60146430865E+03  0.00000000000E+00 0. -1.
         -1   -1    0    0    0  501 -0.00000000000E+00 -0.00000000000E+00 -0.31684115340E+02  0.31684115340E+02  0.00000000000E+00 0.  1.
         23    2    1    2    0    0 -0.85085202442E+02 -0.13891131406E+02  0.34523489824E+03  0.37689631575E+03  0.12422255294E+03 0.  0.
          5    1    3    3  502    0 -0.19407338636E+02 -0.37272473517E+01 -0.45550654978E+01  0.20817679685E+02  0.47000000000E+01 0. -1.
         -5    1    3    3    0  502 -0.65677863805E+02 -0.10163884054E+02  0.34978996374E+03  0.35607863607E+03  0.47000000000E+01 0. -1.
        -11    1    1    2    0    0  0.98638581338E+02 -0.66454387476E+01  0.18017777392E+03  0.20551827608E+03  0.00000000000E+00 0.  1.
         11    1    1    2    0    0 -0.13553378896E+02  0.20536570154E+02  0.44367521151E+02  0.50733832166E+02  0.00000000000E+00 0. -1.
<mgrwt>
<rscale>  0 0.14373723E+03</rscale>
<asrwt>0</asrwt>
<pdfrwt beam="1">  1        1 0.92532962E-01 0.15120747E+03</pdfrwt>
<pdfrwt beam="2">  1       -1 0.48744797E-02 0.15120747E+03</pdfrwt>
<totfact> 0.62101503E+03</totfact>
</mgrwt>
</event>
<event>
 7    1  0.8165933E-006  0.1199569E+03  0.7546771E-02  0.1256498E+00
          2   -1    0    0  501    0  0.00000000000E+00  0.00000000000E+00  0.42548570211E+03  0.42548570211E+03  0.00000000000E+00 0. -1.
         -2   -1    0    0    0  501 -0.00000000000E+00 -0.00000000000E+00 -0.26831683284E+02  0.26831683284E+02  0.00000000000E+00 0.  1.
         23    2    1    2    0    0 -0.73642095676E+01  0.59317087509E+01  0.25458591186E+03  0.28143143737E+03  0.11958365553E+03 0.  0.
          5    1    3    3  502    0 -0.73300883523E+01  0.53037071286E+02  0.20867629897E+03  0.21548677193E+03  0.47000000000E+01 0. -1.
         -5    1    3    3    0  502 -0.34121215296E-01 -0.47105362535E+02  0.45909612889E+02  0.65944665435E+02  0.47000000000E+01 0.  1.
        -11    1    1    2    0    0 -0.26471321207E+02  0.28601927867E+02  0.38539240900E+02  0.54809435441E+02  0.00000000000E+00 0. -1.
         11    1    1    2    0    0  0.33835530775E+02 -0.34533636618E+02  0.10552886607E+03  0.11607651259E+03  0.00000000000E+00 0.  1.
<mgrwt>
<rscale>  0 0.11222844E+03</rscale>
<asrwt>0</asrwt>
<pdfrwt beam="1">  1        2 0.65459334E-01 0.11995694E+03</pdfrwt>
<pdfrwt beam="2">  1       -2 0.41279516E-02 0.11995694E+03</pdfrwt>
<totfact> 0.18169810E+04</totfact>
</mgrwt>
</event>
<event>
 7    1  0.8165933E-006  0.1511563E+03  0.7546771E-02  0.1208618E+00
          1   -1    0    0  501    0  0.00000000000E+00  0.00000000000E+00  0.39746111910E+03  0.39746111910E+03  0.00000000000E+00 0. -1.
         -1   -1    0    0    0  501 -0.00000000000E+00 -0.00000000000E+00 -0.56173909883E+02  0.56173909883E+02  0.00000000000E+00 0.  1.
         23    2    1    2    0    0 -0.69816797814E+02 -0.48418045186E+02  0.27529486715E+03  0.31406286011E+03  0.12501809416E+03 0.  0.
          5    1    3    3  502    0 -0.80263986887E+02  0.10181901945E+02  0.21241463592E+03  0.22735005228E+03  0.47000000000E+01 0.  1.
         -5    1    3    3    0  502  0.10447189073E+02 -0.58599947131E+02  0.62880231230E+02  0.86712807836E+02  0.47000000000E+01 0.  1.
        -11    1    1    2    0    0  0.65033060735E+01 -0.12142742355E+02  0.48252733532E+02  0.50180329564E+02  0.00000000000E+00 0. -1.
         11    1    1    2    0    0  0.63313491741E+02  0.60560787541E+02  0.17739608540E+02  0.89391839309E+02  0.00000000000E+00 0.  1.
<mgrwt>
<rscale>  0 0.14355984E+03</rscale>
<asrwt>0</asrwt>
<pdfrwt beam="1">  1        1 0.61147863E-01 0.15115626E+03</pdfrwt>
<pdfrwt beam="2">  1       -1 0.86421402E-02 0.15115626E+03</pdfrwt>
<totfact> 0.45242657E+03</totfact>
</mgrwt>
</event>
<event>
 6    1  0.8165933E-006  0.2750677E+03  0.7546771E-02  0.1126243E+00
          2   -1    0    0  501    0  0.00000000000E+00  0.00000000000E+00  0.25585222605E+03  0.25585222605E+03  0.00000000000E+00 0. -1.
         -2   -1    0    0    0  501 -0.00000000000E+00 -0.00000000000E+00 -0.51071176150E+03  0.51071176150E+03  0.00000000000E+00 0.  1.
          5    1    1    2  502    0  0.46492724207E+02  0.80864161318E+02  0.21325189842E+03  0.23280689029E+03  0.47000000000E+01 0. -1.
         -5    1    1    2    0  502 -0.75622463273E+02  0.15438912180E+02 -0.45167863499E+02  0.89550783658E+02  0.47000000000E+01 0.  1.
        -11    1    1    2    0    0  0.11529796998E+01 -0.10574306358E+03 -0.34566069593E+03  0.36147509121E+03  0.00000000000E+00 0.  1.
         11    1    1    2    0    0  0.27976759365E+02  0.94399900819E+01 -0.77282874439E+02  0.82731222394E+02  0.00000000000E+00 0. -1.
<mgrwt>
<rscale>  0 0.23056525E+03</rscale>
<asrwt>0</asrwt>
<pdfrwt beam="1">  1        2 0.39361881E-01 0.27506768E+03</pdfrwt>
<pdfrwt beam="2">  1       -2 0.78571040E-01 0.27506768E+03</pdfrwt>
<totfact> 0.19405110E+02</totfact>
</mgrwt>
</event>
<event>
 7    1  0.8165933E-006  0.1898692E+03  0.7546771E-02  0.1163259E+00
         -2   -1    0    0    0  501 -0.00000000000E+00  0.00000000000E+00  0.25564696634E+02  0.25564696634E+02  0.00000000000E+00 0.  1.
          2   -1    0    0  501    0  0.00000000000E+00 -0.00000000000E+00 -0.14336754978E+04  0.14336754978E+04  0.00000000000E+00 0. -1.
         23    2    1    2    0    0 -0.44623242815E+02  0.13577275277E+03 -0.98517407048E+03  0.10033036722E+04  0.12499934151E+03 0.  0.
          5    1    3    3  502    0  0.42190206537E+01 -0.13616108334E+02 -0.29763364159E+03  0.29801186746E+03  0.47000000000E+01 0.  1.
         -5    1    3    3    0  502 -0.48842263469E+02  0.14938886110E+03 -0.68754042889E+03  0.70529180477E+03  0.47000000000E+01 0.  1.
        -11    1    1    2    0    0  0.65958485267E+02 -0.13329550111E+03 -0.37459607791E+03  0.40303899809E+03  0.00000000000E+00 0.  1.
         11    1    1    2    0    0 -0.21335242452E+02 -0.24772516595E+01 -0.48340652778E+02  0.52897524113E+02  0.00000000000E+00 0. -1.
<mgrwt>
<rscale>  0 0.18477600E+03</rscale>
<asrwt>0</asrwt>
<pdfrwt beam="2">  1        2 0.22056551E+00 0.18986919E+03</pdfrwt>
<pdfrwt beam="1">  1       -2 0.39330294E-02 0.18986919E+03</pdfrwt>
<totfact> 0.41550084E+03</totfact>
</mgrwt>
</event>
<event>
 7    1  0.8165933E-006  0.1383433E+03  0.7546771E-02  0.1225543E+00
         -2   -1    0    0    0  501 -0.00000000000E+00  0.00000000000E+00  0.23365780458E+03  0.23365780458E+03  0.00000000000E+00 0.  1.
          2   -1    0    0  501    0  0.00000000000E+00 -0.00000000000E+00 -0.67210938449E+02  0.67210938449E+02  0.00000000000E+00 0. -1.
         23    2    1    2    0    0 -0.18944300104E+02  0.56173048600E+02  0.88900544660E+02  0.16444505052E+03  0.12499827960E+03 0.  0.
          5    1    3    3  502    0  0.43637087504E+02  0.60135043583E+02  0.58034832636E+02  0.94395713206E+02  0.47000000000E+01 0.  1.
         -5    1    3    3    0  502 -0.62581387608E+02 -0.39619949825E+01  0.30865712024E+02  0.70049337313E+02  0.47000000000E+01 0.  1.
        -11    1    1    2    0    0  0.40260498508E+02 -0.74136480228E+02  0.57949524902E+02  0.10234878054E+03  0.00000000000E+00 0.  1.
         11    1    1    2    0    0 -0.21316198405E+02  0.17963431628E+02  0.19596796566E+02  0.34074911973E+02  0.00000000000E+00 0. -1.
<mgrwt>
<rscale>  0 0.13129744E+03</rscale>
<asrwt>0</asrwt>
<pdfrwt beam="2">  1        2 0.10340145E-01 0.13834330E+03</pdfrwt>
<pdfrwt beam="1">  1       -2 0.35947354E-01 0.13834330E+03</pdfrwt>
<totfact> 0.42869013E+03</totfact>
</mgrwt>
</event>
<event>
 7    1  0.8165933E-006  0.1724423E+03  0.7546771E-02  0.1181595E+00
         -2   -1    0    0    0  501 -0.00000000000E+00  0.00000000000E+00  0.71406016916E+02  0.71406016916E+02  0.00000000000E+00 0.  1.
          2   -1    0    0  501    0  0.00000000000E+00 -0.00000000000E+00 -0.80087208315E+03  0.80087208315E+03  0.00000000000E+00 0. -1.
         23    2    1    2    0    0 -0.17094646674E+02 -0.11755834167E+03 -0.69840052886E+03  0.71937447510E+03  0.12499658423E+03 0.  0.
          5    1    3    3  502    0  0.37664364659E+02 -0.71457767131E+02 -0.19856734650E+03  0.21441991033E+03  0.47000000000E+01 0. -1.
         -5    1    3    3    0  502 -0.54759011333E+02 -0.46100574542E+02 -0.49983318236E+03  0.50495456477E+03  0.47000000000E+01 0. -1.
        -11    1    1    2    0    0  0.39555796368E+02  0.27455112642E+02  0.13351282270E+02  0.49966998856E+02  0.00000000000E+00 0.  1.
         11    1    1    2    0    0 -0.22461149694E+02  0.90103229032E+02 -0.44416819640E+02  0.10293662611E+03  0.00000000000E+00 0. -1.
<mgrwt>
<rscale>  0 0.16645575E+03</rscale>
<asrwt>0</asrwt>
<pdfrwt beam="2">  1        2 0.12321110E+00 0.17244227E+03</pdfrwt>
<pdfrwt beam="1">  1       -2 0.10985540E-01 0.17244227E+03</pdfrwt>
<totfact> 0.20065384E+03</totfact>
</mgrwt>
</event>
<event>
 7    1  0.8165933E-006  0.1557778E+03  0.7546771E-02  0.1201889E+00
          1   -1    0    0  501    0  0.00000000000E+00  0.00000000000E+00  0.17719152488E+03  0.17719152488E+03  0.00000000000E+00 0. -1.
         -1   -1    0    0    0  501 -0.00000000000E+00 -0.00000000000E+00 -0.25143401456E+03  0.25143401456E+03  0.00000000000E+00 0.  1.
         23    2    1    2    0    0  0.61058985723E+02  0.70088608640E+02  0.11883706536E+03  0.19593107299E+03  0.12500449776E+03 0.  0.
          5    1    3    3  502    0  0.47641545911E+02  0.55046961803E+02  0.14515125288E+03  0.16245264268E+03  0.47000000000E+01 0. -1.
         -5    1    3    3    0  502  0.13417439812E+02  0.15041646837E+02 -0.26314187525E+02  0.33478430306E+02  0.47000000000E+01 0. -1.
        -11    1    1    2    0    0 -0.60994756542E+02 -0.19096107973E+02 -0.15899183343E+03  0.17135759324E+03  0.00000000000E+00 0. -1.
         11    1    1    2    0    0 -0.64229180905E-01 -0.50992500667E+02 -0.34087721618E+02  0.61336873207E+02  0.00000000000E+00 0.  1.
<mgrwt>
<rscale>  0 0.14885348E+03</rscale>
<asrwt>0</asrwt>
<pdfrwt beam="1">  1        1 0.27260235E-01 0.15577785E+03</pdfrwt>
<pdfrwt beam="2">  1       -1 0.38682156E-01 0.15577785E+03</pdfrwt>
<totfact> 0.11120023E+03</totfact>
</mgrwt>
</event>
<event>
 7    1  0.8165933E-006  0.1580305E+03  0.7546771E-02  0.1199190E+00
          2   -1    0    0  501    0  0.00000000000E+00  0.00000000000E+00  0.49265819106E+03  0.49265819106E+03  0.00000000000E+00 0. -1.
         -2   -1    0    0    0  501 -0.00000000000E+00 -0.00000000000E+00 -0.44339878280E+02  0.44339878280E+02  0.00000000000E+00 0.  1.
         23    2    1    2    0    0 -0.50538678872E+02 -0.82423146653E+02  0.29571262039E+03  0.33529032514E+03  0.12500366036E+03 0.  0.
          5    1    3    3  502    0  0.29487956668E+02  0.12974523588E+02  0.76448072439E+02  0.83091970914E+02  0.47000000000E+01 0.  1.
         -5    1    3    3    0  502 -0.80026635540E+02 -0.95397670240E+02  0.21926454796E+03  0.25219835422E+03  0.47000000000E+01 0.  1.
        -11    1    1    2    0    0  0.56203832519E+02  0.59526519899E+02  0.48913530312E+02  0.95366717510E+02  0.00000000000E+00 0.  1.
         11    1    1    2    0    0 -0.56651536470E+01  0.22896626754E+02  0.10369216208E+03  0.10634102670E+03  0.00000000000E+00 0. -1.
<mgrwt>
<rscale>  0 0.15104858E+03</rscale>
<asrwt>0</asrwt>
<pdfrwt beam="1">  1        2 0.75793564E-01 0.15803053E+03</pdfrwt>
<pdfrwt beam="2">  1       -2 0.68215201E-02 0.15803053E+03</pdfrwt>
<totfact> 0.74184432E+03</totfact>
</mgrwt>
</event>
<event>
 7    1  0.8165933E-006  0.1304400E+03  0.7546771E-02  0.1236765E+00
          1   -1    0    0  501    0  0.00000000000E+00  0.00000000000E+00  0.89644649112E+03  0.89644649112E+03  0.00000000000E+00 0. -1.
         -1   -1    0    0    0  501 -0.00000000000E+00 -0.00000000000E+00 -0.17003768424E+02  0.17003768424E+02  0.00000000000E+00 0.  1.
         23    2    1    2    0    0  0.35008218301E+02  0.12604077790E+02  0.61047514975E+03  0.62425515495E+03  0.12502060589E+03 0.  0.
          5    1    3    3  502    0  0.69770937130E+02 -0.70650870368E+01  0.20345963133E+03  0.21525754505E+03  0.47000000000E+01 0. -1.
         -5    1    3    3    0  502 -0.34762718829E+02  0.19669164827E+02  0.40701551842E+03  0.40899760990E+03  0.47000000000E+01 0. -1.
        -11    1    1    2    0    0 -0.42992043221E+02  0.10118532936E+02  0.25963647738E+03  0.26336628652E+03  0.00000000000E+00 0. -1.
         11    1    1    2    0    0  0.79838249198E+01 -0.22722610726E+02  0.93310955670E+01  0.25828818073E+02  0.00000000000E+00 0.  1.
<mgrwt>
<rscale>  0 0.12392132E+03</rscale>
<asrwt>0</asrwt>
<pdfrwt beam="1">  1        1 0.13791481E+00 0.13043999E+03</pdfrwt>
<pdfrwt beam="2">  1       -1 0.26159651E-02 0.13043999E+03</pdfrwt>
<totfact> 0.85488939E+03</totfact>
</mgrwt>
</event>
<event>
 7    1  0.8165933E-006  0.1267597E+03  0.7546771E-02  0.1246560E+00
          3   -1    0    0  501    0  0.00000000000E+00  0.00000000000E+00  0.14268888171E+03  0.14268888171E+03  0.00000000000E+00 0. -1.
         -3   -1    0    0    0  501 -0.00000000000E+00 -0.00000000000E+00 -0.86158770459E+02  0.86158770459E+02  0.00000000000E+00 0.  1.
         23    2    1    2    0    0 -0.11028583117E+02 -0.17910252183E+02  0.34688722296E+02  0.13142046043E+03  0.12500249272E+03 0.  0.
          5    1    3    3  502    0 -0.48865729467E+02  0.27221699179E+02  0.44368831652E+02  0.71551126089E+02  0.47000000000E+01 0. -1.
         -5    1    3    3    0  502  0.37837146349E+02 -0.45131951361E+02 -0.96801093560E+01  0.59869334343E+02  0.47000000000E+01 0. -1.
        -11    1    1    2    0    0 -0.15364283181E+02  0.21838107637E+01 -0.31927839866E+02  0.35499537823E+02  0.00000000000E+00 0.  1.
         11    1    1    2    0    0  0.26392866299E+02  0.15726441419E+02  0.53769228825E+02  0.61927653916E+02  0.00000000000E+00 0. -1.
<mgrwt>
<rscale>  0 0.11792524E+03</rscale>
<asrwt>0</asrwt>
<pdfrwt beam="1">  1        3 0.21952136E-01 0.12675973E+03</pdfrwt>
<pdfrwt beam="2">  1       -3 0.13255195E-01 0.12675973E+03</pdfrwt>
<totfact> 0.19753274E+03</totfact>
</mgrwt>
</event>
<event>
 7    1  0.8165933E-006  0.1596182E+03  0.7546771E-02  0.1196553E+00
         -2   -1    0    0    0  501 -0.00000000000E+00  0.00000000000E+00  0.28177441856E+02  0.28177441856E+02  0.00000000000E+00 0.  1.
          2   -1    0    0  501    0  0.00000000000E+00 -0.00000000000E+00 -0.91364825826E+03  0.91364825826E+03  0.00000000000E+00 0. -1.
         23    2    1    2    0    0 -0.64686079842E+02  0.75265905195E+02 -0.65739436964E+03  0.67649488747E+03  0.12501491964E+03 0.  0.
          5    1    3    3  502    0  0.23956093852E+02  0.18564935641E+02 -0.35420262936E+03  0.35552797909E+03  0.47000000000E+01 0.  1.
         -5    1    3    3    0  502 -0.88642173693E+02  0.56700969554E+02 -0.30319174028E+03  0.32096690838E+03  0.47000000000E+01 0.  1.
        -11    1    1    2    0    0  0.32765380414E+02  0.15204789312E+02 -0.38078095031E+02  0.52485208324E+02  0.00000000000E+00 0.  1.
         11    1    1    2    0    0  0.31920699428E+02 -0.90470694507E+02 -0.18999835174E+03  0.21284560433E+03  0.00000000000E+00 0. -1.
<mgrwt>
<rscale>  0 0.15323560E+03</rscale>
<asrwt>0</asrwt>
<pdfrwt beam="2">  1        2 0.14056127E+00 0.15961822E+03</pdfrwt>
<pdfrwt beam="1">  1       -2 0.43349910E-02 0.15961822E+03</pdfrwt>
<totfact> 0.70687832E+03</totfact>
</mgrwt>
</event>
<event>
 7    1  0.8165933E-006  0.1338812E+03  0.7546771E-02  0.1233687E+00
         -1   -1    0    0    0  501 -0.00000000000E+00  0.00000000000E+00  0.11867256639E+03  0.11867256639E+03  0.00000000000E+00 0.  1.
          1   -1    0    0  501    0  0.00000000000E+00 -0.00000000000E+00 -0.13580069905E+03  0.13580069905E+03  0.00000000000E+00 0. -1.
         23    2    1    2    0    0 -0.47650299887E+02  0.55354036277E+01 -0.52776541706E+02  0.14390808088E+03  0.12499192220E+03 0.  0.
          5    1    3    3  502    0 -0.65589622357E+02 -0.42455598213E+02 -0.48946117384E+02  0.92316243357E+02  0.47000000000E+01 0.  1.
         -5    1    3    3    0  502  0.17939322470E+02  0.47991001841E+02 -0.38304243225E+01  0.51591837522E+02  0.47000000000E+01 0.  1.
        -11    1    1    2    0    0  0.65078010213E+02 -0.31877221848E+02  0.19260731570E+02  0.74981867586E+02  0.00000000000E+00 0. -1.
         11    1    1    2    0    0 -0.17427710326E+02  0.26341818220E+02  0.16387677474E+02  0.35583316980E+02  0.00000000000E+00 0.  1.
<mgrwt>
<rscale>  0 0.12588834E+03</rscale>
<asrwt>0</asrwt>
<pdfrwt beam="2">  1        1 0.20892415E-01 0.13388119E+03</pdfrwt>
<pdfrwt beam="1">  1       -1 0.18257318E-01 0.13388119E+03</pdfrwt>
<totfact> 0.53794220E+03</totfact>
</mgrwt>
</event>
<event>
 7    1  0.8165933E-006  0.1401016E+03  0.7546771E-02  0.1223568E+00
          2   -1    0    0  501    0  0.00000000000E+00  0.00000000000E+00  0.55516062238E+03  0.55516062238E+03  0.00000000000E+00 0. -1.
         -2   -1    0    0    0  501 -0.00000000000E+00 -0.00000000000E+00 -0.29232929990E+02  0.29232929990E+02  0.00000000000E+00 0.  1.
         23    2    1    2    0    0 -0.27012191721E+02 -0.57192316181E+02  0.32812173834E+03  0.35678050037E+03  0.12501132243E+03 0.  0.
          5    1    3    3  502    0 -0.76782475742E+02 -0.34372388372E+02  0.21780530991E+03  0.23353426448E+03  0.47000000000E+01 0.  1.
         -5    1    3    3    0  502  0.49770284021E+02 -0.22819927809E+02  0.11031642844E+03  0.12324623588E+03  0.47000000000E+01 0.  1.
        -11    1    1    2    0    0  0.16695287250E+02 -0.24800451227E+02  0.56205302712E+02  0.63661849253E+02  0.00000000000E+00 0. -1.
         11    1    1    2    0    0  0.10316904471E+02  0.81992767408E+02  0.14160065133E+03  0.16395120275E+03  0.00000000000E+00 0.  1.
<mgrwt>
<rscale>  0 0.13265521E+03</rscale>
<asrwt>0</asrwt>
<pdfrwt beam="1">  1        2 0.85409319E-01 0.14010157E+03</pdfrwt>
<pdfrwt beam="2">  1       -2 0.44973743E-02 0.14010157E+03</pdfrwt>
<totfact> 0.12109569E+04</totfact>
</mgrwt>
</event>
<event>
 7    1  0.8165933E-006  0.2095981E+03  0.7546771E-02  0.1145700E+00
         -1   -1    0    0    0  501 -0.00000000000E+00  0.00000000000E+00  0.11800695275E+03  0.11800695275E+03  0.00000000000E+00 0.  1.
          1   -1    0    0  501    0  0.00000000000E+00 -0.00000000000E+00 -0.41690139426E+03  0.41690139426E+03  0.00000000000E+00 0. -1.
         23    2    1    2    0    0 -0.14620946549E+03 -0.83239234498E+02 -0.26944554828E+03  0.34136823999E+03  0.12500157530E+03 0.  0.
          5    1    3    3  502    0 -0.13241133753E+03 -0.80633282773E+01 -0.17930457754E+03  0.22309191177E+03  0.47000000000E+01 0. -1.
         -5    1    3    3    0  502 -0.13798127953E+02 -0.75175906220E+02 -0.90140970746E+02  0.11827632822E+03  0.47000000000E+01 0. -1.
        -11    1    1    2    0    0  0.57790786349E+02  0.23560846077E+02 -0.55736545446E+02  0.83674673307E+02  0.00000000000E+00 0. -1.
         11    1    1    2    0    0  0.88418679137E+02  0.59678388420E+02  0.26287652226E+02  0.10986543371E+03  0.00000000000E+00 0.  1.
<mgrwt>
<rscale>  0 0.20486211E+03</rscale>
<asrwt>0</asrwt>
<pdfrwt beam="2">  1        1 0.64138676E-01 0.20959812E+03</pdfrwt>
<pdfrwt beam="1">  1       -1 0.18154916E-01 0.20959812E+03</pdfrwt>
<totfact> 0.13516164E+03</totfact>
</mgrwt>
</event>
<event>
 7    1  0.8165933E-006  0.1188824E+03  0.7546771E-02  0.1253009E+00
          2   -1    0    0  501    0  0.00000000000E+00  0.00000000000E+00  0.64474349429E+03  0.64474349429E+03  0.00000000000E+00 0. -1.
         -2   -1    0    0    0  501 -0.00000000000E+00 -0.00000000000E+00 -0.26201105816E+02  0.26201105816E+02  0.00000000000E+00 0.  1.
         23    2    1    2    0    0 -0.29072814112E+02  0.28009046792E+02  0.50524977644E+03  0.51904754713E+03  0.11181808608E+03 0.  0.
          5    1    3    3  502    0  0.20830990773E+02  0.53770864353E+02  0.32769610034E+03  0.33276427123E+03  0.47000000000E+01 0. -1.
         -5    1    3    3    0  502 -0.49903804885E+02 -0.25761817561E+02  0.17755367610E+03  0.18628327590E+03  0.47000000000E+01 0.  1.
        -11    1    1    2    0    0  0.16228414963E+02  0.31012259152E+02  0.67720933534E+02  0.76231532246E+02  0.00000000000E+00 0. -1.
         11    1    1    2    0    0  0.12844399149E+02 -0.59021305944E+02  0.45571678503E+02  0.75665520724E+02  0.00000000000E+00 0.  1.
<mgrwt>
<rscale>  0 0.11418586E+03</rscale>
<asrwt>0</asrwt>
<pdfrwt beam="1">  1        2 0.99191295E-01 0.11888238E+03</pdfrwt>
<pdfrwt beam="2">  1       -2 0.40309398E-02 0.11888238E+03</pdfrwt>
<totfact> 0.11885014E+04</totfact>
</mgrwt>
</event>
<event>
 7    1  0.8165933E-006  0.1714502E+03  0.7546771E-02  0.1183083E+00
         -2   -1    0    0    0  501 -0.00000000000E+00  0.00000000000E+00  0.27288519261E+02  0.27288519261E+02  0.00000000000E+00 0.  1.
          2   -1    0    0  501    0  0.00000000000E+00 -0.00000000000E+00 -0.98084307884E+03  0.98084307884E+03  0.00000000000E+00 0. -1.
         23    2    1    2    0    0  0.29529462899E+02  0.11354661069E+03 -0.62428998884E+03  0.64740493064E+03  0.12502132646E+03 0.  0.
          5    1    3    3  502    0  0.51009966287E+02  0.12014423576E+03 -0.37566273971E+03  0.39772004985E+03  0.47000000000E+01 0. -1.
         -5    1    3    3    0  502 -0.21480503388E+02 -0.65976250757E+01 -0.24862724914E+03  0.24968488079E+03  0.47000000000E+01 0. -1.
        -11    1    1    2    0    0 -0.35662037823E+02 -0.28162458126E+01 -0.95792618883E+02  0.10225428116E+03  0.00000000000E+00 0. -1.
         11    1    1    2    0    0  0.61325749234E+01 -0.11073036488E+03 -0.23347195185E+03  0.25847238630E+03  0.00000000000E+00 0.  1.
<mgrwt>
<rscale>  0 0.16507538E+03</rscale>
<asrwt>0</asrwt>
<pdfrwt beam="2">  1        2 0.15089895E+00 0.17145015E+03</pdfrwt>
<pdfrwt beam="1">  1       -2 0.41982334E-02 0.17145015E+03</pdfrwt>
<totfact> 0.67594416E+03</totfact>
</mgrwt>
</event>
<event>
 7    1  0.8165933E-006  0.1266530E+03  0.7546771E-02  0.1246045E+00
         -1   -1    0    0    0  501 -0.00000000000E+00  0.00000000000E+00  0.11709611522E+02  0.11709611522E+02  0.00000000000E+00 0.  1.
          1   -1    0    0  501    0  0.00000000000E+00 -0.00000000000E+00 -0.10755315994E+04  0.10755315994E+04  0.00000000000E+00 0. -1.
         23    2    1    2    0    0  0.17106442388E+02  0.11109284716E+02 -0.66811613724E+03  0.68001481839E+03  0.12499973527E+03 0.  0.
          5    1    3    3  502    0  0.43542706141E+02 -0.37302952823E+02 -0.49328372527E+03  0.49662702420E+03  0.47000000000E+01 0. -1.
         -5    1    3    3    0  502 -0.26436263752E+02  0.48412237538E+02 -0.17483241196E+03  0.18338779419E+03  0.47000000000E+01 0. -1.
        -11    1    1    2    0    0  0.38081531968E+02  0.21666302945E+01 -0.19244563593E+03  0.19618924576E+03  0.00000000000E+00 0. -1.
         11    1    1    2    0    0 -0.55187974356E+02 -0.13275915010E+02 -0.20326021473E+03  0.21103714679E+03  0.00000000000E+00 0.  1.
<mgrwt>
<rscale>  0 0.11823078E+03</rscale>
<asrwt>0</asrwt>
<pdfrwt beam="2">  1        1 0.16546642E+00 0.12665299E+03</pdfrwt>
<pdfrwt beam="1">  1       -1 0.18014784E-02 0.12665299E+03</pdfrwt>
<totfact> 0.10792206E+04</totfact>
</mgrwt>
</event>
<event>
 7    1  0.8165933E-006  0.1843651E+03  0.7546771E-02  0.1169032E+00
         -3   -1    0    0    0  501 -0.00000000000E+00  0.00000000000E+00  0.39172516924E+02  0.39172516924E+02  0.00000000000E+00 0.  1.
          3   -1    0    0  501    0  0.00000000000E+00 -0.00000000000E+00 -0.79578329474E+03  0.79578329474E+03  0.00000000000E+00 0. -1.
         23    2    1    2    0    0 -0.37643041843E+02  0.13018755680E+03 -0.47675855301E+03  0.51116456994E+03  0.12499880459E+03 0.  0.
          5    1    3    3  502    0 -0.46623423456E+02  0.11711244003E+03 -0.21789187927E+03  0.25176979222E+03  0.47000000000E+01 0. -1.
         -5    1    3    3    0  502  0.89803816126E+01  0.13075116768E+02 -0.25886667374E+03  0.25939477772E+03  0.47000000000E+01 0. -1.
        -11    1    1    2    0    0  0.14469518030E+02  0.10604874257E+02 -0.51395590778E+02  0.54436541600E+02  0.00000000000E+00 0. -1.
         11    1    1    2    0    0  0.23173523814E+02 -0.14079243105E+03 -0.22845663403E+03  0.26935470013E+03  0.00000000000E+00 0.  1.
<mgrwt>
<rscale>  0 0.17873637E+03</rscale>
<asrwt>0</asrwt>
<pdfrwt beam="2">  1        3 0.12242819E+00 0.18436513E+03</pdfrwt>
<pdfrwt beam="1">  1       -3 0.60265417E-02 0.18436513E+03</pdfrwt>
<totfact> 0.23138835E+02</totfact>
</mgrwt>
</event>
<event>
 7    1  0.8165933E-006  0.1383669E+03  0.7546771E-02  0.1225267E+00
         -1   -1    0    0    0  501 -0.00000000000E+00  0.00000000000E+00  0.26745523843E+03  0.26745523843E+03  0.00000000000E+00 0.  1.
          1   -1    0    0  501    0  0.00000000000E+00 -0.00000000000E+00 -0.74586783124E+02  0.74586783124E+02  0.00000000000E+00 0. -1.
         23    2    1    2    0    0 -0.45154449719E+02 -0.46991169515E+02  0.26280868901E+02  0.14084058863E+03  0.12205856379E+03 0.  0.
          5    1    3    3  502    0  0.17290483592E+02 -0.57985994086E+02  0.43854033932E+02  0.74877250384E+02  0.47000000000E+01 0. -1.
         -5    1    3    3    0  502 -0.62444933311E+02  0.10994824572E+02 -0.17573165030E+02  0.65963338247E+02  0.47000000000E+01 0.  1.
        -11    1    1    2    0    0 -0.12296096673E+02 -0.18940480598E+02  0.54810716474E+02  0.59280270234E+02  0.00000000000E+00 0.  1.
         11    1    1    2    0    0  0.57450546392E+02  0.65931650113E+02  0.11177686993E+03  0.14192116269E+03  0.00000000000E+00 0. -1.
<mgrwt>
<rscale>  0 0.13148619E+03</rscale>
<asrwt>0</asrwt>
<pdfrwt beam="2">  1        1 0.11474890E-01 0.13836686E+03</pdfrwt>
<pdfrwt beam="1">  1       -1 0.41146959E-01 0.13836686E+03</pdfrwt>
<totfact> 0.30185927E+03</totfact>
</mgrwt>
</event>
<event>
 7    1  0.8165933E-006  0.1254630E+03  0.7546771E-02  0.1247243E+00
          1   -1    0    0  501    0  0.00000000000E+00  0.00000000000E+00  0.58614001086E+03  0.58614001086E+03  0.00000000000E+00 0. -1.
         -1   -1    0    0    0  501 -0.00000000000E+00 -0.00000000000E+00 -0.23700030699E+02  0.23700030699E+02  0.00000000000E+00 0.  1.
         23    2    1    2    0    0 -0.93016089377E+01  0.26252932170E+02  0.41524469065E+03  0.43378463726E+03  0.12233242428E+03 0.  0.
          5    1    3    3  502    0  0.48381133594E+02  0.12514068881E+02  0.29922301562E+03  0.30340375588E+03  0.47000000000E+01 0. -1.
         -5    1    3    3    0  502 -0.57682742532E+02  0.13738863289E+02  0.11602167503E+03  0.13038088138E+03  0.47000000000E+01 0.  1.
        -11    1    1    2    0    0  0.40155450904E+02 -0.28528242569E+02  0.13335806770E+03  0.14216432422E+03  0.00000000000E+00 0. -1.
         11    1    1    2    0    0 -0.30853841966E+02  0.22753103992E+01  0.13837221809E+02  0.33891080079E+02  0.00000000000E+00 0.  1.
<mgrwt>
<rscale>  0 0.11752124E+03</rscale>
<asrwt>0</asrwt>
<pdfrwt beam="1">  1        1 0.90175375E-01 0.12546298E+03</pdfrwt>
<pdfrwt beam="2">  1       -1 0.36461590E-02 0.12546298E+03</pdfrwt>
<totfact> 0.97483223E+03</totfact>
</mgrwt>
</event>
<event>
 7    1  0.8165933E-006  0.1348795E+03  0.7546771E-02  0.1231203E+00
         -2   -1    0    0    0  501 -0.00000000000E+00  0.00000000000E+00  0.18326422112E+02  0.18326422112E+02  0.00000000000E+00 0.  1.
          2   -1    0    0  501    0  0.00000000000E+00 -0.00000000000E+00 -0.10741826212E+04  0.10741826212E+04  0.00000000000E+00 0. -1.
         23    2    1    2    0    0 -0.50081465527E+02 -0.71085414079E+01 -0.84534885799E+03  0.85604157470E+03  0.12503520054E+03 0.  0.
          5    1    3    3  502    0 -0.27394182345E+01  0.41046665521E+02 -0.10919121526E+03  0.11677818568E+03  0.47000000000E+01 0. -1.
         -5    1    3    3    0  502 -0.47342047293E+02 -0.48155206929E+02 -0.73615764273E+03  0.73926338902E+03  0.47000000000E+01 0. -1.
        -11    1    1    2    0    0 -0.22699683352E+02  0.23831898560E+02 -0.69833220246E+02  0.77200477092E+02  0.00000000000E+00 0.  1.
         11    1    1    2    0    0  0.72781148880E+02 -0.16723357152E+02 -0.14067412083E+03  0.15926699149E+03  0.00000000000E+00 0. -1.
<mgrwt>
<rscale>  0 0.12750677E+03</rscale>
<asrwt>0</asrwt>
<pdfrwt beam="2">  1        2 0.16525892E+00 0.13487952E+03</pdfrwt>
<pdfrwt beam="1">  1       -2 0.28194487E-02 0.13487952E+03</pdfrwt>
<totfact> 0.10611073E+04</totfact>
</mgrwt>
</event>
<event>
 7    1  0.8165933E-006  0.1325611E+03  0.7546771E-02  0.1234029E+00
          1   -1    0    0  501    0  0.00000000000E+00  0.00000000000E+00  0.57545378165E+03  0.57545378165E+03  0.00000000000E+00 0. -1.
         -1   -1    0    0    0  501 -0.00000000000E+00 -0.00000000000E+00 -0.34224922628E+02  0.34224922628E+02  0.00000000000E+00 0.  1.
         23    2    1    2    0    0  0.65115479432E+01 -0.43636819580E+02  0.44966994808E+03  0.46880220164E+03  0.12500347909E+03 0.  0.
          5    1    3    3  502    0 -0.34724840116E+00 -0.84752512016E+02  0.35900389007E+03  0.36890241523E+03  0.47000000000E+01 0.  1.
         -5    1    3    3    0  502  0.68587963444E+01  0.41115692436E+02  0.90666058002E+02  0.99899786413E+02  0.47000000000E+01 0.  1.
        -11    1    1    2    0    0  0.69279364129E+01  0.73578612910E+02  0.58092247410E+02  0.94002754161E+02  0.00000000000E+00 0. -1.
         11    1    1    2    0    0 -0.13439484356E+02 -0.29941793331E+02  0.33466663532E+02  0.46873748470E+02  0.00000000000E+00 0.  1.
<mgrwt>
<rscale>  0 0.12566810E+03</rscale>
<asrwt>0</asrwt>
<pdfrwt beam="1">  1        1 0.88531344E-01 0.13256109E+03</pdfrwt>
<pdfrwt beam="2">  1       -1 0.52653731E-02 0.13256109E+03</pdfrwt>
<totfact> 0.58406929E+03</totfact>
</mgrwt>
</event>
<event>
 6    1  0.8165933E-006  0.3350335E+03  0.7546771E-02  0.1068931E+00
         -2   -1    0    0    0  501 -0.00000000000E+00  0.00000000000E+00  0.16290954469E+03  0.16290954469E+03  0.00000000000E+00 0.  1.
          2   -1    0    0  501    0  0.00000000000E+00 -0.00000000000E+00 -0.17225424866E+03  0.17225424866E+03  0.00000000000E+00 0. -1.
          5    1    1    2  502    0 -0.31614394653E+02 -0.91764172857E+02 -0.86739475750E+02  0.13025344534E+03  0.47000000000E+01 0. -1.
         -5    1    1    2    0  502 -0.11653873615E+02  0.30345857336E+02  0.20352346603E+02  0.38639252580E+02  0.47000000000E+01 0.  1.
        -11    1    1    2    0    0  0.64050124681E+02 -0.95637588689E+01  0.65156725502E+02  0.91865569358E+02  0.00000000000E+00 0.  1.
         11    1    1    2    0    0 -0.20781856413E+02  0.70982074390E+02 -0.81143003184E+01  0.74405526074E+02  0.00000000000E+00 0. -1.
<mgrwt>
<rscale>  0 0.33503350E+03</rscale>
<asrwt>0</asrwt>
<pdfrwt beam="2">  1        2 0.26500653E-01 0.33503350E+03</pdfrwt>
<pdfrwt beam="1">  1       -2 0.25063007E-01 0.33503350E+03</pdfrwt>
<totfact> 0.28585446E+03</totfact>
</mgrwt>
</event>
<event>
 7    1  0.8165933E-006  0.1253759E+03  0.7546771E-02  0.1250699E+00
         -2   -1    0    0    0  501 -0.00000000000E+00  0.00000000000E+00  0.71389036755E+02  0.71389036755E+02  0.00000000000E+00 0. -1.
          2   -1    0    0  501    0  0.00000000000E+00 -0.00000000000E+00 -0.16438764459E+03  0.16438764459E+03  0.00000000000E+00 0.  1.
         23    2    1    2    0    0 -0.53728438168E+01 -0.80703564367E+01 -0.64948677591E+02  0.14120004153E+03  0.12500049162E+03 0.  0.
          5    1    3    3  502    0  0.13061413837E+02 -0.62537897332E+02 -0.50900349671E+02  0.81820075352E+02  0.47000000000E+01 0.  1.
         -5    1    3    3    0  502 -0.18434257654E+02  0.54467540895E+02 -0.14048327921E+02  0.59379966182E+02  0.47000000000E+01 0.  1.
        -11    1    1    2    0    0 -0.14882091542E+02 -0.18842670612E+02 -0.49239973028E+02  0.54782276589E+02  0.00000000000E+00 0.  1.
         11    1    1    2    0    0  0.20254935359E+02  0.26913027049E+02  0.21190042782E+02  0.39794363224E+02  0.00000000000E+00 0. -1.
<mgrwt>
<rscale>  0 0.11550697E+03</rscale>
<asrwt>0</asrwt>
<pdfrwt beam="2">  1        2 0.25290406E-01 0.12537592E+03</pdfrwt>
<pdfrwt beam="1">  1       -2 0.10982929E-01 0.12537592E+03</pdfrwt>
<totfact> 0.11308930E+04</totfact>
</mgrwt>
</event>
<event>
 7    1  0.8165933E-006  0.1486389E+03  0.7546771E-02  0.1207442E+00
          2   -1    0    0  501    0  0.00000000000E+00  0.00000000000E+00  0.12431864534E+03  0.12431864534E+03  0.00000000000E+00 0. -1.
         -2   -1    0    0    0  501 -0.00000000000E+00 -0.00000000000E+00 -0.16042043442E+03  0.16042043442E+03  0.00000000000E+00 0.  1.
         23    2    1    2    0    0  0.70376818501E+02 -0.38880255991E+02 -0.61865614667E+01  0.14876763649E+03  0.12501585993E+03 0.  0.
          5    1    3    3  502    0 -0.34262030434E+02  0.49258165820E+01  0.15709198572E+01  0.34967244496E+02  0.47000000000E+01 0. -1.
         -5    1    3    3    0  502  0.10463884893E+03 -0.43806072573E+02 -0.77574813239E+01  0.11380039199E+03  0.47000000000E+01 0. -1.
        -11    1    1    2    0    0 -0.58500817006E+02  0.58253268656E+02  0.16593055736E+02  0.84208778629E+02  0.00000000000E+00 0. -1.
         11    1    1    2    0    0 -0.11876001495E+02 -0.19373012665E+02 -0.46508283353E+02  0.51762664650E+02  0.00000000000E+00 0.  1.
<mgrwt>
<rscale>  0 0.14446675E+03</rscale>
<asrwt>0</asrwt>
<pdfrwt beam="1">  1        2 0.19125945E-01 0.14863895E+03</pdfrwt>
<pdfrwt beam="2">  1       -2 0.24680067E-01 0.14863895E+03</pdfrwt>
<totfact> 0.40952747E+03</totfact>
</mgrwt>
</event>
<event>
 7    1  0.8165933E-006  0.1305934E+03  0.7546771E-02  0.1240152E+00
         -1   -1    0    0    0  501 -0.00000000000E+00  0.00000000000E+00  0.22512326112E+02  0.22512326112E+02  0.00000000000E+00 0.  1.
          1   -1    0    0  501    0  0.00000000000E+00 -0.00000000000E+00 -0.61655148259E+03  0.61655148259E+03  0.00000000000E+00 0. -1.
         23    2    1    2    0    0 -0.28113908391E+02 -0.25281185422E+02 -0.40821677290E+03  0.42859722064E+03  0.12500045471E+03 0.  0.
          5    1    3    3  502    0 -0.37010818959E+02 -0.12982139905E+02 -0.41062890622E+03  0.41252457539E+03  0.47000000000E+01 0.  1.
         -5    1    3    3    0  502  0.88969105682E+01 -0.12299045517E+02  0.24121333145E+01  0.16072645252E+02  0.47000000000E+01 0.  1.
        -11    1    1    2    0    0 -0.30571053461E+02 -0.64927531199E+01 -0.72588437814E+02  0.79030541293E+02  0.00000000000E+00 0.  1.
         11    1    1    2    0    0  0.58684961852E+02  0.31773938541E+02 -0.11323394576E+03  0.13143604677E+03  0.00000000000E+00 0. -1.
<mgrwt>
<rscale>  0 0.12180268E+03</rscale>
<asrwt>0</asrwt>
<pdfrwt beam="2">  1        1 0.94854065E-01 0.13059343E+03</pdfrwt>
<pdfrwt beam="1">  1       -1 0.34634351E-02 0.13059343E+03</pdfrwt>
<totfact> 0.98377267E+03</totfact>
</mgrwt>
</event>
<event>
 7    1  0.8165933E-006  0.1289513E+03  0.7546771E-02  0.1242527E+00
         -2   -1    0    0    0  501 -0.00000000000E+00  0.00000000000E+00  0.20854675076E+02  0.20854675076E+02  0.00000000000E+00 0.  1.
          2   -1    0    0  501    0  0.00000000000E+00 -0.00000000000E+00 -0.65498699070E+03  0.65498699070E+03  0.00000000000E+00 0. -1.
         23    2    1    2    0    0 -0.27980673069E+02  0.14821561061E+02 -0.43921607480E+03  0.45775452042E+03  0.12500337542E+03 0.  0.
          5    1    3    3  502    0 -0.15810740050E+02 -0.25330483698E+02 -0.19613083908E+02  0.36032984412E+02  0.47000000000E+01 0. -1.
         -5    1    3    3    0  502 -0.12169933019E+02  0.40152044759E+02 -0.41960299089E+03  0.42172153601E+03  0.47000000000E+01 0. -1.
        -11    1    1    2    0    0  0.49177714607E+02 -0.24907448410E+02 -0.61368210405E+02  0.82491732001E+02  0.00000000000E+00 0.  1.
         11    1    1    2    0    0 -0.21197041538E+02  0.10085887349E+02 -0.13354803041E+03  0.13559541335E+03  0.00000000000E+00 0. -1.
<mgrwt>
<rscale>  0 0.12034593E+03</rscale>
<asrwt>0</asrwt>
<pdfrwt beam="2">  1        2 0.10076724E+00 0.12895131E+03</pdfrwt>
<pdfrwt beam="1">  1       -2 0.32084113E-02 0.12895131E+03</pdfrwt>
<totfact> 0.16446501E+04</totfact>
</mgrwt>
</event>
<event>
 6    1  0.8165933E-006  0.2242422E+03  0.7546771E-02  0.1156195E+00
          2   -1    0    0  501    0  0.00000000000E+00  0.00000000000E+00  0.14818047437E+03  0.14818047437E+03  0.00000000000E+00 0. -1.
         -2   -1    0    0    0  501 -0.00000000000E+00 -0.00000000000E+00 -0.21551559775E+03  0.21551559775E+03  0.00000000000E+00 0.  1.
          5    1    1    2  502    0  0.42944007905E+02 -0.79855963115E+02 -0.97923868833E+01  0.91318910971E+02  0.47000000000E+01 0. -1.
         -5    1    1    2    0  502 -0.11709921515E+01  0.13243924406E+03  0.10252166297E+02  0.13292374319E+03  0.47000000000E+01 0.  1.
        -11    1    1    2    0    0 -0.31193766023E+02  0.27090487856E+02 -0.26606077336E+02  0.49140908846E+02  0.00000000000E+00 0.  1.
         11    1    1    2    0    0 -0.10579249730E+02 -0.79673768804E+02 -0.41188825460E+02  0.90312509117E+02  0.00000000000E+00 0. -1.
<mgrwt>
<rscale>  0 0.19253418E+03</rscale>
<asrwt>0</asrwt>
<pdfrwt beam="1">  1        2 0.22796996E-01 0.22424218E+03</pdfrwt>
<pdfrwt beam="2">  1       -2 0.33156246E-01 0.22424218E+03</pdfrwt>
<totfact> 0.20123705E+03</totfact>
</mgrwt>
</event>
<event>
 7    1  0.8165933E-006  0.1643468E+03  0.7546771E-02  0.1190972E+00
          2   -1    0    0  501    0  0.00000000000E+00  0.00000000000E+00  0.30124979064E+02  0.30124979064E+02  0.00000000000E+00 0. -1.
         -2   -1    0    0    0  501 -0.00000000000E+00 -0.00000000000E+00 -0.81533411632E+03  0.81533411632E+03  0.00000000000E+00 0.  1.
         23    2    1    2    0    0  0.98265638581E+02  0.41695055087E+02 -0.32314998154E+03  0.36254070996E+03  0.12496096376E+03 0.  0.
          5    1    3    3  502    0  0.74696201040E+02 -0.34515590785E+02 -0.19232099132E+03  0.20923743011E+03  0.47000000000E+01 0.  1.
         -5    1    3    3    0  502  0.23569437541E+02  0.76210645872E+02 -0.13082899022E+03  0.15330327985E+03  0.47000000000E+01 0.  1.
        -11    1    1    2    0    0 -0.67528350967E+02 -0.42732226133E+02 -0.43397101994E+03  0.44126745572E+03  0.00000000000E+00 0.  1.
         11    1    1    2    0    0 -0.30737287614E+02  0.10371710458E+01 -0.28088135780E+02  0.41650929705E+02  0.00000000000E+00 0. -1.
<mgrwt>
<rscale>  0 0.15800136E+03</rscale>
<asrwt>0</asrwt>
<pdfrwt beam="1">  1        2 0.46346118E-02 0.16434675E+03</pdfrwt>
<pdfrwt beam="2">  1       -2 0.12543603E+00 0.16434675E+03</pdfrwt>
<totfact> 0.84968946E+02</totfact>
</mgrwt>
</event>
<event>
 6    1  0.8165933E-006  0.2040623E+03  0.7546771E-02  0.1175054E+00
          1   -1    0    0  501    0  0.00000000000E+00  0.00000000000E+00  0.93115229263E+03  0.93115229263E+03  0.00000000000E+00 0. -1.
         -1   -1    0    0    0  501 -0.00000000000E+00 -0.00000000000E+00 -0.30608361741E+02  0.30608361741E+02  0.00000000000E+00 0.  1.
          5    1    1    2  502    0 -0.79132866219E+02  0.93399192752E+02  0.42975611077E+03  0.44687562528E+03  0.47000000000E+01 0. -1.
         -5    1    1    2    0  502  0.67309626555E+02 -0.44999332131E+02  0.32766972719E+03  0.33755750005E+03  0.47000000000E+01 0.  1.
        -11    1    1    2    0    0 -0.15170983635E+02 -0.68811264326E+02  0.89289845085E+02  0.11374456153E+03  0.00000000000E+00 0. -1.
         11    1    1    2    0    0  0.26994223298E+02  0.20411403705E+02  0.53828247843E+02  0.63582967519E+02  0.00000000000E+00 0.  1.
<mgrwt>
<rscale>  0 0.17270688E+03</rscale>
<asrwt>0</asrwt>
<pdfrwt beam="1">  1        1 0.14325418E+00 0.20406231E+03</pdfrwt>
<pdfrwt beam="2">  1       -1 0.47089794E-02 0.20406231E+03</pdfrwt>
<totfact> 0.34504003E+03</totfact>
</mgrwt>
</event>
<event>
 7    1  0.8165933E-006  0.1306840E+03  0.7546771E-02  0.1239950E+00
         -3   -1    0    0    0  501 -0.00000000000E+00  0.00000000000E+00  0.10723635286E+03  0.10723635286E+03  0.00000000000E+00 0.  1.
          3   -1    0    0  501    0  0.00000000000E+00 -0.00000000000E+00 -0.21197852498E+03  0.21197852498E+03  0.00000000000E+00 0. -1.
         23    2    1    2    0    0 -0.36306050582E+02 -0.11605172459E+02 -0.15938697387E+03  0.20611285039E+03  0.12500196125E+03 0.  0.
          5    1    3    3  502    0  0.12950727965E+02 -0.58046792317E+02 -0.52319629701E+02  0.79351024601E+02  0.47000000000E+01 0. -1.
         -5    1    3    3    0  502 -0.49256778547E+02  0.46441619858E+02 -0.10706734417E+03  0.12676182578E+03  0.47000000000E+01 0. -1.
        -11    1    1    2    0    0 -0.25199859334E+02  0.69023545226E+01 -0.57720317501E+01  0.26758022329E+02  0.00000000000E+00 0.  1.
         11    1    1    2    0    0  0.61505909916E+02  0.47028179367E+01  0.60416833498E+02  0.86344005125E+02  0.00000000000E+00 0. -1.
<mgrwt>
<rscale>  0 0.12192796E+03</rscale>
<asrwt>0</asrwt>
<pdfrwt beam="2">  1        3 0.32612081E-01 0.13068397E+03</pdfrwt>
<pdfrwt beam="1">  1       -3 0.16497900E-01 0.13068397E+03</pdfrwt>
<totfact> 0.66492508E+02</totfact>
</mgrwt>
</event>
<event>
 7    1  0.8165933E-006  0.2965017E+03  0.7546771E-02  0.1088626E+00
         -2   -1    0    0    0  501 -0.00000000000E+00  0.00000000000E+00  0.10888804481E+03  0.10888804481E+03  0.00000000000E+00 0.  1.
          2   -1    0    0  501    0  0.00000000000E+00 -0.00000000000E+00 -0.80877583642E+03  0.80877583642E+03  0.00000000000E+00 0. -1.
         23    2    1    2    0    0 -0.26227636201E+03  0.59157441563E+02 -0.45270281177E+03  0.54115901985E+03  0.12499902408E+03 0.  0.
          5    1    3    3  502    0 -0.32432702360E+02  0.17022835866E+02 -0.17187011545E+03  0.17579272940E+03  0.47000000000E+01 0. -1.
         -5    1    3    3    0  502 -0.22984365965E+03  0.42134605697E+02 -0.28083269631E+03  0.36536629045E+03  0.47000000000E+01 0. -1.
        -11    1    1    2    0    0  0.45592597970E+02 -0.28499549537E+02 -0.97583034878E+02  0.11141525035E+03  0.00000000000E+00 0. -1.
         11    1    1    2    0    0  0.21668376404E+03 -0.30657892026E+02 -0.14960194497E+03  0.26508961104E+03  0.00000000000E+00 0.  1.
<mgrwt>
<rscale>  0 0.29332537E+03</rscale>
<asrwt>0</asrwt>
<pdfrwt beam="2">  1        2 0.12442706E+00 0.29650168E+03</pdfrwt>
<pdfrwt beam="1">  1       -2 0.16752006E-01 0.29650168E+03</pdfrwt>
<totfact> 0.99642765E+02</totfact>
</mgrwt>
</event>
<event>
 7    1  0.8165933E-006  0.1314838E+03  0.7546771E-02  0.1239629E+00
         -2   -1    0    0    0  501 -0.00000000000E+00  0.00000000000E+00  0.33626769390E+02  0.33626769390E+02  0.00000000000E+00 0.  1.
          2   -1    0    0  501    0  0.00000000000E+00 -0.00000000000E+00 -0.40251379128E+03  0.40251379128E+03  0.00000000000E+00 0. -1.
         23    2    1    2    0    0 -0.29717957908E+02  0.27946118425E+02 -0.24710144500E+03  0.27990555342E+03  0.12499540853E+03 0.  0.
          5    1    3    3  502    0  0.27533441422E+01  0.70984328549E+02 -0.18086149793E+03  0.19436904907E+03  0.47000000000E+01 0.  1.
         -5    1    3    3    0  502 -0.32471302051E+02 -0.43038210124E+02 -0.66239947076E+02  0.85536504349E+02  0.47000000000E+01 0.  1.
        -11    1    1    2    0    0  0.28487105328E+02  0.19274623608E+02 -0.11512713431E+02  0.36270771369E+02  0.00000000000E+00 0. -1.
         11    1    1    2    0    0  0.12308525807E+01 -0.47220742033E+02 -0.11027286346E+03  0.11996423588E+03  0.00000000000E+00 0.  1.
<mgrwt>
<rscale>  0 0.12212698E+03</rscale>
<asrwt>0</asrwt>
<pdfrwt beam="2">  1        2 0.61925197E-01 0.13148382E+03</pdfrwt>
<pdfrwt beam="1">  1       -2 0.51733493E-02 0.13148382E+03</pdfrwt>
<totfact> 0.13873353E+04</totfact>
</mgrwt>
</event>
<event>
 6    1  0.8165933E-006  0.1656871E+03  0.7546771E-02  0.1194780E+00
          2   -1    0    0  501    0  0.00000000000E+00  0.00000000000E+00  0.34988636484E+03  0.34988636484E+03  0.00000000000E+00 0. -1.
         -2   -1    0    0    0  501 -0.00000000000E+00 -0.00000000000E+00 -0.65780563857E+02  0.65780563857E+02  0.00000000000E+00 0.  1.
          5    1    1    2  502    0 -0.47589624771E+02  0.41197434852E+02  0.17346296057E+02  0.65459796907E+02  0.47000000000E+01 0. -1.
         -5    1    1    2    0  502  0.35947842431E+02  0.43964286362E+02  0.19927048914E+03  0.20725810887E+03  0.47000000000E+01 0.  1.
        -11    1    1    2    0    0  0.11771752848E+02 -0.63287048938E+02 -0.75246932272E+01  0.64810845825E+02  0.00000000000E+00 0.  1.
         11    1    1    2    0    0 -0.12997050850E+00 -0.21874672277E+02  0.75013709016E+02  0.78138177096E+02  0.00000000000E+00 0. -1.
<mgrwt>
<rscale>  0 0.15472900E+03</rscale>
<asrwt>0</asrwt>
<pdfrwt beam="1">  1        2 0.53828670E-01 0.16568713E+03</pdfrwt>
<pdfrwt beam="2">  1       -2 0.10120087E-01 0.16568713E+03</pdfrwt>
<totfact> 0.58297460E+03</totfact>
</mgrwt>
</event>
<event>
 7    1  0.8165933E-006  0.1342599E+03  0.7546771E-02  0.1234506E+00
          2   -1    0    0  501    0  0.00000000000E+00  0.00000000000E+00  0.18178418187E+03  0.18178418187E+03  0.00000000000E+00 0. -1.
         -2   -1    0    0    0  501 -0.00000000000E+00 -0.00000000000E+00 -0.11096405043E+03  0.11096405043E+03  0.00000000000E+00 0.  1.
         23    2    1    2    0    0 -0.20502785437E-01 -0.48990202273E+02  0.11944784823E+03  0.17970395398E+03  0.12500272914E+03 0.  0.
          5    1    3    3  502    0  0.27857910962E+02  0.34216299050E+02  0.26009974504E+02  0.51433715572E+02  0.47000000000E+01 0.  1.
         -5    1    3    3    0  502 -0.27878413748E+02 -0.83206501324E+02  0.93437873728E+02  0.12827023841E+03  0.47000000000E+01 0.  1.
        -11    1    1    2    0    0 -0.48205211432E+01  0.74361609467E+02 -0.26680860732E+02  0.79150203512E+02  0.00000000000E+00 0.  1.
         11    1    1    2    0    0  0.48410239286E+01 -0.25371407193E+02 -0.21946856064E+02  0.33894074803E+02  0.00000000000E+00 0. -1.
<mgrwt>
<rscale>  0 0.12536139E+03</rscale>
<asrwt>0</asrwt>
<pdfrwt beam="1">  1        2 0.27966797E-01 0.13425991E+03</pdfrwt>
<pdfrwt beam="2">  1       -2 0.17071392E-01 0.13425991E+03</pdfrwt>
<totfact> 0.49891310E+03</totfact>
</mgrwt>
</event>
<event>
 7    1  0.8165933E-006  0.1390565E+03  0.7546771E-02  0.1225518E+00
         -2   -1    0    0    0  501 -0.00000000000E+00  0.00000000000E+00  0.17802606760E+02  0.17802606760E+02  0.00000000000E+00 0.  1.
          2   -1    0    0  501    0  0.00000000000E+00 -0.00000000000E+00 -0.13123524889E+04  0.13123524889E+04  0.00000000000E+00 0. -1.
         23    2    1    2    0    0  0.22146722877E+02  0.56755914775E+02 -0.10787212427E+04  0.10876471093E+04  0.12500001498E+03 0.  0.
          5    1    3    3  502    0  0.33606753705E+02  0.92209837532E+02 -0.66421162494E+03  0.67143967766E+03  0.47000000000E+01 0.  1.
         -5    1    3    3    0  502 -0.11460030828E+02 -0.35453922757E+02 -0.41450961779E+03  0.41620743168E+03  0.47000000000E+01 0.  1.
        -11    1    1    2    0    0 -0.74727297829E+01  0.23789731623E+02 -0.27324374965E+02  0.36992086834E+02  0.00000000000E+00 0. -1.
         11    1    1    2    0    0 -0.14673993094E+02 -0.80545646398E+02 -0.18850426445E+03  0.20551589949E+03  0.00000000000E+00 0.  1.
<mgrwt>
<rscale>  0 0.13131474E+03</rscale>
<asrwt>0</asrwt>
<pdfrwt beam="2">  1        2 0.20190047E+00 0.13905652E+03</pdfrwt>
<pdfrwt beam="1">  1       -2 0.27388614E-02 0.13905652E+03</pdfrwt>
<totfact> 0.81745817E+03</totfact>
</mgrwt>
</event>
<event>
 7    1  0.8165933E-006  0.1435683E+03  0.7546771E-02  0.1218972E+00
          1   -1    0    0  501    0  0.00000000000E+00  0.00000000000E+00  0.99422319666E+02  0.99422319666E+02  0.00000000000E+00 0. -1.
         -1   -1    0    0    0  501 -0.00000000000E+00 -0.00000000000E+00 -0.16841807185E+03  0.16841807185E+03  0.00000000000E+00 0.  1.
         23    2    1    2    0    0 -0.30730573587E+02  0.63577555830E+02 -0.37235737370E+02  0.14831840157E+03  0.12500149739E+03 0.  0.
          5    1    3    3  502    0 -0.35652805281E+02 -0.25211797424E+02 -0.39745794052E+02  0.59233228838E+02  0.47000000000E+01 0.  1.
         -5    1    3    3    0  502  0.49222316939E+01  0.88789353254E+02  0.25100566826E+01  0.89085172732E+02  0.47000000000E+01 0.  1.
        -11    1    1    2    0    0  0.97621311123E+01  0.13576107223E+02  0.18615573115E+02  0.25022978512E+02  0.00000000000E+00 0. -1.
         11    1    1    2    0    0  0.20968442475E+02 -0.77153663053E+02 -0.50375587927E+02  0.94499011431E+02  0.00000000000E+00 0.  1.
<mgrwt>
<rscale>  0 0.13588783E+03</rscale>
<asrwt>0</asrwt>
<pdfrwt beam="1">  1        1 0.15295742E-01 0.14356827E+03</pdfrwt>
<pdfrwt beam="2">  1       -1 0.25910472E-01 0.14356827E+03</pdfrwt>
<totfact> 0.45679507E+03</totfact>
</mgrwt>
</event>
<event>
 7    1  0.8165933E-006  0.1265242E+03  0.7546771E-02  0.1248301E+00
          2   -1    0    0  501    0  0.00000000000E+00  0.00000000000E+00  0.82719362652E+02  0.82719362652E+02  0.00000000000E+00 0. -1.
         -2   -1    0    0    0  501 -0.00000000000E+00 -0.00000000000E+00 -0.14565757172E+03  0.14565757172E+03  0.00000000000E+00 0.  1.
         23    2    1    2    0    0 -0.18940321767E+02 -0.50636717634E+01 -0.26698757061E+02  0.12931049816E+03  0.12499601892E+03 0.  0.
          5    1    3    3  502    0 -0.29369969566E+02  0.52881906849E+02 -0.34400422725E+02  0.69746471365E+02  0.47000000000E+01 0. -1.
         -5    1    3    3    0  502  0.10429647799E+02 -0.57945578612E+02  0.77016656640E+01  0.59564026794E+02  0.47000000000E+01 0. -1.
        -11    1    1    2    0    0  0.67770474433E+01 -0.18034298157E+02 -0.60460483063E+02  0.63455766438E+02  0.00000000000E+00 0.  1.
         11    1    1    2    0    0  0.12163274324E+02  0.23097969920E+02  0.24221031053E+02  0.35610669777E+02  0.00000000000E+00 0. -1.
<mgrwt>
<rscale>  0 0.11689963E+03</rscale>
<asrwt>0</asrwt>
<pdfrwt beam="1">  1        2 0.12726056E-01 0.12652423E+03</pdfrwt>
<pdfrwt beam="2">  1       -2 0.22408857E-01 0.12652423E+03</pdfrwt>
<totfact> 0.76963213E+03</totfact>
</mgrwt>
</event>
<event>
 7    1  0.8165933E-006  0.1321874E+03  0.7546771E-02  0.1237552E+00
          1   -1    0    0  501    0  0.00000000000E+00  0.00000000000E+00  0.93663227087E+03  0.93663227087E+03  0.00000000000E+00 0. -1.
         -1   -1    0    0    0  501 -0.00000000000E+00 -0.00000000000E+00 -0.18601614399E+02  0.18601614399E+02  0.00000000000E+00 0.  1.
         23    2    1    2    0    0  0.12187328773E+02 -0.41286557233E+02  0.73167451777E+03  0.74351940431E+03  0.12498157404E+03 0.  0.
          5    1    3    3  502    0  0.36553023856E+02 -0.75664446413E+02  0.37469057785E+03  0.38402649795E+03  0.47000000000E+01 0.  1.
         -5    1    3    3    0  502 -0.24365695084E+02  0.34377889180E+02  0.35698393992E+03  0.35949290636E+03  0.47000000000E+01 0.  1.
        -11    1    1    2    0    0  0.31341949035E+02 -0.10282037367E+02  0.60674466937E+02  0.69061052698E+02  0.00000000000E+00 0.  1.
         11    1    1    2    0    0 -0.43529277807E+02  0.51568594600E+02  0.12568167177E+03  0.14265342826E+03  0.00000000000E+00 0. -1.
<mgrwt>
<rscale>  0 0.12342486E+03</rscale>
<asrwt>0</asrwt>
<pdfrwt beam="1">  1        1 0.14409724E+00 0.13218738E+03</pdfrwt>
<pdfrwt beam="2">  1       -1 0.28617876E-02 0.13218738E+03</pdfrwt>
<totfact> 0.69990824E+03</totfact>
</mgrwt>
</event>
<event>
 7    1  0.8165933E-006  0.1973548E+03  0.7546771E-02  0.1160475E+00
          2   -1    0    0  501    0  0.00000000000E+00  0.00000000000E+00  0.66819043380E+03  0.66819043380E+03  0.00000000000E+00 0. -1.
         -2   -1    0    0    0  501 -0.00000000000E+00 -0.00000000000E+00 -0.48732978986E+02  0.48732978986E+02  0.00000000000E+00 0.  1.
         23    2    1    2    0    0  0.11222356402E+03 -0.10358638838E+03  0.37551878276E+03  0.42422078983E+03  0.12499861655E+03 0.  0.
          5    1    3    3  502    0  0.11230785959E+03 -0.86849920544E+02  0.38048888687E+03  0.40614018153E+03  0.47000000000E+01 0.  1.
         -5    1    3    3    0  502 -0.84295567591E-01 -0.16736467837E+02 -0.49701041137E+01  0.18080608295E+02  0.47000000000E+01 0.  1.
        -11    1    1    2    0    0 -0.73506782717E+02  0.41567492777E+02  0.97203041372E+02  0.12876154245E+03  0.00000000000E+00 0.  1.
         11    1    1    2    0    0 -0.38716781303E+02  0.62018895604E+02  0.14673563068E+03  0.16394108051E+03  0.00000000000E+00 0. -1.
<mgrwt>
<rscale>  0 0.18778403E+03</rscale>
<asrwt>0</asrwt>
<pdfrwt beam="1">  1        2 0.10279852E+00 0.19735481E+03</pdfrwt>
<pdfrwt beam="2">  1       -2 0.74973819E-02 0.19735481E+03</pdfrwt>
<totfact> 0.45781835E+03</totfact>
</mgrwt>
</event>
<event>
 7    1  0.8165933E-006  0.1732172E+03  0.7546771E-02  0.1180829E+00
          2   -1    0    0  501    0  0.00000000000E+00  0.00000000000E+00  0.11268354894E+04  0.11268354894E+04  0.00000000000E+00 0. -1.
         -2   -1    0    0    0  501 -0.00000000000E+00 -0.00000000000E+00 -0.24716181760E+02  0.24716181760E+02  0.00000000000E+00 0.  1.
         23    2    1    2    0    0 -0.32053537221E+02 -0.11554320783E+03  0.72925042463E+03  0.74954010253E+03  0.12500608527E+03 0.  0.
          5    1    3    3  502    0 -0.76687850007E+02 -0.44408184371E+02  0.35005622772E+03  0.36112956919E+03  0.47000000000E+01 0.  1.
         -5    1    3    3    0  502  0.44634312786E+02 -0.71135023454E+02  0.37919419692E+03  0.38841053335E+03  0.47000000000E+01 0.  1.
        -11    1    1    2    0    0  0.45151134608E+02  0.16542556553E+02  0.15624862713E+03  0.16348062459E+03  0.00000000000E+00 0.  1.
         11    1    1    2    0    0 -0.13097597387E+02  0.99000651272E+02  0.21662025584E+03  0.23853094401E+03  0.00000000000E+00 0. -1.
<mgrwt>
<rscale>  0 0.16717207E+03</rscale>
<asrwt>0</asrwt>
<pdfrwt beam="1">  1        2 0.17335927E+00 0.17321716E+03</pdfrwt>
<pdfrwt beam="2">  1       -2 0.38024904E-02 0.17321716E+03</pdfrwt>
<totfact> 0.64305486E+03</totfact>
</mgrwt>
</event>
<event>
 6    1  0.8165933E-006  0.2683875E+03  0.7546771E-02  0.1144075E+00
          2   -1    0    0  501    0  0.00000000000E+00  0.00000000000E+00  0.17020568084E+04  0.17020568084E+04  0.00000000000E+00 0. -1.
         -2   -1    0    0    0  501 -0.00000000000E+00 -0.00000000000E+00 -0.25117062121E+02  0.25117062121E+02  0.00000000000E+00 0.  1.
          5    1    1    2  502    0  0.75091212923E+02 -0.97059828018E+02  0.86917988300E+03  0.87781265626E+03  0.47000000000E+01 0. -1.
         -5    1    1    2    0  502 -0.98301713024E+02  0.99649525785E+02  0.65351844940E+03  0.66835747057E+03  0.47000000000E+01 0.  1.
        -11    1    1    2    0    0  0.51097494510E+02  0.11505474964E+02  0.50875080408E+02  0.73017831424E+02  0.00000000000E+00 0.  1.
         11    1    1    2    0    0 -0.27886994409E+02 -0.14095172731E+02  0.10336633345E+03  0.10798591224E+03  0.00000000000E+00 0. -1.
<mgrwt>
<rscale>  0 0.20686286E+03</rscale>
<asrwt>0</asrwt>
<pdfrwt beam="1">  1        2 0.26185480E+00 0.26838750E+03</pdfrwt>
<pdfrwt beam="2">  1       -2 0.38641647E-02 0.26838750E+03</pdfrwt>
<totfact> 0.30844140E+03</totfact>
</mgrwt>
</event>
<event>
 7    1  0.8165933E-006  0.1370110E+03  0.7546771E-02  0.1230946E+00
         -1   -1    0    0    0  501 -0.00000000000E+00  0.00000000000E+00  0.66544470440E+02  0.66544470440E+02  0.00000000000E+00 0.  1.
          1   -1    0    0  501    0  0.00000000000E+00 -0.00000000000E+00 -0.27284029885E+03  0.27284029885E+03  0.00000000000E+00 0. -1.
         23    2    1    2    0    0 -0.28833345411E+02  0.48120718285E+02 -0.19082581777E+03  0.23491811131E+03  0.12500024382E+03 0.  0.
          5    1    3    3  502    0 -0.54831665177E+02 -0.22122422873E+02 -0.61825689255E+02  0.85676244967E+02  0.47000000000E+01 0. -1.
         -5    1    3    3    0  502  0.25998319766E+02  0.70243141158E+02 -0.12900012852E+03  0.14924186634E+03  0.47000000000E+01 0. -1.
        -11    1    1    2    0    0  0.11093755078E+02 -0.38576369910E+02 -0.50225911585E+02  0.64295022449E+02  0.00000000000E+00 0. -1.
         11    1    1    2    0    0  0.17739590333E+02 -0.95443483757E+01  0.34755900946E+02  0.40171635537E+02  0.00000000000E+00 0.  1.
<mgrwt>
<rscale>  0 0.12767545E+03</rscale>
<asrwt>0</asrwt>
<pdfrwt beam="2">  1        1 0.41975430E-01 0.13701104E+03</pdfrwt>
<pdfrwt beam="1">  1       -1 0.10237611E-01 0.13701104E+03</pdfrwt>
<totfact> 0.55565699E+03</totfact>
</mgrwt>
</event>
<event>
 7    1  0.8165933E-006  0.1410685E+03  0.7546771E-02  0.1222900E+00
         -1   -1    0    0    0  501 -0.00000000000E+00  0.00000000000E+00  0.93799589477E+02  0.93799589477E+02  0.00000000000E+00 0.  1.
          1   -1    0    0  501    0  0.00000000000E+00 -0.00000000000E+00 -0.19357925352E+03  0.19357925352E+03  0.00000000000E+00 0. -1.
         23    2    1    2    0    0  0.13381121519E+02 -0.64181275263E+02 -0.10428676705E+03  0.17543107658E+03  0.12490813561E+03 0.  0.
          5    1    3    3  502    0 -0.46897113190E+02 -0.38803888281E+02 -0.89291547385E+02  0.10816723813E+03  0.47000000000E+01 0.  1.
         -5    1    3    3    0  502  0.60278234709E+02 -0.25377386983E+02 -0.14995219664E+02  0.67263838446E+02  0.47000000000E+01 0.  1.
        -11    1    1    2    0    0  0.96728457376E+01  0.77469598160E+02  0.20738325388E+02  0.80778590750E+02  0.00000000000E+00 0. -1.
         11    1    1    2    0    0 -0.23053967257E+02 -0.13288322897E+02 -0.16231222380E+02  0.31169175665E+02  0.00000000000E+00 0.  1.
<mgrwt>
<rscale>  0 0.13311850E+03</rscale>
<asrwt>0</asrwt>
<pdfrwt beam="2">  1        1 0.29781423E-01 0.14106854E+03</pdfrwt>
<pdfrwt beam="1">  1       -1 0.14430706E-01 0.14106854E+03</pdfrwt>
<totfact> 0.50106277E+03</totfact>
</mgrwt>
</event>
<event>
 7    1  0.8165933E-006  0.1329296E+03  0.7546771E-02  0.1235685E+00
          2   -1    0    0  501    0  0.00000000000E+00  0.00000000000E+00  0.29310247747E+03  0.29310247747E+03  0.00000000000E+00 0. -1.
         -2   -1    0    0    0  501 -0.00000000000E+00 -0.00000000000E+00 -0.47895825314E+02  0.47895825314E+02  0.00000000000E+00 0.  1.
         23    2    1    2    0    0 -0.41844917061E+02 -0.17143314802E+02  0.15654940748E+03  0.20537280552E+03  0.12500152775E+03 0.  0.
          5    1    3    3  502    0 -0.81086078774E+02 -0.31395214962E+02  0.12709167757E+03  0.15406166363E+03  0.47000000000E+01 0.  1.
         -5    1    3    3    0  502  0.39241161713E+02  0.14251900159E+02  0.29457729907E+02  0.51311141889E+02  0.47000000000E+01 0.  1.
        -11    1    1    2    0    0  0.62246261889E+02 -0.65831143636E+01  0.82789777592E+02  0.10378863997E+03  0.00000000000E+00 0.  1.
         11    1    1    2    0    0 -0.20401344829E+02  0.23726429166E+02  0.58674670829E+01  0.31836857285E+02  0.00000000000E+00 0. -1.
<mgrwt>
<rscale>  0 0.12460666E+03</rscale>
<asrwt>0</asrwt>
<pdfrwt beam="1">  1        2 0.45092688E-01 0.13292958E+03</pdfrwt>
<pdfrwt beam="2">  1       -2 0.73685887E-02 0.13292958E+03</pdfrwt>
<totfact> 0.11365583E+04</totfact>
</mgrwt>
</event>
<event>
 7    1  0.8165933E-006  0.1737187E+03  0.7546771E-02  0.1180885E+00
          1   -1    0    0  501    0  0.00000000000E+00  0.00000000000E+00  0.10196043122E+04  0.10196043122E+04  0.00000000000E+00 0. -1.
         -1   -1    0    0    0  501 -0.00000000000E+00 -0.00000000000E+00 -0.25603575151E+02  0.25603575151E+02  0.00000000000E+00 0.  1.
         23    2    1    2    0    0 -0.47970369582E+02  0.11069425333E+03  0.56793198843E+03  0.59390649909E+03  0.12499524830E+03 0.  0.
          5    1    3    3  502    0  0.42752667240E+02  0.36780279492E+02  0.18189405050E+03  0.19049439657E+03  0.47000000000E+01 0.  1.
         -5    1    3    3    0  502 -0.90723036822E+02  0.73913973842E+02  0.38603793793E+03  0.40341210252E+03  0.47000000000E+01 0.  1.
        -11    1    1    2    0    0 -0.29565728945E+01 -0.74921031626E+02  0.31679839078E+03  0.32555049179E+03  0.00000000000E+00 0. -1.
         11    1    1    2    0    0  0.50926942477E+02 -0.35773221707E+02  0.10927035781E+03  0.12575089645E+03  0.00000000000E+00 0.  1.
<mgrwt>
<rscale>  0 0.16711988E+03</rscale>
<asrwt>0</asrwt>
<pdfrwt beam="1">  1        1 0.15686217E+00 0.17371870E+03</pdfrwt>
<pdfrwt beam="2">  1       -1 0.39390124E-02 0.17371870E+03</pdfrwt>
<totfact> 0.38442485E+03</totfact>
</mgrwt>
</event>
<event>
 7    1  0.8165933E-006  0.1854843E+03  0.7546771E-02  0.1167826E+00
          1   -1    0    0  501    0  0.00000000000E+00  0.00000000000E+00  0.17557440095E+04  0.17557440095E+04  0.00000000000E+00 0. -1.
         -1   -1    0    0    0  501 -0.00000000000E+00 -0.00000000000E+00 -0.24064507689E+02  0.24064507689E+02  0.00000000000E+00 0.  1.
         23    2    1    2    0    0 -0.12544685736E+03 -0.55157902371E+02  0.13701577471E+04  0.13826556592E+04  0.12500044692E+03 0.  0.
          5    1    3    3  502    0 -0.88551805584E+02 -0.69021505773E+02  0.54094385780E+03  0.55249229662E+03  0.47000000000E+01 0.  1.
         -5    1    3    3    0  502 -0.36895051781E+02  0.13863603402E+02  0.82921388927E+03  0.83016336254E+03  0.47000000000E+01 0.  1.
        -11    1    1    2    0    0  0.70009212938E+02  0.56985825759E+02  0.12483436163E+03  0.15405288727E+03  0.00000000000E+00 0.  1.
         11    1    1    2    0    0  0.55437644427E+02 -0.18279233881E+01  0.23668739306E+03  0.24309997071E+03  0.00000000000E+00 0. -1.
<mgrwt>
<rscale>  0 0.17997656E+03</rscale>
<asrwt>0</asrwt>
<pdfrwt beam="1">  1        1 0.27011436E+00 0.18548428E+03</pdfrwt>
<pdfrwt beam="2">  1       -1 0.37022333E-02 0.18548428E+03</pdfrwt>
<totfact> 0.13484497E+03</totfact>
</mgrwt>
</event>
<event>
 6    1  0.8165933E-006  0.2175345E+03  0.7546771E-02  0.1170111E+00
         -4   -1    0    0    0  501 -0.00000000000E+00  0.00000000000E+00  0.36855710275E+02  0.36855710275E+02  0.00000000000E+00 0.  1.
          4   -1    0    0  501    0  0.00000000000E+00 -0.00000000000E+00 -0.73256314285E+03  0.73256314285E+03  0.00000000000E+00 0. -1.
          5    1    1    2  502    0 -0.96886900356E+02  0.17676563012E+02 -0.43835090889E+03  0.44930295088E+03  0.47000000000E+01 0. -1.
         -5    1    1    2    0  502  0.83834976054E+02  0.40607601320E+02 -0.13642546055E+03  0.16526123799E+03  0.47000000000E+01 0.  1.
        -11    1    1    2    0    0 -0.30307415796E+02 -0.12122960822E+02 -0.32297809188E+02  0.45920083946E+02  0.00000000000E+00 0.  1.
         11    1    1    2    0    0  0.43359340098E+02 -0.46161203509E+02 -0.88633253940E+02  0.10893458031E+03  0.00000000000E+00 0. -1.
<mgrwt>
<rscale>  0 0.17763574E+03</rscale>
<asrwt>0</asrwt>
<pdfrwt beam="2">  1        4 0.11270202E+00 0.21753452E+03</pdfrwt>
<pdfrwt beam="1">  1       -4 0.56701092E-02 0.21753452E+03</pdfrwt>
<totfact> 0.22616638E+02</totfact>
</mgrwt>
</event>
<event>
 7    1  0.8165933E-006  0.3709406E+03  0.7546771E-02  0.1055348E+00
          1   -1    0    0  501    0  0.00000000000E+00  0.00000000000E+00  0.12177358641E+04  0.12177358641E+04  0.00000000000E+00 0. -1.
         -1   -1    0    0    0  501 -0.00000000000E+00 -0.00000000000E+00 -0.12458069138E+03  0.12458069138E+03  0.00000000000E+00 0.  1.
         23    2    1    2    0    0  0.31559096688E+03  0.14953039017E+03  0.78445367765E+03  0.86773525083E+03  0.12505957454E+03 0.  0.
          5    1    3    3  502    0  0.24841327503E+03  0.16663429246E+03  0.67144860082E+03  0.73507921762E+03  0.47000000000E+01 0.  1.
         -5    1    3    3    0  502  0.67177691847E+02 -0.17103902292E+02  0.11300507683E+03  0.13265603320E+03  0.47000000000E+01 0.  1.
        -11    1    1    2    0    0 -0.24529246450E+03 -0.83662327664E+02  0.18813184121E+03  0.32025203806E+03  0.00000000000E+00 0.  1.
         11    1    1    2    0    0 -0.70298502381E+02 -0.65868062502E+02  0.12056965384E+03  0.15432926658E+03  0.00000000000E+00 0. -1.
<mgrwt>
<rscale>  0 0.36829197E+03</rscale>
<asrwt>0</asrwt>
<pdfrwt beam="1">  1        1 0.18734397E+00 0.37094055E+03</pdfrwt>
<pdfrwt beam="2">  1       -1 0.19166261E-01 0.37094055E+03</pdfrwt>
<totfact> 0.23888152E+02</totfact>
</mgrwt>
</event>
<event>
 7    1  0.8165933E-006  0.1346792E+03  0.7546771E-02  0.1231990E+00
         -1   -1    0    0    0  501 -0.00000000000E+00  0.00000000000E+00  0.50585468070E+02  0.50585468070E+02  0.00000000000E+00 0.  1.
          1   -1    0    0  501    0  0.00000000000E+00 -0.00000000000E+00 -0.29594261660E+03  0.29594261660E+03  0.00000000000E+00 0. -1.
         23    2    1    2    0    0  0.25785876030E+02 -0.41164794023E+02 -0.16589641745E+03  0.21368225290E+03  0.12561461784E+03 0.  0.
          5    1    3    3  502    0 -0.26803096058E+02 -0.23229004291E+02 -0.15208316131E+03  0.15623498505E+03  0.47000000000E+01 0. -1.
         -5    1    3    3    0  502  0.52588972089E+02 -0.17935789732E+02 -0.13813256132E+02  0.57447267852E+02  0.47000000000E+01 0.  1.
        -11    1    1    2    0    0  0.21005125237E+02  0.18172975039E+02  0.98180350759E+01  0.29459567559E+02  0.00000000000E+00 0. -1.
         11    1    1    2    0    0 -0.46791001267E+02  0.22991818985E+02 -0.89278766156E+02  0.10338626420E+03  0.00000000000E+00 0.  1.
<mgrwt>
<rscale>  0 0.12699111E+03</rscale>
<asrwt>0</asrwt>
<pdfrwt beam="2">  1        1 0.45529635E-01 0.13467919E+03</pdfrwt>
<pdfrwt beam="1">  1       -1 0.77823794E-02 0.13467919E+03</pdfrwt>
<totfact> 0.76094847E+03</totfact>
</mgrwt>
</event>
<event>
 7    1  0.8165933E-006  0.2015507E+03  0.7546771E-02  0.1152659E+00
          1   -1    0    0  501    0  0.00000000000E+00  0.00000000000E+00  0.20081896271E+03  0.20081896271E+03  0.00000000000E+00 0. -1.
         -1   -1    0    0    0  501 -0.00000000000E+00 -0.00000000000E+00 -0.20097666549E+03  0.20097666549E+03  0.00000000000E+00 0.  1.
         23    2    1    2    0    0  0.13257465651E+03 -0.86159523784E+02  0.59083496577E+02  0.21003227516E+03  0.12499277561E+03 0.  0.
          5    1    3    3  502    0 -0.56544894612E+01 -0.17456708038E+02 -0.27188207498E+02  0.33136060924E+02  0.47000000000E+01 0.  1.
         -5    1    3    3    0  502  0.13822914597E+03 -0.68702815746E+02  0.86271704075E+02  0.17689621424E+03  0.47000000000E+01 0.  1.
        -11    1    1    2    0    0 -0.70865431679E+02  0.44009344468E+02 -0.78547233608E+02  0.11457922899E+03  0.00000000000E+00 0. -1.
         11    1    1    2    0    0 -0.61709224833E+02  0.42150179316E+02  0.19306034251E+02  0.77184124044E+02  0.00000000000E+00 0.  1.
<mgrwt>
<rscale>  0 0.19657783E+03</rscale>
<asrwt>0</asrwt>
<pdfrwt beam="1">  1        1 0.30895225E-01 0.20155073E+03</pdfrwt>
<pdfrwt beam="2">  1       -1 0.30919487E-01 0.20155073E+03</pdfrwt>
<totfact> 0.14060269E+03</totfact>
</mgrwt>
</event>
<event>
 6    1  0.8165933E-006  0.1544970E+03  0.7546771E-02  0.1209301E+00
         -1   -1    0    0    0  501 -0.00000000000E+00  0.00000000000E+00  0.39988386426E+02  0.39988386426E+02  0.00000000000E+00 0.  1.
          1   -1    0    0  501    0  0.00000000000E+00 -0.00000000000E+00 -0.47379384403E+03  0.47379384403E+03  0.00000000000E+00 0. -1.
          5    1    1    2  502    0  0.60758635167E+02  0.41041311763E+02 -0.29993007104E+03  0.30879789270E+03  0.47000000000E+01 0. -1.
         -5    1    1    2    0  502  0.10078090167E+02 -0.31851164746E+02 -0.64722626959E+01  0.34351779888E+02  0.47000000000E+01 0.  1.
        -11    1    1    2    0    0 -0.91467004729E+02 -0.51152470258E+01 -0.11125920829E+03  0.14412144232E+03  0.00000000000E+00 0.  1.
         11    1    1    2    0    0  0.20630279395E+02 -0.40748999912E+01 -0.16143915582E+02  0.26511115559E+02  0.00000000000E+00 0. -1.
<mgrwt>
<rscale>  0 0.14303618E+03</rscale>
<asrwt>0</asrwt>
<pdfrwt beam="2">  1        1 0.72891353E-01 0.15449695E+03</pdfrwt>
<pdfrwt beam="1">  1       -1 0.61520601E-02 0.15449695E+03</pdfrwt>
<totfact> 0.60372760E+03</totfact>
</mgrwt>
</event>
<event>
 7    1  0.8165933E-006  0.1285597E+03  0.7546771E-02  0.1244033E+00
          1   -1    0    0  501    0  0.00000000000E+00  0.00000000000E+00  0.12459795179E+04  0.12459795179E+04  0.00000000000E+00 0. -1.
         -1   -1    0    0    0  501 -0.00000000000E+00 -0.00000000000E+00 -0.10728482638E+02  0.10728482638E+02  0.00000000000E+00 0.  1.
         23    2    1    2    0    0 -0.14995383474E+02 -0.26036151961E+02  0.85354915659E+03  0.86317654796E+03  0.12499939000E+03 0.  0.
          5    1    3    3  502    0  0.76143595432E+01  0.44991158233E+02  0.48313002420E+03  0.48530288797E+03  0.47000000000E+01 0.  1.
         -5    1    3    3    0  502 -0.22609743017E+02 -0.71027310194E+02  0.37041913239E+03  0.37787365999E+03  0.47000000000E+01 0.  1.
        -11    1    1    2    0    0 -0.28539734983E+02 -0.14108404836E+02  0.80569150999E+02  0.86631124041E+02  0.00000000000E+00 0.  1.
         11    1    1    2    0    0  0.43535118457E+02  0.40144556797E+02  0.30113272764E+03  0.30690032850E+03  0.00000000000E+00 0. -1.
<mgrwt>
<rscale>  0 0.11943422E+03</rscale>
<asrwt>0</asrwt>
<pdfrwt beam="1">  1        1 0.19168904E+00 0.12855968E+03</pdfrwt>
<pdfrwt beam="2">  1       -1 0.16505368E-02 0.12855968E+03</pdfrwt>
<totfact> 0.93406145E+03</totfact>
</mgrwt>
</event>
<event>
 7    1  0.8165933E-006  0.1284897E+03  0.7546771E-02  0.1243904E+00
          2   -1    0    0  501    0  0.00000000000E+00  0.00000000000E+00  0.51785839192E+03  0.51785839192E+03  0.00000000000E+00 0. -1.
         -2   -1    0    0    0  501 -0.00000000000E+00 -0.00000000000E+00 -0.30891128465E+02  0.30891128465E+02  0.00000000000E+00 0.  1.
         23    2    1    2    0    0 -0.44832294351E+00 -0.29741188603E+02  0.39618023561E+03  0.41649534810E+03  0.12499942643E+03 0.  0.
          5    1    3    3  502    0  0.21925468099E+02 -0.36683136737E+02  0.38925075651E+03  0.39161795173E+03  0.47000000000E+01 0. -1.
         -5    1    3    3    0  502 -0.22373791043E+02  0.69419481341E+01  0.69294790968E+01  0.24877396368E+02  0.47000000000E+01 0. -1.
        -11    1    1    2    0    0 -0.29099690333E+02  0.24250139627E+02  0.13511054280E+01  0.37903650686E+02  0.00000000000E+00 0.  1.
         11    1    1    2    0    0  0.29548013277E+02  0.54910489757E+01  0.89435922418E+02  0.94350521601E+02  0.00000000000E+00 0. -1.
<mgrwt>
<rscale>  0 0.11951222E+03</rscale>
<asrwt>0</asrwt>
<pdfrwt beam="1">  1        2 0.79670516E-01 0.12848967E+03</pdfrwt>
<pdfrwt beam="2">  1       -2 0.47524817E-02 0.12848967E+03</pdfrwt>
<totfact> 0.11970806E+04</totfact>
</mgrwt>
</event>
<event>
 7    1  0.8165933E-006  0.1616040E+03  0.7546771E-02  0.1200230E+00
         -1   -1    0    0    0  501 -0.00000000000E+00  0.00000000000E+00  0.13994218748E+02  0.13994218748E+02  0.00000000000E+00 0.  1.
          1   -1    0    0  501    0  0.00000000000E+00 -0.00000000000E+00 -0.18404303621E+04  0.18404303621E+04  0.00000000000E+00 0. -1.
         23    2    1    2    0    0  0.10201202682E+03 -0.91479156887E+01 -0.14539950004E+04  0.14629481618E+04  0.12500289892E+03 0.  0.
          5    1    3    3  502    0  0.34396915915E+02 -0.10334019734E+02 -0.86550014347E+02  0.93823956279E+02  0.47000000000E+01 0.  1.
         -5    1    3    3    0  502  0.67615110901E+02  0.11861040451E+01 -0.13674449861E+04  0.13691242055E+04  0.47000000000E+01 0.  1.
        -11    1    1    2    0    0 -0.39093218155E+01  0.13617386774E+02 -0.14357575809E+02  0.20170671846E+02  0.00000000000E+00 0.  1.
         11    1    1    2    0    0 -0.98102705001E+02 -0.44694710850E+01 -0.35808356710E+03  0.37130574723E+03  0.00000000000E+00 0. -1.
<mgrwt>
<rscale>  0 0.15019824E+03</rscale>
<asrwt>0</asrwt>
<pdfrwt beam="2">  1        1 0.28314297E+00 0.16160403E+03</pdfrwt>
<pdfrwt beam="1">  1       -1 0.21529580E-02 0.16160403E+03</pdfrwt>
<totfact> 0.26311523E+03</totfact>
</mgrwt>
</event>
<event>
 7    1  0.1143678E-005  0.1567515E+03  0.7546771E-02  0.1200258E+00
         -1   -1    0    0    0  501 -0.00000000000E+00  0.00000000000E+00  0.23240984175E+02  0.23240984175E+02  0.00000000000E+00 0.  1.
          1   -1    0    0  501    0  0.00000000000E+00 -0.00000000000E+00 -0.96028208573E+03  0.96028208573E+03  0.00000000000E+00 0. -1.
         23    2    1    2    0    0  0.91806213910E+02 -0.22754814353E+02 -0.63153301936E+03  0.65069576354E+03  0.12499943862E+03 0.  0.
          5    1    3    3  502    0 -0.22924958415E+01 -0.47330151243E+02 -0.10579856467E+03  0.11602079573E+03  0.47000000000E+01 0. -1.
         -5    1    3    3    0  502  0.94098709751E+02  0.24575336890E+02 -0.52573445468E+03  0.53467496781E+03  0.47000000000E+01 0. -1.
        -11    1    1    2    0    0 -0.41485310036E+02  0.27081425574E+02 -0.43294963603E+02  0.65794288759E+02  0.00000000000E+00 0.  1.
         11    1    1    2    0    0 -0.50320903873E+02 -0.43266112212E+01 -0.26221311859E+03  0.26703301761E+03  0.00000000000E+00 0. -1.
<mgrwt>
<rscale>  0 0.15017525E+03</rscale>
<asrwt>0</asrwt>
<pdfrwt beam="2">  1        1 0.14773570E+00 0.15675147E+03</pdfrwt>
<pdfrwt beam="1">  1       -1 0.35755362E-02 0.15675147E+03</pdfrwt>
<totfact> 0.48890800E+03</totfact>
</mgrwt>
</event>
<event>
 7    1  0.8165933E-006  0.1368481E+03  0.7546771E-02  0.1231162E+00
         -2   -1    0    0    0  501 -0.00000000000E+00  0.00000000000E+00  0.16716943923E+02  0.16716943923E+02  0.00000000000E+00 0.  1.
          2   -1    0    0  501    0  0.00000000000E+00 -0.00000000000E+00 -0.99706861088E+03  0.99706861088E+03  0.00000000000E+00 0. -1.
         23    2    1    2    0    0  0.98016356877E+01  0.54827757158E+02 -0.73455327022E+03  0.74719202324E+03  0.12500103117E+03 0.  0.
          5    1    3    3  502    0  0.54066305280E+02  0.67714640847E+02 -0.39010440198E+03  0.39963980332E+03  0.47000000000E+01 0.  1.
         -5    1    3    3    0  502 -0.44264669592E+02 -0.12886883689E+02 -0.34444886823E+03  0.34755221992E+03  0.47000000000E+01 0.  1.
        -11    1    1    2    0    0 -0.48312060140E+02 -0.25358183896E+02 -0.13773096513E+03  0.14814490001E+03  0.00000000000E+00 0. -1.
         11    1    1    2    0    0  0.38510424452E+02 -0.29469573262E+02 -0.10806743161E+03  0.11844863155E+03  0.00000000000E+00 0.  1.
<mgrwt>
<rscale>  0 0.12753362E+03</rscale>
<asrwt>0</asrwt>
<pdfrwt beam="2">  1        2 0.15339520E+00 0.13684814E+03</pdfrwt>
<pdfrwt beam="1">  1       -2 0.25718370E-02 0.13684814E+03</pdfrwt>
<totfact> 0.13486970E+04</totfact>
</mgrwt>
</event>
<event>
 7    1  0.8165933E-006  0.2201009E+03  0.7546771E-02  0.1137216E+00
          2   -1    0    0  501    0  0.00000000000E+00  0.00000000000E+00  0.74753208954E+03  0.74753208954E+03  0.00000000000E+00 0. -1.
         -2   -1    0    0    0  501 -0.00000000000E+00 -0.00000000000E+00 -0.62480598220E+02  0.62480598220E+02  0.00000000000E+00 0.  1.
         23    2    1    2    0    0 -0.64911943627E+02 -0.16912757583E+03  0.27156106665E+03  0.34955662178E+03  0.12500688613E+03 0.  0.
          5    1    3    3  502    0 -0.68082900720E+01 -0.85097905238E+02  0.21787845928E+03  0.23405366758E+03  0.47000000000E+01 0. -1.
         -5    1    3    3    0  502 -0.58103653555E+02 -0.84029670587E+02  0.53682607376E+02  0.11550295421E+03  0.47000000000E+01 0. -1.
        -11    1    1    2    0    0  0.70162676706E+01  0.15945674207E+02  0.19478986495E+01  0.17529599170E+02  0.00000000000E+00 0.  1.
         11    1    1    2    0    0  0.57895675957E+02  0.15318190162E+03  0.41154252602E+03  0.44292646681E+03  0.00000000000E+00 0. -1.
<mgrwt>
<rscale>  0 0.21558798E+03</rscale>
<asrwt>0</asrwt>
<pdfrwt beam="1">  1        2 0.11500493E+00 0.22010093E+03</pdfrwt>
<pdfrwt beam="2">  1       -2 0.96124003E-02 0.22010093E+03</pdfrwt>
<totfact> 0.27157572E+03</totfact>
</mgrwt>
</event>
<event>
 7    1  0.8165933E-006  0.1820900E+03  0.7546771E-02  0.1171391E+00
         -2   -1    0    0    0  501 -0.00000000000E+00  0.00000000000E+00  0.87425277610E+02  0.87425277610E+02  0.00000000000E+00 0.  1.
          2   -1    0    0  501    0  0.00000000000E+00 -0.00000000000E+00 -0.37471583542E+03  0.37471583542E+03  0.00000000000E+00 0. -1.
         23    2    1    2    0    0  0.11117673272E+02 -0.13193914034E+03 -0.22699108786E+03  0.29100126486E+03  0.12500097107E+03 0.  0.
          5    1    3    3  502    0 -0.20042907738E+01 -0.87194467765E+02 -0.36216959401E+02  0.94555013292E+02  0.47000000000E+01 0.  1.
         -5    1    3    3    0  502  0.13121964046E+02 -0.44744672576E+02 -0.19077412846E+03  0.19644625157E+03  0.47000000000E+01 0.  1.
        -11    1    1    2    0    0 -0.93304604959E+01  0.36603136184E+02  0.23255371182E+02  0.44358306555E+02  0.00000000000E+00 0.  1.
         11    1    1    2    0    0 -0.17872127766E+01  0.95336004158E+02 -0.83554841132E+02  0.12678154162E+03  0.00000000000E+00 0. -1.
<mgrwt>
<rscale>  0 0.17634231E+03</rscale>
<asrwt>0</asrwt>
<pdfrwt beam="2">  1        2 0.57648590E-01 0.18209004E+03</pdfrwt>
<pdfrwt beam="1">  1       -2 0.13450043E-01 0.18209004E+03</pdfrwt>
<totfact> 0.34491918E+03</totfact>
</mgrwt>
</event>
<event>
 7    1  0.8165933E-006  0.1255381E+03  0.7546771E-02  0.1248488E+00
         -2   -1    0    0    0  501 -0.00000000000E+00  0.00000000000E+00  0.41724830856E+03  0.41724830856E+03  0.00000000000E+00 0. -1.
          2   -1    0    0  501    0  0.00000000000E+00 -0.00000000000E+00 -0.30788751821E+02  0.30788751821E+02  0.00000000000E+00 0.  1.
         23    2    1    2    0    0  0.98828953274E+01  0.61370089027E+01  0.16411418207E+03  0.20662353200E+03  0.12499793887E+03 0.  0.
          5    1    3    3  502    0 -0.48477480988E+02 -0.36529527515E+01  0.23930465255E+02  0.54389037444E+02  0.47000000000E+01 0.  1.
         -5    1    3    3    0  502  0.58360376316E+02  0.97899616541E+01  0.14018371681E+03  0.15223449455E+03  0.47000000000E+01 0.  1.
        -11    1    1    2    0    0  0.15691547722E+02  0.33473103606E+02  0.46762449101E+02  0.59610401616E+02  0.00000000000E+00 0.  1.
         11    1    1    2    0    0 -0.25574443050E+02 -0.39610112508E+02  0.17558292557E+03  0.18180312677E+03  0.00000000000E+00 0. -1.
<mgrwt>
<rscale>  0 0.11679031E+03</rscale>
<asrwt>0</asrwt>
<pdfrwt beam="2">  1        2 0.47367313E-02 0.12553812E+03</pdfrwt>
<pdfrwt beam="1">  1       -2 0.64192043E-01 0.12553812E+03</pdfrwt>
<totfact> 0.36714448E+03</totfact>
</mgrwt>
</event>
<event>
 7    1  0.8165933E-006  0.1287068E+03  0.7546771E-02  0.1243138E+00
          2   -1    0    0  501    0  0.00000000000E+00  0.00000000000E+00  0.58204088055E+03  0.58204088055E+03  0.00000000000E+00 0.  1.
         -2   -1    0    0    0  501 -0.00000000000E+00 -0.00000000000E+00 -0.21928294204E+02  0.21928294204E+02  0.00000000000E+00 0. -1.
         23    2    1    2    0    0  0.30205077156E+02  0.53113808167E+01  0.32628957068E+03  0.35075678509E+03  0.12499952361E+03 0.  0.
          5    1    3    3  502    0  0.25024894371E+02  0.12401310974E+02  0.33579619209E+03  0.33698844264E+03  0.47000000000E+01 0.  1.
         -5    1    3    3    0  502  0.51801827854E+01 -0.70899301573E+01 -0.95066214089E+01  0.13768342454E+02  0.47000000000E+01 0.  1.
        -11    1    1    2    0    0  0.18814195141E+02  0.30462757453E+02  0.10171933176E+03  0.10783680255E+03  0.00000000000E+00 0. -1.
         11    1    1    2    0    0 -0.49019272298E+02 -0.35774138270E+02  0.13210368391E+03  0.14537558711E+03  0.00000000000E+00 0.  1.
<mgrwt>
<rscale>  0 0.11997524E+03</rscale>
<asrwt>0</asrwt>
<pdfrwt beam="1">  1        2 0.89544739E-01 0.12870679E+03</pdfrwt>
<pdfrwt beam="2">  1       -2 0.33735842E-02 0.12870679E+03</pdfrwt>
<totfact> 0.17480646E+04</totfact>
</mgrwt>
</event>
<event>
 7    1  0.8165933E-006  0.1364567E+03  0.7546771E-02  0.1229305E+00
         -2   -1    0    0    0  501 -0.00000000000E+00  0.00000000000E+00  0.24863204892E+02  0.24863204892E+02  0.00000000000E+00 0. -1.
          2   -1    0    0  501    0  0.00000000000E+00 -0.00000000000E+00 -0.62243737161E+03  0.62243737161E+03  0.00000000000E+00 0.  1.
         23    2    1    2    0    0 -0.54734322925E+02  0.51266237392E+00 -0.39074671123E+03  0.41388819346E+03  0.12499734166E+03 0.  0.
          5    1    3    3  502    0 -0.35272538278E+01  0.50822416253E+02 -0.80284262667E+02  0.95199854755E+02  0.47000000000E+01 0. -1.
         -5    1    3    3    0  502 -0.51207069097E+02 -0.50309753879E+02 -0.31046244856E+03  0.31868833870E+03  0.47000000000E+01 0. -1.
        -11    1    1    2    0    0  0.30895616447E+02 -0.15808552706E+02 -0.20165544774E+03  0.20462006025E+03  0.00000000000E+00 0.  1.
         11    1    1    2    0    0  0.23838706478E+02  0.15295890332E+02 -0.51720077538E+01  0.28792322793E+02  0.00000000000E+00 0. -1.
<mgrwt>
<rscale>  0 0.12876175E+03</rscale>
<asrwt>0</asrwt>
<pdfrwt beam="2">  1        2 0.95759599E-01 0.13645675E+03</pdfrwt>
<pdfrwt beam="1">  1       -2 0.38251083E-02 0.13645675E+03</pdfrwt>
<totfact> 0.13511649E+04</totfact>
</mgrwt>
</event>
<event>
 7    1  0.8165933E-006  0.1250388E+03  0.7546771E-02  0.1244586E+00
         -2   -1    0    0    0  501 -0.00000000000E+00  0.00000000000E+00  0.25371528682E+02  0.25371528682E+02  0.00000000000E+00 0.  1.
          2   -1    0    0  501    0  0.00000000000E+00 -0.00000000000E+00 -0.51845287950E+03  0.51845287950E+03  0.00000000000E+00 0. -1.
         23    2    1    2    0    0  0.31715969496E+01 -0.10162868973E+01 -0.30014943826E+03  0.32515286999E+03  0.12499444671E+03 0.  0.
          5    1    3    3  502    0 -0.32395411885E+02 -0.47547719749E+02 -0.20802779378E+03  0.21588863182E+03  0.47000000000E+01 0. -1.
         -5    1    3    3    0  502  0.35567008835E+02  0.46531432852E+02 -0.92121644488E+02  0.10926423818E+03  0.47000000000E+01 0. -1.
        -11    1    1    2    0    0 -0.39359018311E+02 -0.34416056986E+02 -0.97771379107E+02  0.11087308002E+03  0.00000000000E+00 0.  1.
         11    1    1    2    0    0  0.36187421361E+02  0.35432343883E+02 -0.95160533445E+02  0.10779845817E+03  0.00000000000E+00 0. -1.
<mgrwt>
<rscale>  0 0.11910192E+03</rscale>
<asrwt>0</asrwt>
<pdfrwt beam="2">  1        2 0.79761979E-01 0.12503881E+03</pdfrwt>
<pdfrwt beam="1">  1       -2 0.39033122E-02 0.12503881E+03</pdfrwt>
<totfact> 0.15990855E+04</totfact>
</mgrwt>
</event>
<event>
 7    1  0.8165933E-006  0.2529194E+03  0.7546771E-02  0.1113914E+00
         -2   -1    0    0    0  501 -0.00000000000E+00  0.00000000000E+00  0.48210057288E+03  0.48210057288E+03  0.00000000000E+00 0.  1.
          2   -1    0    0  501    0  0.00000000000E+00 -0.00000000000E+00 -0.17730374527E+03  0.17730374527E+03  0.00000000000E+00 0. -1.
         23    2    1    2    0    0  0.15867803354E+03 -0.15219095646E+03 -0.23557786643E+02  0.25401414377E+03  0.12500964111E+03 0.  0.
          5    1    3    3  502    0  0.12637594561E+03 -0.57917114083E+02 -0.54756502066E+02  0.14948456861E+03  0.47000000000E+01 0. -1.
         -5    1    3    3    0  502  0.32302087922E+02 -0.94273842374E+02  0.31198715423E+02  0.10452957516E+03  0.47000000000E+01 0. -1.
        -11    1    1    2    0    0 -0.22820813770E+02 -0.30479947235E+01  0.76195808539E+02  0.79598247794E+02  0.00000000000E+00 0.  1.
         11    1    1    2    0    0 -0.13585721977E+03  0.15523895118E+03  0.25215880572E+03  0.32579192658E+03  0.00000000000E+00 0. -1.
<mgrwt>
<rscale>  0 0.24903829E+03</rscale>
<asrwt>0</asrwt>
<pdfrwt beam="2">  1        2 0.27277500E-01 0.25291939E+03</pdfrwt>
<pdfrwt beam="1">  1       -2 0.74169318E-01 0.25291939E+03</pdfrwt>
<totfact> 0.32951044E+02</totfact>
</mgrwt>
</event>
<event>
 7    1  0.8165933E-006  0.1379444E+03  0.7546771E-02  0.1226578E+00
         -2   -1    0    0    0  501 -0.00000000000E+00  0.00000000000E+00  0.54548201980E+02  0.54548201980E+02  0.00000000000E+00 0.  1.
          2   -1    0    0  501    0  0.00000000000E+00 -0.00000000000E+00 -0.35533779337E+03  0.35533779337E+03  0.00000000000E+00 0. -1.
         23    2    1    2    0    0 -0.47270982183E+02  0.34192593260E+02 -0.25513859463E+03  0.29004201205E+03  0.12499994837E+03 0.  0.
          5    1    3    3  502    0  0.42827172258E+02  0.15645166253E+02 -0.84658611626E+02  0.96271015541E+02  0.47000000000E+01 0.  1.
         -5    1    3    3    0  502 -0.90098154441E+02  0.18547427006E+02 -0.17047998301E+03  0.19377099651E+03  0.47000000000E+01 0.  1.
        -11    1    1    2    0    0  0.27769438934E+02  0.30790367674E+02 -0.79224304777E+01  0.42213189703E+02  0.00000000000E+00 0.  1.
         11    1    1    2    0    0  0.19501543249E+02 -0.64982960934E+02 -0.37728566276E+02  0.77630793594E+02  0.00000000000E+00 0. -1.
<mgrwt>
<rscale>  0 0.13059351E+03</rscale>
<asrwt>0</asrwt>
<pdfrwt beam="2">  1        2 0.54667353E-01 0.13794443E+03</pdfrwt>
<pdfrwt beam="1">  1       -2 0.83920311E-02 0.13794443E+03</pdfrwt>
<totfact> 0.76022710E+03</totfact>
</mgrwt>
</event>
<event>
 7    1  0.8165933E-006  0.2022264E+03  0.7546771E-02  0.1152153E+00
         -1   -1    0    0    0  501 -0.00000000000E+00  0.00000000000E+00  0.40285023814E+02  0.40285023814E+02  0.00000000000E+00 0.  1.
          1   -1    0    0  501    0  0.00000000000E+00 -0.00000000000E+00 -0.92455612064E+03  0.92455612064E+03  0.00000000000E+00 0. -1.
         23    2    1    2    0    0  0.13418948139E+03  0.85183955963E+02 -0.42928626680E+03  0.47453369091E+03  0.12502960318E+03 0.  0.
          5    1    3    3  502    0  0.48408730618E+02  0.45655944826E+02 -0.33284546659E+03  0.33946437976E+03  0.47000000000E+01 0.  1.
         -5    1    3    3    0  502  0.85780750776E+02  0.39528011137E+02 -0.96440800213E+02  0.13506931115E+03  0.47000000000E+01 0.  1.
        -11    1    1    2    0    0 -0.90353510588E+02 -0.66605675118E+02 -0.18682024468E+03  0.21794925248E+03  0.00000000000E+00 0.  1.
         11    1    1    2    0    0 -0.43835970806E+02 -0.18578280845E+02 -0.26816458534E+03  0.27235820106E+03  0.00000000000E+00 0. -1.
<mgrwt>
<rscale>  0 0.19716545E+03</rscale>
<asrwt>0</asrwt>
<pdfrwt beam="2">  1        1 0.14223940E+00 0.20222642E+03</pdfrwt>
<pdfrwt beam="1">  1       -1 0.61976961E-02 0.20222642E+03</pdfrwt>
<totfact> 0.23125020E+03</totfact>
</mgrwt>
</event>
<event>
 7    1  0.8165933E-006  0.1264451E+03  0.7546771E-02  0.1247946E+00
         -4   -1    0    0    0  501 -0.00000000000E+00  0.00000000000E+00  0.27354644307E+03  0.27354644307E+03  0.00000000000E+00 0.  1.
          4   -1    0    0  501    0  0.00000000000E+00 -0.00000000000E+00 -0.45215498822E+02  0.45215498822E+02  0.00000000000E+00 0. -1.
         23    2    1    2    0    0  0.28539725833E+01 -0.18890540836E+02  0.10551136016E+03  0.16468457832E+03  0.12499346191E+03 0.  0.
          5    1    3    3  502    0 -0.37982354927E+02 -0.53159645925E+02  0.29787522262E+02  0.71958277656E+02  0.47000000000E+01 0. -1.
         -5    1    3    3    0  502  0.40836327510E+02  0.34269105089E+02  0.75723837901E+02  0.92726300663E+02  0.47000000000E+01 0. -1.
        -11    1    1    2    0    0  0.14959193385E+02  0.52382138423E+02  0.81013683275E+02  0.97626240172E+02  0.00000000000E+00 0.  1.
         11    1    1    2    0    0 -0.17813165968E+02 -0.33491597587E+02  0.41805900808E+02  0.56451123400E+02  0.00000000000E+00 0. -1.
<mgrwt>
<rscale>  0 0.11710786E+03</rscale>
<asrwt>0</asrwt>
<pdfrwt beam="2">  1        4 0.69562308E-02 0.12644510E+03</pdfrwt>
<pdfrwt beam="1">  1       -4 0.42084067E-01 0.12644510E+03</pdfrwt>
<totfact> 0.12432413E+03</totfact>
</mgrwt>
</event>
<event>
 7    1  0.8165933E-006  0.1355140E+03  0.7546771E-02  0.1231966E+00
         -1   -1    0    0    0  501 -0.00000000000E+00  0.00000000000E+00  0.25225110538E+02  0.25225110538E+02  0.00000000000E+00 0.  1.
          1   -1    0    0  501    0  0.00000000000E+00 -0.00000000000E+00 -0.93960771239E+03  0.93960771239E+03  0.00000000000E+00 0. -1.
         23    2    1    2    0    0  0.29085540422E+02 -0.43505814138E+02 -0.79357238304E+03  0.80505973958E+03  0.12500133062E+03 0.  0.
          5    1    3    3  502    0  0.86119125945E+01  0.43441994108E+02 -0.32364599899E+03  0.32669587471E+03  0.47000000000E+01 0. -1.
         -5    1    3    3    0  502  0.20473627828E+02 -0.86947808245E+02 -0.46992638405E+03  0.47836386487E+03  0.47000000000E+01 0. -1.
        -11    1    1    2    0    0 -0.14489548873E+02  0.10563791972E+02  0.12383475056E+02  0.21791998115E+02  0.00000000000E+00 0.  1.
         11    1    1    2    0    0 -0.14595991549E+02  0.32942022166E+02 -0.13319369387E+03  0.13798108522E+03  0.00000000000E+00 0. -1.
<mgrwt>
<rscale>  0 0.12700690E+03</rscale>
<asrwt>0</asrwt>
<pdfrwt beam="2">  1        1 0.14455502E+00 0.13551405E+03</pdfrwt>
<pdfrwt beam="1">  1       -1 0.38807864E-02 0.13551405E+03</pdfrwt>
<totfact> 0.44684372E+03</totfact>
</mgrwt>
</event>
<event>
 7    1  0.8165933E-006  0.1699798E+03  0.7546771E-02  0.1185281E+00
          2   -1    0    0  501    0  0.00000000000E+00  0.00000000000E+00  0.44909531332E+03  0.44909531332E+03  0.00000000000E+00 0. -1.
         -2   -1    0    0    0  501 -0.00000000000E+00 -0.00000000000E+00 -0.88399157162E+02  0.88399157162E+02  0.00000000000E+00 0.  1.
         23    2    1    2    0    0  0.10211192416E+03  0.53248383150E+02  0.35479966581E+03  0.39341574613E+03  0.12502364210E+03 0.  0.
          5    1    3    3  502    0 -0.32688009052E+01  0.62205163831E+02  0.15895660861E+03  0.17079069322E+03  0.47000000000E+01 0. -1.
         -5    1    3    3    0  502  0.10538072507E+03 -0.89567806813E+01  0.19584305719E+03  0.22262505292E+03  0.47000000000E+01 0. -1.
        -11    1    1    2    0    0 -0.88229750817E+02 -0.32384015954E+01  0.19516212922E+02  0.90420455324E+02  0.00000000000E+00 0. -1.
         11    1    1    2    0    0 -0.13882173345E+02 -0.50009981555E+02 -0.13619722571E+02  0.53658269025E+02  0.00000000000E+00 0.  1.
<mgrwt>
<rscale>  0 0.16306360E+03</rscale>
<asrwt>0</asrwt>
<pdfrwt beam="1">  1        2 0.69091585E-01 0.16997984E+03</pdfrwt>
<pdfrwt beam="2">  1       -2 0.13599871E-01 0.16997984E+03</pdfrwt>
<totfact> 0.27779880E+03</totfact>
</mgrwt>
</event>
<event>
 7    1  0.8165933E-006  0.1977462E+03  0.7546771E-02  0.1156014E+00
          2   -1    0    0  501    0  0.00000000000E+00  0.00000000000E+00  0.78987484253E+02  0.78987484253E+02  0.00000000000E+00 0. -1.
         -2   -1    0    0    0  501 -0.00000000000E+00 -0.00000000000E+00 -0.46156255636E+03  0.46156255636E+03  0.00000000000E+00 0.  1.
         23    2    1    2    0    0  0.14513784082E+03  0.49113430016E+02 -0.15447306645E+03  0.25092928536E+03  0.12500582444E+03 0.  0.
          5    1    3    3  502    0  0.11802909710E+03  0.88685754207E+02 -0.13049794009E+03  0.19709853660E+03  0.47000000000E+01 0.  1.
         -5    1    3    3    0  502  0.27108743723E+02 -0.39572324191E+02 -0.23975126366E+02  0.53830748763E+02  0.47000000000E+01 0.  1.
        -11    1    1    2    0    0 -0.85300841018E+02  0.87907428799E+01 -0.16203709628E+03  0.18332902446E+03  0.00000000000E+00 0.  1.
         11    1    1    2    0    0 -0.59836999807E+02 -0.57904172895E+02 -0.66064909379E+02  0.10629173080E+03  0.00000000000E+00 0. -1.
<mgrwt>
<rscale>  0 0.19273886E+03</rscale>
<asrwt>0</asrwt>
<pdfrwt beam="1">  1        2 0.12151921E-01 0.19774625E+03</pdfrwt>
<pdfrwt beam="2">  1       -2 0.71009623E-01 0.19774625E+03</pdfrwt>
<totfact> 0.92229028E+02</totfact>
</mgrwt>
</event>
<event>
 7    1  0.8165933E-006  0.1315397E+03  0.7546771E-02  0.1239284E+00
          2   -1    0    0  501    0  0.00000000000E+00  0.00000000000E+00  0.44447080315E+03  0.44447080315E+03  0.00000000000E+00 0. -1.
         -2   -1    0    0    0  501 -0.00000000000E+00 -0.00000000000E+00 -0.30385742523E+02  0.30385742523E+02  0.00000000000E+00 0.  1.
         23    2    1    2    0    0  0.40936686836E+02  0.62172092245E+00  0.27032420727E+03  0.30062911466E+03  0.12500595456E+03 0.  0.
          5    1    3    3  502    0 -0.37695251514E+02  0.26762421847E+02  0.72668873460E+02  0.86255517967E+02  0.47000000000E+01 0. -1.
         -5    1    3    3    0  502  0.78631938349E+02 -0.26140700925E+02  0.19765533381E+03  0.21437359669E+03  0.47000000000E+01 0. -1.
        -11    1    1    2    0    0 -0.52665682178E+02 -0.26932540732E+02  0.54494581324E+02  0.80428199180E+02  0.00000000000E+00 0.  1.
         11    1    1    2    0    0  0.11728995343E+02  0.26310819809E+02  0.89266272024E+02  0.93799231830E+02  0.00000000000E+00 0. -1.
<mgrwt>
<rscale>  0 0.12234097E+03</rscale>
<asrwt>0</asrwt>
<pdfrwt beam="1">  1        2 0.68380119E-01 0.13153968E+03</pdfrwt>
<pdfrwt beam="2">  1       -2 0.46747299E-02 0.13153968E+03</pdfrwt>
<totfact> 0.14519966E+04</totfact>
</mgrwt>
</event>
<event>
 7    1  0.8165933E-006  0.1294634E+03  0.7546771E-02  0.1241910E+00
         -1   -1    0    0    0  501 -0.00000000000E+00  0.00000000000E+00  0.14750987130E+02  0.14750987130E+02  0.00000000000E+00 0.  1.
          1   -1    0    0  501    0  0.00000000000E+00 -0.00000000000E+00 -0.89611875291E+03  0.89611875291E+03  0.00000000000E+00 0. -1.
         23    2    1    2    0    0 -0.33390205925E+02  0.45492324606E+01 -0.56814070611E+03  0.58270457695E+03  0.12500064277E+03 0.  0.
          5    1    3    3  502    0 -0.49455202010E+02 -0.24095814434E+02 -0.10731049152E+03  0.12068163435E+03  0.47000000000E+01 0.  1.
         -5    1    3    3    0  502  0.16064996085E+02  0.28645046894E+02 -0.46083021459E+03  0.46202294260E+03  0.47000000000E+01 0.  1.
        -11    1    1    2    0    0 -0.43250444796E+01  0.35820134009E+02 -0.70100508317E+02  0.78840784348E+02  0.00000000000E+00 0. -1.
         11    1    1    2    0    0  0.37715250405E+02 -0.40369366470E+02 -0.24312655136E+03  0.24932437875E+03  0.00000000000E+00 0.  1.
<mgrwt>
<rscale>  0 0.12072231E+03</rscale>
<asrwt>0</asrwt>
<pdfrwt beam="2">  1        1 0.13786444E+00 0.12946336E+03</pdfrwt>
<pdfrwt beam="1">  1       -1 0.22693824E-02 0.12946336E+03</pdfrwt>
<totfact> 0.10502261E+04</totfact>
</mgrwt>
</event>
<event>
 7    1  0.8165933E-006  0.1644330E+03  0.7546771E-02  0.1191116E+00
          1   -1    0    0  501    0  0.00000000000E+00  0.00000000000E+00  0.98614692845E+03  0.98614692845E+03  0.00000000000E+00 0. -1.
         -1   -1    0    0    0  501 -0.00000000000E+00 -0.00000000000E+00 -0.29858346742E+02  0.29858346742E+02  0.00000000000E+00 0.  1.
         23    2    1    2    0    0 -0.93260507867E+02 -0.52475845797E+02  0.74330908623E+03  0.76127959148E+03  0.12484783544E+03 0.  0.
          5    1    3    3  502    0 -0.12118599341E+03 -0.59618180124E+02  0.62054985451E+03  0.63509415391E+03  0.47000000000E+01 0. -1.
         -5    1    3    3    0  502  0.27925485541E+02  0.71423343264E+01  0.12275923172E+03  0.12618543757E+03  0.47000000000E+01 0.  1.
        -11    1    1    2    0    0  0.10506302001E+03  0.47580109427E+02  0.14361363437E+03  0.18419278206E+03  0.00000000000E+00 0.  1.
         11    1    1    2    0    0 -0.11802512143E+02  0.48957363702E+01  0.69365861117E+02  0.70532901656E+02  0.00000000000E+00 0. -1.
<mgrwt>
<rscale>  0 0.15787574E+03</rscale>
<asrwt>0</asrwt>
<pdfrwt beam="1">  1        1 0.15171489E+00 0.16443302E+03</pdfrwt>
<pdfrwt beam="2">  1       -1 0.45935926E-02 0.16443302E+03</pdfrwt>
<totfact> 0.32364769E+03</totfact>
</mgrwt>
</event>
<event>
 7    1  0.8165933E-006  0.2833623E+03  0.7546771E-02  0.1095623E+00
         -1   -1    0    0    0  501 -0.00000000000E+00  0.00000000000E+00  0.36632846975E+02  0.36632846975E+02  0.00000000000E+00 0.  1.
          1   -1    0    0  501    0  0.00000000000E+00 -0.00000000000E+00 -0.28162004455E+04  0.28162004455E+04  0.00000000000E+00 0. -1.
         23    2    1    2    0    0  0.24142407623E+03  0.79900318041E+02 -0.21355683572E+04  0.21542855942E+04  0.12499827034E+03 0.  0.
          5    1    3    3  502    0  0.11688407030E+03  0.98183418193E+02 -0.13609983938E+04  0.13695402833E+04  0.47000000000E+01 0. -1.
         -5    1    3    3    0  502  0.12454000593E+03 -0.18283100152E+02 -0.77456996341E+03  0.78474531094E+03  0.47000000000E+01 0. -1.
        -11    1    1    2    0    0 -0.61946781655E+02 -0.12437681323E+02 -0.74755494746E+02  0.97879945182E+02  0.00000000000E+00 0.  1.
         11    1    1    2    0    0 -0.17947729457E+03 -0.67462636717E+02 -0.56924374659E+03  0.60066775313E+03  0.00000000000E+00 0. -1.
<mgrwt>
<rscale>  0 0.28012095E+03</rscale>
<asrwt>0</asrwt>
<pdfrwt beam="2">  1        1 0.43326159E+00 0.28336234E+03</pdfrwt>
<pdfrwt beam="1">  1       -1 0.56358229E-02 0.28336234E+03</pdfrwt>
<totfact> 0.14203418E+02</totfact>
</mgrwt>
</event>
<event>
 6    1  0.8165933E-006  0.1584160E+03  0.7546771E-02  0.1198590E+00
          1   -1    0    0  501    0  0.00000000000E+00  0.00000000000E+00  0.72665737603E+03  0.72665737603E+03  0.00000000000E+00 0. -1.
         -1   -1    0    0    0  501 -0.00000000000E+00 -0.00000000000E+00 -0.32870848213E+02  0.32870848213E+02  0.00000000000E+00 0.  1.
          5    1    1    2  502    0 -0.39772060079E+02  0.43969538691E+02  0.34449541135E+03  0.34959164112E+03  0.47000000000E+01 0. -1.
         -5    1    1    2    0  502  0.65987133939E+02  0.45450058887E+02  0.15695195612E+03  0.17628390803E+03  0.47000000000E+01 0.  1.
        -11    1    1    2    0    0 -0.52659791822E+02 -0.91667908848E+02  0.14607183962E+03  0.18031373081E+03  0.00000000000E+00 0.  1.
         11    1    1    2    0    0  0.26444717962E+02  0.22483112692E+01  0.46267320723E+02  0.53338944296E+02  0.00000000000E+00 0. -1.
<mgrwt>
<rscale>  0 0.15154303E+03</rscale>
<asrwt>0</asrwt>
<pdfrwt beam="1">  1        1 0.11179343E+00 0.15841601E+03</pdfrwt>
<pdfrwt beam="2">  1       -1 0.50570541E-02 0.15841601E+03</pdfrwt>
<totfact> 0.45141453E+03</totfact>
</mgrwt>
</event>
<event>
 7    1  0.8165933E-006  0.1413744E+03  0.7546771E-02  0.1228032E+00
          1   -1    0    0  501    0  0.00000000000E+00  0.00000000000E+00  0.42675092457E+03  0.42675092457E+03  0.00000000000E+00 0. -1.
         -1   -1    0    0    0  501 -0.00000000000E+00 -0.00000000000E+00 -0.39282060417E+02  0.39282060417E+02  0.00000000000E+00 0.  1.
         23    2    1    2    0    0 -0.56178681344E+00  0.65997236655E+02  0.30622614335E+03  0.33728502060E+03  0.12502313144E+03 0.  0.
          5    1    3    3  502    0  0.61587268672E+02  0.36508737617E+02  0.13967764250E+03  0.15702806564E+03  0.47000000000E+01 0. -1.
         -5    1    3    3    0  502 -0.62149055485E+02  0.29488499038E+02  0.16654850086E+03  0.18025695496E+03  0.47000000000E+01 0. -1.
        -11    1    1    2    0    0  0.20010073308E+02  0.85903826752E+01  0.10714180192E+02  0.24269144309E+02  0.00000000000E+00 0.  1.
         11    1    1    2    0    0 -0.19448286495E+02 -0.74587619330E+02  0.70528540603E+02  0.10447882008E+03  0.00000000000E+00 0. -1.
<mgrwt>
<rscale>  0 0.12961220E+03</rscale>
<asrwt>0</asrwt>
<pdfrwt beam="1">  1        1 0.65653985E-01 0.14137445E+03</pdfrwt>
<pdfrwt beam="2">  1       -1 0.60433942E-02 0.14137445E+03</pdfrwt>
<totfact> 0.70545989E+03</totfact>
</mgrwt>
</event>
<event>
 7    1  0.8165933E-006  0.1312491E+03  0.7546771E-02  0.1237629E+00
          1   -1    0    0  501    0  0.00000000000E+00  0.00000000000E+00  0.10853314568E+03  0.10853314568E+03  0.00000000000E+00 0. -1.
         -1   -1    0    0    0  501 -0.00000000000E+00 -0.00000000000E+00 -0.13664898254E+03  0.13664898254E+03  0.00000000000E+00 0.  1.
         23    2    1    2    0    0  0.28995069967E+02  0.27590355646E+02  0.18592693882E+02  0.13255947244E+03  0.12499753461E+03 0.  0.
          5    1    3    3  502    0  0.76957656021E+01  0.73112470737E+02  0.32022690822E+02  0.80325593138E+02  0.47000000000E+01 0. -1.
         -5    1    3    3    0  502  0.21299304364E+02 -0.45522115091E+02 -0.13429996941E+02  0.52233879298E+02  0.47000000000E+01 0. -1.
        -11    1    1    2    0    0  0.13743006810E+02 -0.20255492986E+02  0.20978104062E+02  0.32237184777E+02  0.00000000000E+00 0. -1.
         11    1    1    2    0    0 -0.42738076776E+02 -0.73348626597E+01 -0.67686634805E+02  0.80385471001E+02  0.00000000000E+00 0.  1.
<mgrwt>
<rscale>  0 0.12337642E+03</rscale>
<asrwt>0</asrwt>
<pdfrwt beam="1">  1        1 0.16697407E-01 0.13124910E+03</pdfrwt>
<pdfrwt beam="2">  1       -1 0.21022920E-01 0.13124910E+03</pdfrwt>
<totfact> 0.57047775E+03</totfact>
</mgrwt>
</event>
<event>
 7    1  0.8165933E-006  0.2053771E+03  0.7546771E-02  0.1148669E+00
         -2   -1    0    0    0  501 -0.00000000000E+00  0.00000000000E+00  0.74794198522E+03  0.74794198522E+03  0.00000000000E+00 0.  1.
          2   -1    0    0  501    0  0.00000000000E+00 -0.00000000000E+00 -0.56154156592E+02  0.56154156592E+02  0.00000000000E+00 0. -1.
         23    2    1    2    0    0  0.73393754104E+02 -0.14549848862E+03  0.25096454429E+03  0.32428840575E+03  0.12499325694E+03 0.  0.
          5    1    3    3  502    0  0.40967004920E+02 -0.82876138811E+02  0.23394297847E+03  0.25159124995E+03  0.47000000000E+01 0. -1.
         -5    1    3    3    0  502  0.32426749184E+02 -0.62622349811E+02  0.17021565819E+02  0.72697155800E+02  0.47000000000E+01 0. -1.
        -11    1    1    2    0    0 -0.51370612041E+02  0.11891487753E+03  0.41993251429E+03  0.43945762530E+03  0.00000000000E+00 0.  1.
         11    1    1    2    0    0 -0.22023142064E+02  0.26583611093E+02  0.20890770052E+02  0.40350110761E+02  0.00000000000E+00 0. -1.
<mgrwt>
<rscale>  0 0.20127331E+03</rscale>
<asrwt>0</asrwt>
<pdfrwt beam="2">  1        2 0.86391016E-02 0.20537714E+03</pdfrwt>
<pdfrwt beam="1">  1       -2 0.11506799E+00 0.20537714E+03</pdfrwt>
<totfact> 0.47147339E+02</totfact>
</mgrwt>
</event>
<event>
 7    1  0.8165933E-006  0.1910803E+03  0.7546771E-02  0.1162176E+00
          2   -1    0    0  501    0  0.00000000000E+00  0.00000000000E+00  0.30504773085E+03  0.30504773085E+03  0.00000000000E+00 0. -1.
         -2   -1    0    0    0  501 -0.00000000000E+00 -0.00000000000E+00 -0.13388137889E+03  0.13388137889E+03  0.00000000000E+00 0.  1.
         23    2    1    2    0    0 -0.12479461259E+03 -0.72888938444E+02  0.18638128265E+03  0.26692635980E+03  0.12500082541E+03 0.  0.
          5    1    3    3  502    0 -0.35340344914E+02 -0.22133204240E+02 -0.11805214950E+02  0.43592107183E+02  0.47000000000E+01 0.  1.
         -5    1    3    3    0  502 -0.89454267674E+02 -0.50755734204E+02  0.19818649760E+03  0.22333425261E+03  0.47000000000E+01 0.  1.
        -11    1    1    2    0    0  0.34861925165E+02  0.70284045814E+02  0.86240801673E+01  0.78927661064E+02  0.00000000000E+00 0. -1.
         11    1    1    2    0    0  0.89932687424E+02  0.26048926297E+01 -0.23839010856E+02  0.93075088888E+02  0.00000000000E+00 0.  1.
<mgrwt>
<rscale>  0 0.18593854E+03</rscale>
<asrwt>0</asrwt>
<pdfrwt beam="1">  1        2 0.46930420E-01 0.19108035E+03</pdfrwt>
<pdfrwt beam="2">  1       -2 0.20597135E-01 0.19108035E+03</pdfrwt>
<totfact> 0.21177960E+03</totfact>
</mgrwt>
</event>
<event>
 7    1  0.8165933E-006  0.2427949E+03  0.7546771E-02  0.1120766E+00
         -2   -1    0    0    0  501 -0.00000000000E+00  0.00000000000E+00  0.86363486193E+02  0.86363486193E+02  0.00000000000E+00 0.  1.
          2   -1    0    0  501    0  0.00000000000E+00 -0.00000000000E+00 -0.64763334972E+03  0.64763334972E+03  0.00000000000E+00 0. -1.
         23    2    1    2    0    0  0.10526247074E+03 -0.17956390910E+03 -0.33779789221E+03  0.41600092603E+03  0.12500387704E+03 0.  0.
          5    1    3    3  502    0  0.32824679805E+02  0.46625621567E+01 -0.10588933554E+03  0.11105782490E+03  0.47000000000E+01 0. -1.
         -5    1    3    3    0  502  0.72437790938E+02 -0.18422647126E+03 -0.23190855667E+03  0.30494310113E+03  0.47000000000E+01 0. -1.
        -11    1    1    2    0    0 -0.97228784473E+02  0.14180445998E+03 -0.12601274731E+03  0.21316930803E+03  0.00000000000E+00 0.  1.
         11    1    1    2    0    0 -0.80336862700E+01  0.37759449125E+02 -0.97459224006E+02  0.10482660186E+03  0.00000000000E+00 0. -1.
<mgrwt>
<rscale>  0 0.23854425E+03</rscale>
<asrwt>0</asrwt>
<pdfrwt beam="2">  1        2 0.99635903E-01 0.24279488E+03</pdfrwt>
<pdfrwt beam="1">  1       -2 0.13286690E-01 0.24279488E+03</pdfrwt>
<totfact> 0.19232550E+03</totfact>
</mgrwt>
</event>
<event>
 7    1  0.8165933E-006  0.1473938E+03  0.7546771E-02  0.1212592E+00
          2   -1    0    0  501    0  0.00000000000E+00  0.00000000000E+00  0.98314626483E+03  0.98314626483E+03  0.00000000000E+00 0. -1.
         -2   -1    0    0    0  501 -0.00000000000E+00 -0.00000000000E+00 -0.19482506668E+02  0.19482506668E+02  0.00000000000E+00 0.  1.
         23    2    1    2    0    0 -0.44608635255E+02  0.64095614872E+02  0.64078356665E+03  0.65751692018E+03  0.12500697119E+03 0.  0.
          5    1    3    3  502    0 -0.70252352355E+02  0.52549263289E+02  0.23754752912E+03  0.25327403474E+03  0.47000000000E+01 0.  1.
         -5    1    3    3    0  502  0.25643717100E+02  0.11546351582E+02  0.40323603753E+03  0.40424288544E+03  0.47000000000E+01 0.  1.
        -11    1    1    2    0    0  0.61716411661E+02 -0.45214711873E+02  0.30378754192E+03  0.31327329325E+03  0.00000000000E+00 0. -1.
         11    1    1    2    0    0 -0.17107776406E+02 -0.18880902998E+02  0.19092649591E+02  0.31838558071E+02  0.00000000000E+00 0.  1.
<mgrwt>
<rscale>  0 0.14054883E+03</rscale>
<asrwt>0</asrwt>
<pdfrwt beam="1">  1        2 0.15125323E+00 0.14739376E+03</pdfrwt>
<pdfrwt beam="2">  1       -2 0.29973095E-02 0.14739376E+03</pdfrwt>
<totfact> 0.11031141E+04</totfact>
</mgrwt>
</event>
<event>
 7    1  0.8165933E-006  0.2023354E+03  0.7546771E-02  0.1151887E+00
          2   -1    0    0  501    0  0.00000000000E+00  0.00000000000E+00  0.18264665649E+03  0.18264665649E+03  0.00000000000E+00 0. -1.
         -2   -1    0    0    0  501 -0.00000000000E+00 -0.00000000000E+00 -0.22491778382E+03  0.22491778382E+03  0.00000000000E+00 0.  1.
         23    2    1    2    0    0 -0.13921906221E+03  0.77200655985E+02  0.40225550609E+02  0.20629515209E+03  0.12489077743E+03 0.  0.
          5    1    3    3  502    0  0.16666754806E+02  0.47972533212E+01  0.28833338174E+02  0.33974192344E+02  0.47000000000E+01 0.  1.
         -5    1    3    3    0  502 -0.15588581702E+03  0.72403402663E+02  0.11392212434E+02  0.17232095975E+03  0.47000000000E+01 0.  1.
        -11    1    1    2    0    0  0.11541883274E+03 -0.14261546251E+02 -0.52345728665E+02  0.12753420703E+03  0.00000000000E+00 0.  1.
         11    1    1    2    0    0  0.23800229474E+02 -0.62939109733E+02 -0.30150949269E+02  0.73735081195E+02  0.00000000000E+00 0. -1.
<mgrwt>
<rscale>  0 0.19747558E+03</rscale>
<asrwt>0</asrwt>
<pdfrwt beam="1">  1        2 0.28099486E-01 0.20233535E+03</pdfrwt>
<pdfrwt beam="2">  1       -2 0.34602736E-01 0.20233535E+03</pdfrwt>
<totfact> 0.14676256E+03</totfact>
</mgrwt>
</event>
<event>
 7    1  0.8165933E-006  0.1382792E+03  0.7546771E-02  0.1226426E+00
         -2   -1    0    0    0  501 -0.00000000000E+00  0.00000000000E+00  0.27459640955E+02  0.27459640955E+02  0.00000000000E+00 0.  1.
          2   -1    0    0  501    0  0.00000000000E+00 -0.00000000000E+00 -0.72775593994E+03  0.72775593994E+03  0.00000000000E+00 0. -1.
         23    2    1    2    0    0  0.30640245571E+01  0.59049310647E+02 -0.55945827575E+03  0.57629394011E+03  0.12499973508E+03 0.  0.
          5    1    3    3  502    0  0.60563301776E+02  0.51874344518E+02 -0.30609728583E+03  0.31634869927E+03  0.47000000000E+01 0.  1.
         -5    1    3    3    0  502 -0.57499277219E+02  0.71749661289E+01 -0.25336098992E+03  0.25994524084E+03  0.47000000000E+01 0.  1.
        -11    1    1    2    0    0  0.26856980180E+02 -0.69896887231E+02 -0.11798429983E+03  0.13973964089E+03  0.00000000000E+00 0. -1.
         11    1    1    2    0    0 -0.29921004737E+02  0.10847576584E+02 -0.22853723398E+02  0.39181999890E+02  0.00000000000E+00 0.  1.
<mgrwt>
<rscale>  0 0.13069619E+03</rscale>
<asrwt>0</asrwt>
<pdfrwt beam="2">  1        2 0.11196245E+00 0.13827922E+03</pdfrwt>
<pdfrwt beam="1">  1       -2 0.42245604E-02 0.13827922E+03</pdfrwt>
<totfact> 0.97100854E+03</totfact>
</mgrwt>
</event>
<event>
 7    1  0.8165933E-006  0.1265868E+03  0.7546771E-02  0.1246729E+00
         -2   -1    0    0    0  501 -0.00000000000E+00  0.00000000000E+00  0.99962548218E+01  0.99962548218E+01  0.00000000000E+00 0.  1.
          2   -1    0    0  501    0  0.00000000000E+00 -0.00000000000E+00 -0.13273750123E+04  0.13273750123E+04  0.00000000000E+00 0. -1.
         23    2    1    2    0    0 -0.29724142267E+01  0.19790144636E+02 -0.92665393669E+03  0.93526025274E+03  0.12499494751E+03 0.  0.
          5    1    3    3  502    0  0.42313725010E+02  0.36103848371E+02 -0.75094126893E+03  0.75301315963E+03  0.47000000000E+01 0. -1.
         -5    1    3    3    0  502 -0.45286139237E+02 -0.16313703735E+02 -0.17571266776E+03  0.18224709311E+03  0.47000000000E+01 0. -1.
        -11    1    1    2    0    0 -0.26619426406E+02  0.27561796256E+02 -0.13318401204E+03  0.13858653447E+03  0.00000000000E+00 0. -1.
         11    1    1    2    0    0  0.29591840632E+02 -0.47351940892E+02 -0.25754080875E+03  0.26352447990E+03  0.00000000000E+00 0.  1.
<mgrwt>
<rscale>  0 0.11782477E+03</rscale>
<asrwt>0</asrwt>
<pdfrwt beam="2">  1        2 0.20421139E+00 0.12658682E+03</pdfrwt>
<pdfrwt beam="1">  1       -2 0.15378865E-02 0.12658682E+03</pdfrwt>
<totfact> 0.18461974E+04</totfact>
</mgrwt>
</event>
<event>
 7    1  0.8165933E-006  0.1431182E+03  0.7546771E-02  0.1220059E+00
         -2   -1    0    0    0  501 -0.00000000000E+00  0.00000000000E+00  0.24395096675E+02  0.24395096675E+02  0.00000000000E+00 0.  1.
          2   -1    0    0  501    0  0.00000000000E+00 -0.00000000000E+00 -0.92755936108E+03  0.92755936108E+03  0.00000000000E+00 0. -1.
         23    2    1    2    0    0 -0.26239967262E+02  0.64567515401E+02 -0.73605538196E+03  0.74984021750E+03  0.12500130615E+03 0.  0.
          5    1    3    3  502    0 -0.49324487019E+02 -0.17128281158E+02 -0.18579168738E+03  0.19304642999E+03  0.47000000000E+01 0.  1.
         -5    1    3    3    0  502  0.23084519757E+02  0.81695796559E+02 -0.55026369458E+03  0.55679378750E+03  0.47000000000E+01 0.  1.
        -11    1    1    2    0    0  0.47399839362E+02 -0.31311171543E+01 -0.85352648921E+02  0.97681233325E+02  0.00000000000E+00 0.  1.
         11    1    1    2    0    0 -0.21159872100E+02 -0.61436398247E+02 -0.81756233528E+02  0.10443300694E+03  0.00000000000E+00 0. -1.
<mgrwt>
<rscale>  0 0.13511362E+03</rscale>
<asrwt>0</asrwt>
<pdfrwt beam="2">  1        2 0.14270141E+00 0.14311823E+03</pdfrwt>
<pdfrwt beam="1">  1       -2 0.37530925E-02 0.14311823E+03</pdfrwt>
<totfact> 0.85434951E+03</totfact>
</mgrwt>
</event>
<event>
 7    1  0.8165933E-006  0.1435781E+03  0.7546771E-02  0.1219294E+00
          1   -1    0    0  501    0  0.00000000000E+00  0.00000000000E+00  0.45018433012E+03  0.45018433012E+03  0.00000000000E+00 0. -1.
         -1   -1    0    0    0  501 -0.00000000000E+00 -0.00000000000E+00 -0.44963187771E+02  0.44963187771E+02  0.00000000000E+00 0.  1.
         23    2    1    2    0    0 -0.86114848513E+00  0.70638976971E+02  0.32530021705E+03  0.35557685571E+03  0.12499624977E+03 0.  0.
          5    1    3    3  502    0  0.41681567685E+02  0.27853887466E+02  0.41075721680E+02  0.64980743634E+02  0.47000000000E+01 0.  1.
         -5    1    3    3    0  502 -0.42542716170E+02  0.42785089505E+02  0.28422449537E+03  0.29059611207E+03  0.47000000000E+01 0.  1.
        -11    1    1    2    0    0  0.21823571111E+02 -0.66999803976E+02  0.16077421319E+02  0.72275344794E+02  0.00000000000E+00 0.  1.
         11    1    1    2    0    0 -0.20962422626E+02 -0.36391729950E+01  0.63843503979E+02  0.67295317391E+02  0.00000000000E+00 0. -1.
<mgrwt>
<rscale>  0 0.13565770E+03</rscale>
<asrwt>0</asrwt>
<pdfrwt beam="1">  1        1 0.69259125E-01 0.14357809E+03</pdfrwt>
<pdfrwt beam="2">  1       -1 0.69174138E-02 0.14357809E+03</pdfrwt>
<totfact> 0.53880724E+03</totfact>
</mgrwt>
</event>
<event>
 7    1  0.8165933E-006  0.1307704E+03  0.7546771E-02  0.1239762E+00
          2   -1    0    0  501    0  0.00000000000E+00  0.00000000000E+00  0.86768822308E+02  0.86768822308E+02  0.00000000000E+00 0. -1.
         -2   -1    0    0    0  501 -0.00000000000E+00 -0.00000000000E+00 -0.16469837718E+03  0.16469837718E+03  0.00000000000E+00 0.  1.
         23    2    1    2    0    0 -0.26621669032E+02  0.27687001105E+02 -0.98360096060E+01  0.13113982380E+03  0.12500249201E+03 0.  0.
          5    1    3    3  502    0 -0.28248969133E+02 -0.26590597891E+02 -0.49982002803E+02  0.63445683521E+02  0.47000000000E+01 0. -1.
         -5    1    3    3    0  502  0.16273001013E+01  0.54277598995E+02  0.40145993197E+02  0.67694140279E+02  0.47000000000E+01 0. -1.
        -11    1    1    2    0    0  0.80985293361E+01  0.31659277207E+02 -0.75314092824E+01  0.33535326694E+02  0.00000000000E+00 0.  1.
         11    1    1    2    0    0  0.18523139695E+02 -0.59346278312E+02 -0.60562135986E+02  0.86792048995E+02  0.00000000000E+00 0. -1.
<mgrwt>
<rscale>  0 0.12204424E+03</rscale>
<asrwt>0</asrwt>
<pdfrwt beam="1">  1        2 0.13349050E-01 0.13077043E+03</pdfrwt>
<pdfrwt beam="2">  1       -2 0.25338212E-01 0.13077043E+03</pdfrwt>
<totfact> 0.58926944E+03</totfact>
</mgrwt>
</event>
<event>
 7    1  0.8165933E-006  0.1532693E+03  0.7546771E-02  0.1204572E+00
         -1   -1    0    0    0  501 -0.00000000000E+00  0.00000000000E+00  0.14603434823E+03  0.14603434823E+03  0.00000000000E+00 0.  1.
          1   -1    0    0  501    0  0.00000000000E+00 -0.00000000000E+00 -0.15217243906E+03  0.15217243906E+03  0.00000000000E+00 0. -1.
         23    2    1    2    0    0  0.69259121015E+02  0.55405476244E+02 -0.51621437655E+02  0.16172898251E+03  0.12499959327E+03 0.  0.
          5    1    3    3  502    0  0.25287118542E+02  0.63469292845E+02 -0.82480023546E+02  0.10720463508E+03  0.47000000000E+01 0.  1.
         -5    1    3    3    0  502  0.43972002473E+02 -0.80638166012E+01  0.30858585891E+02  0.54524347432E+02  0.47000000000E+01 0.  1.
        -11    1    1    2    0    0 -0.41899005263E+02  0.10244300839E+02  0.48985057545E+02  0.65268738339E+02  0.00000000000E+00 0. -1.
         11    1    1    2    0    0 -0.27360115752E+02 -0.65649777083E+02 -0.35017107121E+01  0.71209066438E+02  0.00000000000E+00 0.  1.
<mgrwt>
<rscale>  0 0.14671201E+03</rscale>
<asrwt>0</asrwt>
<pdfrwt beam="2">  1        1 0.23411144E-01 0.15326934E+03</pdfrwt>
<pdfrwt beam="1">  1       -1 0.22466823E-01 0.15326934E+03</pdfrwt>
<totfact> 0.33606382E+03</totfact>
</mgrwt>
</event>
<event>
 7    1  0.8165933E-006  0.1497160E+03  0.7546771E-02  0.1212663E+00
          1   -1    0    0  501    0  0.00000000000E+00  0.00000000000E+00  0.64241912882E+03  0.64241912882E+03  0.00000000000E+00 0. -1.
         -1   -1    0    0    0  501 -0.00000000000E+00 -0.00000000000E+00 -0.64376260486E+02  0.64376260486E+02  0.00000000000E+00 0.  1.
         23    2    1    2    0    0 -0.46607784334E+02 -0.67949849410E+02  0.57119243266E+03  0.59048766342E+03  0.12500167172E+03 0.  0.
          5    1    3    3  502    0 -0.72827442274E+02 -0.83051375830E+02  0.34630723057E+03  0.36352737905E+03  0.47000000000E+01 0. -1.
         -5    1    3    3    0  502  0.26219657941E+02  0.15101526420E+02  0.22488520209E+03  0.22696028437E+03  0.47000000000E+01 0. -1.
        -11    1    1    2    0    0  0.59628132528E+01 -0.95460869685E+01 -0.21545221622E+02  0.24308012939E+02  0.00000000000E+00 0.  1.
         11    1    1    2    0    0  0.40644971081E+02  0.77495936378E+02  0.28395657303E+02  0.91999712951E+02  0.00000000000E+00 0. -1.
<mgrwt>
<rscale>  0 0.14049623E+03</rscale>
<asrwt>0</asrwt>
<pdfrwt beam="1">  1        1 0.98833708E-01 0.14971602E+03</pdfrwt>
<pdfrwt beam="2">  1       -1 0.99040405E-02 0.14971602E+03</pdfrwt>
<totfact> 0.19520326E+03</totfact>
</mgrwt>
</event>
<event>
 7    1  0.8165933E-006  0.1251493E+03  0.7546771E-02  0.1252108E+00
          2   -1    0    0  501    0  0.00000000000E+00  0.00000000000E+00  0.68787015095E+03  0.68787015095E+03  0.00000000000E+00 0. -1.
         -2   -1    0    0    0  501 -0.00000000000E+00 -0.00000000000E+00 -0.18349087935E+02  0.18349087935E+02  0.00000000000E+00 0.  1.
         23    2    1    2    0    0  0.40287196529E+00 -0.62078337308E+01  0.49573524612E+03  0.51128834563E+03  0.12499455441E+03 0.  0.
          5    1    3    3  502    0  0.23337275521E+02  0.22645549282E+02  0.31331208424E+02  0.45400263792E+02  0.47000000000E+01 0. -1.
         -5    1    3    3    0  502 -0.22934403556E+02 -0.28853383013E+02  0.46440403769E+03  0.46588808184E+03  0.47000000000E+01 0. -1.
        -11    1    1    2    0    0  0.18097294846E+02 -0.32494142239E+02  0.40852007146E+02  0.55247333405E+02  0.00000000000E+00 0.  1.
         11    1    1    2    0    0 -0.18500166811E+02  0.38701975969E+02  0.13293380975E+03  0.13968355985E+03  0.00000000000E+00 0. -1.
<mgrwt>
<rscale>  0 0.11469883E+03</rscale>
<asrwt>0</asrwt>
<pdfrwt beam="1">  1        2 0.10582616E+00 0.12514926E+03</pdfrwt>
<pdfrwt beam="2">  1       -2 0.28229371E-02 0.12514926E+03</pdfrwt>
<totfact> 0.18694874E+04</totfact>
</mgrwt>
</event>
<event>
 7    1  0.8165933E-006  0.1444390E+03  0.7546771E-02  0.1217583E+00
         -2   -1    0    0    0  501 -0.00000000000E+00  0.00000000000E+00  0.15093747320E+02  0.15093747320E+02  0.00000000000E+00 0.  1.
          2   -1    0    0  501    0  0.00000000000E+00 -0.00000000000E+00 -0.19170782125E+04  0.19170782125E+04  0.00000000000E+00 0. -1.
         23    2    1    2    0    0  0.22051610939E+02  0.68917252540E+02 -0.16286332166E+04  0.16350256208E+04  0.12500706048E+03 0.  0.
          5    1    3    3  502    0 -0.10121566347E+02  0.84938404231E+02 -0.14614181991E+04  0.14639269863E+04  0.47000000000E+01 0.  1.
         -5    1    3    3    0  502  0.32173177286E+02 -0.16021151691E+02 -0.16721501753E+03  0.17109863449E+03  0.47000000000E+01 0.  1.
        -11    1    1    2    0    0  0.30736052700E+02 -0.45686200356E+02 -0.96206192587E+02  0.11084929107E+03  0.00000000000E+00 0.  1.
         11    1    1    2    0    0 -0.52787663640E+02 -0.23231052185E+02 -0.17714505600E+03  0.18629704797E+03  0.00000000000E+00 0. -1.
<mgrwt>
<rscale>  0 0.13688505E+03</rscale>
<asrwt>0</asrwt>
<pdfrwt beam="2">  1        2 0.29493497E+00 0.14443901E+03</pdfrwt>
<pdfrwt beam="1">  1       -2 0.23221161E-02 0.14443901E+03</pdfrwt>
<totfact> 0.50578587E+03</totfact>
</mgrwt>
</event>
<event>
 7    1  0.8165933E-006  0.1297118E+03  0.7546771E-02  0.1241867E+00
          2   -1    0    0  501    0  0.00000000000E+00  0.00000000000E+00  0.21732727200E+03  0.21732727200E+03  0.00000000000E+00 0.  1.
         -2   -1    0    0    0  501 -0.00000000000E+00 -0.00000000000E+00 -0.60154430257E+02  0.60154430257E+02  0.00000000000E+00 0. -1.
         23    2    1    2    0    0  0.32366434457E+02 -0.12331814635E+02  0.10561776255E+03  0.16727301340E+03  0.12500195804E+03 0.  0.
          5    1    3    3  502    0  0.68314159358E+02  0.22819758334E+02  0.34366294915E+02  0.79941841143E+02  0.47000000000E+01 0.  1.
         -5    1    3    3    0  502 -0.35947724901E+02 -0.35151572969E+02  0.71251467639E+02  0.87331172261E+02  0.47000000000E+01 0.  1.
        -11    1    1    2    0    0  0.62012561629E+01  0.42437227351E+02  0.42638033807E+02  0.60476241369E+02  0.00000000000E+00 0.  1.
         11    1    1    2    0    0 -0.38567690620E+02 -0.30105412716E+02  0.89170453856E+01  0.49732447486E+02  0.00000000000E+00 0. -1.
<mgrwt>
<rscale>  0 0.12074846E+03</rscale>
<asrwt>0</asrwt>
<pdfrwt beam="1">  1        2 0.33434965E-01 0.12971179E+03</pdfrwt>
<pdfrwt beam="2">  1       -2 0.92545278E-02 0.12971179E+03</pdfrwt>
<totfact> 0.10962185E+04</totfact>
</mgrwt>
</event>
<event>
 7    1  0.8165933E-006  0.2563274E+03  0.7546771E-02  0.1111711E+00
          2   -1    0    0  501    0  0.00000000000E+00  0.00000000000E+00  0.31212309788E+03  0.31212309788E+03  0.00000000000E+00 0. -1.
         -2   -1    0    0    0  501 -0.00000000000E+00 -0.00000000000E+00 -0.25025833387E+03  0.25025833387E+03  0.00000000000E+00 0.  1.
         23    2    1    2    0    0  0.22306970511E+03  0.17854245939E+02  0.15948575066E+03  0.30189306909E+03  0.12499941224E+03 0.  0.
          5    1    3    3  502    0  0.87362531039E+01 -0.32655748293E+02  0.95232345262E+01  0.35433063807E+02  0.47000000000E+01 0. -1.
         -5    1    3    3    0  502  0.21433345201E+03  0.50509994232E+02  0.14996251614E+03  0.26646000528E+03  0.47000000000E+01 0. -1.
        -11    1    1    2    0    0 -0.21732115445E+02  0.25772267659E+02 -0.25312032221E+02  0.42156774036E+02  0.00000000000E+00 0.  1.
         11    1    1    2    0    0 -0.20133758967E+03 -0.43626513598E+02 -0.72308954431E+02  0.21833158863E+03  0.00000000000E+00 0. -1.
<mgrwt>
<rscale>  0 0.25253842E+03</rscale>
<asrwt>0</asrwt>
<pdfrwt beam="1">  1        2 0.48018938E-01 0.25632737E+03</pdfrwt>
<pdfrwt beam="2">  1       -2 0.38501282E-01 0.25632737E+03</pdfrwt>
<totfact> 0.67330137E+02</totfact>
</mgrwt>
</event>
<event>
 7    1  0.8165933E-006  0.1290386E+03  0.7546771E-02  0.1244377E+00
         -1   -1    0    0    0  501 -0.00000000000E+00  0.00000000000E+00  0.64418893284E+03  0.64418893284E+03  0.00000000000E+00 0.  1.
          1   -1    0    0  501    0  0.00000000000E+00 -0.00000000000E+00 -0.19447876616E+02  0.19447876616E+02  0.00000000000E+00 0. -1.
         23    2    1    2    0    0 -0.14080922753E+02 -0.28743723609E+02  0.33384296271E+03  0.35791350621E+03  0.12500592042E+03 0.  0.
          5    1    3    3  502    0 -0.24188169051E+02 -0.52119689972E+02  0.61328559309E+02  0.84171324046E+02  0.47000000000E+01 0. -1.
         -5    1    3    3    0  502  0.10107246298E+02  0.23375966362E+02  0.27251440341E+03  0.27374218216E+03  0.47000000000E+01 0. -1.
        -11    1    1    2    0    0  0.92042882513E+01 -0.24635649600E+02  0.32418197103E+02  0.41744145181E+02  0.00000000000E+00 0. -1.
         11    1    1    2    0    0  0.48766345015E+01  0.53379373210E+02  0.25847989641E+03  0.26397915807E+03  0.00000000000E+00 0.  1.
<mgrwt>
<rscale>  0 0.11922769E+03</rscale>
<asrwt>0</asrwt>
<pdfrwt beam="2">  1        1 0.29919815E-02 0.12903858E+03</pdfrwt>
<pdfrwt beam="1">  1       -1 0.99105973E-01 0.12903858E+03</pdfrwt>
<totfact> 0.33715332E+03</totfact>
</mgrwt>
</event>
<event>
 7    1  0.8165933E-006  0.1285218E+03  0.7546771E-02  0.1243952E+00
         -1   -1    0    0    0  501 -0.00000000000E+00  0.00000000000E+00  0.10834555220E+02  0.10834555220E+02  0.00000000000E+00 0.  1.
          1   -1    0    0  501    0  0.00000000000E+00 -0.00000000000E+00 -0.13624310819E+04  0.13624310819E+04  0.00000000000E+00 0. -1.
         23    2    1    2    0    0  0.28148191622E+02  0.10042775653E+02 -0.10195501626E+04  0.10276187892E+04  0.12499865502E+03 0.  0.
          5    1    3    3  502    0 -0.13111573822E+02  0.17384642850E+02 -0.90938959997E+03  0.90966239546E+03  0.47000000000E+01 0.  1.
         -5    1    3    3    0  502  0.41259765445E+02 -0.73418671965E+01 -0.11016056267E+03  0.11795639375E+03  0.47000000000E+01 0.  1.
        -11    1    1    2    0    0 -0.38663597259E+02 -0.45038871237E+02 -0.19757986603E+03  0.20630360428E+03  0.00000000000E+00 0.  1.
         11    1    1    2    0    0  0.10515405637E+02  0.34996095583E+02 -0.13446649801E+03  0.13934324364E+03  0.00000000000E+00 0. -1.
<mgrwt>
<rscale>  0 0.11948295E+03</rscale>
<asrwt>0</asrwt>
<pdfrwt beam="2">  1        1 0.20960470E+00 0.12852176E+03</pdfrwt>
<pdfrwt beam="1">  1       -1 0.16668553E-02 0.12852176E+03</pdfrwt>
<totfact> 0.77020782E+03</totfact>
</mgrwt>
</event>
<event>
 6    1  0.8165933E-006  0.1694516E+03  0.7546771E-02  0.1190133E+00
         -1   -1    0    0    0  501 -0.00000000000E+00  0.00000000000E+00  0.68225472840E+02  0.68225472840E+02  0.00000000000E+00 0.  1.
          1   -1    0    0  501    0  0.00000000000E+00 -0.00000000000E+00 -0.53023350009E+03  0.53023350009E+03  0.00000000000E+00 0. -1.
          5    1    1    2  502    0  0.11305593802E+03 -0.62999737136E+02 -0.37012300708E+03  0.39212720178E+03  0.47000000000E+01 0. -1.
         -5    1    1    2    0  502 -0.36413343412E+02  0.16950808168E+01 -0.62619744009E+02  0.72609415486E+02  0.47000000000E+01 0.  1.
        -11    1    1    2    0    0 -0.71484524362E+02  0.49019275112E+02  0.14582105410E+02  0.87895189595E+02  0.00000000000E+00 0.  1.
         11    1    1    2    0    0 -0.51580702445E+01  0.12285381207E+02 -0.43847381564E+02  0.45827166070E+02  0.00000000000E+00 0. -1.
<mgrwt>
<rscale>  0 0.15873429E+03</rscale>
<asrwt>0</asrwt>
<pdfrwt beam="2">  1        1 0.81574384E-01 0.16945157E+03</pdfrwt>
<pdfrwt beam="1">  1       -1 0.10496227E-01 0.16945157E+03</pdfrwt>
<totfact> 0.23254901E+03</totfact>
</mgrwt>
</event>
<event>
 7    1  0.8165933E-006  0.2195106E+03  0.7546771E-02  0.1137581E+00
          2   -1    0    0  501    0  0.00000000000E+00  0.00000000000E+00  0.81586140137E+03  0.81586140137E+03  0.00000000000E+00 0. -1.
         -2   -1    0    0    0  501 -0.00000000000E+00 -0.00000000000E+00 -0.71619596002E+02  0.71619596002E+02  0.00000000000E+00 0.  1.
         23    2    1    2    0    0  0.81065917673E+02  0.16120796532E+03  0.60005467164E+03  0.63894484078E+03  0.12500083802E+03 0.  0.
          5    1    3    3  502    0  0.10587520179E+03  0.15097978088E+03  0.44835472102E+03  0.48481800549E+03  0.47000000000E+01 0. -1.
         -5    1    3    3    0  502 -0.24809284122E+02  0.10228184439E+02  0.15169995062E+03  0.15412683528E+03  0.47000000000E+01 0. -1.
        -11    1    1    2    0    0 -0.20429249835E+02 -0.11456272619E+03  0.48615649177E+02  0.12611682610E+03  0.00000000000E+00 0.  1.
         11    1    1    2    0    0 -0.60636667838E+02 -0.46645239130E+02  0.95571484544E+02  0.12241933049E+03  0.00000000000E+00 0. -1.
<mgrwt>
<rscale>  0 0.21511143E+03</rscale>
<asrwt>0</asrwt>
<pdfrwt beam="1">  1        2 0.12551713E+00 0.21951059E+03</pdfrwt>
<pdfrwt beam="2">  1       -2 0.11018400E-01 0.21951059E+03</pdfrwt>
<totfact> 0.19573858E+03</totfact>
</mgrwt>
</event>
<event>
 7    1  0.8165933E-006  0.1539025E+03  0.7546771E-02  0.1204500E+00
         -2   -1    0    0    0  501 -0.00000000000E+00  0.00000000000E+00  0.52455565038E+02  0.52455565038E+02  0.00000000000E+00 0.  1.
          2   -1    0    0  501    0  0.00000000000E+00 -0.00000000000E+00 -0.37684475656E+03  0.37684475656E+03  0.00000000000E+00 0. -1.
         23    2    1    2    0    0 -0.86774406450E+02 -0.22908262198E+02 -0.17729068291E+03  0.23477217398E+03  0.12502560272E+03 0.  0.
          5    1    3    3  502    0 -0.64592706025E+02 -0.19112297781E+02 -0.12855357126E+02  0.68737528359E+02  0.47000000000E+01 0.  1.
         -5    1    3    3    0  502 -0.22181700425E+02 -0.37959644173E+01 -0.16443532578E+03  0.16603464562E+03  0.47000000000E+01 0.  1.
        -11    1    1    2    0    0  0.31039282770E+02  0.54864807527E+02 -0.71697419436E+02  0.95467817266E+02  0.00000000000E+00 0. -1.
         11    1    1    2    0    0  0.55735123680E+02 -0.31956545329E+02 -0.75401089175E+02  0.99060330353E+02  0.00000000000E+00 0.  1.
<mgrwt>
<rscale>  0 0.14676906E+03</rscale>
<asrwt>0</asrwt>
<pdfrwt beam="2">  1        2 0.57976115E-01 0.15390253E+03</pdfrwt>
<pdfrwt beam="1">  1       -2 0.80700871E-02 0.15390253E+03</pdfrwt>
<totfact> 0.76401231E+03</totfact>
</mgrwt>
</event>
<event>
 7    1  0.8165933E-006  0.1568406E+03  0.7546771E-02  0.1200477E+00
         -1   -1    0    0    0  501 -0.00000000000E+00  0.00000000000E+00  0.20437416145E+02  0.20437416145E+02  0.00000000000E+00 0.  1.
          1   -1    0    0  501    0  0.00000000000E+00 -0.00000000000E+00 -0.11998032147E+04  0.11998032147E+04  0.00000000000E+00 0. -1.
         23    2    1    2    0    0 -0.36864302860E+02  0.87191697556E+02 -0.87276348027E+03  0.88674408806E+03  0.12505045485E+03 0.  0.
          5    1    3    3  502    0 -0.87307597852E+01 -0.31030443469E+02 -0.25964826409E+03  0.26168382761E+03  0.47000000000E+01 0.  1.
         -5    1    3    3    0  502 -0.28133543075E+02  0.11822214102E+03 -0.61311521618E+03  0.62506026044E+03  0.47000000000E+01 0.  1.
        -11    1    1    2    0    0  0.42492363258E+02 -0.44130076767E+02 -0.70348164869E+02  0.93284130007E+02  0.00000000000E+00 0.  1.
         11    1    1    2    0    0 -0.56280603984E+01 -0.43061620789E+02 -0.23625415346E+03  0.24021241282E+03  0.00000000000E+00 0. -1.
<mgrwt>
<rscale>  0 0.14999687E+03</rscale>
<asrwt>0</asrwt>
<pdfrwt beam="2">  1        1 0.18458506E+00 0.15684064E+03</pdfrwt>
<pdfrwt beam="1">  1       -1 0.31442187E-02 0.15684064E+03</pdfrwt>
<totfact> 0.39793011E+03</totfact>
</mgrwt>
</event>
<event>
 7    1  0.8165933E-006  0.2575615E+03  0.7546771E-02  0.1110886E+00
          1   -1    0    0  501    0  0.00000000000E+00  0.00000000000E+00  0.15901136986E+03  0.15901136986E+03  0.00000000000E+00 0. -1.
         -1   -1    0    0    0  501 -0.00000000000E+00 -0.00000000000E+00 -0.39994836342E+03  0.39994836342E+03  0.00000000000E+00 0.  1.
         23    2    1    2    0    0 -0.36535289811E+02 -0.22221031756E+03 -0.90074789341E+02  0.27285779103E+03  0.12500261523E+03 0.  0.
          5    1    3    3  502    0 -0.50296171510E+02 -0.14209518168E+03  0.84202277381E+00  0.15080963009E+03  0.47000000000E+01 0.  1.
         -5    1    3    3    0  502  0.13760881699E+02 -0.80115135884E+02 -0.90916812115E+02  0.12204816094E+03  0.47000000000E+01 0.  1.
        -11    1    1    2    0    0  0.75225181488E+01  0.10195342748E+03 -0.12181882909E+03  0.15903118177E+03  0.00000000000E+00 0.  1.
         11    1    1    2    0    0  0.29012771662E+02  0.12025689008E+03 -0.29043375126E+02  0.12707076049E+03  0.00000000000E+00 0. -1.
<mgrwt>
<rscale>  0 0.25386593E+03</rscale>
<asrwt>0</asrwt>
<pdfrwt beam="1">  1        1 0.24463288E-01 0.25756146E+03</pdfrwt>
<pdfrwt beam="2">  1       -1 0.61530517E-01 0.25756146E+03</pdfrwt>
<totfact> 0.54609780E+02</totfact>
</mgrwt>
</event>
<event>
 7    1  0.8165933E-006  0.1378980E+03  0.7546771E-02  0.1228601E+00
          2   -1    0    0  501    0  0.00000000000E+00  0.00000000000E+00  0.65225047224E+03  0.65225047224E+03  0.00000000000E+00 0. -1.
         -2   -1    0    0    0  501 -0.00000000000E+00 -0.00000000000E+00 -0.37230056402E+02  0.37230056402E+02  0.00000000000E+00 0.  1.
         23    2    1    2    0    0 -0.49421332075E+02  0.30788087315E+02  0.54490891709E+03  0.56208682089E+03  0.12500196760E+03 0.  0.
          5    1    3    3  502    0 -0.30798124198E+02 -0.33045404376E+01  0.23379298249E+02  0.39091252580E+02  0.47000000000E+01 0.  1.
         -5    1    3    3    0  502 -0.18623207876E+02  0.34092627753E+02  0.52152961884E+03  0.52299556831E+03  0.47000000000E+01 0.  1.
        -11    1    1    2    0    0  0.49243586709E+02 -0.43085845700E+02  0.10186964496E+02  0.66220051172E+02  0.00000000000E+00 0.  1.
         11    1    1    2    0    0  0.17774536597E+00  0.12297758385E+02  0.59924534253E+02  0.61173656587E+02  0.00000000000E+00 0. -1.
<mgrwt>
<rscale>  0 0.12923148E+03</rscale>
<asrwt>0</asrwt>
<pdfrwt beam="1">  1        2 0.10034622E+00 0.13789803E+03</pdfrwt>
<pdfrwt beam="2">  1       -2 0.57277015E-02 0.13789803E+03</pdfrwt>
<totfact> 0.69978007E+03</totfact>
</mgrwt>
</event>
<event>
 7    1  0.8165933E-006  0.1374996E+03  0.7546771E-02  0.1226813E+00
         -2   -1    0    0    0  501 -0.00000000000E+00  0.00000000000E+00  0.57117998362E+02  0.57117998362E+02  0.00000000000E+00 0. -1.
          2   -1    0    0  501    0  0.00000000000E+00 -0.00000000000E+00 -0.27322238979E+03  0.27322238979E+03  0.00000000000E+00 0.  1.
         23    2    1    2    0    0  0.39332826601E+02  0.41635273311E+02 -0.10459344543E+03  0.17275975722E+03  0.12500231060E+03 0.  0.
          5    1    3    3  502    0 -0.37124102415E+01 -0.13830834588E+02  0.22737368533E+02  0.27279147769E+02  0.47000000000E+01 0. -1.
         -5    1    3    3    0  502  0.43045236842E+02  0.55466107899E+02 -0.12733081397E+03  0.14548060945E+03  0.47000000000E+01 0. -1.
        -11    1    1    2    0    0 -0.68692611041E+02 -0.24350352815E+02 -0.94958144356E+02  0.11970239627E+03  0.00000000000E+00 0.  1.
         11    1    1    2    0    0  0.29359784441E+02 -0.17284920496E+02 -0.16552801638E+02  0.37878234661E+02  0.00000000000E+00 0. -1.
<mgrwt>
<rscale>  0 0.13043392E+03</rscale>
<asrwt>0</asrwt>
<pdfrwt beam="2">  1        2 0.42034212E-01 0.13749962E+03</pdfrwt>
<pdfrwt beam="1">  1       -2 0.87873846E-02 0.13749962E+03</pdfrwt>
<totfact> 0.93512281E+03</totfact>
</mgrwt>
</event>
<event>
 7    1  0.8165933E-006  0.1812992E+03  0.7546771E-02  0.1172081E+00
         -2   -1    0    0    0  501 -0.00000000000E+00  0.00000000000E+00  0.66808952012E+02  0.66808952012E+02  0.00000000000E+00 0.  1.
          2   -1    0    0  501    0  0.00000000000E+00 -0.00000000000E+00 -0.48076478790E+03  0.48076478790E+03  0.00000000000E+00 0. -1.
         23    2    1    2    0    0  0.13107306062E+03 -0.80049773942E+01 -0.30294713159E+03  0.35305292079E+03  0.12500069383E+03 0.  0.
          5    1    3    3  502    0  0.15358284397E+03 -0.14073642619E+02 -0.28156708179E+03  0.32107299625E+03  0.47000000000E+01 0. -1.
         -5    1    3    3    0  502 -0.22509783347E+02  0.60686652246E+01 -0.21380049804E+02  0.31979924540E+02  0.47000000000E+01 0. -1.
        -11    1    1    2    0    0 -0.69786558364E+02 -0.30269205896E+02 -0.92824687761E+02  0.12001171281E+03  0.00000000000E+00 0. -1.
         11    1    1    2    0    0 -0.61286502255E+02  0.38274183290E+02 -0.18184016536E+02  0.74509106307E+02  0.00000000000E+00 0.  1.
<mgrwt>
<rscale>  0 0.17564963E+03</rscale>
<asrwt>0</asrwt>
<pdfrwt beam="2">  1        2 0.73963814E-01 0.18129920E+03</pdfrwt>
<pdfrwt beam="1">  1       -2 0.10278300E-01 0.18129920E+03</pdfrwt>
<totfact> 0.40503033E+03</totfact>
</mgrwt>
</event>
<event>
 6    1  0.8165933E-006  0.3708312E+03  0.7546771E-02  0.1094167E+00
         -2   -1    0    0    0  501 -0.00000000000E+00  0.00000000000E+00  0.13795267473E+03  0.13795267473E+03  0.00000000000E+00 0. -1.
          2   -1    0    0  501    0  0.00000000000E+00 -0.00000000000E+00 -0.49138339088E+03  0.49138339088E+03  0.00000000000E+00 0.  1.
          5    1    1    2  502    0 -0.12532450861E+03 -0.13745420560E+03 -0.23909671631E+03  0.30296735937E+03  0.47000000000E+01 0.  1.
         -5    1    1    2    0  502  0.46693773539E+02  0.16637637076E+03 -0.10104082789E+03  0.20023172610E+03  0.47000000000E+01 0. -1.
        -11    1    1    2    0    0  0.17980442813E+02  0.32738945226E+02 -0.13294143330E+02  0.39646804476E+02  0.00000000000E+00 0.  1.
         11    1    1    2    0    0  0.60650292254E+02 -0.61661110393E+02  0.97137929936E-03  0.86490175664E+02  0.00000000000E+00 0. -1.
<mgrwt>
<rscale>  0 0.28280462E+03</rscale>
<asrwt>0</asrwt>
<pdfrwt beam="2">  1        2 0.75597444E-01 0.37083119E+03</pdfrwt>
<pdfrwt beam="1">  1       -2 0.21223489E-01 0.37083119E+03</pdfrwt>
<totfact> 0.12074050E+03</totfact>
</mgrwt>
</event>
<event>
 7    1  0.8165933E-006  0.1535154E+03  0.7546771E-02  0.1204699E+00
         -4   -1    0    0    0  501 -0.00000000000E+00  0.00000000000E+00  0.58178370729E+02  0.58178370729E+02  0.00000000000E+00 0. -1.
          4   -1    0    0  501    0  0.00000000000E+00 -0.00000000000E+00 -0.46746860098E+03  0.46746860098E+03  0.00000000000E+00 0.  1.
         23    2    1    2    0    0 -0.50224070660E+02 -0.73610621186E+02 -0.35520106008E+03  0.38695576721E+03  0.12500396742E+03 0.  0.
          5    1    3    3  502    0 -0.35749304597E+02 -0.43384635212E+02 -0.38143707333E+02  0.68097516553E+02  0.47000000000E+01 0. -1.
         -5    1    3    3    0  502 -0.14474766063E+02 -0.30225985974E+02 -0.31705735275E+03  0.31885825066E+03  0.47000000000E+01 0. -1.
        -11    1    1    2    0    0  0.49323419489E+02  0.10459378896E+02  0.69031144807E+01  0.50890581707E+02  0.00000000000E+00 0.  1.
         11    1    1    2    0    0  0.90065117093E+00  0.63151242290E+02 -0.60992284646E+02  0.87800622786E+02  0.00000000000E+00 0. -1.
<mgrwt>
<rscale>  0 0.14661195E+03</rscale>
<asrwt>0</asrwt>
<pdfrwt beam="2">  1        4 0.71918243E-01 0.15351538E+03</pdfrwt>
<pdfrwt beam="1">  1       -4 0.89505190E-02 0.15351538E+03</pdfrwt>
<totfact> 0.28021296E+02</totfact>
</mgrwt>
</event>
<event>
 7    1  0.9247496E-006  0.1642308E+03  0.7546771E-02  0.1194270E+00
         -1   -1    0    0    0  501 -0.00000000000E+00  0.00000000000E+00  0.24995551016E+02  0.24995551016E+02  0.00000000000E+00 0.  1.
          1   -1    0    0  501    0  0.00000000000E+00 -0.00000000000E+00 -0.93872633846E+03  0.93872633846E+03  0.00000000000E+00 0. -1.
         23    2    1    2    0    0 -0.23471655620E+02 -0.10390077878E+03 -0.63358580851E+03  0.65452481548E+03  0.12500186751E+03 0.  0.
          5    1    3    3  502    0  0.10965856371E+02 -0.29394247540E+02 -0.24944297698E+02  0.40355666046E+02  0.47000000000E+01 0.  1.
         -5    1    3    3    0  502 -0.34437511991E+02 -0.74506531238E+02 -0.60864151081E+03  0.61416914943E+03  0.47000000000E+01 0.  1.
        -11    1    1    2    0    0 -0.94671219819E+01  0.62653232598E+02 -0.79165553301E+02  0.10140137466E+03  0.00000000000E+00 0.  1.
         11    1    1    2    0    0  0.32938777602E+02  0.41247546180E+02 -0.20097942563E+03  0.20779569934E+03  0.00000000000E+00 0. -1.
<mgrwt>
<rscale>  0 0.15516154E+03</rscale>
<asrwt>0</asrwt>
<pdfrwt beam="2">  1        1 0.14441943E+00 0.16423081E+03</pdfrwt>
<pdfrwt beam="1">  1       -1 0.38454696E-02 0.16423081E+03</pdfrwt>
<totfact> 0.45677993E+03</totfact>
</mgrwt>
</event>
<event>
 7    1  0.8165933E-006  0.1335504E+03  0.7546771E-02  0.1235229E+00
         -2   -1    0    0    0  501 -0.00000000000E+00  0.00000000000E+00  0.23243363981E+02  0.23243363981E+02  0.00000000000E+00 0.  1.
          2   -1    0    0  501    0  0.00000000000E+00 -0.00000000000E+00 -0.71228645620E+03  0.71228645620E+03  0.00000000000E+00 0. -1.
         23    2    1    2    0    0  0.84221877579E+01  0.46255491657E+02 -0.52949024020E+03  0.54607290605E+03  0.12500080200E+03 0.  0.
          5    1    3    3  502    0 -0.25894337952E+01  0.87009575994E+02 -0.41248380460E+03  0.42159500773E+03  0.47000000000E+01 0. -1.
         -5    1    3    3    0  502  0.11011621553E+02 -0.40754084337E+02 -0.11700643560E+03  0.12447789833E+03  0.47000000000E+01 0. -1.
        -11    1    1    2    0    0 -0.47609124685E+02 -0.39851411638E+02 -0.10501927356E+03  0.12199922779E+03  0.00000000000E+00 0.  1.
         11    1    1    2    0    0  0.39186936927E+02 -0.64040800190E+01 -0.54533578455E+02  0.67457686335E+02  0.00000000000E+00 0. -1.
<mgrwt>
<rscale>  0 0.12489781E+03</rscale>
<asrwt>0</asrwt>
<pdfrwt beam="2">  1        2 0.10958254E+00 0.13355038E+03</pdfrwt>
<pdfrwt beam="1">  1       -2 0.35759017E-02 0.13355038E+03</pdfrwt>
<totfact> 0.12731581E+04</totfact>
</mgrwt>
</event>
<event>
 7    1  0.8165933E-006  0.1254802E+03  0.7546771E-02  0.1248243E+00
         -2   -1    0    0    0  501 -0.00000000000E+00  0.00000000000E+00  0.40563664298E+02  0.40563664298E+02  0.00000000000E+00 0.  1.
          2   -1    0    0  501    0  0.00000000000E+00 -0.00000000000E+00 -0.29929868468E+03  0.29929868468E+03  0.00000000000E+00 0. -1.
         23    2    1    2    0    0 -0.11069154431E+02  0.55498294713E+00 -0.15561321023E+03  0.19990182571E+03  0.12498973773E+03 0.  0.
          5    1    3    3  502    0 -0.24826178649E+02  0.35780191446E+02 -0.15575223170E+03  0.16179434146E+03  0.47000000000E+01 0. -1.
         -5    1    3    3    0  502  0.13757024218E+02 -0.35225208499E+02  0.13902147811E+00  0.38107484253E+02  0.47000000000E+01 0. -1.
        -11    1    1    2    0    0  0.49692493191E+02 -0.11286494615E+02 -0.38305793090E+02  0.63750000976E+02  0.00000000000E+00 0.  1.
         11    1    1    2    0    0 -0.38623338760E+02  0.10731511667E+02 -0.64816017062E+02  0.76210522288E+02  0.00000000000E+00 0. -1.
<mgrwt>
<rscale>  0 0.11693338E+03</rscale>
<asrwt>0</asrwt>
<pdfrwt beam="2">  1        2 0.46045953E-01 0.12548015E+03</pdfrwt>
<pdfrwt beam="1">  1       -2 0.62405636E-02 0.12548015E+03</pdfrwt>
<totfact> 0.14255758E+04</totfact>
</mgrwt>
</event>
<event>
 6    1  0.8165933E-006  0.3099225E+03  0.7546771E-02  0.1083892E+00
          1   -1    0    0  501    0  0.00000000000E+00  0.00000000000E+00  0.15808733375E+04  0.15808733375E+04  0.00000000000E+00 0. -1.
         -1   -1    0    0    0  501 -0.00000000000E+00 -0.00000000000E+00 -0.55454680443E+02  0.55454680443E+02  0.00000000000E+00 0.  1.
          5    1    1    2  502    0 -0.30943516805E+02  0.22370137533E+03  0.45359417806E+03  0.50672435794E+03  0.47000000000E+01 0. -1.
         -5    1    1    2    0  502 -0.38036392586E+02  0.34266834326E+02  0.36448755237E+03  0.36809543454E+03  0.47000000000E+01 0.  1.
        -11    1    1    2    0    0  0.23599426886E+02 -0.94920916772E+01  0.11111951540E+03  0.11399376937E+03  0.00000000000E+00 0. -1.
         11    1    1    2    0    0  0.45380482505E+02 -0.24847611798E+03  0.59621741122E+03  0.64751445608E+03  0.00000000000E+00 0.  1.
<mgrwt>
<rscale>  0 0.30271433E+03</rscale>
<asrwt>0</asrwt>
<pdfrwt beam="1">  1        1 0.24321125E+00 0.30992249E+03</pdfrwt>
<pdfrwt beam="2">  1       -1 0.85314905E-02 0.30992249E+03</pdfrwt>
<totfact> 0.49187263E+02</totfact>
</mgrwt>
</event>
<event>
 6    1  0.8165933E-006  0.1494775E+03  0.7546771E-02  0.1220164E+00
          2   -1    0    0  501    0  0.00000000000E+00  0.00000000000E+00  0.71387127483E+02  0.71387127483E+02  0.00000000000E+00 0. -1.
         -2   -1    0    0    0  501 -0.00000000000E+00 -0.00000000000E+00 -0.27783956516E+03  0.27783956516E+03  0.00000000000E+00 0.  1.
          5    1    1    2  502    0  0.45916489404E+02 -0.30991229604E+02 -0.79844587810E+02  0.97293517328E+02  0.47000000000E+01 0. -1.
         -5    1    1    2    0  502 -0.39857674734E+02  0.21474813154E+01  0.40725539577E+02  0.57218052091E+02  0.47000000000E+01 0.  1.
        -11    1    1    2    0    0 -0.19049025625E+02 -0.30335746416E+02 -0.87073259729E+02  0.94153467529E+02  0.00000000000E+00 0. -1.
         11    1    1    2    0    0  0.12990210955E+02  0.59179494705E+02 -0.80260129718E+02  0.10056165570E+03  0.00000000000E+00 0.  1.
<mgrwt>
<rscale>  0 0.13503935E+03</rscale>
<asrwt>0</asrwt>
<pdfrwt beam="1">  1        2 0.10982635E-01 0.14947751E+03</pdfrwt>
<pdfrwt beam="2">  1       -2 0.42744548E-01 0.14947751E+03</pdfrwt>
<totfact> 0.28858016E+03</totfact>
</mgrwt>
</event>
<event>
 7    1  0.8165933E-006  0.1320624E+03  0.7546771E-02  0.1237806E+00
         -1   -1    0    0    0  501 -0.00000000000E+00  0.00000000000E+00  0.32617706494E+02  0.32617706494E+02  0.00000000000E+00 0.  1.
          1   -1    0    0  501    0  0.00000000000E+00 -0.00000000000E+00 -0.44186714595E+03  0.44186714595E+03  0.00000000000E+00 0. -1.
         23    2    1    2    0    0  0.28204170776E+02  0.31885858466E+02 -0.29034227968E+03  0.31896568116E+03  0.12501313199E+03 0.  0.
          5    1    3    3  502    0  0.28036487087E+02 -0.27669097159E+02 -0.24795089358E+02  0.46781513464E+02  0.47000000000E+01 0. -1.
         -5    1    3    3    0  502  0.16768368917E+00  0.59554955625E+02 -0.26554719032E+03  0.27218416769E+03  0.47000000000E+01 0. -1.
        -11    1    1    2    0    0 -0.59493951030E+02 -0.30511600648E+02 -0.94748004397E+02  0.11596409927E+03  0.00000000000E+00 0. -1.
         11    1    1    2    0    0  0.31289780254E+02 -0.13742578181E+01 -0.24159155378E+02  0.39555072007E+02  0.00000000000E+00 0.  1.
<mgrwt>
<rscale>  0 0.12326519E+03</rscale>
<asrwt>0</asrwt>
<pdfrwt beam="2">  1        1 0.67979561E-01 0.13206236E+03</pdfrwt>
<pdfrwt beam="1">  1       -1 0.50181087E-02 0.13206236E+03</pdfrwt>
<totfact> 0.88549934E+03</totfact>
</mgrwt>
</event>
<event>
 7    1  0.8165933E-006  0.1392063E+03  0.7546771E-02  0.1224443E+00
          2   -1    0    0  501    0  0.00000000000E+00  0.00000000000E+00  0.64347476663E+02  0.64347476663E+02  0.00000000000E+00 0. -1.
         -2   -1    0    0    0  501 -0.00000000000E+00 -0.00000000000E+00 -0.26826007582E+03  0.26826007582E+03  0.00000000000E+00 0.  1.
         23    2    1    2    0    0 -0.31187050405E+01  0.61185192454E+02 -0.64769314595E+02  0.15353646897E+03  0.12500011637E+03 0.  0.
          5    1    3    3  502    0 -0.12418763309E+02  0.91215027817E+02 -0.13424516399E+02  0.93148884172E+02  0.47000000000E+01 0.  1.
         -5    1    3    3    0  502  0.93000582690E+01 -0.30029835364E+02 -0.51344798196E+02  0.60387584796E+02  0.47000000000E+01 0.  1.
        -11    1    1    2    0    0  0.18209143661E+02  0.16391212518E+02 -0.76694021324E+01  0.25672251357E+02  0.00000000000E+00 0. -1.
         11    1    1    2    0    0 -0.15090438620E+02 -0.77576404972E+02 -0.13147388243E+03  0.15339883216E+03  0.00000000000E+00 0.  1.
<mgrwt>
<rscale>  0 0.13205154E+03</rscale>
<asrwt>0</asrwt>
<pdfrwt beam="1">  1        2 0.98996119E-02 0.13920626E+03</pdfrwt>
<pdfrwt beam="2">  1       -2 0.41270780E-01 0.13920626E+03</pdfrwt>
<totfact> 0.34893722E+03</totfact>
</mgrwt>
</event>
<event>
 7    1  0.8165933E-006  0.1735925E+03  0.7546771E-02  0.1180184E+00
         -3   -1    0    0    0  501 -0.00000000000E+00  0.00000000000E+00  0.21594469129E+03  0.21594469129E+03  0.00000000000E+00 0.  1.
          3   -1    0    0  501    0  0.00000000000E+00 -0.00000000000E+00 -0.12249190922E+03  0.12249190922E+03  0.00000000000E+00 0. -1.
         23    2    1    2    0    0  0.80861240579E+02  0.89282465642E+02  0.43888379168E+02  0.17905460214E+03  0.12499784727E+03 0.  0.
          5    1    3    3  502    0  0.45634368445E+00  0.23182999844E+02 -0.39201449862E+02  0.45787590050E+02  0.47000000000E+01 0. -1.
         -5    1    3    3    0  502  0.80404896894E+02  0.66099465798E+02  0.83089829030E+02  0.13326701209E+03  0.47000000000E+01 0. -1.
        -11    1    1    2    0    0 -0.32304900876E+01 -0.51548347499E+02  0.51646395046E+02  0.73041209720E+02  0.00000000000E+00 0.  1.
         11    1    1    2    0    0 -0.77630750491E+02 -0.37734118143E+02 -0.20819921411E+01  0.86340788652E+02  0.00000000000E+00 0. -1.
<mgrwt>
<rscale>  0 0.16777861E+03</rscale>
<asrwt>0</asrwt>
<pdfrwt beam="2">  1        3 0.18844909E-01 0.17359251E+03</pdfrwt>
<pdfrwt beam="1">  1       -3 0.33222260E-01 0.17359251E+03</pdfrwt>
<totfact> 0.52997018E+02</totfact>
</mgrwt>
</event>
<event>
 7    1  0.8165933E-006  0.1133591E+03  0.7546771E-02  0.1266775E+00
          1   -1    0    0  501    0  0.00000000000E+00  0.00000000000E+00  0.15541714381E+03  0.15541714381E+03  0.00000000000E+00 0. -1.
         -1   -1    0    0    0  501 -0.00000000000E+00 -0.00000000000E+00 -0.12763257244E+03  0.12763257244E+03  0.00000000000E+00 0.  1.
         23    2    1    2    0    0 -0.11672963789E+02  0.81681087526E+00  0.11281927831E+03  0.15993273128E+03  0.11275355299E+03 0.  0.
          5    1    3    3  502    0  0.27138325338E+01  0.54457662640E+02  0.37960352424E+02  0.66603905766E+02  0.47000000000E+01 0. -1.
         -5    1    3    3    0  502 -0.14386796323E+02 -0.53640851765E+02  0.74858925887E+02  0.93328825512E+02  0.47000000000E+01 0.  1.
        -11    1    1    2    0    0  0.25161690591E+02  0.21122743991E+02 -0.90941813978E+02  0.96693818400E+02  0.00000000000E+00 0.  1.
         11    1    1    2    0    0 -0.13488726802E+02 -0.21939554866E+02  0.59071070378E+01  0.26423166578E+02  0.00000000000E+00 0. -1.
<mgrwt>
<rscale>  0 0.10671616E+03</rscale>
<asrwt>0</asrwt>
<pdfrwt beam="1">  1        1 0.23910330E-01 0.11335912E+03</pdfrwt>
<pdfrwt beam="2">  1       -1 0.19635780E-01 0.11335912E+03</pdfrwt>
<totfact> 0.40000029E+03</totfact>
</mgrwt>
</event>
<event>
 7    1  0.8165933E-006  0.1291255E+03  0.7546771E-02  0.1248739E+00
          1   -1    0    0  501    0  0.00000000000E+00  0.00000000000E+00  0.30386741058E+03  0.30386741058E+03  0.00000000000E+00 0. -1.
         -1   -1    0    0    0  501 -0.00000000000E+00 -0.00000000000E+00 -0.46884126739E+02  0.46884126739E+02  0.00000000000E+00 0.  1.
         23    2    1    2    0    0  0.18913528577E+02  0.26343774327E+02  0.22421025228E+03  0.25873466710E+03  0.12498669818E+03 0.  0.
          5    1    3    3  502    0  0.16350219187E+02  0.64293733946E+02  0.20567851384E+03  0.21616372255E+03  0.47000000000E+01 0.  1.
         -5    1    3    3    0  502  0.25633093896E+01 -0.37949959619E+02  0.18531738442E+02  0.42570944549E+02  0.47000000000E+01 0.  1.
        -11    1    1    2    0    0 -0.32031222187E+02 -0.49640931804E+02  0.19872010498E+02  0.62330715593E+02  0.00000000000E+00 0.  1.
         11    1    1    2    0    0  0.13117693610E+02  0.23297157477E+02  0.12901021067E+02  0.29686154630E+02  0.00000000000E+00 0. -1.
<mgrwt>
<rscale>  0 0.11664384E+03</rscale>
<asrwt>0</asrwt>
<pdfrwt beam="1">  1        1 0.46748831E-01 0.12912548E+03</pdfrwt>
<pdfrwt beam="2">  1       -1 0.72129428E-02 0.12912548E+03</pdfrwt>
<totfact> 0.82312696E+03</totfact>
</mgrwt>
</event>
<event>
 7    1  0.8165933E-006  0.1776039E+03  0.7546771E-02  0.1175899E+00
         -2   -1    0    0    0  501 -0.00000000000E+00  0.00000000000E+00  0.21320525574E+02  0.21320525574E+02  0.00000000000E+00 0.  1.
          2   -1    0    0  501    0  0.00000000000E+00 -0.00000000000E+00 -0.13092074325E+04  0.13092074325E+04  0.00000000000E+00 0. -1.
         23    2    1    2    0    0  0.72588451430E+02  0.10322183863E+03 -0.73006186598E+03  0.75135441789E+03  0.12497720544E+03 0.  0.
          5    1    3    3  502    0  0.95958352675E+02  0.76032384003E+02 -0.67106688011E+03  0.68215964146E+03  0.47000000000E+01 0.  1.
         -5    1    3    3    0  502 -0.23369901245E+02  0.27189454624E+02 -0.58994985871E+02  0.69194776427E+02  0.47000000000E+01 0.  1.
        -11    1    1    2    0    0 -0.59460661034E+02 -0.11433546107E+02 -0.27307040418E+03  0.27970295284E+03  0.00000000000E+00 0. -1.
         11    1    1    2    0    0 -0.13127790397E+02 -0.91788292520E+02 -0.28475463680E+03  0.29947058738E+03  0.00000000000E+00 0.  1.
<mgrwt>
<rscale>  0 0.17188193E+03</rscale>
<asrwt>0</asrwt>
<pdfrwt beam="2">  1        2 0.20141651E+00 0.17760387E+03</pdfrwt>
<pdfrwt beam="1">  1       -2 0.32800811E-02 0.17760387E+03</pdfrwt>
<totfact> 0.63453051E+03</totfact>
</mgrwt>
</event>
<event>
 6    1  0.8165933E-006  0.1513387E+03  0.7546771E-02  0.1210064E+00
         -2   -1    0    0    0  501 -0.00000000000E+00  0.00000000000E+00  0.10512976798E+03  0.10512976798E+03  0.00000000000E+00 0.  1.
          2   -1    0    0  501    0  0.00000000000E+00 -0.00000000000E+00 -0.17974976276E+03  0.17974976276E+03  0.00000000000E+00 0. -1.
          5    1    1    2  502    0  0.32423234174E+02 -0.81930441705E+01 -0.81766274045E+02  0.88465844586E+02  0.47000000000E+01 0. -1.
         -5    1    1    2    0  502  0.30743245401E+01  0.75957646493E+02  0.13849451008E+02  0.77413905891E+02  0.47000000000E+01 0.  1.
        -11    1    1    2    0    0 -0.33519051377E+02 -0.35423262382E+01 -0.35178757743E+02  0.48719809900E+02  0.00000000000E+00 0.  1.
         11    1    1    2    0    0 -0.19785073369E+01 -0.64222276084E+02  0.28475586000E+02  0.70279970367E+02  0.00000000000E+00 0. -1.
<mgrwt>
<rscale>  0 0.14245460E+03</rscale>
<asrwt>0</asrwt>
<pdfrwt beam="2">  1        2 0.27653810E-01 0.15133868E+03</pdfrwt>
<pdfrwt beam="1">  1       -2 0.16173810E-01 0.15133868E+03</pdfrwt>
<totfact> 0.55638009E+03</totfact>
</mgrwt>
</event>
<event>
 7    1  0.8165933E-006  0.2098422E+03  0.7546771E-02  0.1145008E+00
          2   -1    0    0  501    0  0.00000000000E+00  0.00000000000E+00  0.13562154335E+04  0.13562154335E+04  0.00000000000E+00 0. -1.
         -2   -1    0    0    0  501 -0.00000000000E+00 -0.00000000000E+00 -0.30034018439E+02  0.30034018439E+02  0.00000000000E+00 0.  1.
         23    2    1    2    0    0 -0.11931810768E+03 -0.11905971393E+03  0.69227960286E+03  0.72338425626E+03  0.12498682878E+03 0.  0.
          5    1    3    3  502    0 -0.32300898923E+02 -0.95139751333E+02  0.21167000083E+03  0.23435272477E+03  0.47000000000E+01 0.  1.
         -5    1    3    3    0  502 -0.87017208756E+02 -0.23919962592E+02  0.48060960203E+03  0.48903153149E+03  0.47000000000E+01 0.  1.
        -11    1    1    2    0    0  0.52089660583E+02  0.10085374612E+03  0.49024078398E+03  0.50321052962E+03  0.00000000000E+00 0.  1.
         11    1    1    2    0    0  0.67228447095E+02  0.18205967807E+02  0.14366102817E+03  0.15965466601E+03  0.00000000000E+00 0. -1.
<mgrwt>
<rscale>  0 0.20571145E+03</rscale>
<asrwt>0</asrwt>
<pdfrwt beam="1">  1        2 0.20864848E+00 0.20984216E+03</pdfrwt>
<pdfrwt beam="2">  1       -2 0.46206193E-02 0.20984216E+03</pdfrwt>
<totfact> 0.35943160E+03</totfact>
</mgrwt>
</event>
<event>
 7    1  0.8165933E-006  0.1421205E+03  0.7546771E-02  0.1217894E+00
          2   -1    0    0  501    0  0.00000000000E+00  0.00000000000E+00  0.11673747683E+04  0.11673747683E+04  0.00000000000E+00 0. -1.
         -2   -1    0    0    0  501 -0.00000000000E+00 -0.00000000000E+00 -0.16316309678E+02  0.16316309678E+02  0.00000000000E+00 0.  1.
         23    2    1    2    0    0 -0.78700349070E+02 -0.13442727150E+02  0.79145733519E+03  0.80411624862E+03  0.11757455510E+03 0.  0.
          5    1    3    3  502    0 -0.67565134548E+02 -0.61064664493E+02  0.45049477158E+03  0.45963199397E+03  0.47000000000E+01 0. -1.
         -5    1    3    3    0  502 -0.11135214522E+02  0.47621937343E+02  0.34096256361E+03  0.34448425465E+03  0.47000000000E+01 0.  1.
        -11    1    1    2    0    0  0.99339979372E+02  0.58885851549E+01  0.29678345691E+03  0.31302320558E+03  0.00000000000E+00 0.  1.
         11    1    1    2    0    0 -0.20639630303E+02  0.75541419948E+01  0.62817666495E+02  0.66551623753E+02  0.00000000000E+00 0. -1.
<mgrwt>
<rscale>  0 0.13666059E+03</rscale>
<asrwt>0</asrwt>
<pdfrwt beam="1">  1        2 0.17959605E+00 0.14212047E+03</pdfrwt>
<pdfrwt beam="2">  1       -2 0.25102024E-02 0.14212047E+03</pdfrwt>
<totfact> 0.11165245E+04</totfact>
</mgrwt>
</event>
<event>
 7    1  0.8165933E-006  0.1334415E+03  0.7546771E-02  0.1235193E+00
         -4   -1    0    0    0  501 -0.00000000000E+00  0.00000000000E+00  0.66599914062E+03  0.66599914062E+03  0.00000000000E+00 0.  1.
          4   -1    0    0  501    0  0.00000000000E+00 -0.00000000000E+00 -0.21270384081E+02  0.21270384081E+02  0.00000000000E+00 0. -1.
         23    2    1    2    0    0 -0.39627578201E+01  0.46529723388E+02  0.31861112512E+03  0.34542679450E+03  0.12500361073E+03 0.  0.
          5    1    3    3  502    0  0.49737327121E+02  0.34942827797E+02  0.25041602564E+03  0.25773063229E+03  0.47000000000E+01 0.  1.
         -5    1    3    3    0  502 -0.53700084941E+02  0.11586895591E+02  0.68195099486E+02  0.87696162208E+02  0.47000000000E+01 0.  1.
        -11    1    1    2    0    0 -0.35317740458E+02 -0.38668468803E+02  0.25403218413E+03  0.25937413874E+03  0.00000000000E+00 0.  1.
         11    1    1    2    0    0  0.39280498278E+02 -0.78612545851E+01  0.72085447279E+02  0.82468591464E+02  0.00000000000E+00 0. -1.
<mgrwt>
<rscale>  0 0.12492118E+03</rscale>
<asrwt>0</asrwt>
<pdfrwt beam="2">  1        4 0.32723673E-02 0.13344145E+03</pdfrwt>
<pdfrwt beam="1">  1       -4 0.10246139E+00 0.13344145E+03</pdfrwt>
<totfact> 0.62903749E+02</totfact>
</mgrwt>
</event>
<event>
 7    1  0.8165933E-006  0.1346178E+03  0.7546771E-02  0.1231435E+00
         -1   -1    0    0    0  501 -0.00000000000E+00  0.00000000000E+00  0.37186864151E+02  0.37186864151E+02  0.00000000000E+00 0.  1.
          1   -1    0    0  501    0  0.00000000000E+00 -0.00000000000E+00 -0.42035822442E+03  0.42035822442E+03  0.00000000000E+00 0. -1.
         23    2    1    2    0    0 -0.44558863180E+02 -0.22615430695E+02 -0.26715690257E+03  0.29915676793E+03  0.12500004485E+03 0.  0.
          5    1    3    3  502    0  0.13961271095E+02  0.67273730871E+01 -0.21423249327E+03  0.21484372416E+03  0.47000000000E+01 0. -1.
         -5    1    3    3    0  502 -0.58520134275E+02 -0.29342803782E+02 -0.52924409298E+02  0.84313043764E+02  0.47000000000E+01 0. -1.
        -11    1    1    2    0    0  0.21317316618E+02 -0.37626970970E+02 -0.47817698439E+02  0.64472856429E+02  0.00000000000E+00 0. -1.
         11    1    1    2    0    0  0.23241546562E+02  0.60242401664E+02 -0.68196759266E+02  0.93915464218E+02  0.00000000000E+00 0.  1.
<mgrwt>
<rscale>  0 0.12735405E+03</rscale>
<asrwt>0</asrwt>
<pdfrwt beam="2">  1        1 0.64670495E-01 0.13461783E+03</pdfrwt>
<pdfrwt beam="1">  1       -1 0.57210562E-02 0.13461783E+03</pdfrwt>
<totfact> 0.77786083E+03</totfact>
</mgrwt>
</event>
<event>
 7    1  0.8165933E-006  0.1283269E+03  0.7546771E-02  0.1244266E+00
          1   -1    0    0  501    0  0.00000000000E+00  0.00000000000E+00  0.94461209686E+03  0.94461209686E+03  0.00000000000E+00 0. -1.
         -1   -1    0    0    0  501 -0.00000000000E+00 -0.00000000000E+00 -0.13329047185E+02  0.13329047185E+02  0.00000000000E+00 0.  1.
         23    2    1    2    0    0 -0.21982453043E+02  0.18983252941E+02  0.55562577301E+03  0.57025239966E+03  0.12499683017E+03 0.  0.
          5    1    3    3  502    0  0.98406481854E+01 -0.44946659835E+02  0.11670988978E+03  0.12554014880E+03  0.47000000000E+01 0.  1.
         -5    1    3    3    0  502 -0.31823101228E+02  0.63929912776E+02  0.43891588322E+03  0.44471225086E+03  0.47000000000E+01 0.  1.
        -11    1    1    2    0    0 -0.30861076366E+02 -0.27458106091E+02  0.19195015077E+03  0.19634463070E+03  0.00000000000E+00 0.  1.
         11    1    1    2    0    0  0.52843529408E+02  0.84748531505E+01  0.18370712590E+03  0.19134411369E+03  0.00000000000E+00 0. -1.
<mgrwt>
<rscale>  0 0.11929393E+03</rscale>
<asrwt>0</asrwt>
<pdfrwt beam="1">  1        1 0.14532489E+00 0.12832693E+03</pdfrwt>
<pdfrwt beam="2">  1       -1 0.20506234E-02 0.12832693E+03</pdfrwt>
<totfact> 0.11162688E+04</totfact>
</mgrwt>
</event>
<event>
 7    1  0.8165933E-006  0.2321149E+03  0.7546771E-02  0.1127324E+00
          2   -1    0    0  501    0  0.00000000000E+00  0.00000000000E+00  0.14351360974E+04  0.14351360974E+04  0.00000000000E+00 0. -1.
         -2   -1    0    0    0  501 -0.00000000000E+00 -0.00000000000E+00 -0.44423912947E+02  0.44423912947E+02  0.00000000000E+00 0.  1.
         23    2    1    2    0    0  0.36599723863E+02 -0.19762320234E+03  0.10396739121E+04  0.10652695205E+04  0.11611562315E+03 0.  0.
          5    1    3    3  502    0  0.63609674650E+02 -0.19428192045E+03  0.91239910064E+03  0.93503254711E+03  0.47000000000E+01 0. -1.
         -5    1    3    3    0  502 -0.27009950787E+02 -0.33412818884E+01  0.12727481143E+03  0.13023697336E+03  0.47000000000E+01 0.  1.
        -11    1    1    2    0    0 -0.72652751382E+01  0.17002640429E+03  0.22589280126E+03  0.28282383216E+03  0.00000000000E+00 0.  1.
         11    1    1    2    0    0 -0.29334448725E+02  0.27596798054E+02  0.12514547113E+03  0.13146665771E+03  0.00000000000E+00 0. -1.
<mgrwt>
<rscale>  0 0.22903016E+03</rscale>
<asrwt>0</asrwt>
<pdfrwt beam="1">  1        2 0.22079013E+00 0.23211486E+03</pdfrwt>
<pdfrwt beam="2">  1       -2 0.68344493E-02 0.23211486E+03</pdfrwt>
<totfact> 0.17915299E+03</totfact>
</mgrwt>
</event>
<event>
 7    1  0.8165933E-006  0.1786670E+03  0.7546771E-02  0.1172521E+00
         -2   -1    0    0    0  501 -0.00000000000E+00  0.00000000000E+00  0.39534592710E+02  0.39534592710E+02  0.00000000000E+00 0.  1.
          2   -1    0    0  501    0  0.00000000000E+00 -0.00000000000E+00 -0.18728422157E+04  0.18728422157E+04  0.00000000000E+00 0. -1.
         23    2    1    2    0    0  0.32715301735E+02 -0.13378940542E+03 -0.16718027033E+04  0.16813227427E+04  0.11380681246E+03 0.  0.
          5    1    3    3  502    0  0.23954533815E+02 -0.47853366600E+02 -0.12275820712E+04  0.12287569311E+04  0.47000000000E+01 0. -1.
         -5    1    3    3    0  502  0.87607679201E+01 -0.85936038820E+02 -0.44422063212E+03  0.45256581159E+03  0.47000000000E+01 0.  1.
        -11    1    1    2    0    0  0.27722020444E+02  0.42366723336E+02 -0.26437515481E+02  0.57117351904E+02  0.00000000000E+00 0. -1.
         11    1    1    2    0    0 -0.60437322179E+02  0.91422682084E+02 -0.13506740421E+03  0.17393671375E+03  0.00000000000E+00 0.  1.
<mgrwt>
<rscale>  0 0.17520956E+03</rscale>
<asrwt>0</asrwt>
<pdfrwt beam="2">  1        2 0.28812964E+00 0.17866697E+03</pdfrwt>
<pdfrwt beam="1">  1       -2 0.60822436E-02 0.17866697E+03</pdfrwt>
<totfact> 0.12682762E+03</totfact>
</mgrwt>
</event>
<event>
 7    1  0.8165933E-006  0.1356862E+03  0.7546771E-02  0.1254442E+00
         -1   -1    0    0    0  501 -0.00000000000E+00  0.00000000000E+00  0.12278907810E+02  0.12278907810E+02  0.00000000000E+00 0.  1.
          1   -1    0    0  501    0  0.00000000000E+00 -0.00000000000E+00 -0.93543910664E+03  0.93543910664E+03  0.00000000000E+00 0. -1.
         23    2    1    2    0    0 -0.40177577275E+02  0.34218667343E+02 -0.75352713907E+03  0.76564605650E+03  0.12500231841E+03 0.  0.
          5    1    3    3  502    0 -0.82181012790E+02  0.61890206610E+01 -0.39355789737E+03  0.40212178681E+03  0.47000000000E+01 0. -1.
         -5    1    3    3    0  502  0.42003435514E+02  0.28029646682E+02 -0.35996924170E+03  0.36352426969E+03  0.47000000000E+01 0. -1.
        -11    1    1    2    0    0  0.20259869186E+02 -0.81456597089E+01 -0.22612149342E+02  0.31434429681E+02  0.00000000000E+00 0.  1.
         11    1    1    2    0    0  0.19917708089E+02 -0.26073007634E+02 -0.14702091042E+03  0.15063752827E+03  0.00000000000E+00 0. -1.
<mgrwt>
<rscale>  0 0.11337616E+03</rscale>
<asrwt>0</asrwt>
<pdfrwt beam="2">  1        1 0.14391374E+00 0.13568616E+03</pdfrwt>
<pdfrwt beam="1">  1       -1 0.18890623E-02 0.13568616E+03</pdfrwt>
<totfact> 0.12810867E+04</totfact>
</mgrwt>
</event>
<event>
 7    1  0.8165933E-006  0.1570675E+03  0.7546771E-02  0.1200338E+00
          2   -1    0    0  501    0  0.00000000000E+00  0.00000000000E+00  0.15547686710E+03  0.15547686710E+03  0.00000000000E+00 0.  1.
         -2   -1    0    0    0  501 -0.00000000000E+00 -0.00000000000E+00 -0.13409473220E+03  0.13409473220E+03  0.00000000000E+00 0. -1.
         23    2    1    2    0    0 -0.28189815257E+02 -0.90826031504E+02  0.17497702786E+01  0.15707720663E+03  0.12500461377E+03 0.  0.
          5    1    3    3  502    0  0.32432449100E+02 -0.38849778091E+02  0.43451686971E+02  0.66867840648E+02  0.47000000000E+01 0. -1.
         -5    1    3    3    0  502 -0.60622264357E+02 -0.51976253413E+02 -0.41701916692E+02  0.90209365979E+02  0.47000000000E+01 0. -1.
        -11    1    1    2    0    0  0.60067553780E+02  0.44340710638E+02  0.11794591148E+02  0.75586520077E+02  0.00000000000E+00 0.  1.
         11    1    1    2    0    0 -0.31877738524E+02  0.46485320867E+02  0.78377734751E+01  0.56907872588E+02  0.00000000000E+00 0. -1.
<mgrwt>
<rscale>  0 0.15010973E+03</rscale>
<asrwt>0</asrwt>
<pdfrwt beam="1">  1        2 0.23919518E-01 0.15706746E+03</pdfrwt>
<pdfrwt beam="2">  1       -2 0.20629959E-01 0.15706746E+03</pdfrwt>
<totfact> 0.43512721E+03</totfact>
</mgrwt>
</event>
<event>
 7    1  0.8165933E-006  0.1808330E+03  0.7546771E-02  0.1172295E+00
          1   -1    0    0  501    0  0.00000000000E+00  0.00000000000E+00  0.26114742598E+03  0.26114742598E+03  0.00000000000E+00 0. -1.
         -1   -1    0    0    0  501 -0.00000000000E+00 -0.00000000000E+00 -0.11596582358E+03  0.11596582358E+03  0.00000000000E+00 0.  1.
         23    2    1    2    0    0  0.12970278058E+03 -0.15881592823E+02  0.39185640212E+02  0.18502996705E+03  0.12500215209E+03 0.  0.
          5    1    3    3  502    0  0.18323212986E+02  0.13458936919E+02  0.63156987112E+02  0.67288766805E+02  0.47000000000E+01 0. -1.
         -5    1    3    3    0  502  0.11137956760E+03 -0.29340529741E+02 -0.23971346900E+02  0.11774120025E+03  0.47000000000E+01 0. -1.
        -11    1    1    2    0    0 -0.43949146149E+02  0.49382355601E+02  0.59513171998E+02  0.88949210975E+02  0.00000000000E+00 0. -1.
         11    1    1    2    0    0 -0.85753634434E+02 -0.33500762779E+02  0.46482790190E+02  0.10313407152E+03  0.00000000000E+00 0.  1.
<mgrwt>
<rscale>  0 0.17543536E+03</rscale>
<asrwt>0</asrwt>
<pdfrwt beam="1">  1        1 0.40176527E-01 0.18083300E+03</pdfrwt>
<pdfrwt beam="2">  1       -1 0.17840896E-01 0.18083300E+03</pdfrwt>
<totfact> 0.24965996E+03</totfact>
</mgrwt>
</event>
<event>
 7    1  0.8165933E-006  0.1430676E+03  0.7546771E-02  0.1219712E+00
         -2   -1    0    0    0  501 -0.00000000000E+00  0.00000000000E+00  0.22220831059E+02  0.22220831059E+02  0.00000000000E+00 0.  1.
          2   -1    0    0  501    0  0.00000000000E+00 -0.00000000000E+00 -0.77273929716E+03  0.77273929716E+03  0.00000000000E+00 0. -1.
         23    2    1    2    0    0  0.26801601447E+02  0.64219121564E+02 -0.48712367062E+03  0.50769855166E+03  0.12500370983E+03 0.  0.
          5    1    3    3  502    0  0.53219889462E+02  0.83418874639E+02 -0.26075355466E+03  0.27893650093E+03  0.47000000000E+01 0.  1.
         -5    1    3    3    0  502 -0.26418288015E+02 -0.19199753075E+02 -0.22637011595E+03  0.22876205073E+03  0.47000000000E+01 0.  1.
        -11    1    1    2    0    0 -0.10207350915E+02  0.22325375945E+02 -0.81989900226E+02  0.85585957744E+02  0.00000000000E+00 0. -1.
         11    1    1    2    0    0 -0.16594250532E+02 -0.86544497509E+02 -0.18140489526E+03  0.20167561881E+03  0.00000000000E+00 0.  1.
<mgrwt>
<rscale>  0 0.13536001E+03</rscale>
<asrwt>0</asrwt>
<pdfrwt beam="2">  1        2 0.11888299E+00 0.14306764E+03</pdfrwt>
<pdfrwt beam="1">  1       -2 0.34185888E-02 0.14306764E+03</pdfrwt>
<totfact> 0.12385748E+04</totfact>
</mgrwt>
</event>
<event>
 7    1  0.8165933E-006  0.1797095E+03  0.7546771E-02  0.1173693E+00
          1   -1    0    0  501    0  0.00000000000E+00  0.00000000000E+00  0.82131094104E+02  0.82131094104E+02  0.00000000000E+00 0. -1.
         -1   -1    0    0    0  501 -0.00000000000E+00 -0.00000000000E+00 -0.36301854196E+03  0.36301854196E+03  0.00000000000E+00 0.  1.
         23    2    1    2    0    0 -0.35373489493E+02  0.12417481957E+03 -0.10291242878E+03  0.20709049857E+03  0.12499934810E+03 0.  0.
          5    1    3    3  502    0  0.44029765277E+02  0.71762714916E+02 -0.52222385920E+02  0.99185558796E+02  0.47000000000E+01 0. -1.
         -5    1    3    3    0  502 -0.79403254770E+02  0.52412104655E+02 -0.50690042864E+02  0.10790493978E+03  0.47000000000E+01 0. -1.
        -11    1    1    2    0    0  0.40477425077E+02 -0.12283902448E+02 -0.27422673339E+02  0.50411498820E+02  0.00000000000E+00 0. -1.
         11    1    1    2    0    0 -0.51039355844E+01 -0.11189091712E+03 -0.15055234573E+03  0.18764763867E+03  0.00000000000E+00 0.  1.
<mgrwt>
<rscale>  0 0.17404613E+03</rscale>
<asrwt>0</asrwt>
<pdfrwt beam="1">  1        1 0.12635553E-01 0.17970951E+03</pdfrwt>
<pdfrwt beam="2">  1       -1 0.55849006E-01 0.17970951E+03</pdfrwt>
<totfact> 0.15417307E+03</totfact>
</mgrwt>
</event>
<event>
 6    1  0.8165933E-006  0.2452387E+03  0.7546771E-02  0.1128917E+00
         -1   -1    0    0    0  501 -0.00000000000E+00  0.00000000000E+00  0.35900140491E+02  0.35900140491E+02  0.00000000000E+00 0.  1.
          1   -1    0    0  501    0  0.00000000000E+00 -0.00000000000E+00 -0.14155552866E+04  0.14155552866E+04  0.00000000000E+00 0. -1.
          5    1    1    2  502    0  0.44974467739E+02  0.30223501289E+02 -0.81591732237E+03  0.81772815148E+03  0.47000000000E+01 0. -1.
         -5    1    1    2    0  502  0.10809141671E+03 -0.20401027140E+02 -0.21021358233E+03  0.23730106715E+03  0.47000000000E+01 0.  1.
        -11    1    1    2    0    0 -0.84647841851E+02 -0.46833555350E+02 -0.14943393912E+03  0.17801444098E+03  0.00000000000E+00 0. -1.
         11    1    1    2    0    0 -0.68418042600E+02  0.37011081201E+02 -0.20409030228E+03  0.21841176747E+03  0.00000000000E+00 0.  1.
<mgrwt>
<rscale>  0 0.22679343E+03</rscale>
<asrwt>0</asrwt>
<pdfrwt beam="2">  1        1 0.21777774E+00 0.24523870E+03</pdfrwt>
<pdfrwt beam="1">  1       -1 0.55230985E-02 0.24523870E+03</pdfrwt>
<totfact> 0.12359813E+03</totfact>
</mgrwt>
</event>
<event>
 7    1  0.8165933E-006  0.1555706E+03  0.7546771E-02  0.1201676E+00
          2   -1    0    0  501    0  0.00000000000E+00  0.00000000000E+00  0.19319510408E+03  0.19319510408E+03  0.00000000000E+00 0. -1.
         -2   -1    0    0    0  501 -0.00000000000E+00 -0.00000000000E+00 -0.10971884807E+03  0.10971884807E+03  0.00000000000E+00 0.  1.
         23    2    1    2    0    0 -0.82424952476E+02  0.42245758814E+02  0.71981472433E+02  0.17141631223E+03  0.12499457107E+03 0.  0.
          5    1    3    3  502    0 -0.10349427889E+03 -0.83058998889E+00  0.30945607062E+02  0.10812712999E+03  0.47000000000E+01 0. -1.
         -5    1    3    3    0  502  0.21069326418E+02  0.43076348803E+02  0.41035865370E+02  0.63289182240E+02  0.47000000000E+01 0. -1.
        -11    1    1    2    0    0  0.60871144862E+02 -0.42049707755E+02 -0.33798033570E+02  0.81337453072E+02  0.00000000000E+00 0.  1.
         11    1    1    2    0    0  0.21553807614E+02 -0.19605105903E+00  0.45292817147E+02  0.50160186840E+02  0.00000000000E+00 0. -1.
<mgrwt>
<rscale>  0 0.14902488E+03</rscale>
<asrwt>0</asrwt>
<pdfrwt beam="1">  1        2 0.29722324E-01 0.15557063E+03</pdfrwt>
<pdfrwt beam="2">  1       -2 0.16879823E-01 0.15557063E+03</pdfrwt>
<totfact> 0.47992137E+03</totfact>
</mgrwt>
</event>
<event>
 7    1  0.8165933E-006  0.1462640E+03  0.7546771E-02  0.1214090E+00
          1   -1    0    0  501    0  0.00000000000E+00  0.00000000000E+00  0.36765209897E+03  0.36765209897E+03  0.00000000000E+00 0. -1.
         -1   -1    0    0    0  501 -0.00000000000E+00 -0.00000000000E+00 -0.49568224933E+02  0.49568224933E+02  0.00000000000E+00 0.  1.
         23    2    1    2    0    0  0.63547043760E+02  0.41602450106E+02  0.20435429434E+03  0.25130424087E+03  0.12499661291E+03 0.  0.
          5    1    3    3  502    0  0.55524910595E+01 -0.31484585571E+02  0.12380830425E+03  0.12795583412E+03  0.47000000000E+01 0.  1.
         -5    1    3    3    0  502  0.57994552701E+02  0.73087035677E+02  0.80545990092E+02  0.12334840675E+03  0.47000000000E+01 0.  1.
        -11    1    1    2    0    0  0.55539438163E+01 -0.16241602360E+02 -0.11496139694E+02  0.20659069848E+02  0.00000000000E+00 0.  1.
         11    1    1    2    0    0 -0.69100987577E+02 -0.25360847746E+02  0.12522571939E+03  0.14525701318E+03  0.00000000000E+00 0. -1.
<mgrwt>
<rscale>  0 0.13943563E+03</rscale>
<asrwt>0</asrwt>
<pdfrwt beam="1">  1        1 0.56561860E-01 0.14626395E+03</pdfrwt>
<pdfrwt beam="2">  1       -1 0.76258810E-02 0.14626395E+03</pdfrwt>
<totfact> 0.60201345E+03</totfact>
</mgrwt>
</event>
<event>
 7    1  0.8165933E-006  0.1710795E+03  0.7546771E-02  0.1183360E+00
          2   -1    0    0  501    0  0.00000000000E+00  0.00000000000E+00  0.16992635457E+03  0.16992635457E+03  0.00000000000E+00 0. -1.
         -2   -1    0    0    0  501 -0.00000000000E+00 -0.00000000000E+00 -0.17029151103E+03  0.17029151103E+03  0.00000000000E+00 0.  1.
         23    2    1    2    0    0  0.20875454445E+02  0.11492169694E+03  0.59513123663E+02  0.18113537564E+03  0.12500172556E+03 0.  0.
          5    1    3    3  502    0  0.38740290767E+02  0.13438788567E+03  0.64080617489E+02  0.15391338305E+03  0.47000000000E+01 0.  1.
         -5    1    3    3    0  502 -0.17864836322E+02 -0.19466188730E+02 -0.45674938265E+01  0.27221992585E+02  0.47000000000E+01 0.  1.
        -11    1    1    2    0    0  0.13559179969E+02 -0.19267284151E+02  0.19113137551E+02  0.30337956870E+02  0.00000000000E+00 0. -1.
         11    1    1    2    0    0 -0.34434634414E+02 -0.95654412792E+02 -0.78991417678E+02  0.12874453309E+03  0.00000000000E+00 0.  1.
<mgrwt>
<rscale>  0 0.16482027E+03</rscale>
<asrwt>0</asrwt>
<pdfrwt beam="1">  1        2 0.26142516E-01 0.17107955E+03</pdfrwt>
<pdfrwt beam="2">  1       -2 0.26198694E-01 0.17107955E+03</pdfrwt>
<totfact> 0.26153942E+03</totfact>
</mgrwt>
</event>
<event>
 7    1  0.8165933E-006  0.1543741E+03  0.7546771E-02  0.1203621E+00
         -2   -1    0    0    0  501 -0.00000000000E+00  0.00000000000E+00  0.34010014218E+02  0.34010014218E+02  0.00000000000E+00 0.  1.
          2   -1    0    0  501    0  0.00000000000E+00 -0.00000000000E+00 -0.89442030914E+03  0.89442030914E+03  0.00000000000E+00 0. -1.
         23    2    1    2    0    0  0.76703908212E+02  0.48199612707E+02 -0.72683956277E+03  0.74305255717E+03  0.12499864204E+03 0.  0.
          5    1    3    3  502    0  0.19791399792E+02  0.61776404125E+02 -0.15342324677E+03  0.16663974994E+03  0.47000000000E+01 0. -1.
         -5    1    3    3    0  502  0.56912508420E+02 -0.13576791418E+02 -0.57341631600E+03  0.57641280722E+03  0.47000000000E+01 0. -1.
        -11    1    1    2    0    0 -0.42103637051E+02  0.15434007176E+02 -0.90775555396E+02  0.10124784584E+03  0.00000000000E+00 0. -1.
         11    1    1    2    0    0 -0.34600271161E+02 -0.63633619883E+02 -0.42795176761E+02  0.84129920349E+02  0.00000000000E+00 0.  1.
<mgrwt>
<rscale>  0 0.14746686E+03</rscale>
<asrwt>0</asrwt>
<pdfrwt beam="2">  1        2 0.13760310E+00 0.15437407E+03</pdfrwt>
<pdfrwt beam="1">  1       -2 0.52323107E-02 0.15437407E+03</pdfrwt>
<totfact> 0.54707472E+03</totfact>
</mgrwt>
</event>
<event>
 7    1  0.8165933E-006  0.1424652E+03  0.7546771E-02  0.1220715E+00
          2   -1    0    0  501    0  0.00000000000E+00  0.00000000000E+00  0.82610556333E+03  0.82610556333E+03  0.00000000000E+00 0.  1.
         -2   -1    0    0    0  501 -0.00000000000E+00 -0.00000000000E+00 -0.20299961932E+02  0.20299961932E+02  0.00000000000E+00 0. -1.
         23    2    1    2    0    0  0.62206913670E+02 -0.28314608345E+02  0.50940028899E+03  0.52894704510E+03  0.12499961977E+03 0.  0.
          5    1    3    3  502    0  0.79911933971E+01  0.13964760071E+01  0.42025951475E+03  0.42036407917E+03  0.47000000000E+01 0.  1.
         -5    1    3    3    0  502  0.54215720273E+02 -0.29711084352E+02  0.89140774233E+02  0.10858296592E+03  0.47000000000E+01 0.  1.
        -11    1    1    2    0    0 -0.53090851530E+02  0.49411482410E+02  0.27995109614E+03  0.28919327333E+03  0.00000000000E+00 0.  1.
         11    1    1    2    0    0 -0.91160621403E+01 -0.21096874065E+02  0.16454216269E+02  0.28265206833E+02  0.00000000000E+00 0. -1.
<mgrwt>
<rscale>  0 0.13464964E+03</rscale>
<asrwt>0</asrwt>
<pdfrwt beam="1">  1        2 0.12709314E+00 0.14246516E+03</pdfrwt>
<pdfrwt beam="2">  1       -2 0.31230717E-02 0.14246516E+03</pdfrwt>
<totfact> 0.13020530E+04</totfact>
</mgrwt>
</event>
<event>
 7    1  0.8165933E-006  0.1279117E+03  0.7546771E-02  0.1258962E+00
         -2   -1    0    0    0  501 -0.00000000000E+00  0.00000000000E+00  0.79108555943E+01  0.79108555943E+01  0.00000000000E+00 0.  1.
          2   -1    0    0  501    0  0.00000000000E+00 -0.00000000000E+00 -0.24069485137E+04  0.24069485137E+04  0.00000000000E+00 0. -1.
         23    2    1    2    0    0  0.55301195677E+02  0.31982216810E+02 -0.21894408348E+04  0.21931740851E+04  0.11081657924E+03 0.  0.
          5    1    3    3  502    0  0.44627458402E+02  0.40050797542E+02 -0.21561458514E+04  0.21569846311E+04  0.47000000000E+01 0. -1.
         -5    1    3    3    0  502  0.10673737275E+02 -0.80685807324E+01 -0.33294983418E+02  0.36189454033E+02  0.47000000000E+01 0.  1.
        -11    1    1    2    0    0 -0.22343270546E+02 -0.29845850305E+02 -0.13599703487E+03  0.14101485742E+03  0.00000000000E+00 0.  1.
         11    1    1    2    0    0 -0.32957925130E+02 -0.21363665050E+01 -0.73599788419E+02  0.80670426713E+02  0.00000000000E+00 0. -1.
<mgrwt>
<rscale>  0 0.11087260E+03</rscale>
<asrwt>0</asrwt>
<pdfrwt beam="2">  1        2 0.37029969E+00 0.12791168E+03</pdfrwt>
<pdfrwt beam="1">  1       -2 0.12170550E-02 0.12791168E+03</pdfrwt>
<totfact> 0.71685025E+03</totfact>
</mgrwt>
</event>
<event>
 7    1  0.8165933E-006  0.2147062E+03  0.7546771E-02  0.1141218E+00
         -2   -1    0    0    0  501 -0.00000000000E+00  0.00000000000E+00  0.22598443555E+02  0.22598443555E+02  0.00000000000E+00 0.  1.
          2   -1    0    0  501    0  0.00000000000E+00 -0.00000000000E+00 -0.18872234842E+04  0.18872234842E+04  0.00000000000E+00 0. -1.
         23    2    1    2    0    0 -0.54019431579E+02  0.16600059254E+03 -0.94140183888E+03  0.96557556806E+03  0.12499783871E+03 0.  0.
          5    1    3    3  502    0 -0.12304155094E+01 -0.78744198323E+01 -0.26540610223E+03  0.26556733517E+03  0.47000000000E+01 0.  1.
         -5    1    3    3    0  502 -0.52789016070E+02  0.17387501237E+03 -0.67599573665E+03  0.70000823289E+03  0.47000000000E+01 0.  1.
        -11    1    1    2    0    0  0.30311265430E+02 -0.15463190191E+03 -0.87721311462E+03  0.89125341310E+03  0.00000000000E+00 0. -1.
         11    1    1    2    0    0  0.23708166149E+02 -0.11368690627E+02 -0.46010087098E+02  0.52992946545E+02  0.00000000000E+00 0.  1.
<mgrwt>
<rscale>  0 0.21043956E+03</rscale>
<asrwt>0</asrwt>
<pdfrwt beam="2">  1        2 0.29034209E+00 0.21470621E+03</pdfrwt>
<pdfrwt beam="1">  1       -2 0.34766835E-02 0.21470621E+03</pdfrwt>
<totfact> 0.28934538E+03</totfact>
</mgrwt>
</event>
<event>
 7    1  0.8165933E-006  0.1373031E+03  0.7546771E-02  0.1228728E+00
          2   -1    0    0  501    0  0.00000000000E+00  0.00000000000E+00  0.77771515376E+03  0.77771515376E+03  0.00000000000E+00 0. -1.
         -2   -1    0    0    0  501 -0.00000000000E+00 -0.00000000000E+00 -0.19286446444E+02  0.19286446444E+02  0.00000000000E+00 0.  1.
         23    2    1    2    0    0 -0.20535187591E+02 -0.52979611187E+02  0.41056277081E+03  0.43291330337E+03  0.12499442517E+03 0.  0.
          5    1    3    3  502    0 -0.31639937904E+02 -0.47564852579E+02  0.63288277231E+02  0.85387334578E+02  0.47000000000E+01 0. -1.
         -5    1    3    3    0  502  0.11104750313E+02 -0.54147586084E+01  0.34727449358E+03  0.34752596879E+03  0.47000000000E+01 0. -1.
        -11    1    1    2    0    0  0.46267606799E+02 -0.24504541655E+01  0.15388707906E+03  0.16071070054E+03  0.00000000000E+00 0.  1.
         11    1    1    2    0    0 -0.25732419208E+02  0.55430065353E+02  0.19397885744E+03  0.20337759630E+03  0.00000000000E+00 0. -1.
<mgrwt>
<rscale>  0 0.12914601E+03</rscale>
<asrwt>0</asrwt>
<pdfrwt beam="1">  1        2 0.11964846E+00 0.13730309E+03</pdfrwt>
<pdfrwt beam="2">  1       -2 0.29671462E-02 0.13730309E+03</pdfrwt>
<totfact> 0.15099050E+04</totfact>
</mgrwt>
</event>
<event>
 7    1  0.8165933E-006  0.1306823E+03  0.7546771E-02  0.1246844E+00
         -1   -1    0    0    0  501 -0.00000000000E+00  0.00000000000E+00  0.68215368372E+02  0.68215368372E+02  0.00000000000E+00 0.  1.
          1   -1    0    0  501    0  0.00000000000E+00 -0.00000000000E+00 -0.23460381290E+03  0.23460381290E+03  0.00000000000E+00 0. -1.
         23    2    1    2    0    0 -0.36010510840E+02  0.12470663361E+02 -0.17253778739E+03  0.21644201728E+03  0.12500233770E+03 0.  0.
          5    1    3    3  502    0 -0.81081130651E+02 -0.65463828055E+01 -0.11072970783E+03  0.13747786393E+03  0.47000000000E+01 0.  1.
         -5    1    3    3    0  502  0.45070619811E+02  0.19017046166E+02 -0.61808079556E+02  0.78964153344E+02  0.47000000000E+01 0.  1.
        -11    1    1    2    0    0  0.43281021437E+02  0.87420315419E+01  0.30199612579E+02  0.53494733685E+02  0.00000000000E+00 0.  1.
         11    1    1    2    0    0 -0.72705105967E+01 -0.21212694903E+02 -0.24050269721E+02  0.32882430309E+02  0.00000000000E+00 0. -1.
<mgrwt>
<rscale>  0 0.11775692E+03</rscale>
<asrwt>0</asrwt>
<pdfrwt beam="2">  1        1 0.36092895E-01 0.13068228E+03</pdfrwt>
<pdfrwt beam="1">  1       -1 0.10494672E-01 0.13068228E+03</pdfrwt>
<totfact> 0.64280487E+03</totfact>
</mgrwt>
</event>
<event>
 6    1  0.8165933E-006  0.2682690E+03  0.7546771E-02  0.1119771E+00
         -1   -1    0    0    0  501 -0.00000000000E+00  0.00000000000E+00  0.26330466886E+02  0.26330466886E+02  0.00000000000E+00 0.  1.
          1   -1    0    0  501    0  0.00000000000E+00 -0.00000000000E+00 -0.18943483559E+04  0.18943483559E+04  0.00000000000E+00 0. -1.
          5    1    1    2  502    0  0.13530500724E+03 -0.69796146749E+02 -0.41890041591E+03  0.44573377204E+03  0.47000000000E+01 0. -1.
         -5    1    1    2    0  502  0.45815524272E+01  0.35219293442E+02 -0.87257757562E+03  0.87331271875E+03  0.47000000000E+01 0.  1.
        -11    1    1    2    0    0 -0.93177558178E+01 -0.24197315440E+02 -0.13460866011E+03  0.13708326675E+03  0.00000000000E+00 0. -1.
         11    1    1    2    0    0 -0.13056880385E+03  0.58774168747E+02 -0.44193123740E+03  0.46454906527E+03  0.00000000000E+00 0.  1.
<mgrwt>
<rscale>  0 0.24003346E+03</rscale>
<asrwt>0</asrwt>
<pdfrwt beam="2">  1        1 0.29143833E+00 0.26826897E+03</pdfrwt>
<pdfrwt beam="1">  1       -1 0.40508394E-02 0.26826897E+03</pdfrwt>
<totfact> 0.95338664E+02</totfact>
</mgrwt>
</event>
<event>
 7    1  0.8165933E-006  0.1476049E+03  0.7546771E-02  0.1213385E+00
          1   -1    0    0  501    0  0.00000000000E+00  0.00000000000E+00  0.12742568369E+04  0.12742568369E+04  0.00000000000E+00 0. -1.
         -1   -1    0    0    0  501 -0.00000000000E+00 -0.00000000000E+00 -0.14487120325E+02  0.14487120325E+02  0.00000000000E+00 0.  1.
         23    2    1    2    0    0  0.75988423913E+02  0.11974654896E+02  0.81444459861E+03  0.82771203451E+03  0.12597450118E+03 0.  0.
          5    1    3    3  502    0 -0.13400216242E+02  0.14780430630E+02  0.50891608687E+03  0.50932867620E+03  0.47000000000E+01 0. -1.
         -5    1    3    3    0  502  0.89388640154E+02 -0.28057757345E+01  0.30552851174E+03  0.31838335832E+03  0.47000000000E+01 0.  1.
        -11    1    1    2    0    0 -0.96490632463E+02 -0.14754961586E+02  0.34208787665E+03  0.35574185359E+03  0.00000000000E+00 0. -1.
         11    1    1    2    0    0  0.20502208550E+02  0.27803066899E+01  0.10323724132E+03  0.10529006913E+03  0.00000000000E+00 0.  1.
<mgrwt>
<rscale>  0 0.13995841E+03</rscale>
<asrwt>0</asrwt>
<pdfrwt beam="1">  1        1 0.19603943E+00 0.14760490E+03</pdfrwt>
<pdfrwt beam="2">  1       -1 0.22287887E-02 0.14760490E+03</pdfrwt>
<totfact> 0.58326990E+03</totfact>
</mgrwt>
</event>
<event>
 7    1  0.8165933E-006  0.1387476E+03  0.7546771E-02  0.1226386E+00
          3   -1    0    0  501    0  0.00000000000E+00  0.00000000000E+00  0.11349641454E+03  0.11349641454E+03  0.00000000000E+00 0. -1.
         -3   -1    0    0    0  501 -0.00000000000E+00 -0.00000000000E+00 -0.13556457368E+03  0.13556457368E+03  0.00000000000E+00 0.  1.
         23    2    1    2    0    0  0.60195097774E+02  0.52711194965E+00 -0.11696881659E+02  0.13923973330E+03  0.12500863429E+03 0.  0.
          5    1    3    3  502    0  0.53455243174E+02  0.58346699706E+02  0.18340299309E+01  0.79292206774E+02  0.47000000000E+01 0. -1.
         -5    1    3    3    0  502  0.67398546003E+01 -0.57819587756E+02 -0.13530911590E+02  0.59947526528E+02  0.47000000000E+01 0. -1.
        -11    1    1    2    0    0 -0.22503269666E+02  0.38806202808E+02  0.18075840643E+02  0.48363772982E+02  0.00000000000E+00 0. -1.
         11    1    1    2    0    0 -0.37691828108E+02 -0.39333314757E+02 -0.28447118127E+02  0.61457481934E+02  0.00000000000E+00 0.  1.
<mgrwt>
<rscale>  0 0.13072369E+03</rscale>
<asrwt>0</asrwt>
<pdfrwt beam="1">  1        3 0.17460987E-01 0.13874756E+03</pdfrwt>
<pdfrwt beam="2">  1       -3 0.20856088E-01 0.13874756E+03</pdfrwt>
<totfact> 0.13704760E+03</totfact>
</mgrwt>
</event>
<event>
 7    1  0.8165933E-006  0.2770191E+03  0.7546771E-02  0.1099250E+00
          1   -1    0    0  501    0  0.00000000000E+00  0.00000000000E+00  0.13305188846E+03  0.13305188846E+03  0.00000000000E+00 0. -1.
         -1   -1    0    0    0  501 -0.00000000000E+00 -0.00000000000E+00 -0.89604585039E+03  0.89604585039E+03  0.00000000000E+00 0.  1.
         23    2    1    2    0    0  0.22057436060E+03 -0.11163284888E+03 -0.67161276663E+02  0.28504425639E+03  0.12499859805E+03 0.  0.
          5    1    3    3  502    0  0.50262252030E+02 -0.59224945855E+02  0.28337901730E+02  0.82819169672E+02  0.47000000000E+01 0. -1.
         -5    1    3    3    0  502  0.17031210857E+03 -0.52407903027E+02 -0.95499178393E+02  0.20222508672E+03  0.47000000000E+01 0. -1.
        -11    1    1    2    0    0 -0.82421244669E+02  0.19788646581E+02 -0.35515625112E+03  0.36513122958E+03  0.00000000000E+00 0.  1.
         11    1    1    2    0    0 -0.13815311593E+03  0.91844202300E+02 -0.34067643415E+03  0.37892225288E+03  0.00000000000E+00 0. -1.
<mgrwt>
<rscale>  0 0.27357577E+03</rscale>
<asrwt>0</asrwt>
<pdfrwt beam="1">  1        1 0.20469522E-01 0.27701912E+03</pdfrwt>
<pdfrwt beam="2">  1       -1 0.13785320E+00 0.27701912E+03</pdfrwt>
<totfact> 0.11704082E+02</totfact>
</mgrwt>
</event>
<event>
 7    1  0.8165933E-006  0.2651777E+03  0.7546771E-02  0.1106303E+00
          1   -1    0    0  501    0  0.00000000000E+00  0.00000000000E+00  0.87249581886E+03  0.87249581886E+03  0.00000000000E+00 0. -1.
         -1   -1    0    0    0  501 -0.00000000000E+00 -0.00000000000E+00 -0.76844316195E+02  0.76844316195E+02  0.00000000000E+00 0.  1.
         23    2    1    2    0    0  0.16441172128E+03 -0.16631738462E+03  0.36458978619E+03  0.45082695924E+03  0.12500619370E+03 0.  0.
          5    1    3    3  502    0  0.75040891065E+02 -0.42638340022E+02  0.46852800322E+02  0.98318046511E+02  0.47000000000E+01 0. -1.
         -5    1    3    3    0  502  0.89370830219E+02 -0.12367904459E+03  0.31773698587E+03  0.35250891273E+03  0.47000000000E+01 0. -1.
        -11    1    1    2    0    0 -0.13757267813E+03  0.16941999765E+03  0.40919075094E+03  0.46375257199E+03  0.00000000000E+00 0.  1.
         11    1    1    2    0    0 -0.26839043152E+02 -0.31026130316E+01  0.21870965532E+02  0.34760603824E+02  0.00000000000E+00 0. -1.
<mgrwt>
<rscale>  0 0.26140402E+03</rscale>
<asrwt>0</asrwt>
<pdfrwt beam="1">  1        1 0.13423012E+00 0.26517774E+03</pdfrwt>
<pdfrwt beam="2">  1       -1 0.11822203E-01 0.26517774E+03</pdfrwt>
<totfact> 0.94402109E+02</totfact>
</mgrwt>
</event>
<event>
 7    1  0.8165933E-006  0.1336421E+03  0.7546771E-02  0.1234439E+00
          2   -1    0    0  501    0  0.00000000000E+00  0.00000000000E+00  0.59620181198E+03  0.59620181198E+03  0.00000000000E+00 0. -1.
         -2   -1    0    0    0  501 -0.00000000000E+00 -0.00000000000E+00 -0.24141900113E+02  0.24141900113E+02  0.00000000000E+00 0.  1.
         23    2    1    2    0    0  0.72073611067E+01  0.46721308632E+02  0.36736054682E+03  0.39091430295E+03  0.12500157662E+03 0.  0.
          5    1    3    3  502    0 -0.20021682596E+02 -0.35390072573E+02  0.68973913112E+02  0.80204835893E+02  0.47000000000E+01 0. -1.
         -5    1    3    3    0  502  0.27229043703E+02  0.82111381205E+02  0.29838663371E+03  0.31070946706E+03  0.47000000000E+01 0. -1.
        -11    1    1    2    0    0 -0.40956653332E+02 -0.26184496581E+02  0.49883421285E+02  0.69652214842E+02  0.00000000000E+00 0.  1.
         11    1    1    2    0    0  0.33749292226E+02 -0.20536812051E+02  0.15481594376E+03  0.15977719430E+03  0.00000000000E+00 0. -1.
<mgrwt>
<rscale>  0 0.12540446E+03</rscale>
<asrwt>0</asrwt>
<pdfrwt beam="1">  1        2 0.91723345E-01 0.13364214E+03</pdfrwt>
<pdfrwt beam="2">  1       -2 0.37141389E-02 0.13364214E+03</pdfrwt>
<totfact> 0.14802972E+04</totfact>
</mgrwt>
</event>
<event>
 7    1  0.8165933E-006  0.1574094E+03  0.7546771E-02  0.1199872E+00
          1   -1    0    0  501    0  0.00000000000E+00  0.00000000000E+00  0.79232957989E+02  0.79232957989E+02  0.00000000000E+00 0. -1.
         -1   -1    0    0    0  501 -0.00000000000E+00 -0.00000000000E+00 -0.26677601336E+03  0.26677601336E+03  0.00000000000E+00 0.  1.
         23    2    1    2    0    0  0.35632726630E+02 -0.88790546420E+02 -0.12152676510E+03  0.19886291918E+03  0.12499701455E+03 0.  0.
          5    1    3    3  502    0 -0.16367462949E+01  0.18753384729E+02  0.12411539980E+02  0.23032687683E+02  0.47000000000E+01 0. -1.
         -5    1    3    3    0  502  0.37269472924E+02 -0.10754393115E+03 -0.13393830508E+03  0.17583023150E+03  0.47000000000E+01 0. -1.
        -11    1    1    2    0    0 -0.13704733628E+02 -0.16299818950E+02 -0.34432829777E+00  0.21298412702E+02  0.00000000000E+00 0. -1.
         11    1    1    2    0    0 -0.21927993001E+02  0.10509036537E+03 -0.65671961967E+02  0.12584763947E+03  0.00000000000E+00 0.  1.
<mgrwt>
<rscale>  0 0.15049056E+03</rscale>
<asrwt>0</asrwt>
<pdfrwt beam="1">  1        1 0.12189686E-01 0.15740936E+03</pdfrwt>
<pdfrwt beam="2">  1       -1 0.41042463E-01 0.15740936E+03</pdfrwt>
<totfact> 0.28183069E+03</totfact>
</mgrwt>
</event>
<event>
 7    1  0.8165933E-006  0.1377809E+03  0.7546771E-02  0.1229072E+00
          2   -1    0    0  501    0  0.00000000000E+00  0.00000000000E+00  0.43658259940E+02  0.43658259940E+02  0.00000000000E+00 0. -1.
         -2   -1    0    0    0  501 -0.00000000000E+00 -0.00000000000E+00 -0.33922323947E+03  0.33922323947E+03  0.00000000000E+00 0.  1.
         23    2    1    2    0    0 -0.10399760814E+02  0.57017591102E+02 -0.16573847167E+03  0.21552914651E+03  0.12499764512E+03 0.  0.
          5    1    3    3  502    0  0.11478890470E+02  0.17807936015E+01  0.18244947051E+02  0.22133780634E+02  0.47000000000E+01 0.  1.
         -5    1    3    3    0  502 -0.21878651284E+02  0.55236797500E+02 -0.18398341872E+03  0.19339536588E+03  0.47000000000E+01 0.  1.
        -11    1    1    2    0    0  0.42294379276E+02 -0.59603776714E+02 -0.82417861021E+02  0.11015502046E+03  0.00000000000E+00 0. -1.
         11    1    1    2    0    0 -0.31894618461E+02  0.25861856124E+01 -0.47408646839E+02  0.57197332437E+02  0.00000000000E+00 0.  1.
<mgrwt>
<rscale>  0 0.12891702E+03</rscale>
<asrwt>0</asrwt>
<pdfrwt beam="1">  1        2 0.67166553E-02 0.13778088E+03</pdfrwt>
<pdfrwt beam="2">  1       -2 0.52188191E-01 0.13778088E+03</pdfrwt>
<totfact> 0.35884788E+03</totfact>
</mgrwt>
</event>
<event>
 7    1  0.8165933E-006  0.1422241E+03  0.7546771E-02  0.1220971E+00
          1   -1    0    0  501    0  0.00000000000E+00  0.00000000000E+00  0.91886201555E+02  0.91886201555E+02  0.00000000000E+00 0. -1.
         -1   -1    0    0    0  501 -0.00000000000E+00 -0.00000000000E+00 -0.21798456019E+03  0.21798456019E+03  0.00000000000E+00 0.  1.
         23    2    1    2    0    0 -0.66073108105E+02 -0.15461312478E+02 -0.28953643710E+01  0.14225352391E+03  0.12499189626E+03 0.  0.
          5    1    3    3  502    0 -0.36430352988E+02  0.91470628846E+01 -0.61349285082E+02  0.72087891898E+02  0.47000000000E+01 0. -1.
         -5    1    3    3    0  502 -0.29642755118E+02 -0.24608375363E+02  0.58453920711E+02  0.70165632011E+02  0.47000000000E+01 0. -1.
        -11    1    1    2    0    0  0.19074533023E+01 -0.11379926276E+02  0.11328069738E+02  0.16169918495E+02  0.00000000000E+00 0. -1.
         11    1    1    2    0    0  0.64165654803E+02  0.26841238754E+02 -0.13453106400E+03  0.15144731934E+03  0.00000000000E+00 0.  1.
<mgrwt>
<rscale>  0 0.13446930E+03</rscale>
<asrwt>0</asrwt>
<pdfrwt beam="1">  1        1 0.14136339E-01 0.14222406E+03</pdfrwt>
<pdfrwt beam="2">  1       -1 0.33536085E-01 0.14222406E+03</pdfrwt>
<totfact> 0.32798589E+03</totfact>
</mgrwt>
</event>
<event>
 7    1  0.8165933E-006  0.1283351E+03  0.7546771E-02  0.1248444E+00
          1   -1    0    0  501    0  0.00000000000E+00  0.00000000000E+00  0.20428013956E+02  0.20428013956E+02  0.00000000000E+00 0. -1.
         -1   -1    0    0    0  501 -0.00000000000E+00 -0.00000000000E+00 -0.62493339793E+03  0.62493339793E+03  0.00000000000E+00 0.  1.
         23    2    1    2    0    0 -0.29071522214E+02 -0.11769166336E+01 -0.26250932929E+03  0.29220033742E+03  0.12499340257E+03 0.  0.
          5    1    3    3  502    0 -0.47732160382E+02  0.27520077833E+02 -0.43161401806E+02  0.70147775621E+02  0.47000000000E+01 0. -1.
         -5    1    3    3    0  502  0.18660638168E+02 -0.28696994467E+02 -0.21934792749E+03  0.22205256180E+03  0.47000000000E+01 0. -1.
        -11    1    1    2    0    0  0.23226876075E+02  0.41385058183E+02 -0.18701370929E+03  0.19294128194E+03  0.00000000000E+00 0.  1.
         11    1    1    2    0    0  0.58446461390E+01 -0.40208141550E+02 -0.15498234539E+03  0.16021979253E+03  0.00000000000E+00 0. -1.
<mgrwt>
<rscale>  0 0.11681586E+03</rscale>
<asrwt>0</asrwt>
<pdfrwt beam="1">  1        1 0.31427706E-02 0.12833507E+03</pdfrwt>
<pdfrwt beam="2">  1       -1 0.96143623E-01 0.12833507E+03</pdfrwt>
<totfact> 0.33637804E+03</totfact>
</mgrwt>
</event>
<event>
 7    1  0.8165933E-006  0.1828010E+03  0.7546771E-02  0.1170463E+00
         -2   -1    0    0    0  501 -0.00000000000E+00  0.00000000000E+00  0.16591136575E+02  0.16591136575E+02  0.00000000000E+00 0.  1.
          2   -1    0    0  501    0  0.00000000000E+00 -0.00000000000E+00 -0.19964246591E+04  0.19964246591E+04  0.00000000000E+00 0. -1.
         23    2    1    2    0    0  0.69696209884E+02 -0.11372515848E+03 -0.13687152390E+04  0.13808684226E+04  0.12500088656E+03 0.  0.
          5    1    3    3  502    0  0.87306956208E+01 -0.10109813830E+03 -0.11136132827E+04  0.11182368676E+04  0.47000000000E+01 0. -1.
         -5    1    3    3    0  502  0.60965514263E+02 -0.12627020180E+02 -0.25510195628E+03  0.26263155497E+03  0.47000000000E+01 0. -1.
        -11    1    1    2    0    0 -0.55503052329E+02  0.10381133253E+02 -0.18359693113E+03  0.19208380948E+03  0.00000000000E+00 0.  1.
         11    1    1    2    0    0 -0.14193157555E+02  0.10334402523E+03 -0.42752135241E+03  0.44006356363E+03  0.00000000000E+00 0. -1.
<mgrwt>
<rscale>  0 0.17727885E+03</rscale>
<asrwt>0</asrwt>
<pdfrwt beam="2">  1        2 0.30714232E+00 0.18280097E+03</pdfrwt>
<pdfrwt beam="1">  1       -2 0.25524820E-02 0.18280097E+03</pdfrwt>
<totfact> 0.40158119E+03</totfact>
</mgrwt>
</event>
<event>
 7    1  0.8165933E-006  0.1615767E+03  0.7546771E-02  0.1194388E+00
          2   -1    0    0  501    0  0.00000000000E+00  0.00000000000E+00  0.88085299255E+03  0.88085299255E+03  0.00000000000E+00 0. -1.
         -2   -1    0    0    0  501 -0.00000000000E+00 -0.00000000000E+00 -0.26620339982E+02  0.26620339982E+02  0.00000000000E+00 0.  1.
         23    2    1    2    0    0 -0.14150706940E+02  0.10137306750E+03  0.56079994185E+03  0.58361253575E+03  0.12502110136E+03 0.  0.
          5    1    3    3  502    0 -0.27459825325E+02  0.12736146974E+03  0.48587285398E+03  0.50306014175E+03  0.47000000000E+01 0.  1.
         -5    1    3    3    0  502  0.13309118385E+02 -0.25988402236E+02  0.74927087868E+02  0.80552394002E+02  0.47000000000E+01 0.  1.
        -11    1    1    2    0    0 -0.31544540752E+02 -0.32521325814E+02  0.16526642555E+03  0.17136419141E+03  0.00000000000E+00 0. -1.
         11    1    1    2    0    0  0.45695247693E+02 -0.68851741691E+02  0.12816628517E+03  0.15249660537E+03  0.00000000000E+00 0.  1.
<mgrwt>
<rscale>  0 0.15506178E+03</rscale>
<asrwt>0</asrwt>
<pdfrwt beam="1">  1        2 0.13551582E+00 0.16157666E+03</pdfrwt>
<pdfrwt beam="2">  1       -2 0.40954376E-02 0.16157666E+03</pdfrwt>
<totfact> 0.80794474E+03</totfact>
</mgrwt>
</event>
<event>
 7    1  0.8165933E-006  0.4371386E+03  0.7546771E-02  0.1032256E+00
          2   -1    0    0  501    0  0.00000000000E+00  0.00000000000E+00  0.60634122591E+03  0.60634122591E+03  0.00000000000E+00 0. -1.
         -2   -1    0    0    0  501 -0.00000000000E+00 -0.00000000000E+00 -0.33237868727E+03  0.33237868727E+03  0.00000000000E+00 0.  1.
         23    2    1    2    0    0 -0.41726948865E+03  0.36760867041E+02  0.26161021531E+03  0.50944092058E+03  0.12499983723E+03 0.  0.
          5    1    3    3  502    0 -0.10742982174E+03 -0.37285963842E+01  0.13407264265E+03  0.17190879133E+03  0.47000000000E+01 0. -1.
         -5    1    3    3    0  502 -0.30983966690E+03  0.40489463425E+02  0.12753757267E+03  0.33753212925E+03  0.47000000000E+01 0. -1.
        -11    1    1    2    0    0  0.38937528689E+03 -0.52187548088E+02  0.27835148513E+02  0.39384190954E+03  0.00000000000E+00 0. -1.
         11    1    1    2    0    0  0.27894201755E+02  0.15426681047E+02 -0.15482825192E+02  0.35437083058E+02  0.00000000000E+00 0.  1.
<mgrwt>
<rscale>  0 0.43511525E+03</rscale>
<asrwt>0</asrwt>
<pdfrwt beam="1">  1        2 0.93283265E-01 0.43713859E+03</pdfrwt>
<pdfrwt beam="2">  1       -2 0.51135183E-01 0.43713859E+03</pdfrwt>
<totfact> 0.18203030E+02</totfact>
</mgrwt>
</event>
<event>
 7    1  0.8165933E-006  0.1639519E+03  0.7546771E-02  0.1194282E+00
         -2   -1    0    0    0  501 -0.00000000000E+00  0.00000000000E+00  0.37207266485E+02  0.37207266485E+02  0.00000000000E+00 0.  1.
          2   -1    0    0  501    0  0.00000000000E+00 -0.00000000000E+00 -0.63227023914E+03  0.63227023914E+03  0.00000000000E+00 0. -1.
         23    2    1    2    0    0 -0.10610158509E+03 -0.10781913100E+00 -0.41744700580E+03  0.44848881691E+03  0.12499063266E+03 0.  0.
          5    1    3    3  502    0 -0.56993722105E+02 -0.17809589997E+02 -0.52050377175E+02  0.79352363666E+02  0.47000000000E+01 0.  1.
         -5    1    3    3    0  502 -0.49107862987E+02  0.17701770866E+02 -0.36539662863E+03  0.36913645324E+03  0.47000000000E+01 0.  1.
        -11    1    1    2    0    0  0.73192116710E+02  0.23301420424E+02 -0.15910438447E+03  0.17667554245E+03  0.00000000000E+00 0. -1.
         11    1    1    2    0    0  0.32909468382E+02 -0.23193601293E+02 -0.18511582386E+02  0.44313146272E+02  0.00000000000E+00 0.  1.
<mgrwt>
<rscale>  0 0.15515192E+03</rscale>
<asrwt>0</asrwt>
<pdfrwt beam="2">  1        2 0.97272340E-01 0.16395187E+03</pdfrwt>
<pdfrwt beam="1">  1       -2 0.57241951E-02 0.16395187E+03</pdfrwt>
<totfact> 0.73306485E+03</totfact>
</mgrwt>
</event>
<event>
 7    1  0.8165933E-006  0.1317285E+03  0.7546771E-02  0.1238914E+00
          2   -1    0    0  501    0  0.00000000000E+00  0.00000000000E+00  0.17344560258E+04  0.17344560258E+04  0.00000000000E+00 0.  1.
         -2   -1    0    0    0  501 -0.00000000000E+00 -0.00000000000E+00 -0.91836196978E+01  0.91836196978E+01  0.00000000000E+00 0. -1.
         23    2    1    2    0    0 -0.37439808339E+02 -0.18070265573E+02  0.13180320360E+04  0.13245983701E+04  0.12499648181E+03 0.  0.
          5    1    3    3  502    0 -0.32527776219E+01 -0.57268531238E+02  0.10470083798E+04  0.10485890055E+04  0.47000000000E+01 0.  1.
         -5    1    3    3    0  502 -0.34187030717E+02  0.39198265666E+02  0.27102365618E+03  0.27600936454E+03  0.47000000000E+01 0.  1.
        -11    1    1    2    0    0  0.37430311907E+02  0.52380768168E+02  0.25886431163E+03  0.26674989214E+03  0.00000000000E+00 0.  1.
         11    1    1    2    0    0  0.94964318230E-02 -0.34310502595E+02  0.14837605848E+03  0.15229138324E+03  0.00000000000E+00 0. -1.
<mgrwt>
<rscale>  0 0.12257170E+03</rscale>
<asrwt>0</asrwt>
<pdfrwt beam="1">  1        2 0.26683913E+00 0.13172849E+03</pdfrwt>
<pdfrwt beam="2">  1       -2 0.14128659E-02 0.13172849E+03</pdfrwt>
<totfact> 0.12847129E+04</totfact>
</mgrwt>
</event>
<event>
 7    1  0.8165933E-006  0.1322301E+03  0.7546771E-02  0.1237428E+00
          1   -1    0    0  501    0  0.00000000000E+00  0.00000000000E+00  0.51451828255E+03  0.51451828255E+03  0.00000000000E+00 0. -1.
         -1   -1    0    0    0  501 -0.00000000000E+00 -0.00000000000E+00 -0.32605177113E+02  0.32605177113E+02  0.00000000000E+00 0.  1.
         23    2    1    2    0    0  0.46934314779E+01 -0.41859179552E+02  0.38634431178E+03  0.40834631942E+03  0.12534181316E+03 0.  0.
          5    1    3    3  502    0  0.57047265257E+02 -0.92698761594E+01  0.10178485409E+03  0.11714336344E+03  0.47000000000E+01 0. -1.
         -5    1    3    3    0  502 -0.52353833779E+02 -0.32589303393E+02  0.28455945770E+03  0.29120295598E+03  0.47000000000E+01 0. -1.
        -11    1    1    2    0    0  0.21242728790E+02 -0.64505013876E+01 -0.63102588153E+01  0.23079901666E+02  0.00000000000E+00 0.  1.
         11    1    1    2    0    0 -0.25936160267E+02  0.48309680940E+02  0.10187905247E+03  0.11569723858E+03  0.00000000000E+00 0. -1.
<mgrwt>
<rscale>  0 0.12350251E+03</rscale>
<asrwt>0</asrwt>
<pdfrwt beam="1">  1        1 0.79156653E-01 0.13223006E+03</pdfrwt>
<pdfrwt beam="2">  1       -1 0.50161814E-02 0.13223006E+03</pdfrwt>
<totfact> 0.72788596E+03</totfact>
</mgrwt>
</event>
<event>
 6    1  0.8165933E-006  0.4172889E+03  0.7546771E-02  0.1089142E+00
          2   -1    0    0  501    0  0.00000000000E+00  0.00000000000E+00  0.18794272678E+03  0.18794272678E+03  0.00000000000E+00 0. -1.
         -2   -1    0    0    0  501 -0.00000000000E+00 -0.00000000000E+00 -0.37176362329E+03  0.37176362329E+03  0.00000000000E+00 0.  1.
          5    1    1    2  502    0  0.19156992510E+02 -0.33458177244E+02  0.15917872138E+03  0.16384869645E+03  0.47000000000E+01 0. -1.
         -5    1    1    2    0  502  0.43543522951E+00  0.53950947888E+02 -0.25982098721E+03  0.26540521806E+03  0.47000000000E+01 0.  1.
        -11    1    1    2    0    0 -0.58108340735E+02 -0.31442448399E+01 -0.45989846297E+02  0.74172309531E+02  0.00000000000E+00 0.  1.
         11    1    1    2    0    0  0.38515912996E+02 -0.17348525805E+02 -0.37188784388E+02  0.56280126029E+02  0.00000000000E+00 0. -1.
<mgrwt>
<rscale>  0 0.29232319E+03</rscale>
<asrwt>0</asrwt>
<pdfrwt beam="1">  1        2 0.28914266E-01 0.41728894E+03</pdfrwt>
<pdfrwt beam="2">  1       -2 0.57194404E-01 0.41728894E+03</pdfrwt>
<totfact> 0.53593179E+02</totfact>
</mgrwt>
</event>
<event>
 7    1  0.8165933E-006  0.1648853E+03  0.7546771E-02  0.1189385E+00
          1   -1    0    0  501    0  0.00000000000E+00  0.00000000000E+00  0.24121738342E+03  0.24121738342E+03  0.00000000000E+00 0. -1.
         -1   -1    0    0    0  501 -0.00000000000E+00 -0.00000000000E+00 -0.99262064300E+02  0.99262064300E+02  0.00000000000E+00 0.  1.
         23    2    1    2    0    0 -0.66758446479E+02  0.84289746705E+02  0.86380658371E+02  0.18614186029E+03  0.12500288971E+03 0.  0.
          5    1    3    3  502    0 -0.58638909149E+01  0.61658243962E+02  0.10175754215E+03  0.11921749725E+03  0.47000000000E+01 0. -1.
         -5    1    3    3    0  502 -0.60894555564E+02  0.22631502743E+02 -0.15376883779E+02  0.66924363042E+02  0.47000000000E+01 0. -1.
        -11    1    1    2    0    0 -0.12993493430E+02 -0.58853115895E+02  0.22698462613E+02  0.64402952782E+02  0.00000000000E+00 0. -1.
         11    1    1    2    0    0  0.79751939909E+02 -0.25436630811E+02  0.32876198141E+02  0.89934634655E+02  0.00000000000E+00 0.  1.
<mgrwt>
<rscale>  0 0.15939162E+03</rscale>
<asrwt>0</asrwt>
<pdfrwt beam="1">  1        1 0.37110366E-01 0.16488534E+03</pdfrwt>
<pdfrwt beam="2">  1       -1 0.15271087E-01 0.16488534E+03</pdfrwt>
<totfact> 0.35153058E+03</totfact>
</mgrwt>
</event>
<event>
 7    1  0.8165933E-006  0.2782631E+03  0.7546771E-02  0.1099493E+00
          1   -1    0    0  501    0  0.00000000000E+00  0.00000000000E+00  0.13363901267E+03  0.13363901267E+03  0.00000000000E+00 0. -1.
         -1   -1    0    0    0  501 -0.00000000000E+00 -0.00000000000E+00 -0.99499942037E+03  0.99499942037E+03  0.00000000000E+00 0.  1.
         23    2    1    2    0    0  0.24440376631E+03 -0.45511015552E+02 -0.57310832517E+02  0.28410368278E+03  0.12500367005E+03 0.  0.
          5    1    3    3  502    0  0.22698817544E+03 -0.70660978442E+02 -0.73887202825E+02  0.24899400475E+03  0.47000000000E+01 0.  1.
         -5    1    3    3    0  502  0.17415590870E+02  0.25149962890E+02  0.16576370308E+02  0.35109678029E+02  0.47000000000E+01 0.  1.
        -11    1    1    2    0    0 -0.20521325192E+03  0.60698678533E+02 -0.70932744910E+03  0.74090636277E+03  0.00000000000E+00 0. -1.
         11    1    1    2    0    0 -0.39190514389E+02 -0.15187662982E+02 -0.94722126080E+02  0.10362838749E+03  0.00000000000E+00 0.  1.
<mgrwt>
<rscale>  0 0.27314462E+03</rscale>
<asrwt>0</asrwt>
<pdfrwt beam="1">  1        1 0.20559847E-01 0.27826313E+03</pdfrwt>
<pdfrwt beam="2">  1       -1 0.15307684E+00 0.27826313E+03</pdfrwt>
<totfact> 0.88675650E+01</totfact>
</mgrwt>
</event>
<event>
 7    1  0.8165933E-006  0.1537965E+03  0.7546771E-02  0.1204166E+00
          1   -1    0    0  501    0  0.00000000000E+00  0.00000000000E+00  0.68650808746E+02  0.68650808746E+02  0.00000000000E+00 0. -1.
         -1   -1    0    0    0  501 -0.00000000000E+00 -0.00000000000E+00 -0.35361345093E+03  0.35361345093E+03  0.00000000000E+00 0.  1.
         23    2    1    2    0    0  0.67251507052E+02 -0.59196267790E+02 -0.63826350626E+02  0.16651472622E+03  0.12500555065E+03 0.  0.
          5    1    3    3  502    0 -0.20701140495E+02 -0.58768206781E+02 -0.99701918027E+01  0.63275066737E+02  0.47000000000E+01 0.  1.
         -5    1    3    3    0  502  0.87952647547E+02 -0.42806100957E+00 -0.53856158823E+02  0.10323965948E+03  0.47000000000E+01 0.  1.
        -11    1    1    2    0    0 -0.79737391579E+02  0.57520728231E+02 -0.22232594045E+03  0.24309567990E+03  0.00000000000E+00 0.  1.
         11    1    1    2    0    0  0.12485884527E+02  0.16755395590E+01  0.11896488889E+01  0.12653853552E+02  0.00000000000E+00 0. -1.
<mgrwt>
<rscale>  0 0.14703368E+03</rscale>
<asrwt>0</asrwt>
<pdfrwt beam="1">  1        1 0.10561663E-01 0.15379646E+03</pdfrwt>
<pdfrwt beam="2">  1       -1 0.54402070E-01 0.15379646E+03</pdfrwt>
<totfact> 0.20415535E+03</totfact>
</mgrwt>
</event>
<event>
 7    1  0.8165933E-006  0.1336460E+03  0.7546771E-02  0.1234890E+00
          2   -1    0    0  501    0  0.00000000000E+00  0.00000000000E+00  0.20053000449E+03  0.20053000449E+03  0.00000000000E+00 0. -1.
         -2   -1    0    0    0  501 -0.00000000000E+00 -0.00000000000E+00 -0.69620250876E+02  0.69620250876E+02  0.00000000000E+00 0.  1.
         23    2    1    2    0    0  0.26665092809E+01 -0.47260238410E+02  0.72472485759E+02  0.15203132877E+03  0.12498249209E+03 0.  0.
          5    1    3    3  502    0 -0.56478155829E+02 -0.47915747616E+02  0.43142567146E+02  0.85843299420E+02  0.47000000000E+01 0.  1.
         -5    1    3    3    0  502  0.59144665110E+02  0.65550920505E+00  0.29329918613E+02  0.66188029349E+02  0.47000000000E+01 0.  1.
        -11    1    1    2    0    0 -0.45080378728E+02  0.10627372532E+02  0.30880212697E+02  0.55666588986E+02  0.00000000000E+00 0.  1.
         11    1    1    2    0    0  0.42413869447E+02  0.36632865879E+02  0.27557055158E+02  0.62452337609E+02  0.00000000000E+00 0. -1.
<mgrwt>
<rscale>  0 0.12511447E+03</rscale>
<asrwt>0</asrwt>
<pdfrwt beam="1">  1        2 0.30850770E-01 0.13364604E+03</pdfrwt>
<pdfrwt beam="2">  1       -2 0.10710808E-01 0.13364604E+03</pdfrwt>
<totfact> 0.95260073E+03</totfact>
</mgrwt>
</event>
<event>
 7    1  0.8165933E-006  0.1656618E+03  0.7546771E-02  0.1195436E+00
          1   -1    0    0  501    0  0.00000000000E+00  0.00000000000E+00  0.71898568944E+02  0.71898568944E+02  0.00000000000E+00 0. -1.
         -1   -1    0    0    0  501 -0.00000000000E+00 -0.00000000000E+00 -0.30658646436E+03  0.30658646436E+03  0.00000000000E+00 0.  1.
         23    2    1    2    0    0 -0.83317883467E+02 -0.69844746440E+02 -0.92850569860E+02  0.18990801114E+03  0.12499466413E+03 0.  0.
          5    1    3    3  502    0 -0.34066645392E+02  0.29352772008E+02 -0.58340706703E+02  0.73809549595E+02  0.47000000000E+01 0.  1.
         -5    1    3    3    0  502 -0.49251238075E+02 -0.99197518448E+02 -0.34509863157E+02  0.11609846155E+03  0.47000000000E+01 0.  1.
        -11    1    1    2    0    0  0.30760881796E+02  0.36684589380E+02 -0.20154521686E+02  0.51944159357E+02  0.00000000000E+00 0. -1.
         11    1    1    2    0    0  0.52557001672E+02  0.33160157059E+02 -0.12168280387E+03  0.13663286281E+03  0.00000000000E+00 0.  1.
<mgrwt>
<rscale>  0 0.15417354E+03</rscale>
<asrwt>0</asrwt>
<pdfrwt beam="1">  1        1 0.11061318E-01 0.16566178E+03</pdfrwt>
<pdfrwt beam="2">  1       -1 0.47167149E-01 0.16566178E+03</pdfrwt>
<totfact> 0.25037528E+03</totfact>
</mgrwt>
</event>
<event>
 7    1  0.8165933E-006  0.1351639E+03  0.7546771E-02  0.1232578E+00
          2   -1    0    0  501    0  0.00000000000E+00  0.00000000000E+00  0.27922529128E+03  0.27922529128E+03  0.00000000000E+00 0. -1.
         -2   -1    0    0    0  501 -0.00000000000E+00 -0.00000000000E+00 -0.51774595947E+02  0.51774595947E+02  0.00000000000E+00 0.  1.
         23    2    1    2    0    0  0.51417576531E+02 -0.11383614711E+01  0.11162014534E+03  0.17529501888E+03  0.12499689499E+03 0.  0.
          5    1    3    3  502    0  0.16489070071E+02 -0.24680410342E+02  0.12677185963E+03  0.13028509693E+03  0.47000000000E+01 0. -1.
         -5    1    3    3    0  502  0.34928506460E+02  0.23542048870E+02 -0.15151714296E+02  0.45009921958E+02  0.47000000000E+01 0. -1.
        -11    1    1    2    0    0  0.17939163612E+02 -0.19228711790E+02  0.11317306314E+02  0.28629327103E+02  0.00000000000E+00 0.  1.
         11    1    1    2    0    0 -0.69356740143E+02  0.20367073261E+02  0.10451324368E+03  0.12707554124E+03  0.00000000000E+00 0. -1.
<mgrwt>
<rscale>  0 0.12660783E+03</rscale>
<asrwt>0</asrwt>
<pdfrwt beam="1">  1        2 0.42957736E-01 0.13516393E+03</pdfrwt>
<pdfrwt beam="2">  1       -2 0.79653226E-02 0.13516393E+03</pdfrwt>
<totfact> 0.10626773E+04</totfact>
</mgrwt>
</event>
<event>
 7    1  0.8165933E-006  0.1281120E+03  0.7546771E-02  0.1244824E+00
         -1   -1    0    0    0  501 -0.00000000000E+00  0.00000000000E+00  0.37816779838E+02  0.37816779838E+02  0.00000000000E+00 0.  1.
          1   -1    0    0  501    0  0.00000000000E+00 -0.00000000000E+00 -0.41226732164E+03  0.41226732164E+03  0.00000000000E+00 0. -1.
         23    2    1    2    0    0  0.27992276633E+02 -0.17082939901E+01 -0.30904928105E+03  0.33455066668E+03  0.12500481846E+03 0.  0.
          5    1    3    3  502    0 -0.47496706880E+02 -0.91274657003E+01 -0.16042051639E+03  0.16761885298E+03  0.47000000000E+01 0.  1.
         -5    1    3    3    0  502  0.75488983513E+02  0.74191717102E+01 -0.14862876466E+03  0.16693181370E+03  0.47000000000E+01 0.  1.
        -11    1    1    2    0    0  0.23212517477E+02 -0.82164102886E+01 -0.57797677297E+02  0.62824373189E+02  0.00000000000E+00 0. -1.
         11    1    1    2    0    0 -0.51204794110E+02  0.99247042787E+01 -0.76035834580E+01  0.52709061614E+02  0.00000000000E+00 0.  1.
<mgrwt>
<rscale>  0 0.11895898E+03</rscale>
<asrwt>0</asrwt>
<pdfrwt beam="2">  1        1 0.63425742E-01 0.12811202E+03</pdfrwt>
<pdfrwt beam="1">  1       -1 0.58179661E-02 0.12811202E+03</pdfrwt>
<totfact> 0.77499932E+03</totfact>
</mgrwt>
</event>
<event>
 7    1  0.8165933E-006  0.1515772E+03  0.7546771E-02  0.1207717E+00
         -3   -1    0    0    0  501 -0.00000000000E+00  0.00000000000E+00  0.90179708301E+02  0.90179708301E+02  0.00000000000E+00 0.  1.
          3   -1    0    0  501    0  0.00000000000E+00 -0.00000000000E+00 -0.21476716047E+03  0.21476716047E+03  0.00000000000E+00 0. -1.
         23    2    1    2    0    0  0.38568141976E+02  0.76572596473E+02 -0.88294033584E+02  0.17541798969E+03  0.12499908253E+03 0.  0.
          5    1    3    3  502    0 -0.30605466569E+02 -0.13270135790E+02 -0.39427111510E+02  0.51859215283E+02  0.47000000000E+01 0. -1.
         -5    1    3    3    0  502  0.69173608544E+02  0.89842732262E+02 -0.48866922075E+02  0.12355877440E+03  0.47000000000E+01 0. -1.
        -11    1    1    2    0    0  0.31159250916E+01 -0.62597500825E+02 -0.53414479434E+02  0.82348422644E+02  0.00000000000E+00 0. -1.
         11    1    1    2    0    0 -0.41684067067E+02 -0.13975095648E+02  0.17121060846E+02  0.47180456442E+02  0.00000000000E+00 0.  1.
<mgrwt>
<rscale>  0 0.14425415E+03</rscale>
<asrwt>0</asrwt>
<pdfrwt beam="2">  1        3 0.33041102E-01 0.15157716E+03</pdfrwt>
<pdfrwt beam="1">  1       -3 0.13873801E-01 0.15157716E+03</pdfrwt>
<totfact> 0.89254264E+02</totfact>
</mgrwt>
</event>
<event>
 7    1  0.8165933E-006  0.1267464E+03  0.7546771E-02  0.1247560E+00
          2   -1    0    0  501    0  0.00000000000E+00  0.00000000000E+00  0.46408659404E+03  0.46408659404E+03  0.00000000000E+00 0. -1.
         -2   -1    0    0    0  501 -0.00000000000E+00 -0.00000000000E+00 -0.26867095976E+02  0.26867095976E+02  0.00000000000E+00 0.  1.
         23    2    1    2    0    0 -0.32763901137E+01 -0.20698146665E+02  0.29378200855E+03  0.31995705849E+03  0.12500201088E+03 0.  0.
          5    1    3    3  502    0  0.34174570462E+01  0.32438807278E+02  0.15301362370E+02  0.36334238958E+02  0.47000000000E+01 0.  1.
         -5    1    3    3    0  502 -0.66938471599E+01 -0.53136953943E+02  0.27848064618E+03  0.28362281953E+03  0.47000000000E+01 0.  1.
        -11    1    1    2    0    0 -0.45005410596E+00 -0.32112230173E+02  0.90919157416E+02  0.96424535573E+02  0.00000000000E+00 0. -1.
         11    1    1    2    0    0  0.37264442197E+01  0.52810376838E+02  0.52518332105E+02  0.74572095956E+02  0.00000000000E+00 0.  1.
<mgrwt>
<rscale>  0 0.11733462E+03</rscale>
<asrwt>0</asrwt>
<pdfrwt beam="1">  1        2 0.71397931E-01 0.12674640E+03</pdfrwt>
<pdfrwt beam="2">  1       -2 0.41333997E-02 0.12674640E+03</pdfrwt>
<totfact> 0.16595893E+04</totfact>
</mgrwt>
</event>
<event>
 7    1  0.8165933E-006  0.1253498E+03  0.7546771E-02  0.1249498E+00
          1   -1    0    0  501    0  0.00000000000E+00  0.00000000000E+00  0.15960227718E+04  0.15960227718E+04  0.00000000000E+00 0.  1.
         -1   -1    0    0    0  501 -0.00000000000E+00 -0.00000000000E+00 -0.12566399903E+02  0.12566399903E+02  0.00000000000E+00 0. -1.
         23    2    1    2    0    0  0.26989981504E+01 -0.90014982366E+01  0.13725354802E+04  0.13782475177E+04  0.12499705531E+03 0.  0.
          5    1    3    3  502    0 -0.55501572478E+02 -0.29136680218E+02  0.61823239932E+03  0.62141995482E+03  0.47000000000E+01 0.  1.
         -5    1    3    3    0  502  0.58200570629E+02  0.20135181981E+02  0.75430308092E+03  0.75682756283E+03  0.47000000000E+01 0.  1.
        -11    1    1    2    0    0 -0.44155936096E+02  0.19744346394E+01  0.65917811611E+02  0.79364998407E+02  0.00000000000E+00 0.  1.
         11    1    1    2    0    0  0.41456937946E+02  0.70270635971E+01  0.14500308008E+03  0.15097665568E+03  0.00000000000E+00 0. -1.
<mgrwt>
<rscale>  0 0.11620189E+03</rscale>
<asrwt>0</asrwt>
<pdfrwt beam="1">  1        1 0.24554180E+00 0.12534981E+03</pdfrwt>
<pdfrwt beam="2">  1       -1 0.19332936E-02 0.12534981E+03</pdfrwt>
<totfact> 0.43869215E+03</totfact>
</mgrwt>
</event>
<event>
 6    1  0.8165933E-006  0.1918282E+03  0.7546771E-02  0.1189976E+00
          2   -1    0    0  501    0  0.00000000000E+00  0.00000000000E+00  0.11344134881E+04  0.11344134881E+04  0.00000000000E+00 0. -1.
         -2   -1    0    0    0  501 -0.00000000000E+00 -0.00000000000E+00 -0.66818715761E+02  0.66818715761E+02  0.00000000000E+00 0.  1.
          5    1    1    2  502    0 -0.77459749029E+02  0.30160064359E+01  0.97008691113E+03  0.97319053333E+03  0.47000000000E+01 0. -1.
         -5    1    1    2    0  502  0.58842569644E+02 -0.16813639981E+01  0.12112243197E+03  0.13475165496E+03  0.47000000000E+01 0.  1.
        -11    1    1    2    0    0 -0.13217678779E+02 -0.38697126928E+02 -0.14353860451E+02  0.43338296859E+02  0.00000000000E+00 0. -1.
         11    1    1    2    0    0  0.31834858165E+02  0.37362484490E+02 -0.92607103580E+01  0.49951718669E+02  0.00000000000E+00 0.  1.
<mgrwt>
<rscale>  0 0.15887233E+03</rscale>
<asrwt>0</asrwt>
<pdfrwt beam="1">  1        2 0.17452514E+00 0.19182821E+03</pdfrwt>
<pdfrwt beam="2">  1       -2 0.10279803E-01 0.19182821E+03</pdfrwt>
<totfact> 0.13872893E+03</totfact>
</mgrwt>
</event>
<event>
 7    1  0.8165933E-006  0.1305897E+03  0.7546771E-02  0.1241321E+00
          2   -1    0    0  501    0  0.00000000000E+00  0.00000000000E+00  0.30555951274E+03  0.30555951274E+03  0.00000000000E+00 0. -1.
         -2   -1    0    0    0  501 -0.00000000000E+00 -0.00000000000E+00 -0.45424723038E+02  0.45424723038E+02  0.00000000000E+00 0.  1.
         23    2    1    2    0    0  0.36867963066E+02  0.84012928854E+01  0.19446389692E+03  0.23424320429E+03  0.12499537242E+03 0.  0.
          5    1    3    3  502    0  0.20445552918E+02 -0.53720084897E+02  0.51040062937E+02  0.77013285738E+02  0.47000000000E+01 0. -1.
         -5    1    3    3    0  502  0.16422410148E+02  0.62121377782E+02  0.14342383399E+03  0.15722991855E+03  0.47000000000E+01 0. -1.
        -11    1    1    2    0    0 -0.30894454473E+01 -0.45839700834E+02  0.28060914540E+02  0.53835283695E+02  0.00000000000E+00 0.  1.
         11    1    1    2    0    0 -0.33778517618E+02  0.37438407948E+02  0.37609978236E+02  0.62905747791E+02  0.00000000000E+00 0. -1.
<mgrwt>
<rscale>  0 0.12108330E+03</rscale>
<asrwt>0</asrwt>
<pdfrwt beam="1">  1        2 0.47009154E-01 0.13058971E+03</pdfrwt>
<pdfrwt beam="2">  1       -2 0.69884191E-02 0.13058971E+03</pdfrwt>
<totfact> 0.11778331E+04</totfact>
</mgrwt>
</event>
<event>
 7    1  0.8165933E-006  0.1280186E+03  0.7546771E-02  0.1244422E+00
          2   -1    0    0  501    0  0.00000000000E+00  0.00000000000E+00  0.26804210603E+03  0.26804210603E+03  0.00000000000E+00 0. -1.
         -2   -1    0    0    0  501 -0.00000000000E+00 -0.00000000000E+00 -0.53839468706E+02  0.53839468706E+02  0.00000000000E+00 0.  1.
         23    2    1    2    0    0 -0.28070168445E+02 -0.17448177383E+01  0.17759662601E+03  0.21892764018E+03  0.12489103778E+03 0.  0.
          5    1    3    3  502    0 -0.70255195438E+02 -0.18844791329E+02  0.14640733930E+03  0.16354851771E+03  0.47000000000E+01 0.  1.
         -5    1    3    3    0  502  0.42185026992E+02  0.17099973591E+02  0.31189286712E+02  0.55379122463E+02  0.47000000000E+01 0.  1.
        -11    1    1    2    0    0 -0.17289767183E+01 -0.39203334632E+02  0.34526085486E+02  0.52267976675E+02  0.00000000000E+00 0. -1.
         11    1    1    2    0    0  0.29799145164E+02  0.40948152370E+02  0.20799258283E+01  0.50685957883E+02  0.00000000000E+00 0.  1.
<mgrwt>
<rscale>  0 0.11920053E+03</rscale>
<asrwt>0</asrwt>
<pdfrwt beam="1">  1        2 0.41237246E-01 0.12801855E+03</pdfrwt>
<pdfrwt beam="2">  1       -2 0.82829954E-02 0.12801855E+03</pdfrwt>
<totfact> 0.10402510E+04</totfact>
</mgrwt>
</event>
<event>
 7    1  0.8165933E-006  0.1347841E+03  0.7546771E-02  0.1232510E+00
         -1   -1    0    0    0  501 -0.00000000000E+00  0.00000000000E+00  0.20559552190E+02  0.20559552190E+02  0.00000000000E+00 0.  1.
          1   -1    0    0  501    0  0.00000000000E+00 -0.00000000000E+00 -0.93968128175E+03  0.93968128175E+03  0.00000000000E+00 0. -1.
         23    2    1    2    0    0  0.16226303665E+02 -0.47722038110E+02 -0.74320938683E+03  0.75533234981E+03  0.12500432045E+03 0.  0.
          5    1    3    3  502    0  0.38430957922E+02 -0.45589976591E+02 -0.72109676899E+03  0.72357309564E+03  0.47000000000E+01 0. -1.
         -5    1    3    3    0  502 -0.22204654257E+02 -0.21320615192E+01 -0.22112617849E+02  0.31759254165E+02  0.47000000000E+01 0. -1.
        -11    1    1    2    0    0  0.11167461961E+02  0.90010248191E+01  0.69901443415E+01  0.15955963536E+02  0.00000000000E+00 0.  1.
         11    1    1    2    0    0 -0.27393765626E+02  0.38721013291E+02 -0.18290248707E+03  0.18895252060E+03  0.00000000000E+00 0. -1.
<mgrwt>
<rscale>  0 0.12665190E+03</rscale>
<asrwt>0</asrwt>
<pdfrwt beam="2">  1        1 0.14456633E+00 0.13478415E+03</pdfrwt>
<pdfrwt beam="1">  1       -1 0.31630084E-02 0.13478415E+03</pdfrwt>
<totfact> 0.60239563E+03</totfact>
</mgrwt>
</event>
<event>
 7    1  0.8165933E-006  0.1659599E+03  0.7546771E-02  0.1189499E+00
         -1   -1    0    0    0  501 -0.00000000000E+00  0.00000000000E+00  0.38786153067E+02  0.38786153067E+02  0.00000000000E+00 0.  1.
          1   -1    0    0  501    0  0.00000000000E+00 -0.00000000000E+00 -0.60702301960E+03  0.60702301960E+03  0.00000000000E+00 0. -1.
         23    2    1    2    0    0  0.10603041845E+03  0.25931055125E+02 -0.30041137788E+03  0.34320503395E+03  0.12501131994E+03 0.  0.
          5    1    3    3  502    0  0.96738896174E+02  0.43103244276E+02 -0.30474734721E+03  0.32265978884E+03  0.47000000000E+01 0. -1.
         -5    1    3    3    0  502  0.92915222800E+01 -0.17172189152E+02  0.43359693381E+01  0.20545245110E+02  0.47000000000E+01 0. -1.
        -11    1    1    2    0    0 -0.20055009898E+02 -0.10042348799E+02 -0.17098748594E+01  0.22493907252E+02  0.00000000000E+00 0.  1.
         11    1    1    2    0    0 -0.85975408556E+02 -0.15888706325E+02 -0.26611561380E+03  0.28011023147E+03  0.00000000000E+00 0. -1.
<mgrwt>
<rscale>  0 0.15929120E+03</rscale>
<asrwt>0</asrwt>
<pdfrwt beam="2">  1        1 0.93388152E-01 0.16595993E+03</pdfrwt>
<pdfrwt beam="1">  1       -1 0.59671008E-02 0.16595993E+03</pdfrwt>
<totfact> 0.45576159E+03</totfact>
</mgrwt>
</event>
<event>
 7    1  0.8165933E-006  0.1436750E+03  0.7546771E-02  0.1219937E+00
          1   -1    0    0  501    0  0.00000000000E+00  0.00000000000E+00  0.92210390293E+02  0.92210390293E+02  0.00000000000E+00 0. -1.
         -1   -1    0    0    0  501 -0.00000000000E+00 -0.00000000000E+00 -0.18193567901E+03  0.18193567901E+03  0.00000000000E+00 0.  1.
         23    2    1    2    0    0  0.35863938028E+02 -0.61081506116E+02 -0.30539540283E+02  0.14688491786E+03  0.12500137252E+03 0.  0.
          5    1    3    3  502    0  0.80528093928E+02 -0.31203420032E+02 -0.33765007090E+02  0.92847148784E+02  0.47000000000E+01 0.  1.
         -5    1    3    3    0  502 -0.44664155900E+02 -0.29878086083E+02  0.32254668073E+01  0.54037769073E+02  0.47000000000E+01 0.  1.
        -11    1    1    2    0    0  0.16382832263E+01  0.30939174394E+02  0.18350843086E+02  0.36009303327E+02  0.00000000000E+00 0. -1.
         11    1    1    2    0    0 -0.37502221255E+02  0.30142331722E+02 -0.77536591521E+02  0.91251848120E+02  0.00000000000E+00 0.  1.
<mgrwt>
<rscale>  0 0.13520077E+03</rscale>
<asrwt>0</asrwt>
<pdfrwt beam="1">  1        1 0.14186214E-01 0.14367503E+03</pdfrwt>
<pdfrwt beam="2">  1       -1 0.27990104E-01 0.14367503E+03</pdfrwt>
<totfact> 0.44314683E+03</totfact>
</mgrwt>
</event>
<event>
 7    1  0.8165933E-006  0.1356507E+03  0.7546771E-02  0.1231735E+00
         -2   -1    0    0    0  501 -0.00000000000E+00  0.00000000000E+00  0.60486838114E+02  0.60486838114E+02  0.00000000000E+00 0.  1.
          2   -1    0    0  501    0  0.00000000000E+00 -0.00000000000E+00 -0.26468505454E+03  0.26468505454E+03  0.00000000000E+00 0. -1.
         23    2    1    2    0    0 -0.15849575366E+02  0.50242940014E+02 -0.16437026872E+03  0.21311661959E+03  0.12500218496E+03 0.  0.
          5    1    3    3  502    0  0.37560451138E+02  0.69060500723E+02 -0.98931792014E+02  0.12645050305E+03  0.47000000000E+01 0. -1.
         -5    1    3    3    0  502 -0.53410026504E+02 -0.18817560710E+02 -0.65438476706E+02  0.86666116538E+02  0.47000000000E+01 0. -1.
        -11    1    1    2    0    0 -0.44860642559E+01  0.12772560050E+02 -0.43678153759E+02  0.45727936522E+02  0.00000000000E+00 0. -1.
         11    1    1    2    0    0  0.20335639622E+02 -0.63015500063E+02  0.38502060515E+01  0.66327336549E+02  0.00000000000E+00 0.  1.
<mgrwt>
<rscale>  0 0.12715777E+03</rscale>
<asrwt>0</asrwt>
<pdfrwt beam="2">  1        2 0.40720778E-01 0.13565068E+03</pdfrwt>
<pdfrwt beam="1">  1       -2 0.93056673E-02 0.13565068E+03</pdfrwt>
<totfact> 0.88365537E+03</totfact>
</mgrwt>
</event>
<event>
 7    1  0.8165933E-006  0.1455867E+03  0.7546771E-02  0.1222622E+00
         -2   -1    0    0    0  501 -0.00000000000E+00  0.00000000000E+00  0.44522936527E+02  0.44522936527E+02  0.00000000000E+00 0.  1.
          2   -1    0    0  501    0  0.00000000000E+00 -0.00000000000E+00 -0.35105070523E+03  0.35105070523E+03  0.00000000000E+00 0. -1.
         23    2    1    2    0    0 -0.18891476290E+02  0.72206037850E+02 -0.20470066388E+03  0.25119285105E+03  0.12499954738E+03 0.  0.
          5    1    3    3  502    0 -0.27827925495E+02  0.72070921007E+02 -0.21979921687E+03  0.23302874679E+03  0.47000000000E+01 0. -1.
         -5    1    3    3    0  502  0.89364492060E+01  0.13511684270E+00  0.15098552992E+02  0.18164104256E+02  0.47000000000E+01 0. -1.
        -11    1    1    2    0    0  0.25998629515E+02 -0.49659388470E+02 -0.10643747957E+03  0.12029513979E+03  0.00000000000E+00 0. -1.
         11    1    1    2    0    0 -0.71071532252E+01 -0.22546649380E+02  0.46103747444E+01  0.24085650925E+02  0.00000000000E+00 0.  1.
<mgrwt>
<rscale>  0 0.13331259E+03</rscale>
<asrwt>0</asrwt>
<pdfrwt beam="2">  1        2 0.54007802E-01 0.14558670E+03</pdfrwt>
<pdfrwt beam="1">  1       -2 0.68496823E-02 0.14558670E+03</pdfrwt>
<totfact> 0.10568587E+04</totfact>
</mgrwt>
</event>
<event>
 6    1  0.8165933E-006  0.1607786E+03  0.7546771E-02  0.1207580E+00
          1   -1    0    0  501    0  0.00000000000E+00  0.00000000000E+00  0.57714788706E+03  0.57714788706E+03  0.00000000000E+00 0. -1.
         -1   -1    0    0    0  501 -0.00000000000E+00 -0.00000000000E+00 -0.32306511894E+02  0.32306511894E+02  0.00000000000E+00 0.  1.
          5    1    1    2  502    0 -0.10596820547E+02 -0.49237655166E+02  0.35771660228E+03  0.36127537535E+03  0.47000000000E+01 0. -1.
         -5    1    1    2    0  502 -0.38266695279E+02  0.38766705648E+02  0.40102666870E+02  0.67804950589E+02  0.47000000000E+01 0.  1.
        -11    1    1    2    0    0 -0.24779945246E+02 -0.64689096837E+01  0.59287705050E+02  0.64582694655E+02  0.00000000000E+00 0.  1.
         11    1    1    2    0    0  0.73643461071E+02  0.16939859201E+02  0.87734400967E+02  0.11579137835E+03  0.00000000000E+00 0. -1.
<mgrwt>
<rscale>  0 0.14435956E+03</rscale>
<asrwt>0</asrwt>
<pdfrwt beam="1">  1        1 0.88791975E-01 0.16077859E+03</pdfrwt>
<pdfrwt beam="2">  1       -1 0.49702330E-02 0.16077859E+03</pdfrwt>
<totfact> 0.64030441E+03</totfact>
</mgrwt>
</event>
<event>
 7    1  0.8165933E-006  0.1258080E+03  0.7546771E-02  0.1247726E+00
          1   -1    0    0  501    0  0.00000000000E+00  0.00000000000E+00  0.35589633016E+03  0.35589633016E+03  0.00000000000E+00 0. -1.
         -1   -1    0    0    0  501 -0.00000000000E+00 -0.00000000000E+00 -0.43146715416E+02  0.43146715416E+02  0.00000000000E+00 0.  1.
         23    2    1    2    0    0 -0.11130671832E+02  0.88947724883E+01  0.26385568084E+03  0.29231399529E+03  0.12499857078E+03 0.  0.
          5    1    3    3  502    0 -0.51297753367E+02 -0.32250150173E+02  0.85792282743E+02  0.10513770715E+03  0.47000000000E+01 0.  1.
         -5    1    3    3    0  502  0.40167081535E+02  0.41144922662E+02  0.17806339809E+03  0.18717628814E+03  0.47000000000E+01 0.  1.
        -11    1    1    2    0    0 -0.27415025843E+02 -0.33383269912E+02  0.51708455366E+01  0.43505907594E+02  0.00000000000E+00 0.  1.
         11    1    1    2    0    0  0.38545697675E+02  0.24488497424E+02  0.43723088368E+02  0.63223142692E+02  0.00000000000E+00 0. -1.
<mgrwt>
<rscale>  0 0.11723691E+03</rscale>
<asrwt>0</asrwt>
<pdfrwt beam="1">  1        1 0.54753280E-01 0.12580799E+03</pdfrwt>
<pdfrwt beam="2">  1       -1 0.66379565E-02 0.12580799E+03</pdfrwt>
<totfact> 0.76471698E+03</totfact>
</mgrwt>
</event>
<event>
 7    1  0.8165933E-006  0.1388677E+03  0.7546771E-02  0.1225546E+00
         -2   -1    0    0    0  501 -0.00000000000E+00  0.00000000000E+00  0.10129649821E+03  0.10129649821E+03  0.00000000000E+00 0.  1.
          2   -1    0    0  501    0  0.00000000000E+00 -0.00000000000E+00 -0.15463044486E+03  0.15463044486E+03  0.00000000000E+00 0. -1.
         23    2    1    2    0    0  0.23152858234E+02 -0.55870143442E+02 -0.21824750343E+02  0.14057228385E+03  0.12500687776E+03 0.  0.
          5    1    3    3  502    0  0.12860216316E+02  0.38519943437E+02  0.64590305612E+01  0.41388165964E+02  0.47000000000E+01 0.  1.
         -5    1    3    3    0  502  0.10292641918E+02 -0.94390086879E+02 -0.28283780905E+02  0.99184117887E+02  0.47000000000E+01 0.  1.
        -11    1    1    2    0    0  0.24619870705E+02  0.40566190245E+02  0.12004657762E+02  0.48947580456E+02  0.00000000000E+00 0.  1.
         11    1    1    2    0    0 -0.47772728939E+02  0.15303953197E+02 -0.43513854073E+02  0.66407078765E+02  0.00000000000E+00 0. -1.
<mgrwt>
<rscale>  0 0.13129564E+03</rscale>
<asrwt>0</asrwt>
<pdfrwt beam="2">  1        2 0.23789299E-01 0.13886773E+03</pdfrwt>
<pdfrwt beam="1">  1       -2 0.15584077E-01 0.13886773E+03</pdfrwt>
<totfact> 0.69429567E+03</totfact>
</mgrwt>
</event>
<event>
 7    1  0.8165933E-006  0.1595079E+03  0.7546771E-02  0.1196367E+00
          2   -1    0    0  501    0  0.00000000000E+00  0.00000000000E+00  0.10647346417E+04  0.10647346417E+04  0.00000000000E+00 0. -1.
         -2   -1    0    0    0  501 -0.00000000000E+00 -0.00000000000E+00 -0.31103060443E+02  0.31103060443E+02  0.00000000000E+00 0.  1.
         23    2    1    2    0    0 -0.58055050188E+02  0.80286112904E+02  0.86182785087E+03  0.87646450140E+03  0.12500611543E+03 0.  0.
          5    1    3    3  502    0 -0.23951344881E+02  0.15130394229E+02  0.67526084061E+03  0.67587120712E+03  0.47000000000E+01 0.  1.
         -5    1    3    3    0  502 -0.34103705306E+02  0.65155718675E+02  0.18656701027E+03  0.20059329428E+03  0.47000000000E+01 0.  1.
        -11    1    1    2    0    0  0.71412286783E+02 -0.31153569895E+02  0.66607034911E+02  0.10250247178E+03  0.00000000000E+00 0.  1.
         11    1    1    2    0    0 -0.13357236595E+02 -0.49132543008E+02  0.10519669552E+03  0.11687072901E+03  0.00000000000E+00 0. -1.
<mgrwt>
<rscale>  0 0.15339083E+03</rscale>
<asrwt>0</asrwt>
<pdfrwt beam="1">  1        2 0.16380530E+00 0.15950792E+03</pdfrwt>
<pdfrwt beam="2">  1       -2 0.47850870E-02 0.15950792E+03</pdfrwt>
<totfact> 0.49368378E+03</totfact>
</mgrwt>
</event>
<event>
 7    1  0.1471353E-005  0.1576626E+03  0.7546771E-02  0.1199288E+00
          1   -1    0    0  501    0  0.00000000000E+00  0.00000000000E+00  0.31004930595E+03  0.31004930595E+03  0.00000000000E+00 0. -1.
         -1   -1    0    0    0  501 -0.00000000000E+00 -0.00000000000E+00 -0.69522624646E+02  0.69522624646E+02  0.00000000000E+00 0.  1.
         23    2    1    2    0    0  0.94165731721E+02 -0.19125488362E+02  0.15924277153E+03  0.22408869785E+03  0.12499805952E+03 0.  0.
          5    1    3    3  502    0  0.60688193703E+02  0.33619749949E+02  0.21528042708E+02  0.72793482294E+02  0.47000000000E+01 0.  1.
         -5    1    3    3    0  502  0.33477538017E+02 -0.52745238312E+02  0.13771472882E+03  0.15129521556E+03  0.47000000000E+01 0.  1.
        -11    1    1    2    0    0 -0.39457956792E+02  0.26942124403E+02 -0.99625421108E+01  0.48806358877E+02  0.00000000000E+00 0.  1.
         11    1    1    2    0    0 -0.54707774928E+02 -0.78166360405E+01  0.91246451885E+02  0.10667687387E+03  0.00000000000E+00 0. -1.
<mgrwt>
<rscale>  0 0.15096859E+03</rscale>
<asrwt>0</asrwt>
<pdfrwt beam="1">  1        1 0.47699892E-01 0.15766256E+03</pdfrwt>
<pdfrwt beam="2">  1       -1 0.10695789E-01 0.15766256E+03</pdfrwt>
<totfact> 0.44689892E+03</totfact>
</mgrwt>
</event>
<event>
 7    1  0.8165933E-006  0.1540540E+03  0.7546771E-02  0.1204634E+00
         -1   -1    0    0    0  501 -0.00000000000E+00  0.00000000000E+00  0.36567738326E+03  0.36567738326E+03  0.00000000000E+00 0.  1.
          1   -1    0    0  501    0  0.00000000000E+00 -0.00000000000E+00 -0.54112502902E+02  0.54112502902E+02  0.00000000000E+00 0. -1.
         23    2    1    2    0    0 -0.84562344967E+02 -0.25600481903E+02  0.15590746866E+03  0.21917978038E+03  0.12620008907E+03 0.  0.
          5    1    3    3  502    0  0.29094118276E+02 -0.18711053520E+02  0.63490004369E+02  0.72454412542E+02  0.47000000000E+01 0.  1.
         -5    1    3    3    0  502 -0.11365646324E+03 -0.68894283834E+01  0.92417464296E+02  0.14672536784E+03  0.47000000000E+01 0.  1.
        -11    1    1    2    0    0  0.62317640848E+02  0.18534437497E+02  0.16352825472E+03  0.17597870276E+03  0.00000000000E+00 0.  1.
         11    1    1    2    0    0  0.22244704118E+02  0.70660444063E+01 -0.78708430247E+01  0.24631403021E+02  0.00000000000E+00 0. -1.
<mgrwt>
<rscale>  0 0.14666323E+03</rscale>
<asrwt>0</asrwt>
<pdfrwt beam="2">  1        1 0.83250007E-02 0.15405401E+03</pdfrwt>
<pdfrwt beam="1">  1       -1 0.56258057E-01 0.15405401E+03</pdfrwt>
<totfact> 0.26346730E+03</totfact>
</mgrwt>
</event>
<event>
 7    1  0.8165933E-006  0.1405362E+03  0.7546771E-02  0.1223535E+00
         -2   -1    0    0    0  501 -0.00000000000E+00  0.00000000000E+00  0.28887196874E+02  0.28887196874E+02  0.00000000000E+00 0. -1.
          2   -1    0    0  501    0  0.00000000000E+00 -0.00000000000E+00 -0.60447652952E+03  0.60447652952E+03  0.00000000000E+00 0.  1.
         23    2    1    2    0    0  0.25933695507E+02  0.58762806982E+02 -0.41199144345E+03  0.43530146732E+03  0.12499917570E+03 0.  0.
          5    1    3    3  502    0  0.54217419322E+02 -0.15879050901E+02 -0.12269826923E+03  0.13516148892E+03  0.47000000000E+01 0.  1.
         -5    1    3    3    0  502 -0.28283723816E+02  0.74641857883E+02 -0.28929317422E+03  0.30013997839E+03  0.47000000000E+01 0.  1.
        -11    1    1    2    0    0  0.20440509049E+02  0.10486174863E+02 -0.14250950429E+02  0.27034493921E+02  0.00000000000E+00 0. -1.
         11    1    1    2    0    0 -0.46374204556E+02 -0.69248981845E+02 -0.14934693877E+03  0.17102776516E+03  0.00000000000E+00 0.  1.
<mgrwt>
<rscale>  0 0.13267833E+03</rscale>
<asrwt>0</asrwt>
<pdfrwt beam="2">  1        2 0.92996399E-01 0.14053618E+03</pdfrwt>
<pdfrwt beam="1">  1       -2 0.44441837E-02 0.14053618E+03</pdfrwt>
<totfact> 0.11198740E+04</totfact>
</mgrwt>
</event>
<event>
 7    1  0.8165933E-006  0.1515788E+03  0.7546771E-02  0.1207749E+00
          2   -1    0    0  501    0  0.00000000000E+00  0.00000000000E+00  0.15179061188E+04  0.15179061188E+04  0.00000000000E+00 0. -1.
         -2   -1    0    0    0  501 -0.00000000000E+00 -0.00000000000E+00 -0.14204974338E+02  0.14204974338E+02  0.00000000000E+00 0.  1.
         23    2    1    2    0    0  0.69023759781E+02 -0.50859554860E+02  0.10794112830E+04  0.10900022305E+04  0.12500068420E+03 0.  0.
          5    1    3    3  502    0  0.63783572619E+02 -0.87750753325E+02  0.65573445361E+03  0.66466405235E+03  0.47000000000E+01 0. -1.
         -5    1    3    3    0  502  0.52401871617E+01  0.36891198465E+02  0.42367682935E+03  0.42533817818E+03  0.47000000000E+01 0. -1.
        -11    1    1    2    0    0 -0.58712064519E+02 -0.80834644162E+01  0.27417264724E+03  0.28050506129E+03  0.00000000000E+00 0. -1.
         11    1    1    2    0    0 -0.10311695262E+02  0.58943019276E+02  0.15011721427E+03  0.16160380132E+03  0.00000000000E+00 0.  1.
<mgrwt>
<rscale>  0 0.14422949E+03</rscale>
<asrwt>0</asrwt>
<pdfrwt beam="1">  1        2 0.23352389E+00 0.15157884E+03</pdfrwt>
<pdfrwt beam="2">  1       -2 0.21853819E-02 0.15157884E+03</pdfrwt>
<totfact> 0.88825609E+03</totfact>
</mgrwt>
</event>
<event>
 7    1  0.8165933E-006  0.1354225E+03  0.7546771E-02  0.1232955E+00
         -1   -1    0    0    0  501 -0.00000000000E+00  0.00000000000E+00  0.12634442500E+03  0.12634442500E+03  0.00000000000E+00 0.  1.
          1   -1    0    0  501    0  0.00000000000E+00 -0.00000000000E+00 -0.11311113884E+03  0.11311113884E+03  0.00000000000E+00 0. -1.
         23    2    1    2    0    0  0.24432886776E+02 -0.46010111772E+02 -0.33581894513E+01  0.13546408221E+03  0.12500137516E+03 0.  0.
          5    1    3    3  502    0  0.28271743467E+02  0.32528749960E+02 -0.29532554469E+02  0.52456389754E+02  0.47000000000E+01 0.  1.
         -5    1    3    3    0  502 -0.38388566906E+01 -0.78538861731E+02  0.26174365018E+02  0.83007692456E+02  0.47000000000E+01 0.  1.
        -11    1    1    2    0    0  0.29077931124E+02  0.33408995047E+01  0.20027027451E+02  0.35465046405E+02  0.00000000000E+00 0.  1.
         11    1    1    2    0    0 -0.53510817900E+02  0.42669212267E+02 -0.34355518452E+01  0.68526435223E+02  0.00000000000E+00 0. -1.
<mgrwt>
<rscale>  0 0.12636234E+03</rscale>
<asrwt>0</asrwt>
<pdfrwt beam="2">  1        1 0.17401714E-01 0.13542245E+03</pdfrwt>
<pdfrwt beam="1">  1       -1 0.19437604E-01 0.13542245E+03</pdfrwt>
<totfact> 0.61493677E+03</totfact>
</mgrwt>
</event>
<event>
 7    1  0.8165933E-006  0.1281487E+03  0.7546771E-02  0.1243911E+00
          1   -1    0    0  501    0  0.00000000000E+00  0.00000000000E+00  0.61177503557E+03  0.61177503557E+03  0.00000000000E+00 0. -1.
         -1   -1    0    0    0  501 -0.00000000000E+00 -0.00000000000E+00 -0.22759113532E+02  0.22759113532E+02  0.00000000000E+00 0.  1.
         23    2    1    2    0    0 -0.24031401914E+02  0.14828384365E+02  0.42621998584E+03  0.44506805790E+03  0.12499884228E+03 0.  0.
          5    1    3    3  502    0  0.30309348990E+02 -0.33414312201E+02  0.86922677488E+02  0.98044962939E+02  0.47000000000E+01 0.  1.
         -5    1    3    3    0  502 -0.54340750904E+02  0.48242696565E+02  0.33929730835E+03  0.34702309496E+03  0.47000000000E+01 0.  1.
        -11    1    1    2    0    0 -0.24600901793E+02  0.16771311359E+02  0.21484257145E+02  0.36715862495E+02  0.00000000000E+00 0.  1.
         11    1    1    2    0    0  0.48632303708E+02 -0.31599695723E+02  0.14131167906E+03  0.15275022871E+03  0.00000000000E+00 0. -1.
<mgrwt>
<rscale>  0 0.11950806E+03</rscale>
<asrwt>0</asrwt>
<pdfrwt beam="1">  1        1 0.94119224E-01 0.12814874E+03</pdfrwt>
<pdfrwt beam="2">  1       -1 0.35014025E-02 0.12814874E+03</pdfrwt>
<totfact> 0.97731924E+03</totfact>
</mgrwt>
</event>
<event>
 7    1  0.8165933E-006  0.1453264E+03  0.7546771E-02  0.1216368E+00
         -3   -1    0    0    0  501 -0.00000000000E+00  0.00000000000E+00  0.27130774128E+03  0.27130774128E+03  0.00000000000E+00 0.  1.
          3   -1    0    0  501    0  0.00000000000E+00 -0.00000000000E+00 -0.64712903257E+02  0.64712903257E+02  0.00000000000E+00 0. -1.
         23    2    1    2    0    0  0.68877158189E+02  0.27590415526E+02  0.92054386092E+02  0.17202843065E+03  0.12495790093E+03 0.  0.
          5    1    3    3  502    0  0.22882058149E+02  0.73100212391E+02  0.68934904949E+02  0.10315687450E+03  0.47000000000E+01 0.  1.
         -5    1    3    3    0  502  0.45995100040E+02 -0.45509796866E+02  0.23119481143E+02  0.68871556152E+02  0.47000000000E+01 0.  1.
        -11    1    1    2    0    0 -0.33685648147E+02 -0.33274364122E+02  0.11899329951E+03  0.12806760530E+03  0.00000000000E+00 0.  1.
         11    1    1    2    0    0 -0.35191510042E+02  0.56839485960E+01 -0.44528475730E+01  0.35924608588E+02  0.00000000000E+00 0. -1.
<mgrwt>
<rscale>  0 0.13776557E+03</rscale>
<asrwt>0</asrwt>
<pdfrwt beam="2">  1        3 0.99558314E-02 0.14532643E+03</pdfrwt>
<pdfrwt beam="1">  1       -3 0.41739652E-01 0.14532643E+03</pdfrwt>
<totfact> 0.99024782E+02</totfact>
</mgrwt>
</event>
<event>
 7    1  0.8165933E-006  0.1411647E+03  0.7546771E-02  0.1223705E+00
          2   -1    0    0  501    0  0.00000000000E+00  0.00000000000E+00  0.38145284770E+02  0.38145284770E+02  0.00000000000E+00 0. -1.
         -2   -1    0    0    0  501 -0.00000000000E+00 -0.00000000000E+00 -0.41321067390E+03  0.41321067390E+03  0.00000000000E+00 0.  1.
         23    2    1    2    0    0  0.31273466073E+02 -0.57638841138E+02 -0.20296165567E+03  0.24722644538E+03  0.12500886342E+03 0.  0.
          5    1    3    3  502    0  0.25434187541E+02 -0.92632526709E+02 -0.18174225362E+03  0.20562105839E+03  0.47000000000E+01 0. -1.
         -5    1    3    3    0  502  0.58392785314E+01  0.34993685571E+02 -0.21219402053E+02  0.41605386997E+02  0.47000000000E+01 0. -1.
        -11    1    1    2    0    0 -0.36111551197E+01  0.30309265324E+02 -0.30665585708E+01  0.30677284548E+02  0.00000000000E+00 0. -1.
         11    1    1    2    0    0 -0.27662310953E+02  0.27329575814E+02 -0.16903717489E+03  0.17345222874E+03  0.00000000000E+00 0.  1.
<mgrwt>
<rscale>  0 0.13256054E+03</rscale>
<asrwt>0</asrwt>
<pdfrwt beam="1">  1        2 0.58685056E-02 0.14116473E+03</pdfrwt>
<pdfrwt beam="2">  1       -2 0.63570870E-01 0.14116473E+03</pdfrwt>
<totfact> 0.28593590E+03</totfact>
</mgrwt>
</event>
<event>
 6    1  0.8165933E-006  0.3757796E+03  0.7546771E-02  0.1097940E+00
          2   -1    0    0  501    0  0.00000000000E+00  0.00000000000E+00  0.83348424654E+03  0.83348424654E+03  0.00000000000E+00 0. -1.
         -2   -1    0    0    0  501 -0.00000000000E+00 -0.00000000000E+00 -0.79740369477E+02  0.79740369477E+02  0.00000000000E+00 0.  1.
          5    1    1    2  502    0  0.12298851317E+03 -0.15252801396E+03  0.30378717449E+03  0.36152414415E+03  0.47000000000E+01 0. -1.
         -5    1    1    2    0  502 -0.14800745716E+03  0.93548747484E+02  0.38901034016E+03  0.42662478864E+03  0.47000000000E+01 0.  1.
        -11    1    1    2    0    0  0.55161564058E+02  0.37539621067E+02  0.19480605688E+02  0.69509102261E+02  0.00000000000E+00 0.  1.
         11    1    1    2    0    0 -0.30142620071E+02  0.21439645412E+02  0.41465756727E+02  0.55566580974E+02  0.00000000000E+00 0. -1.
<mgrwt>
<rscale>  0 0.27591644E+03</rscale>
<asrwt>0</asrwt>
<pdfrwt beam="1">  1        2 0.12822834E+00 0.37577965E+03</pdfrwt>
<pdfrwt beam="2">  1       -2 0.12267750E-01 0.37577965E+03</pdfrwt>
<totfact> 0.16055659E+03</totfact>
</mgrwt>
</event>
<event>
 7    1  0.8165933E-006  0.1433807E+03  0.7546771E-02  0.1218779E+00
          1   -1    0    0  501    0  0.00000000000E+00  0.00000000000E+00  0.16670092317E+04  0.16670092317E+04  0.00000000000E+00 0. -1.
         -1   -1    0    0    0  501 -0.00000000000E+00 -0.00000000000E+00 -0.13115522702E+02  0.13115522702E+02  0.00000000000E+00 0.  1.
         23    2    1    2    0    0  0.51435306480E+02 -0.47834432649E+02  0.12948024277E+04  0.13027169123E+04  0.12499721233E+03 0.  0.
          5    1    3    3  502    0 -0.10006159746E+02 -0.26866182287E+02  0.10160693753E+04  0.10164846189E+04  0.47000000000E+01 0. -1.
         -5    1    3    3    0  502  0.61441466226E+02 -0.20968250361E+02  0.27873305246E+03  0.28623229348E+03  0.47000000000E+01 0. -1.
        -11    1    1    2    0    0 -0.40821450010E+02 -0.21388298258E+02  0.14673872351E+03  0.15380540648E+03  0.00000000000E+00 0.  1.
         11    1    1    2    0    0 -0.10613856470E+02  0.69222730906E+02  0.21235255774E+03  0.22360243559E+03  0.00000000000E+00 0. -1.
<mgrwt>
<rscale>  0 0.13602541E+03</rscale>
<asrwt>0</asrwt>
<pdfrwt beam="1">  1        1 0.25646279E+00 0.14338071E+03</pdfrwt>
<pdfrwt beam="2">  1       -1 0.20177740E-02 0.14338071E+03</pdfrwt>
<totfact> 0.37259572E+03</totfact>
</mgrwt>
</event>
<event>
 7    1  0.8165933E-006  0.1733678E+03  0.7546771E-02  0.1177896E+00
         -3   -1    0    0    0  501 -0.00000000000E+00  0.00000000000E+00  0.18182614211E+03  0.18182614211E+03  0.00000000000E+00 0.  1.
          3   -1    0    0  501    0  0.00000000000E+00 -0.00000000000E+00 -0.22777927644E+03  0.22777927644E+03  0.00000000000E+00 0. -1.
         23    2    1    2    0    0 -0.89581211295E+02 -0.95361896859E+02 -0.14094882714E+03  0.22343449183E+03  0.11374407887E+03 0.  0.
          5    1    3    3  502    0 -0.42301993080E+02 -0.26580462522E+02 -0.12972014071E+03  0.13908768642E+03  0.47000000000E+01 0. -1.
         -5    1    3    3    0  502 -0.47279218215E+02 -0.68781434337E+02 -0.11228686428E+02  0.84346805413E+02  0.47000000000E+01 0.  1.
        -11    1    1    2    0    0  0.77307429427E+02  0.98942090328E+02  0.43146965205E+02  0.13276910970E+03  0.00000000000E+00 0. -1.
         11    1    1    2    0    0  0.12273781868E+02 -0.35801934691E+01  0.51848727610E+02  0.53401817023E+02  0.00000000000E+00 0.  1.
<mgrwt>
<rscale>  0 0.16995402E+03</rscale>
<asrwt>0</asrwt>
<pdfrwt beam="2">  1        3 0.35042965E-01 0.17336782E+03</pdfrwt>
<pdfrwt beam="1">  1       -3 0.27973253E-01 0.17336782E+03</pdfrwt>
<totfact> 0.23542064E+02</totfact>
</mgrwt>
</event>
<event>
 7    1  0.8165933E-006  0.2492791E+03  0.7546771E-02  0.1116200E+00
         -2   -1    0    0    0  501 -0.00000000000E+00  0.00000000000E+00  0.21793786695E+03  0.21793786695E+03  0.00000000000E+00 0.  1.
          2   -1    0    0  501    0  0.00000000000E+00 -0.00000000000E+00 -0.27068688689E+03  0.27068688689E+03  0.00000000000E+00 0. -1.
         23    2    1    2    0    0  0.21176296804E+03 -0.40814504533E+02 -0.49825420678E+02  0.25420987154E+03  0.12502282923E+03 0.  0.
          5    1    3    3  502    0  0.20079290051E+03 -0.27350292847E+01 -0.15311608369E+02  0.20144926069E+03  0.47000000000E+01 0.  1.
         -5    1    3    3    0  502  0.10970067525E+02 -0.38079475249E+02 -0.34513812309E+02  0.52760610846E+02  0.47000000000E+01 0.  1.
        -11    1    1    2    0    0 -0.98949031200E+02  0.10281247003E+02  0.43607667598E+02  0.10861971961E+03  0.00000000000E+00 0.  1.
         11    1    1    2    0    0 -0.11281393684E+03  0.30533257530E+02 -0.46531266860E+02  0.12579516269E+03  0.00000000000E+00 0. -1.
<mgrwt>
<rscale>  0 0.24547219E+03</rscale>
<asrwt>0</asrwt>
<pdfrwt beam="2">  1        2 0.41644136E-01 0.24927913E+03</pdfrwt>
<pdfrwt beam="1">  1       -2 0.33528903E-01 0.24927913E+03</pdfrwt>
<totfact> 0.10179351E+03</totfact>
</mgrwt>
</event>
<event>
 7    1  0.8165933E-006  0.1260081E+03  0.7546771E-02  0.1250972E+00
         -2   -1    0    0    0  501 -0.00000000000E+00  0.00000000000E+00  0.35606668433E+02  0.35606668433E+02  0.00000000000E+00 0.  1.
          2   -1    0    0  501    0  0.00000000000E+00 -0.00000000000E+00 -0.32524620889E+03  0.32524620889E+03  0.00000000000E+00 0. -1.
         23    2    1    2    0    0 -0.40499981048E+01 -0.14799777497E+02 -0.18466906643E+03  0.22356366543E+03  0.12507043019E+03 0.  0.
          5    1    3    3  502    0 -0.64336296107E+02 -0.10424699327E+02 -0.93113585266E+02  0.11375439822E+03  0.47000000000E+01 0. -1.
         -5    1    3    3    0  502  0.60286298002E+02 -0.43750781708E+01 -0.91555481161E+02  0.10980926722E+03  0.47000000000E+01 0. -1.
        -11    1    1    2    0    0 -0.41799045463E+01 -0.30848849639E+02 -0.11950465785E+02  0.33345715744E+02  0.00000000000E+00 0.  1.
         11    1    1    2    0    0  0.82299026511E+01  0.45648627136E+02 -0.93020008247E+02  0.10394349615E+03  0.00000000000E+00 0. -1.
<mgrwt>
<rscale>  0 0.11534954E+03</rscale>
<asrwt>0</asrwt>
<pdfrwt beam="2">  1        2 0.50037878E-01 0.12600813E+03</pdfrwt>
<pdfrwt beam="1">  1       -2 0.54779490E-02 0.12600813E+03</pdfrwt>
<totfact> 0.15904590E+04</totfact>
</mgrwt>
</event>
<event>
 7    1  0.8165933E-006  0.1318550E+03  0.7546771E-02  0.1237697E+00
         -2   -1    0    0    0  501 -0.00000000000E+00  0.00000000000E+00  0.19248611105E+02  0.19248611105E+02  0.00000000000E+00 0.  1.
          2   -1    0    0  501    0  0.00000000000E+00 -0.00000000000E+00 -0.76481598340E+03  0.76481598340E+03  0.00000000000E+00 0. -1.
         23    2    1    2    0    0 -0.18946227504E+02 -0.37436124816E+02 -0.52816041516E+03  0.54437043799E+03  0.12500130657E+03 0.  0.
          5    1    3    3  502    0  0.26066686172E+02  0.92464824885E+01 -0.39688733928E+03  0.39787764406E+03  0.47000000000E+01 0.  1.
         -5    1    3    3    0  502 -0.45012913676E+02 -0.46682607304E+02 -0.13127307588E+03  0.14649279393E+03  0.47000000000E+01 0.  1.
        -11    1    1    2    0    0 -0.20946750294E+02 -0.19284034420E+02 -0.93066874420E+02  0.97324629183E+02  0.00000000000E+00 0. -1.
         11    1    1    2    0    0  0.39892977798E+02  0.56720159236E+02 -0.12434008271E+03  0.14236952732E+03  0.00000000000E+00 0.  1.
<mgrwt>
<rscale>  0 0.12333349E+03</rscale>
<asrwt>0</asrwt>
<pdfrwt beam="2">  1        2 0.11766401E+00 0.13185503E+03</pdfrwt>
<pdfrwt beam="1">  1       -2 0.29613245E-02 0.13185503E+03</pdfrwt>
<totfact> 0.15411687E+04</totfact>
</mgrwt>
</event>
<event>
 7    1  0.8165933E-006  0.1358634E+03  0.7546771E-02  0.1231098E+00
         -2   -1    0    0    0  501 -0.00000000000E+00  0.00000000000E+00  0.11860758285E+02  0.11860758285E+02  0.00000000000E+00 0.  1.
          2   -1    0    0  501    0  0.00000000000E+00 -0.00000000000E+00 -0.16766010384E+04  0.16766010384E+04  0.00000000000E+00 0. -1.
         23    2    1    2    0    0  0.14883881548E+02  0.51178693906E+02 -0.13423875398E+04  0.13492454123E+04  0.12497234553E+03 0.  0.
          5    1    3    3  502    0 -0.40034334110E+02  0.34568614556E+02 -0.26210473733E+03  0.26742984192E+03  0.47000000000E+01 0. -1.
         -5    1    3    3    0  502  0.54918215658E+02  0.16610079350E+02 -0.10802828024E+04  0.10818155704E+04  0.47000000000E+01 0. -1.
        -11    1    1    2    0    0 -0.72088778630E+01  0.22682177389E+02 -0.34318175271E+02  0.41763455856E+02  0.00000000000E+00 0. -1.
         11    1    1    2    0    0 -0.76750036850E+01 -0.73860871295E+02 -0.28803456509E+03  0.29745292850E+03  0.00000000000E+00 0.  1.
<mgrwt>
<rscale>  0 0.12757565E+03</rscale>
<asrwt>0</asrwt>
<pdfrwt beam="2">  1        2 0.25793846E+00 0.13586345E+03</pdfrwt>
<pdfrwt beam="1">  1       -2 0.18247332E-02 0.13586345E+03</pdfrwt>
<totfact> 0.95188996E+03</totfact>
</mgrwt>
</event>
<event>
 7    1  0.8165933E-006  0.1289213E+03  0.7546771E-02  0.1243788E+00
         -2   -1    0    0    0  501 -0.00000000000E+00  0.00000000000E+00  0.13756937737E+02  0.13756937737E+02  0.00000000000E+00 0.  1.
          2   -1    0    0  501    0  0.00000000000E+00 -0.00000000000E+00 -0.10769960652E+04  0.10769960652E+04  0.00000000000E+00 0. -1.
         23    2    1    2    0    0 -0.21847854182E+02 -0.22770681908E+02 -0.80871751158E+03  0.81892900601E+03  0.12499948263E+03 0.  0.
          5    1    3    3  502    0  0.19773503803E+02 -0.46961120122E+02 -0.15098806520E+03  0.15942341135E+03  0.47000000000E+01 0. -1.
         -5    1    3    3    0  502 -0.41621357984E+02  0.24190438214E+02 -0.65772944638E+03  0.65950559466E+03  0.47000000000E+01 0. -1.
        -11    1    1    2    0    0  0.54103558991E+02  0.61782347250E+01 -0.19167871507E+03  0.19926388406E+03  0.00000000000E+00 0.  1.
         11    1    1    2    0    0 -0.32255704810E+02  0.16592447183E+02 -0.62842900783E+02  0.72560112838E+02  0.00000000000E+00 0. -1.
<mgrwt>
<rscale>  0 0.11958195E+03</rscale>
<asrwt>0</asrwt>
<pdfrwt beam="2">  1        2 0.16569168E+00 0.12892131E+03</pdfrwt>
<pdfrwt beam="1">  1       -2 0.21164522E-02 0.12892131E+03</pdfrwt>
<totfact> 0.16020299E+04</totfact>
</mgrwt>
</event>
<event>
 7    1  0.8165933E-006  0.1343522E+03  0.7546771E-02  0.1230140E+00
         -2   -1    0    0    0  501 -0.00000000000E+00  0.00000000000E+00  0.13842453175E+03  0.13842453175E+03  0.00000000000E+00 0.  1.
          2   -1    0    0  501    0  0.00000000000E+00 -0.00000000000E+00 -0.11169319341E+03  0.11169319341E+03  0.00000000000E+00 0. -1.
         23    2    1    2    0    0 -0.40178630853E+02  0.28824987569E+02 -0.44555137458E+01  0.13442605234E+03  0.12492121380E+03 0.  0.
          5    1    3    3  502    0 -0.65374935771E+02  0.39580735446E+02 -0.42296324227E+02  0.87473343875E+02  0.47000000000E+01 0.  1.
         -5    1    3    3    0  502  0.25196304918E+02 -0.10755747877E+02  0.37840810481E+02  0.46952708461E+02  0.47000000000E+01 0.  1.
        -11    1    1    2    0    0  0.55951979394E+02 -0.46675300602E+00  0.52614299892E+02  0.76805640480E+02  0.00000000000E+00 0.  1.
         11    1    1    2    0    0 -0.15773348542E+02 -0.28358234563E+02 -0.21427447805E+02  0.38886032340E+02  0.00000000000E+00 0. -1.
<mgrwt>
<rscale>  0 0.12820753E+03</rscale>
<asrwt>0</asrwt>
<pdfrwt beam="2">  1        2 0.17183568E-01 0.13435219E+03</pdfrwt>
<pdfrwt beam="1">  1       -2 0.21296082E-01 0.13435219E+03</pdfrwt>
<totfact> 0.59338622E+03</totfact>
</mgrwt>
</event>
<event>
 7    1  0.8165933E-006  0.1551986E+03  0.7546771E-02  0.1202184E+00
         -1   -1    0    0    0  501 -0.00000000000E+00  0.00000000000E+00  0.54070173676E+03  0.54070173676E+03  0.00000000000E+00 0.  1.
          1   -1    0    0  501    0  0.00000000000E+00 -0.00000000000E+00 -0.41196278097E+02  0.41196278097E+02  0.00000000000E+00 0. -1.
         23    2    1    2    0    0 -0.91853026116E+02 -0.43543732704E+01  0.18553373966E+03  0.24188708193E+03  0.12502260947E+03 0.  0.
          5    1    3    3  502    0  0.28376453077E+02  0.80178755547E+01  0.62960425036E+02  0.69682239762E+02  0.47000000000E+01 0.  1.
         -5    1    3    3    0  502 -0.12022947919E+03 -0.12372248825E+02  0.12257331462E+03  0.17220484217E+03  0.47000000000E+01 0.  1.
        -11    1    1    2    0    0  0.52620723653E+02  0.32181532911E+02  0.79319364361E+02  0.10047961575E+03  0.00000000000E+00 0. -1.
         11    1    1    2    0    0  0.39232302463E+02 -0.27827159641E+02  0.23465235465E+03  0.23953131718E+03  0.00000000000E+00 0.  1.
<mgrwt>
<rscale>  0 0.14861581E+03</rscale>
<asrwt>0</asrwt>
<pdfrwt beam="2">  1        1 0.63378893E-02 0.15519856E+03</pdfrwt>
<pdfrwt beam="1">  1       -1 0.83184877E-01 0.15519856E+03</pdfrwt>
<totfact> 0.17629383E+03</totfact>
</mgrwt>
</event>
<event>
 6    1  0.8165933E-006  0.6321882E+03  0.7546771E-02  0.1048255E+00
         -2   -1    0    0    0  501 -0.00000000000E+00  0.00000000000E+00  0.55416230668E+03  0.55416230668E+03  0.00000000000E+00 0.  1.
          2   -1    0    0  501    0  0.00000000000E+00 -0.00000000000E+00 -0.24731916553E+03  0.24731916553E+03  0.00000000000E+00 0. -1.
          5    1    1    2  502    0 -0.16008520346E+03 -0.21843516425E+03  0.27363206966E+02  0.27223524468E+03  0.47000000000E+01 0. -1.
         -5    1    1    2    0  502  0.23540592205E+03  0.25950693611E+03  0.17414961898E+03  0.39129270095E+03  0.47000000000E+01 0.  1.
        -11    1    1    2    0    0 -0.14172368989E+02  0.18750108977E+01  0.18967595669E+02  0.23751660870E+02  0.00000000000E+00 0.  1.
         11    1    1    2    0    0 -0.61148349608E+02 -0.42946782756E+02  0.86362719526E+02  0.11420186571E+03  0.00000000000E+00 0. -1.
<mgrwt>
<rscale>  0 0.38733771E+03</rscale>
<asrwt>0</asrwt>
<pdfrwt beam="2">  1        2 0.38049102E-01 0.63218820E+03</pdfrwt>
<pdfrwt beam="1">  1       -2 0.85255740E-01 0.63218820E+03</pdfrwt>
<totfact> 0.16509239E+02</totfact>
</mgrwt>
</event>
<event>
 7    1  0.8165933E-006  0.1390115E+03  0.7546771E-02  0.1225887E+00
         -1   -1    0    0    0  501 -0.00000000000E+00  0.00000000000E+00  0.36345293189E+02  0.36345293189E+02  0.00000000000E+00 0.  1.
          1   -1    0    0  501    0  0.00000000000E+00 -0.00000000000E+00 -0.42597870365E+03  0.42597870365E+03  0.00000000000E+00 0. -1.
         23    2    1    2    0    0  0.60526409163E+02 -0.57397413773E+01 -0.21679910840E+03  0.25753846500E+03  0.12501126635E+03 0.  0.
          5    1    3    3  502    0  0.57777441728E+02  0.42533694995E+02 -0.18748770370E+03  0.20080108820E+03  0.47000000000E+01 0.  1.
         -5    1    3    3    0  502  0.27489674350E+01 -0.48273436372E+02 -0.29311404703E+02  0.56737376805E+02  0.47000000000E+01 0.  1.
        -11    1    1    2    0    0 -0.41853707525E+02 -0.33165540610E+02 -0.44899741379E+02  0.69768708555E+02  0.00000000000E+00 0.  1.
         11    1    1    2    0    0 -0.18672701638E+02  0.38905281987E+02 -0.12793456067E+03  0.13501682328E+03  0.00000000000E+00 0. -1.
<mgrwt>
<rscale>  0 0.13106325E+03</rscale>
<asrwt>0</asrwt>
<pdfrwt beam="2">  1        1 0.65535180E-01 0.13901154E+03</pdfrwt>
<pdfrwt beam="1">  1       -1 0.55915840E-02 0.13901154E+03</pdfrwt>
<totfact> 0.79296636E+03</totfact>
</mgrwt>
</event>
<event>
 7    1  0.8165933E-006  0.1353107E+03  0.7546771E-02  0.1232022E+00
         -4   -1    0    0    0  501 -0.00000000000E+00  0.00000000000E+00  0.11395684804E+03  0.11395684804E+03  0.00000000000E+00 0.  1.
          4   -1    0    0  501    0  0.00000000000E+00 -0.00000000000E+00 -0.19395472990E+03  0.19395472990E+03  0.00000000000E+00 0. -1.
         23    2    1    2    0    0  0.51597493120E+02 -0.44154366741E+01 -0.13355621350E+03  0.19012169922E+03  0.12500880358E+03 0.  0.
          5    1    3    3  502    0 -0.30976781127E+02 -0.28566394772E+02 -0.74313190642E+02  0.85557817776E+02  0.47000000000E+01 0. -1.
         -5    1    3    3    0  502  0.82574274247E+02  0.24150958098E+02 -0.59243022858E+02  0.10456388144E+03  0.47000000000E+01 0. -1.
        -11    1    1    2    0    0 -0.36541675159E+02 -0.32851995395E+02 -0.20447087823E+01  0.49180569933E+02  0.00000000000E+00 0. -1.
         11    1    1    2    0    0 -0.15055817961E+02  0.37267432070E+02  0.55603040427E+02  0.68609308787E+02  0.00000000000E+00 0.  1.
<mgrwt>
<rscale>  0 0.12697047E+03</rscale>
<asrwt>0</asrwt>
<pdfrwt beam="2">  1        4 0.29839189E-01 0.13531075E+03</pdfrwt>
<pdfrwt beam="1">  1       -4 0.17531823E-01 0.13531075E+03</pdfrwt>
<totfact> 0.50911908E+02</totfact>
</mgrwt>
</event>
<event>
 6    1  0.8165933E-006  0.1360071E+03  0.7546771E-02  0.1237762E+00
         -4   -1    0    0    0  501 -0.00000000000E+00  0.00000000000E+00  0.82823433511E+02  0.82823433511E+02  0.00000000000E+00 0.  1.
          4   -1    0    0  501    0  0.00000000000E+00 -0.00000000000E+00 -0.15755421122E+03  0.15755421122E+03  0.00000000000E+00 0. -1.
          5    1    1    2  502    0 -0.41352821399E+02  0.14860032817E+02 -0.87979905738E+02  0.98455219398E+02  0.47000000000E+01 0. -1.
         -5    1    1    2    0  502  0.29502491463E+02 -0.12728918782E+02  0.34782955639E+02  0.47585358871E+02  0.47000000000E+01 0.  1.
        -11    1    1    2    0    0 -0.47484120179E+01 -0.44791379132E+02 -0.36433622332E+01  0.45189480519E+02  0.00000000000E+00 0.  1.
         11    1    1    2    0    0  0.16598741954E+02  0.42660265097E+02 -0.17890465374E+02  0.49147585942E+02  0.00000000000E+00 0. -1.
<mgrwt>
<rscale>  0 0.12329255E+03</rscale>
<asrwt>0</asrwt>
<pdfrwt beam="2">  1        4 0.24239109E-01 0.13600711E+03</pdfrwt>
<pdfrwt beam="1">  1       -4 0.12742067E-01 0.13600711E+03</pdfrwt>
<totfact> 0.13104464E+03</totfact>
</mgrwt>
</event>
<event>
 7    1  0.8165933E-006  0.1314997E+03  0.7546771E-02  0.1238958E+00
          2   -1    0    0  501    0  0.00000000000E+00  0.00000000000E+00  0.41193647038E+03  0.41193647038E+03  0.00000000000E+00 0.  1.
         -2   -1    0    0    0  501 -0.00000000000E+00 -0.00000000000E+00 -0.32727672026E+02  0.32727672026E+02  0.00000000000E+00 0. -1.
         23    2    1    2    0    0 -0.26860529624E+01 -0.40750609797E+02  0.24120762499E+03  0.27472402743E+03  0.12499738325E+03 0.  0.
          5    1    3    3  502    0  0.18529549178E+02  0.98375348469E+01  0.21067071657E+03  0.21176487458E+03  0.47000000000E+01 0.  1.
         -5    1    3    3    0  502 -0.21215602141E+02 -0.50588144643E+02  0.30536908413E+02  0.62959152854E+02  0.47000000000E+01 0.  1.
        -11    1    1    2    0    0  0.89620853687E+00  0.28510753993E+02  0.15001107861E+03  0.15269901764E+03  0.00000000000E+00 0.  1.
         11    1    1    2    0    0  0.17898444255E+01  0.12239855804E+02 -0.12009905244E+02  0.17241097329E+02  0.00000000000E+00 0. -1.
<mgrwt>
<rscale>  0 0.12254403E+03</rscale>
<asrwt>0</asrwt>
<pdfrwt beam="1">  1        2 0.63374838E-01 0.13149971E+03</pdfrwt>
<pdfrwt beam="2">  1       -2 0.50350267E-02 0.13149971E+03</pdfrwt>
<totfact> 0.14096700E+04</totfact>
</mgrwt>
</event>
<event>
 7    1  0.8165933E-006  0.1460680E+03  0.7546771E-02  0.1215616E+00
         -1   -1    0    0    0  501 -0.00000000000E+00  0.00000000000E+00  0.57782860689E+03  0.57782860689E+03  0.00000000000E+00 0.  1.
          1   -1    0    0  501    0  0.00000000000E+00 -0.00000000000E+00 -0.30131759953E+02  0.30131759953E+02  0.00000000000E+00 0. -1.
         23    2    1    2    0    0 -0.89134439804E+00 -0.75562050872E+02  0.32011078168E+03  0.35186186970E+03  0.12500177909E+03 0.  0.
          5    1    3    3  502    0 -0.56826144684E+02 -0.14388751146E+02  0.17577178810E+03  0.18534847820E+03  0.47000000000E+01 0. -1.
         -5    1    3    3    0  502  0.55934800286E+02 -0.61173299725E+02  0.14433899358E+03  0.16651339150E+03  0.47000000000E+01 0. -1.
        -11    1    1    2    0    0  0.43977354069E+02  0.25044770549E+02  0.10940814672E+03  0.12054621841E+03  0.00000000000E+00 0.  1.
         11    1    1    2    0    0 -0.43086009671E+02  0.50517280323E+02  0.11817791854E+03  0.13555227874E+03  0.00000000000E+00 0. -1.
<mgrwt>
<rscale>  0 0.13831392E+03</rscale>
<asrwt>0</asrwt>
<pdfrwt beam="2">  1        1 0.46356558E-02 0.14606801E+03</pdfrwt>
<pdfrwt beam="1">  1       -1 0.88896701E-01 0.14606801E+03</pdfrwt>
<totfact> 0.23455455E+03</totfact>
</mgrwt>
</event>
<event>
 7    1  0.8165933E-006  0.1460789E+03  0.7546771E-02  0.1215343E+00
         -3   -1    0    0    0  501 -0.00000000000E+00  0.00000000000E+00  0.41580740423E+03  0.41580740423E+03  0.00000000000E+00 0.  1.
          3   -1    0    0  501    0  0.00000000000E+00 -0.00000000000E+00 -0.48396483183E+02  0.48396483183E+02  0.00000000000E+00 0. -1.
         23    2    1    2    0    0  0.67999317858E+02  0.32945154239E+02  0.11633279350E+03  0.18674143574E+03  0.12501901681E+03 0.  0.
          5    1    3    3  502    0  0.59624689479E+01  0.61821977724E+02  0.97354574597E+02  0.11557469948E+03  0.47000000000E+01 0.  1.
         -5    1    3    3    0  502  0.62036848911E+02 -0.28876823485E+02  0.18978218900E+02  0.71166736261E+02  0.47000000000E+01 0.  1.
        -11    1    1    2    0    0 -0.31317602478E+02  0.14872520609E+02  0.23118143052E+02  0.41670524743E+02  0.00000000000E+00 0. -1.
         11    1    1    2    0    0 -0.36681715381E+02 -0.47817674848E+02  0.22795998449E+03  0.23579192692E+03  0.00000000000E+00 0.  1.
<mgrwt>
<rscale>  0 0.13851400E+03</rscale>
<asrwt>0</asrwt>
<pdfrwt beam="2">  1        3 0.74456131E-02 0.14607890E+03</pdfrwt>
<pdfrwt beam="1">  1       -3 0.63970367E-01 0.14607890E+03</pdfrwt>
<totfact> 0.67570961E+02</totfact>
</mgrwt>
</event>
<event>
 6    1  0.8165933E-006  0.2382031E+03  0.7546771E-02  0.1152344E+00
          1   -1    0    0  501    0  0.00000000000E+00  0.00000000000E+00  0.15458448599E+03  0.15458448599E+03  0.00000000000E+00 0. -1.
         -1   -1    0    0    0  501 -0.00000000000E+00 -0.00000000000E+00 -0.40987844272E+03  0.40987844272E+03  0.00000000000E+00 0.  1.
          5    1    1    2  502    0 -0.66132642372E+02  0.42918564904E+02  0.10748510134E+03  0.13338165770E+03  0.47000000000E+01 0. -1.
         -5    1    1    2    0  502  0.88744480302E+02  0.18646058123E+02 -0.60898522801E+02  0.10933425057E+03  0.47000000000E+01 0.  1.
        -11    1    1    2    0    0 -0.48559168032E+02 -0.68475602849E+02 -0.21481184995E+03  0.23063181017E+03  0.00000000000E+00 0.  1.
         11    1    1    2    0    0  0.25947330101E+02  0.69109798211E+01 -0.87068685310E+02  0.91115210273E+02  0.00000000000E+00 0. -1.
<mgrwt>
<rscale>  0 0.19694334E+03</rscale>
<asrwt>0</asrwt>
<pdfrwt beam="1">  1        1 0.23782229E-01 0.23820307E+03</pdfrwt>
<pdfrwt beam="2">  1       -1 0.63058221E-01 0.23820307E+03</pdfrwt>
<totfact> 0.53990306E+02</totfact>
</mgrwt>
</event>
<event>
 6    1  0.8165933E-006  0.2225872E+03  0.7546771E-02  0.1149551E+00
          2   -1    0    0  501    0  0.00000000000E+00  0.00000000000E+00  0.13089744827E+04  0.13089744827E+04  0.00000000000E+00 0. -1.
         -2   -1    0    0    0  501 -0.00000000000E+00 -0.00000000000E+00 -0.72365556503E+02  0.72365556503E+02  0.00000000000E+00 0.  1.
          5    1    1    2  502    0 -0.98574360463E+02 -0.18958524227E+02  0.11509515121E+04  0.11553301707E+04  0.47000000000E+01 0. -1.
         -5    1    1    2    0  502 -0.10350409725E+02  0.45922932596E+02  0.62600903825E+02  0.78466616337E+02  0.47000000000E+01 0.  1.
        -11    1    1    2    0    0  0.95474367531E+02 -0.56287535242E+02  0.29399929653E+02  0.11466471708E+03  0.00000000000E+00 0. -1.
         11    1    1    2    0    0  0.13450402656E+02  0.29323126874E+02 -0.63434193455E+01  0.32878535099E+02  0.00000000000E+00 0.  1.
<mgrwt>
<rscale>  0 0.20022245E+03</rscale>
<asrwt>0</asrwt>
<pdfrwt beam="1">  1        2 0.20138067E+00 0.22258716E+03</pdfrwt>
<pdfrwt beam="2">  1       -2 0.11133164E-01 0.22258716E+03</pdfrwt>
<totfact> 0.97366160E+02</totfact>
</mgrwt>
</event>
<event>
 7    1  0.8165933E-006  0.2337470E+03  0.7546771E-02  0.1126946E+00
         -2   -1    0    0    0  501 -0.00000000000E+00  0.00000000000E+00  0.52480848701E+02  0.52480848701E+02  0.00000000000E+00 0.  1.
          2   -1    0    0  501    0  0.00000000000E+00 -0.00000000000E+00 -0.10347196975E+04  0.10347196975E+04  0.00000000000E+00 0. -1.
         23    2    1    2    0    0  0.34802050702E+02 -0.19442705446E+03 -0.64376318594E+03  0.68488589992E+03  0.12499837638E+03 0.  0.
          5    1    3    3  502    0  0.58090426743E+01 -0.28851819594E+02 -0.13761139284E+02  0.32827296950E+02  0.47000000000E+01 0. -1.
         -5    1    3    3    0  502  0.28993008028E+02 -0.16557523486E+03 -0.63000204666E+03  0.65205860297E+03  0.47000000000E+01 0. -1.
        -11    1    1    2    0    0  0.96964899907E+01  0.98445415834E+02 -0.23203098483E+03  0.25223778412E+03  0.00000000000E+00 0. -1.
         11    1    1    2    0    0 -0.44498540693E+02  0.95981638622E+02 -0.10644467804E+03  0.15007686217E+03  0.00000000000E+00 0.  1.
<mgrwt>
<rscale>  0 0.22956580E+03</rscale>
<asrwt>0</asrwt>
<pdfrwt beam="2">  1        2 0.15918762E+00 0.23374699E+03</pdfrwt>
<pdfrwt beam="1">  1       -2 0.80739779E-02 0.23374699E+03</pdfrwt>
<totfact> 0.23246025E+03</totfact>
</mgrwt>
</event>
<event>
 7    1  0.8165933E-006  0.1371861E+03  0.7546771E-02  0.1227481E+00
          1   -1    0    0  501    0  0.00000000000E+00  0.00000000000E+00  0.20322140219E+03  0.20322140219E+03  0.00000000000E+00 0. -1.
         -1   -1    0    0    0  501 -0.00000000000E+00 -0.00000000000E+00 -0.92302092362E+02  0.92302092362E+02  0.00000000000E+00 0.  1.
         23    2    1    2    0    0  0.55882229651E+02  0.85521424409E+01  0.12306232383E+03  0.18429419810E+03  0.12499621264E+03 0.  0.
          5    1    3    3  502    0  0.15558330955E+02 -0.10091169788E+02  0.13635105537E+03  0.13768657766E+03  0.47000000000E+01 0.  1.
         -5    1    3    3    0  502  0.40323898696E+02  0.18643312229E+02 -0.13288731534E+02  0.46607620436E+02  0.47000000000E+01 0.  1.
        -11    1    1    2    0    0 -0.27590655929E+02  0.16679174473E+02 -0.48805253101E+02  0.58492665231E+02  0.00000000000E+00 0.  1.
         11    1    1    2    0    0 -0.28291573723E+02 -0.25231316914E+02  0.36662239098E+02  0.52736631221E+02  0.00000000000E+00 0. -1.
<mgrwt>
<rscale>  0 0.12998295E+03</rscale>
<asrwt>0</asrwt>
<pdfrwt beam="1">  1        1 0.31264831E-01 0.13718606E+03</pdfrwt>
<pdfrwt beam="2">  1       -1 0.14200322E-01 0.13718606E+03</pdfrwt>
<totfact> 0.48288786E+03</totfact>
</mgrwt>
</event>
<event>
 6    1  0.8165933E-006  0.1960816E+03  0.7546771E-02  0.1169437E+00
         -1   -1    0    0    0  501 -0.00000000000E+00  0.00000000000E+00  0.49388761512E+02  0.49388761512E+02  0.00000000000E+00 0.  1.
          1   -1    0    0  501    0  0.00000000000E+00 -0.00000000000E+00 -0.11314998844E+04  0.11314998844E+04  0.00000000000E+00 0. -1.
          5    1    1    2  502    0 -0.79665377380E+01  0.11042713037E+03 -0.65345031908E+03  0.66277977214E+03  0.47000000000E+01 0. -1.
         -5    1    1    2    0  502  0.26635051494E+02 -0.78428367408E+02 -0.35605692215E+03  0.36559411455E+03  0.47000000000E+01 0.  1.
        -11    1    1    2    0    0 -0.35937501677E+01 -0.63707781926E+02  0.82754665650E+01  0.64343452387E+02  0.00000000000E+00 0.  1.
         11    1    1    2    0    0 -0.15074763588E+02  0.31709018968E+02 -0.80879348230E+02  0.88171306848E+02  0.00000000000E+00 0. -1.
<mgrwt>
<rscale>  0 0.17832193E+03</rscale>
<asrwt>0</asrwt>
<pdfrwt beam="2">  1        1 0.17407688E+00 0.19608157E+03</pdfrwt>
<pdfrwt beam="1">  1       -1 0.75982721E-02 0.19608157E+03</pdfrwt>
<totfact> 0.11967078E+03</totfact>
</mgrwt>
</event>
<event>
 7    1  0.8165933E-006  0.1342518E+03  0.7546771E-02  0.1233264E+00
         -2   -1    0    0    0  501 -0.00000000000E+00  0.00000000000E+00  0.46304858392E+03  0.46304858392E+03  0.00000000000E+00 0.  1.
          2   -1    0    0  501    0  0.00000000000E+00 -0.00000000000E+00 -0.32870444496E+02  0.32870444496E+02  0.00000000000E+00 0. -1.
         23    2    1    2    0    0  0.44720557732E+00 -0.48986392483E+02  0.17867053214E+03  0.22348760852E+03  0.12499474175E+03 0.  0.
          5    1    3    3  502    0  0.30495260069E+02 -0.17765067892E+02 -0.38716781882E+01  0.35813941641E+02  0.47000000000E+01 0.  1.
         -5    1    3    3    0  502 -0.30048054491E+02 -0.31221324591E+02  0.18254221033E+03  0.18767366688E+03  0.47000000000E+01 0.  1.
        -11    1    1    2    0    0  0.25219007207E+02  0.52954998046E+02  0.23368401068E+03  0.24093245317E+03  0.00000000000E+00 0.  1.
         11    1    1    2    0    0 -0.25666212784E+02 -0.39686055629E+01  0.17823596596E+02  0.31498966720E+02  0.00000000000E+00 0. -1.
<mgrwt>
<rscale>  0 0.12616252E+03</rscale>
<asrwt>0</asrwt>
<pdfrwt beam="2">  1        2 0.50569918E-02 0.13425182E+03</pdfrwt>
<pdfrwt beam="1">  1       -2 0.71238239E-01 0.13425182E+03</pdfrwt>
<totfact> 0.27200325E+03</totfact>
</mgrwt>
</event>
<event>
 6    1  0.8165933E-006  0.1604576E+03  0.7546771E-02  0.1209977E+00
          2   -1    0    0  501    0  0.00000000000E+00  0.00000000000E+00  0.65409953755E+03  0.65409953755E+03  0.00000000000E+00 0. -1.
         -2   -1    0    0    0  501 -0.00000000000E+00 -0.00000000000E+00 -0.71723345764E+02  0.71723345764E+02  0.00000000000E+00 0.  1.
          5    1    1    2  502    0 -0.17047945701E+02 -0.38631651971E+02  0.39853794131E+03  0.40079622959E+03  0.47000000000E+01 0. -1.
         -5    1    1    2    0  502  0.77525012783E+02  0.44419028366E+02  0.20434437377E+03  0.22307373395E+03  0.47000000000E+01 0.  1.
        -11    1    1    2    0    0 -0.16814160984E+02 -0.36056446778E+02  0.95462497593E+01  0.40913497141E+02  0.00000000000E+00 0.  1.
         11    1    1    2    0    0 -0.43662906098E+02  0.30269070383E+02 -0.30052373046E+02  0.61039422642E+02  0.00000000000E+00 0. -1.
<mgrwt>
<rscale>  0 0.14252083E+03</rscale>
<asrwt>0</asrwt>
<pdfrwt beam="1">  1        2 0.10063069E+00 0.16045761E+03</pdfrwt>
<pdfrwt beam="2">  1       -2 0.11034361E-01 0.16045761E+03</pdfrwt>
<totfact> 0.25422428E+03</totfact>
</mgrwt>
</event>
<event>
 7    1  0.8165933E-006  0.1326336E+03  0.7546771E-02  0.1236660E+00
          4   -1    0    0  501    0  0.00000000000E+00  0.00000000000E+00  0.87046556562E+03  0.87046556562E+03  0.00000000000E+00 0. -1.
         -4   -1    0    0    0  501 -0.00000000000E+00 -0.00000000000E+00 -0.33882773676E+02  0.33882773676E+02  0.00000000000E+00 0.  1.
         23    2    1    2    0    0  0.44063612749E+02  0.50721632293E+01  0.77401060531E+03  0.78529235063E+03  0.12499732001E+03 0.  0.
          5    1    3    3  502    0  0.50469729586E+01 -0.57749360047E+02  0.31140791801E+03  0.31679242718E+03  0.47000000000E+01 0. -1.
         -5    1    3    3    0  502  0.39016639791E+02  0.62821523276E+02  0.46260268731E+03  0.46849992345E+03  0.47000000000E+01 0. -1.
        -11    1    1    2    0    0 -0.59565119533E+02  0.41682259438E+01  0.75935623418E+02  0.96600188801E+02  0.00000000000E+00 0. -1.
         11    1    1    2    0    0  0.15501506784E+02 -0.92403891731E+01 -0.13363436790E+02  0.22455799863E+02  0.00000000000E+00 0.  1.
<mgrwt>
<rscale>  0 0.12398765E+03</rscale>
<asrwt>0</asrwt>
<pdfrwt beam="1">  1        4 0.13391776E+00 0.13263355E+03</pdfrwt>
<pdfrwt beam="2">  1       -4 0.52127351E-02 0.13263355E+03</pdfrwt>
<totfact> 0.15798857E+02</totfact>
</mgrwt>
</event>
<event>
 7    1  0.8165933E-006  0.1583844E+03  0.7546771E-02  0.1198571E+00
          2   -1    0    0  501    0  0.00000000000E+00  0.00000000000E+00  0.59872849112E+03  0.59872849112E+03  0.00000000000E+00 0. -1.
         -2   -1    0    0    0  501 -0.00000000000E+00 -0.00000000000E+00 -0.36007890703E+02  0.36007890703E+02  0.00000000000E+00 0.  1.
         23    2    1    2    0    0  0.90882618000E+02  0.34655575980E+02  0.26466321433E+03  0.30843513839E+03  0.12499983350E+03 0.  0.
          5    1    3    3  502    0  0.76311767835E+02  0.47576584573E+02  0.73536827297E+02  0.11626165438E+03  0.47000000000E+01 0.  1.
         -5    1    3    3    0  502  0.14570850165E+02 -0.12921008594E+02  0.19112638703E+03  0.19217348401E+03  0.47000000000E+01 0.  1.
        -11    1    1    2    0    0 -0.30881382463E+02  0.29828309399E+02  0.12406598677E+03  0.13128502160E+03  0.00000000000E+00 0.  1.
         11    1    1    2    0    0 -0.60001235537E+02 -0.64483885379E+02  0.17399139932E+03  0.19501622183E+03  0.00000000000E+00 0. -1.
<mgrwt>
<rscale>  0 0.15155807E+03</rscale>
<asrwt>0</asrwt>
<pdfrwt beam="1">  1        2 0.92112068E-01 0.15838440E+03</pdfrwt>
<pdfrwt beam="2">  1       -2 0.55396759E-02 0.15838440E+03</pdfrwt>
<totfact> 0.81884551E+03</totfact>
</mgrwt>
</event>
<event>
 7    1  0.8165933E-006  0.1475492E+03  0.7546771E-02  0.1213269E+00
         -2   -1    0    0    0  501 -0.00000000000E+00  0.00000000000E+00  0.17220933446E+02  0.17220933446E+02  0.00000000000E+00 0.  1.
          2   -1    0    0  501    0  0.00000000000E+00 -0.00000000000E+00 -0.10402685252E+04  0.10402685252E+04  0.00000000000E+00 0. -1.
         23    2    1    2    0    0 -0.62101322726E+01 -0.78148270152E+02 -0.53598689448E+03  0.55592509546E+03  0.12500017136E+03 0.  0.
          5    1    3    3  502    0 -0.37196635721E+02  0.13599231741E+02 -0.26775566482E+03  0.27070965046E+03  0.47000000000E+01 0.  1.
         -5    1    3    3    0  502  0.30986503449E+02 -0.91747501893E+02 -0.26823122966E+03  0.28521544500E+03  0.47000000000E+01 0.  1.
        -11    1    1    2    0    0  0.53136824690E+01  0.95829294910E+02 -0.45428669664E+03  0.46431443197E+03  0.00000000000E+00 0.  1.
         11    1    1    2    0    0  0.89644980360E+00 -0.17681024758E+02 -0.32774000681E+02  0.37249931267E+02  0.00000000000E+00 0. -1.
<mgrwt>
<rscale>  0 0.14004457E+03</rscale>
<asrwt>0</asrwt>
<pdfrwt beam="2">  1        2 0.16004132E+00 0.14754918E+03</pdfrwt>
<pdfrwt beam="1">  1       -2 0.26493742E-02 0.14754918E+03</pdfrwt>
<totfact> 0.12227536E+04</totfact>
</mgrwt>
</event>
<event>
 7    1  0.8165933E-006  0.2397007E+03  0.7546771E-02  0.1122705E+00
          1   -1    0    0  501    0  0.00000000000E+00  0.00000000000E+00  0.15514512482E+04  0.15514512482E+04  0.00000000000E+00 0. -1.
         -1   -1    0    0    0  501 -0.00000000000E+00 -0.00000000000E+00 -0.64889382688E+02  0.64889382688E+02  0.00000000000E+00 0.  1.
         23    2    1    2    0    0 -0.17412944767E+03  0.10727605226E+03  0.13082343803E+04  0.13300126312E+04  0.12500875750E+03 0.  0.
          5    1    3    3  502    0 -0.15499181809E+03  0.27497479409E+02  0.87140028012E+03  0.88551629756E+03  0.47000000000E+01 0. -1.
         -5    1    3    3    0  502 -0.19137629583E+02  0.79778572855E+02  0.43683410016E+03  0.44449633363E+03  0.47000000000E+01 0. -1.
        -11    1    1    2    0    0  0.87077461653E+02 -0.36518279467E+01  0.53830388562E+02  0.10243793686E+03  0.00000000000E+00 0. -1.
         11    1    1    2    0    0  0.87051986015E+02 -0.10362422432E+03  0.12449709670E+03  0.18389006287E+03  0.00000000000E+00 0.  1.
<mgrwt>
<rscale>  0 0.23567935E+03</rscale>
<asrwt>0</asrwt>
<pdfrwt beam="1">  1        1 0.23868478E+00 0.23970066E+03</pdfrwt>
<pdfrwt beam="2">  1       -1 0.99829831E-02 0.23970066E+03</pdfrwt>
<totfact> 0.40739362E+02</totfact>
</mgrwt>
</event>
<event>
 7    1  0.8165933E-006  0.1502529E+03  0.7546771E-02  0.1208860E+00
         -2   -1    0    0    0  501 -0.00000000000E+00  0.00000000000E+00  0.11000447207E+03  0.11000447207E+03  0.00000000000E+00 0.  1.
          2   -1    0    0  501    0  0.00000000000E+00 -0.00000000000E+00 -0.20981972979E+03  0.20981972979E+03  0.00000000000E+00 0. -1.
         23    2    1    2    0    0  0.31387382658E+02  0.77236405656E+02 -0.12168934630E+03  0.19335005511E+03  0.12500126663E+03 0.  0.
          5    1    3    3  502    0  0.41425014912E+02  0.10493260974E+03 -0.11795419825E+03  0.16328553926E+03  0.47000000000E+01 0.  1.
         -5    1    3    3    0  502 -0.10037632254E+02 -0.27696204087E+02 -0.37351480513E+01  0.30064515846E+02  0.47000000000E+01 0.  1.
        -11    1    1    2    0    0  0.30776714782E+02 -0.42646666883E+02  0.20850222660E+01  0.52633560462E+02  0.00000000000E+00 0.  1.
         11    1    1    2    0    0 -0.62164097440E+02 -0.34589738772E+02  0.19789066314E+02  0.73840586296E+02  0.00000000000E+00 0. -1.
<mgrwt>
<rscale>  0 0.14337355E+03</rscale>
<asrwt>0</asrwt>
<pdfrwt beam="2">  1        2 0.32279958E-01 0.15025294E+03</pdfrwt>
<pdfrwt beam="1">  1       -2 0.16923765E-01 0.15025294E+03</pdfrwt>
<totfact> 0.43607765E+03</totfact>
</mgrwt>
</event>
<event>
 7    1  0.8165933E-006  0.1714851E+03  0.7546771E-02  0.1177817E+00
         -2   -1    0    0    0  501 -0.00000000000E+00  0.00000000000E+00  0.51455880273E+02  0.51455880273E+02  0.00000000000E+00 0.  1.
          2   -1    0    0  501    0  0.00000000000E+00 -0.00000000000E+00 -0.71058236068E+03  0.71058236068E+03  0.00000000000E+00 0. -1.
         23    2    1    2    0    0  0.24483378779E+02  0.10604021778E+03 -0.50488437677E+03  0.53139182465E+03  0.12500029509E+03 0.  0.
          5    1    3    3  502    0  0.18846056188E+02  0.10261769056E+03 -0.51079698400E+03  0.52136476013E+03  0.47000000000E+01 0.  1.
         -5    1    3    3    0  502  0.56373225902E+01  0.34225272243E+01  0.59126072256E+01  0.10027064515E+02  0.47000000000E+01 0.  1.
        -11    1    1    2    0    0 -0.21390898594E+02 -0.35848176597E+02 -0.15485554253E+03  0.16038360689E+03  0.00000000000E+00 0. -1.
         11    1    1    2    0    0 -0.30924801848E+01 -0.70192041183E+02  0.61343889424E+00  0.70262809411E+02  0.00000000000E+00 0.  1.
<mgrwt>
<rscale>  0 0.17002988E+03</rscale>
<asrwt>0</asrwt>
<pdfrwt beam="2">  1        2 0.10932036E+00 0.17148511E+03</pdfrwt>
<pdfrwt beam="1">  1       -2 0.79162894E-02 0.17148511E+03</pdfrwt>
<totfact> 0.38895171E+03</totfact>
</mgrwt>
</event>
<event>
 7    1  0.8165933E-006  0.1485127E+03  0.7546771E-02  0.1212028E+00
          1   -1    0    0  501    0  0.00000000000E+00  0.00000000000E+00  0.54955206983E+03  0.54955206983E+03  0.00000000000E+00 0. -1.
         -1   -1    0    0    0  501 -0.00000000000E+00 -0.00000000000E+00 -0.35422899970E+02  0.35422899970E+02  0.00000000000E+00 0.  1.
         23    2    1    2    0    0 -0.54437571514E+02  0.58875306745E+02  0.35896887634E+03  0.38847737015E+03  0.12500504790E+03 0.  0.
          5    1    3    3  502    0 -0.76157507511E+02 -0.70863696187E+01  0.22169358228E+03  0.23456410000E+03  0.47000000000E+01 0.  1.
         -5    1    3    3    0  502  0.21719935997E+02  0.65961676363E+02  0.13727529406E+03  0.15391327015E+03  0.47000000000E+01 0.  1.
        -11    1    1    2    0    0  0.49246405708E+02  0.11031691337E+02  0.64477383273E+02  0.81879421363E+02  0.00000000000E+00 0. -1.
         11    1    1    2    0    0  0.51911658056E+01 -0.69906998082E+02  0.90682910244E+02  0.11461817829E+03  0.00000000000E+00 0.  1.
<mgrwt>
<rscale>  0 0.14097122E+03</rscale>
<asrwt>0</asrwt>
<pdfrwt beam="1">  1        1 0.84546466E-01 0.14851267E+03</pdfrwt>
<pdfrwt beam="2">  1       -1 0.54496773E-02 0.14851267E+03</pdfrwt>
<totfact> 0.59391380E+03</totfact>
</mgrwt>
</event>
<event>
 6    1  0.8165933E-006  0.1601737E+03  0.7546771E-02  0.1201155E+00
         -2   -1    0    0    0  501 -0.00000000000E+00  0.00000000000E+00  0.20208035404E+03  0.20208035404E+03  0.00000000000E+00 0.  1.
          2   -1    0    0  501    0  0.00000000000E+00 -0.00000000000E+00 -0.11575942645E+03  0.11575942645E+03  0.00000000000E+00 0. -1.
          5    1    1    2  502    0 -0.82091874208E+01 -0.36888308968E+02 -0.54694448894E+02  0.66646161453E+02  0.47000000000E+01 0. -1.
         -5    1    1    2    0  502  0.84114149052E+02  0.71660480466E+01  0.41279330272E+02  0.94088338401E+02  0.47000000000E+01 0.  1.
        -11    1    1    2    0    0 -0.60764197488E+01 -0.23541299148E+02  0.13335991103E+00  0.24313235643E+02  0.00000000000E+00 0.  1.
         11    1    1    2    0    0 -0.69828541883E+02  0.53263560070E+02  0.99602686304E+02  0.13279204499E+03  0.00000000000E+00 0. -1.
<mgrwt>
<rscale>  0 0.14944672E+03</rscale>
<asrwt>0</asrwt>
<pdfrwt beam="2">  1        2 0.17809143E-01 0.16017370E+03</pdfrwt>
<pdfrwt beam="1">  1       -2 0.31089285E-01 0.16017370E+03</pdfrwt>
<totfact> 0.29587596E+03</totfact>
</mgrwt>
</event>
<event>
 7    1  0.8165933E-006  0.1397523E+03  0.7546771E-02  0.1224733E+00
         -2   -1    0    0    0  501 -0.00000000000E+00  0.00000000000E+00  0.50263881354E+02  0.50263881354E+02  0.00000000000E+00 0.  1.
          2   -1    0    0  501    0  0.00000000000E+00 -0.00000000000E+00 -0.31641290180E+03  0.31641290180E+03  0.00000000000E+00 0. -1.
         23    2    1    2    0    0  0.54088878760E+02  0.31320813785E+02 -0.16962490005E+03  0.21978014195E+03  0.12499641554E+03 0.  0.
          5    1    3    3  502    0  0.50090895962E+01  0.60449152766E+02 -0.14537436389E+03  0.15759120129E+03  0.47000000000E+01 0.  1.
         -5    1    3    3    0  502  0.49079789163E+02 -0.29128338981E+02 -0.24250536161E+02  0.62188940658E+02  0.47000000000E+01 0.  1.
        -11    1    1    2    0    0 -0.48446344997E+02 -0.46855960589E+02 -0.22507589105E+02  0.71057166800E+02  0.00000000000E+00 0.  1.
         11    1    1    2    0    0 -0.56425337626E+01  0.15535146804E+02 -0.74016531288E+02  0.75839474401E+02  0.00000000000E+00 0. -1.
<mgrwt>
<rscale>  0 0.13185243E+03</rscale>
<asrwt>0</asrwt>
<pdfrwt beam="2">  1        2 0.48678908E-01 0.13975230E+03</pdfrwt>
<pdfrwt beam="1">  1       -2 0.77329048E-02 0.13975230E+03</pdfrwt>
<totfact> 0.97668137E+03</totfact>
</mgrwt>
</event>
<event>
 7    1  0.8165933E-006  0.1338840E+03  0.7546771E-02  0.1233831E+00
          1   -1    0    0  501    0  0.00000000000E+00  0.00000000000E+00  0.77683329459E+02  0.77683329459E+02  0.00000000000E+00 0. -1.
         -1   -1    0    0    0  501 -0.00000000000E+00 -0.00000000000E+00 -0.18264358850E+03  0.18264358850E+03  0.00000000000E+00 0.  1.
         23    2    1    2    0    0  0.13433217708E+02 -0.46051720049E+02 -0.58872217053E+02  0.14625616817E+03  0.12499486602E+03 0.  0.
          5    1    3    3  502    0  0.47118057272E+02 -0.10450793149E+02  0.20666385078E+02  0.52711667311E+02  0.47000000000E+01 0.  1.
         -5    1    3    3    0  502 -0.33684839564E+02 -0.35600926901E+02 -0.79538602131E+02  0.93544500863E+02  0.47000000000E+01 0.  1.
        -11    1    1    2    0    0 -0.21567820341E+02  0.11623482034E+02 -0.68121881815E+02  0.72393832547E+02  0.00000000000E+00 0.  1.
         11    1    1    2    0    0  0.81346026331E+01  0.34428238016E+02  0.22033839829E+02  0.41676917238E+02  0.00000000000E+00 0. -1.
<mgrwt>
<rscale>  0 0.12579553E+03</rscale>
<asrwt>0</asrwt>
<pdfrwt beam="1">  1        1 0.11951282E-01 0.13388401E+03</pdfrwt>
<pdfrwt beam="2">  1       -1 0.28099013E-01 0.13388401E+03</pdfrwt>
<totfact> 0.54838594E+03</totfact>
</mgrwt>
</event>
<event>
 6    1  0.8165933E-006  0.1788273E+03  0.7546771E-02  0.1245879E+00
          2   -1    0    0  501    0  0.00000000000E+00  0.00000000000E+00  0.89375725643E+03  0.89375725643E+03  0.00000000000E+00 0. -1.
         -2   -1    0    0    0  501 -0.00000000000E+00 -0.00000000000E+00 -0.26088680915E+02  0.26088680915E+02  0.00000000000E+00 0.  1.
          5    1    1    2  502    0  0.30919840158E+02 -0.39159884433E+02  0.82181053807E+03  0.82333722347E+03  0.47000000000E+01 0. -1.
         -5    1    1    2    0  502 -0.33392018783E+02  0.25765368291E+02  0.45507471693E+02  0.62224602060E+02  0.47000000000E+01 0.  1.
        -11    1    1    2    0    0  0.13221856901E+02  0.34528108617E+01 -0.94945307302E+01  0.16639877300E+02  0.00000000000E+00 0. -1.
         11    1    1    2    0    0 -0.10749678276E+02  0.99417052801E+01  0.98450964774E+01  0.17644234513E+02  0.00000000000E+00 0.  1.
<mgrwt>
<rscale>  0 0.11832949E+03</rscale>
<asrwt>0</asrwt>
<pdfrwt beam="1">  1        2 0.13750109E+00 0.17882734E+03</pdfrwt>
<pdfrwt beam="2">  1       -2 0.40136439E-02 0.17882734E+03</pdfrwt>
<totfact> 0.82091811E+03</totfact>
</mgrwt>
</event>
<event>
 7    1  0.8165933E-006  0.1289203E+03  0.7546771E-02  0.1243330E+00
          1   -1    0    0  501    0  0.00000000000E+00  0.00000000000E+00  0.27670800067E+03  0.27670800067E+03  0.00000000000E+00 0. -1.
         -1   -1    0    0    0  501 -0.00000000000E+00 -0.00000000000E+00 -0.49544985794E+02  0.49544985794E+02  0.00000000000E+00 0.  1.
         23    2    1    2    0    0 -0.33893541967E+01 -0.31395204878E+02  0.17298338875E+03  0.21573986637E+03  0.12499316201E+03 0.  0.
          5    1    3    3  502    0  0.47813249252E+02 -0.45685220438E+02  0.13447753860E+03  0.14993179969E+03  0.47000000000E+01 0. -1.
         -5    1    3    3    0  502 -0.51202603449E+02  0.14290015560E+02  0.38505850142E+02  0.65808066677E+02  0.47000000000E+01 0. -1.
        -11    1    1    2    0    0 -0.34509427064E+02 -0.84375126353E+01  0.34318139376E+01  0.35691308783E+02  0.00000000000E+00 0.  1.
         11    1    1    2    0    0  0.37898781260E+02  0.39832717513E+02  0.50747812192E+02  0.74821811311E+02  0.00000000000E+00 0. -1.
<mgrwt>
<rscale>  0 0.11985911E+03</rscale>
<asrwt>0</asrwt>
<pdfrwt beam="1">  1        1 0.42570461E-01 0.12892027E+03</pdfrwt>
<pdfrwt beam="2">  1       -1 0.76223057E-02 0.12892027E+03</pdfrwt>
<totfact> 0.85042186E+03</totfact>
</mgrwt>
</event>
<event>
 7    1  0.8165933E-006  0.1278955E+03  0.7546771E-02  0.1244354E+00
         -2   -1    0    0    0  501 -0.00000000000E+00  0.00000000000E+00  0.14576934768E+03  0.14576934768E+03  0.00000000000E+00 0.  1.
          2   -1    0    0  501    0  0.00000000000E+00 -0.00000000000E+00 -0.87939901489E+02  0.87939901489E+02  0.00000000000E+00 0. -1.
         23    2    1    2    0    0 -0.20798569181E+02  0.17279976201E+02  0.17873389562E+02  0.12913836827E+03  0.12500432811E+03 0.  0.
          5    1    3    3  502    0 -0.38581247231E+01 -0.53851763619E+02  0.12836030294E+02  0.55693368052E+02  0.47000000000E+01 0. -1.
         -5    1    3    3    0  502 -0.16940444458E+02  0.71131739820E+02  0.50373592681E+01  0.73445000215E+02  0.47000000000E+01 0. -1.
        -11    1    1    2    0    0 -0.27731800372E+02  0.11232595472E+02  0.37846373783E+02  0.48244916431E+02  0.00000000000E+00 0. -1.
         11    1    1    2    0    0  0.48530369553E+02 -0.28512571673E+02  0.21096828493E+01  0.56325964475E+02  0.00000000000E+00 0.  1.
<mgrwt>
<rscale>  0 0.11924127E+03</rscale>
<asrwt>0</asrwt>
<pdfrwt beam="2">  1        2 0.13529216E-01 0.12789550E+03</pdfrwt>
<pdfrwt beam="1">  1       -2 0.22426054E-01 0.12789550E+03</pdfrwt>
<totfact> 0.71536878E+03</totfact>
</mgrwt>
</event>
<event>
 7    1  0.8165933E-006  0.1455650E+03  0.7546771E-02  0.1215729E+00
         -1   -1    0    0    0  501 -0.00000000000E+00  0.00000000000E+00  0.24939666707E+03  0.24939666707E+03  0.00000000000E+00 0.  1.
          1   -1    0    0  501    0  0.00000000000E+00 -0.00000000000E+00 -0.70738936798E+02  0.70738936798E+02  0.00000000000E+00 0. -1.
         23    2    1    2    0    0 -0.62992463375E+02 -0.39946133756E+02  0.80387607153E+02  0.16628693363E+03  0.12500173146E+03 0.  0.
          5    1    3    3  502    0 -0.49159497865E+02 -0.53465095987E+02 -0.10240059440E+02  0.73499126094E+02  0.47000000000E+01 0.  1.
         -5    1    3    3    0  502 -0.13832965510E+02  0.13518962231E+02  0.90627666593E+02  0.92787807533E+02  0.47000000000E+01 0.  1.
        -11    1    1    2    0    0  0.26536783741E+02 -0.25400300130E+02  0.98815718826E+01  0.38039737130E+02  0.00000000000E+00 0. -1.
         11    1    1    2    0    0  0.36455679634E+02  0.65346433886E+02  0.88388551240E+02  0.11580893312E+03  0.00000000000E+00 0.  1.
<mgrwt>
<rscale>  0 0.13823144E+03</rscale>
<asrwt>0</asrwt>
<pdfrwt beam="2">  1        1 0.10882913E-01 0.14556503E+03</pdfrwt>
<pdfrwt beam="1">  1       -1 0.38368718E-01 0.14556503E+03</pdfrwt>
<totfact> 0.36689691E+03</totfact>
</mgrwt>
</event>
<event>
 7    1  0.8165933E-006  0.2085882E+03  0.7546771E-02  0.1146418E+00
         -2   -1    0    0    0  501 -0.00000000000E+00  0.00000000000E+00  0.21331629397E+03  0.21331629397E+03  0.00000000000E+00 0.  1.
          2   -1    0    0  501    0  0.00000000000E+00 -0.00000000000E+00 -0.18867294542E+03  0.18867294542E+03  0.00000000000E+00 0. -1.
         23    2    1    2    0    0  0.88630978543E+02 -0.14153746811E+03 -0.64452484692E+01  0.20868772642E+03  0.12498288160E+03 0.  0.
          5    1    3    3  502    0  0.63754486598E+02 -0.99132842883E+01 -0.32100141033E+02  0.72217842817E+02  0.47000000000E+01 0. -1.
         -5    1    3    3    0  502  0.24876491945E+02 -0.13162418382E+03  0.25654892564E+02  0.13646988360E+03  0.47000000000E+01 0. -1.
        -11    1    1    2    0    0 -0.42280829471E+02  0.99203571045E+02  0.60859775766E+02  0.12382620625E+03  0.00000000000E+00 0.  1.
         11    1    1    2    0    0 -0.46350149072E+02  0.42333897063E+02 -0.29771178747E+02  0.69475306718E+02  0.00000000000E+00 0. -1.
<mgrwt>
<rscale>  0 0.20398743E+03</rscale>
<asrwt>0</asrwt>
<pdfrwt beam="2">  1        2 0.29026607E-01 0.20858817E+03</pdfrwt>
<pdfrwt beam="1">  1       -2 0.32817891E-01 0.20858817E+03</pdfrwt>
<totfact> 0.15631361E+03</totfact>
</mgrwt>
</event>
<event>
 6    1  0.8165933E-006  0.3057213E+03  0.7546771E-02  0.1112241E+00
         -2   -1    0    0    0  501 -0.00000000000E+00  0.00000000000E+00  0.30505050101E+02  0.30505050101E+02  0.00000000000E+00 0.  1.
          2   -1    0    0  501    0  0.00000000000E+00 -0.00000000000E+00 -0.17595664870E+04  0.17595664870E+04  0.00000000000E+00 0. -1.
          5    1    1    2  502    0 -0.49806531559E+02 -0.45441342334E+02 -0.12962420176E+04  0.12980027213E+04  0.47000000000E+01 0. -1.
         -5    1    1    2    0  502  0.43811711232E+02 -0.69173867244E+02 -0.90905868142E+02  0.12243552104E+03  0.47000000000E+01 0.  1.
        -11    1    1    2    0    0  0.20664060531E+02 -0.37973343761E+01 -0.56703133918E+02  0.60470393930E+02  0.00000000000E+00 0. -1.
         11    1    1    2    0    0 -0.14669240204E+02  0.11841254395E+03 -0.28521041716E+03  0.30916290080E+03  0.00000000000E+00 0.  1.
<mgrwt>
<rscale>  0 0.25169142E+03</rscale>
<asrwt>0</asrwt>
<pdfrwt beam="2">  1        2 0.27070258E+00 0.30572135E+03</pdfrwt>
<pdfrwt beam="1">  1       -2 0.46930839E-02 0.30572135E+03</pdfrwt>
<totfact> 0.21400019E+03</totfact>
</mgrwt>
</event>
<event>
 7    1  0.8165933E-006  0.1569472E+03  0.7546771E-02  0.1196520E+00
          2   -1    0    0  501    0  0.00000000000E+00  0.00000000000E+00  0.20912687674E+03  0.20912687674E+03  0.00000000000E+00 0. -1.
         -2   -1    0    0    0  501 -0.00000000000E+00 -0.00000000000E+00 -0.14179408239E+03  0.14179408239E+03  0.00000000000E+00 0.  1.
         23    2    1    2    0    0 -0.55929544536E+02 -0.48174426027E+02  0.11885941327E+03  0.18573195812E+03  0.12214708703E+03 0.  0.
          5    1    3    3  502    0  0.54024946363E+01  0.14756168042E+02  0.92394097073E+02  0.93838641388E+02  0.47000000000E+01 0. -1.
         -5    1    3    3    0  502 -0.61332039172E+02 -0.62930594068E+02  0.26465316199E+02  0.91893316733E+02  0.47000000000E+01 0.  1.
        -11    1    1    2    0    0 -0.18135444483E+02 -0.38556652021E+02 -0.96180453288E+01  0.43680848866E+02  0.00000000000E+00 0.  1.
         11    1    1    2    0    0  0.74064989019E+02  0.86731078048E+02 -0.41908573585E+02  0.12150815214E+03  0.00000000000E+00 0. -1.
<mgrwt>
<rscale>  0 0.15326246E+03</rscale>
<asrwt>0</asrwt>
<pdfrwt beam="1">  1        2 0.32173366E-01 0.15694717E+03</pdfrwt>
<pdfrwt beam="2">  1       -2 0.21814474E-01 0.15694717E+03</pdfrwt>
<totfact> 0.28572736E+03</totfact>
</mgrwt>
</event>
<event>
 7    1  0.8165933E-006  0.1419119E+03  0.7546771E-02  0.1222565E+00
         -1   -1    0    0    0  501 -0.00000000000E+00  0.00000000000E+00  0.37869643615E+02  0.37869643615E+02  0.00000000000E+00 0.  1.
          1   -1    0    0  501    0  0.00000000000E+00 -0.00000000000E+00 -0.69638675274E+03  0.69638675274E+03  0.00000000000E+00 0. -1.
         23    2    1    2    0    0  0.16793687644E+02  0.65042310477E+02 -0.58366435306E+03  0.60066884875E+03  0.12500583478E+03 0.  0.
          5    1    3    3  502    0  0.98381243425E+01  0.71099440215E+01  0.10247024533E+01  0.13056799366E+02  0.47000000000E+01 0.  1.
         -5    1    3    3    0  502  0.69555633015E+01  0.57932366455E+02 -0.58468905551E+03  0.58761204938E+03  0.47000000000E+01 0.  1.
        -11    1    1    2    0    0 -0.26772769191E+02 -0.99986917123E+01  0.11411210293E+02  0.30772889472E+02  0.00000000000E+00 0.  1.
         11    1    1    2    0    0  0.99790815469E+01 -0.55043618764E+02 -0.86263966358E+02  0.10281465813E+03  0.00000000000E+00 0. -1.
<mgrwt>
<rscale>  0 0.13335176E+03</rscale>
<asrwt>0</asrwt>
<pdfrwt beam="2">  1        1 0.10713641E+00 0.14191191E+03</pdfrwt>
<pdfrwt beam="1">  1       -1 0.58260998E-02 0.14191191E+03</pdfrwt>
<totfact> 0.38713859E+03</totfact>
</mgrwt>
</event>
<event>
 7    1  0.8165933E-006  0.1406892E+03  0.7546771E-02  0.1217615E+00
         -1   -1    0    0    0  501 -0.00000000000E+00  0.00000000000E+00  0.14519013705E+02  0.14519013705E+02  0.00000000000E+00 0.  1.
          1   -1    0    0  501    0  0.00000000000E+00 -0.00000000000E+00 -0.15317298105E+04  0.15317298105E+04  0.00000000000E+00 0. -1.
         23    2    1    2    0    0  0.54217253337E+02 -0.66449677337E+02 -0.11378034246E+04  0.11464685273E+04  0.11152748912E+03 0.  0.
          5    1    3    3  502    0  0.50784322813E+02 -0.73847282876E+01 -0.89625691895E+03  0.89773723128E+03  0.47000000000E+01 0. -1.
         -5    1    3    3    0  502  0.34329305244E+01 -0.59064949050E+02 -0.24154650563E+03  0.24873129598E+03  0.47000000000E+01 0.  1.
        -11    1    1    2    0    0 -0.70653744354E+01  0.71713288089E+02 -0.16276025073E+03  0.17799891691E+03  0.00000000000E+00 0.  1.
         11    1    1    2    0    0 -0.47151878902E+02 -0.52636107514E+01 -0.21664712144E+03  0.22178137999E+03  0.00000000000E+00 0. -1.
<mgrwt>
<rscale>  0 0.13686188E+03</rscale>
<asrwt>0</asrwt>
<pdfrwt beam="2">  1        1 0.23565088E+00 0.14068920E+03</pdfrwt>
<pdfrwt beam="1">  1       -1 0.22336931E-02 0.14068920E+03</pdfrwt>
<totfact> 0.39288484E+03</totfact>
</mgrwt>
</event>
<event>
 7    1  0.8165933E-006  0.1698429E+03  0.7546771E-02  0.1184901E+00
         -1   -1    0    0    0  501 -0.00000000000E+00  0.00000000000E+00  0.62086654685E+03  0.62086654685E+03  0.00000000000E+00 0.  1.
          1   -1    0    0  501    0  0.00000000000E+00 -0.00000000000E+00 -0.42491245076E+02  0.42491245076E+02  0.00000000000E+00 0. -1.
         23    2    1    2    0    0 -0.83646937924E+02 -0.78896700502E+02  0.23090865943E+03  0.28664511562E+03  0.12500045494E+03 0.  0.
          5    1    3    3  502    0  0.21527437746E+02 -0.89077679929E+01  0.42939837177E+00  0.23770849575E+02  0.47000000000E+01 0.  1.
         -5    1    3    3    0  502 -0.10517437567E+03 -0.69988932509E+02  0.23047926106E+03  0.26287426605E+03  0.47000000000E+01 0.  1.
        -11    1    1    2    0    0 -0.15351739704E+02  0.16102334164E+02  0.24337029128E+02  0.32973505489E+02  0.00000000000E+00 0.  1.
         11    1    1    2    0    0  0.98998677628E+02  0.62794366338E+02  0.32312961321E+03  0.34373917081E+03  0.00000000000E+00 0. -1.
<mgrwt>
<rscale>  0 0.16340852E+03</rscale>
<asrwt>0</asrwt>
<pdfrwt beam="2">  1        1 0.65371151E-02 0.16984291E+03</pdfrwt>
<pdfrwt beam="1">  1       -1 0.95517923E-01 0.16984291E+03</pdfrwt>
<totfact> 0.12639162E+03</totfact>
</mgrwt>
</event>
<event>
 7    1  0.8165933E-006  0.1398159E+03  0.7546771E-02  0.1225323E+00
          2   -1    0    0  501    0  0.00000000000E+00  0.00000000000E+00  0.28516512030E+03  0.28516512030E+03  0.00000000000E+00 0. -1.
         -2   -1    0    0    0  501 -0.00000000000E+00 -0.00000000000E+00 -0.73684977233E+02  0.73684977233E+02  0.00000000000E+00 0.  1.
         23    2    1    2    0    0  0.52077570045E+01  0.62426878157E+02  0.20666028178E+03  0.24951345660E+03  0.12499702840E+03 0.  0.
          5    1    3    3  502    0  0.10924772486E+02 -0.29709719479E+02  0.12283621830E+02  0.34278206643E+02  0.47000000000E+01 0.  1.
         -5    1    3    3    0  502 -0.57170154818E+01  0.92136597636E+02  0.19437665995E+03  0.21523524996E+03  0.47000000000E+01 0.  1.
        -11    1    1    2    0    0  0.21103930328E+02 -0.16526528941E+01  0.31489062931E+02  0.37942960100E+02  0.00000000000E+00 0. -1.
         11    1    1    2    0    0 -0.26311687332E+02 -0.60774225263E+02 -0.26669201645E+02  0.71393680834E+02  0.00000000000E+00 0.  1.
<mgrwt>
<rscale>  0 0.13144780E+03</rscale>
<asrwt>0</asrwt>
<pdfrwt beam="1">  1        2 0.43871556E-01 0.13981593E+03</pdfrwt>
<pdfrwt beam="2">  1       -2 0.11336151E-01 0.13981593E+03</pdfrwt>
<totfact> 0.59946216E+03</totfact>
</mgrwt>
</event>
<event>
 7    1  0.8165933E-006  0.1284635E+03  0.7546771E-02  0.1244604E+00
          1   -1    0    0  501    0  0.00000000000E+00  0.00000000000E+00  0.24153832258E+03  0.24153832258E+03  0.00000000000E+00 0. -1.
         -1   -1    0    0    0  501 -0.00000000000E+00 -0.00000000000E+00 -0.64750830635E+02  0.64750830635E+02  0.00000000000E+00 0.  1.
         23    2    1    2    0    0 -0.10370577112E+02 -0.27756668121E+02  0.16730407520E+03  0.21093490906E+03  0.12499960315E+03 0.  0.
          5    1    3    3  502    0  0.23717745147E+02 -0.67281964348E+02  0.68089530672E+02  0.98730280809E+02  0.47000000000E+01 0.  1.
         -5    1    3    3    0  502 -0.34088322259E+02  0.39525296227E+02  0.99214544527E+02  0.11220462826E+03  0.47000000000E+01 0.  1.
        -11    1    1    2    0    0  0.19935109822E+02  0.24423129647E+02 -0.36522119609E+02  0.48246897165E+02  0.00000000000E+00 0.  1.
         11    1    1    2    0    0 -0.95645327094E+01  0.33335384742E+01  0.46005536358E+02  0.47107346988E+02  0.00000000000E+00 0. -1.
<mgrwt>
<rscale>  0 0.11909137E+03</rscale>
<asrwt>0</asrwt>
<pdfrwt beam="1">  1        1 0.37159742E-01 0.12846354E+03</pdfrwt>
<pdfrwt beam="2">  1       -1 0.99616664E-02 0.12846354E+03</pdfrwt>
<totfact> 0.67063441E+03</totfact>
</mgrwt>
</event>
<event>
 7    1  0.8165933E-006  0.1566917E+03  0.7546771E-02  0.1200882E+00
         -1   -1    0    0    0  501 -0.00000000000E+00  0.00000000000E+00  0.30749097629E+02  0.30749097629E+02  0.00000000000E+00 0.  1.
          1   -1    0    0  501    0  0.00000000000E+00 -0.00000000000E+00 -0.91114937724E+03  0.91114937724E+03  0.00000000000E+00 0. -1.
         23    2    1    2    0    0  0.81172362444E+02 -0.48369874535E+02 -0.71122806901E+03  0.72828404798E+03  0.12499476470E+03 0.  0.
          5    1    3    3  502    0  0.95016832040E+02 -0.42701449351E+02 -0.70277642279E+03  0.71047055011E+03  0.47000000000E+01 0. -1.
         -5    1    3    3    0  502 -0.13844469596E+02 -0.56684251842E+01 -0.84516462261E+01  0.17813497871E+02  0.47000000000E+01 0. -1.
        -11    1    1    2    0    0 -0.98547274470E+02  0.41412611834E+02 -0.16085293939E+03  0.19313269489E+03  0.00000000000E+00 0. -1.
         11    1    1    2    0    0  0.17374912026E+02  0.69572627012E+01 -0.83192712034E+01  0.20481731996E+02  0.00000000000E+00 0.  1.
<mgrwt>
<rscale>  0 0.14966786E+03</rscale>
<asrwt>0</asrwt>
<pdfrwt beam="2">  1        1 0.14017681E+00 0.15669170E+03</pdfrwt>
<pdfrwt beam="1">  1       -1 0.47306309E-02 0.15669170E+03</pdfrwt>
<totfact> 0.35249452E+03</totfact>
</mgrwt>
</event>
<event>
 7    1  0.8165933E-006  0.1390003E+03  0.7546771E-02  0.1222457E+00
          2   -1    0    0  501    0  0.00000000000E+00  0.00000000000E+00  0.10493100620E+04  0.10493100620E+04  0.00000000000E+00 0. -1.
         -2   -1    0    0    0  501 -0.00000000000E+00 -0.00000000000E+00 -0.15764805587E+02  0.15764805587E+02  0.00000000000E+00 0.  1.
         23    2    1    2    0    0 -0.60573004148E+02  0.52180445107E+01  0.58084734314E+03  0.59724761549E+03  0.12499904539E+03 0.  0.
          5    1    3    3  502    0  0.35843897112E+02  0.89475011093E+01  0.24385140691E+03  0.24667882234E+03  0.47000000000E+01 0.  1.
         -5    1    3    3    0  502 -0.96416901260E+02 -0.37294565986E+01  0.33699593623E+03  0.35056879315E+03  0.47000000000E+01 0.  1.
        -11    1    1    2    0    0  0.10450134122E+02  0.39459459432E+02  0.88086548439E+02  0.97084984718E+02  0.00000000000E+00 0. -1.
         11    1    1    2    0    0  0.50122870025E+02 -0.44677503942E+02  0.36461136479E+03  0.37074226734E+03  0.00000000000E+00 0.  1.
<mgrwt>
<rscale>  0 0.13342700E+03</rscale>
<asrwt>0</asrwt>
<pdfrwt beam="1">  1        2 0.16143226E+00 0.13900028E+03</pdfrwt>
<pdfrwt beam="2">  1       -2 0.24253555E-02 0.13900028E+03</pdfrwt>
<totfact> 0.13698046E+04</totfact>
</mgrwt>
</event>
<event>
 7    1  0.8165933E-006  0.3857841E+03  0.7546771E-02  0.1049085E+00
         -1   -1    0    0    0  501 -0.00000000000E+00  0.00000000000E+00  0.12478575414E+03  0.12478575414E+03  0.00000000000E+00 0.  1.
          1   -1    0    0  501    0  0.00000000000E+00 -0.00000000000E+00 -0.18083660714E+04  0.18083660714E+04  0.00000000000E+00 0. -1.
         23    2    1    2    0    0  0.23323234197E+03  0.28072737269E+03 -0.14120560313E+04  0.14638072257E+04  0.12499670069E+03 0.  0.
          5    1    3    3  502    0  0.15993520284E+02  0.44432812502E+02 -0.74987409973E+02  0.88742713348E+02  0.47000000000E+01 0. -1.
         -5    1    3    3    0  502  0.21723882169E+03  0.23629456018E+03 -0.13370686214E+04  0.13750645123E+04  0.47000000000E+01 0. -1.
        -11    1    1    2    0    0 -0.82867894817E+02 -0.73109243442E+02 -0.14822228431E+03  0.18488346339E+03  0.00000000000E+00 0. -1.
         11    1    1    2    0    0 -0.15036444716E+03 -0.20761812925E+03 -0.12330200159E+03  0.28446113646E+03  0.00000000000E+00 0.  1.
<mgrwt>
<rscale>  0 0.38504347E+03</rscale>
<asrwt>0</asrwt>
<pdfrwt beam="2">  1        1 0.27821017E+00 0.38578408E+03</pdfrwt>
<pdfrwt beam="1">  1       -1 0.19197808E-01 0.38578408E+03</pdfrwt>
<totfact> 0.95055106E+01</totfact>
</mgrwt>
</event>
<event>
 7    1  0.8165933E-006  0.1294533E+03  0.7546771E-02  0.1241730E+00
          2   -1    0    0  501    0  0.00000000000E+00  0.00000000000E+00  0.29411686620E+02  0.29411686620E+02  0.00000000000E+00 0. -1.
         -2   -1    0    0    0  501 -0.00000000000E+00 -0.00000000000E+00 -0.45666636277E+03  0.45666636277E+03  0.00000000000E+00 0.  1.
         23    2    1    2    0    0 -0.94208096862E+01 -0.32321046601E+02 -0.19694056612E+03  0.23567720105E+03  0.12499901920E+03 0.  0.
          5    1    3    3  502    0 -0.48722884390E+02 -0.23113772464E+02 -0.26148001338E+02  0.60116336505E+02  0.47000000000E+01 0. -1.
         -5    1    3    3    0  502  0.39302074704E+02 -0.92072741366E+01 -0.17079256479E+03  0.17556086454E+03  0.47000000000E+01 0. -1.
        -11    1    1    2    0    0 -0.88346407933E+01  0.59480137819E+02 -0.10617306200E+03  0.12201908362E+03  0.00000000000E+00 0. -1.
         11    1    1    2    0    0  0.18255450479E+02 -0.27159091219E+02 -0.12414104802E+03  0.12838176472E+03  0.00000000000E+00 0.  1.
<mgrwt>
<rscale>  0 0.12083270E+03</rscale>
<asrwt>0</asrwt>
<pdfrwt beam="1">  1        2 0.45248748E-02 0.12945330E+03</pdfrwt>
<pdfrwt beam="2">  1       -2 0.70256364E-01 0.12945330E+03</pdfrwt>
<totfact> 0.32318846E+03</totfact>
</mgrwt>
</event>
<event>
 7    1  0.8165933E-006  0.1815731E+03  0.7546771E-02  0.1171836E+00
         -2   -1    0    0    0  501 -0.00000000000E+00  0.00000000000E+00  0.34642114065E+02  0.34642114065E+02  0.00000000000E+00 0.  1.
          2   -1    0    0  501    0  0.00000000000E+00 -0.00000000000E+00 -0.87351171814E+03  0.87351171814E+03  0.00000000000E+00 0. -1.
         23    2    1    2    0    0  0.21271921514E+02 -0.12997346115E+03 -0.53181956820E+03  0.56196161425E+03  0.12499282989E+03 0.  0.
          5    1    3    3  502    0 -0.47991644118E+02 -0.29116141384E+02 -0.12478375346E+03  0.13690881170E+03  0.47000000000E+01 0.  1.
         -5    1    3    3    0  502  0.69263565632E+02 -0.10085731976E+03 -0.40703581474E+03  0.42505280255E+03  0.47000000000E+01 0.  1.
        -11    1    1    2    0    0  0.16031267821E+02 -0.54197512130E+01 -0.17293965032E+02  0.24196207920E+02  0.00000000000E+00 0.  1.
         11    1    1    2    0    0 -0.37303189335E+02  0.13539321236E+03 -0.28975607084E+03  0.32199601003E+03  0.00000000000E+00 0. -1.
<mgrwt>
<rscale>  0 0.17589504E+03</rscale>
<asrwt>0</asrwt>
<pdfrwt beam="2">  1        2 0.13438642E+00 0.18157313E+03</pdfrwt>
<pdfrwt beam="1">  1       -2 0.53295559E-02 0.18157313E+03</pdfrwt>
<totfact> 0.55221558E+03</totfact>
</mgrwt>
</event>
<event>
 7    1  0.8165933E-006  0.1366385E+03  0.7546771E-02  0.1232007E+00
          1   -1    0    0  501    0  0.00000000000E+00  0.00000000000E+00  0.41695325599E+02  0.41695325599E+02  0.00000000000E+00 0. -1.
         -1   -1    0    0    0  501 -0.00000000000E+00 -0.00000000000E+00 -0.34126697586E+03  0.34126697586E+03  0.00000000000E+00 0.  1.
         23    2    1    2    0    0  0.54733881621E+02  0.70251668921E+01 -0.16892466867E+03  0.21726854687E+03  0.12499970803E+03 0.  0.
          5    1    3    3  502    0  0.20886807495E+02 -0.45330467261E+02 -0.13937432961E+03  0.14811618326E+03  0.47000000000E+01 0.  1.
         -5    1    3    3    0  502  0.33847074126E+02  0.52355634153E+02 -0.29550339063E+02  0.69152363613E+02  0.47000000000E+01 0.  1.
        -11    1    1    2    0    0 -0.34418508675E+02 -0.46300514176E+02 -0.73783234128E+02  0.93660754806E+02  0.00000000000E+00 0. -1.
         11    1    1    2    0    0 -0.20315372946E+02  0.39275347284E+02 -0.56863747465E+02  0.72032999784E+02  0.00000000000E+00 0.  1.
<mgrwt>
<rscale>  0 0.12697982E+03</rscale>
<asrwt>0</asrwt>
<pdfrwt beam="1">  1        1 0.64146654E-02 0.13663849E+03</pdfrwt>
<pdfrwt beam="2">  1       -1 0.52502612E-01 0.13663849E+03</pdfrwt>
<totfact> 0.42303284E+03</totfact>
</mgrwt>
</event>
<event>
 7    1  0.8165933E-006  0.1428544E+03  0.7546771E-02  0.1219955E+00
          1   -1    0    0  501    0  0.00000000000E+00  0.00000000000E+00  0.24526810499E+02  0.24526810499E+02  0.00000000000E+00 0. -1.
         -1   -1    0    0    0  501 -0.00000000000E+00 -0.00000000000E+00 -0.71631366388E+03  0.71631366388E+03  0.00000000000E+00 0.  1.
         23    2    1    2    0    0  0.19300904010E+02  0.66401510917E+02 -0.29376421070E+03  0.32665698976E+03  0.12500276768E+03 0.  0.
          5    1    3    3  502    0  0.58787720553E+02  0.12334098303E+02 -0.21446582046E+03  0.22276849915E+03  0.47000000000E+01 0.  1.
         -5    1    3    3    0  502 -0.39486816544E+02  0.54067412615E+02 -0.79298390241E+02  0.10388849062E+03  0.47000000000E+01 0.  1.
        -11    1    1    2    0    0 -0.35754550871E+02 -0.67109926391E+02 -0.38692100975E+03  0.39432220064E+03  0.00000000000E+00 0.  1.
         11    1    1    2    0    0  0.16453646861E+02  0.70841547368E+00 -0.11101632932E+02  0.19861283979E+02  0.00000000000E+00 0. -1.
<mgrwt>
<rscale>  0 0.13518748E+03</rscale>
<asrwt>0</asrwt>
<pdfrwt beam="1">  1        1 0.37733552E-02 0.14285439E+03</pdfrwt>
<pdfrwt beam="2">  1       -1 0.11020211E+00 0.14285439E+03</pdfrwt>
<totfact> 0.19408078E+03</totfact>
</mgrwt>
</event>
<event>
 7    1  0.8165933E-006  0.1418592E+03  0.7546771E-02  0.1220082E+00
         -2   -1    0    0    0  501 -0.00000000000E+00  0.00000000000E+00  0.12988018566E+03  0.12988018566E+03  0.00000000000E+00 0.  1.
          2   -1    0    0  501    0  0.00000000000E+00 -0.00000000000E+00 -0.17517724809E+03  0.17517724809E+03  0.00000000000E+00 0. -1.
         23    2    1    2    0    0 -0.37445083921E+02 -0.55648755468E+02 -0.10258685193E+03  0.17506599426E+03  0.12500048745E+03 0.  0.
          5    1    3    3  502    0 -0.12041905723E+02 -0.85802750598E+02 -0.10386150445E+03  0.13533817499E+03  0.47000000000E+01 0.  1.
         -5    1    3    3    0  502 -0.25403178198E+02  0.30153995131E+02  0.12746525200E+01  0.39727819270E+02  0.47000000000E+01 0.  1.
        -11    1    1    2    0    0  0.62546867681E+02  0.19701865384E+02  0.55829698252E+02  0.86123338087E+02  0.00000000000E+00 0.  1.
         11    1    1    2    0    0 -0.25101783760E+02  0.35946890083E+02  0.14600912456E+01  0.43868101406E+02  0.00000000000E+00 0. -1.
<mgrwt>
<rscale>  0 0.13509772E+03</rscale>
<asrwt>0</asrwt>
<pdfrwt beam="2">  1        2 0.26950346E-01 0.14185923E+03</pdfrwt>
<pdfrwt beam="1">  1       -2 0.19981567E-01 0.14185923E+03</pdfrwt>
<totfact> 0.40035836E+03</totfact>
</mgrwt>
</event>
<event>
 6    1  0.8165933E-006  0.1368213E+03  0.7546771E-02  0.1236058E+00
          4   -1    0    0  501    0  0.00000000000E+00  0.00000000000E+00  0.15325745333E+03  0.15325745333E+03  0.00000000000E+00 0. -1.
         -4   -1    0    0    0  501 -0.00000000000E+00 -0.00000000000E+00 -0.87330893832E+02  0.87330893832E+02  0.00000000000E+00 0.  1.
          5    1    1    2  502    0 -0.28017681164E+02  0.38303055143E+02  0.59996586915E+02  0.76640687187E+02  0.47000000000E+01 0. -1.
         -5    1    1    2    0  502  0.45173899626E+02 -0.51583518208E+02 -0.91250791577E+01  0.69331793773E+02  0.47000000000E+01 0.  1.
        -11    1    1    2    0    0  0.19736574402E+02 -0.30303534413E+02  0.84050499549E+01  0.37127906375E+02  0.00000000000E+00 0.  1.
         11    1    1    2    0    0 -0.36892792864E+02  0.43583997478E+02  0.66500017868E+01  0.57487959829E+02  0.00000000000E+00 0. -1.
<mgrwt>
<rscale>  0 0.12436953E+03</rscale>
<asrwt>0</asrwt>
<pdfrwt beam="1">  1        4 0.23578070E-01 0.13682125E+03</pdfrwt>
<pdfrwt beam="2">  1       -4 0.13435522E-01 0.13682125E+03</pdfrwt>
<totfact> 0.12599077E+03</totfact>
</mgrwt>
</event>
<event>
 7    1  0.8165933E-006  0.1278502E+03  0.7546771E-02  0.1244558E+00
         -3   -1    0    0    0  501 -0.00000000000E+00  0.00000000000E+00  0.58207325188E+02  0.58207325188E+02  0.00000000000E+00 0.  1.
          3   -1    0    0  501    0  0.00000000000E+00 -0.00000000000E+00 -0.21628220780E+03  0.21628220780E+03  0.00000000000E+00 0. -1.
         23    2    1    2    0    0  0.24029950878E+02 -0.11947572654E+02 -0.96010565339E+02  0.15988655669E+03  0.12500199728E+03 0.  0.
          5    1    3    3  502    0  0.46944290833E+02  0.21618746245E+02  0.37809671070E+01  0.52033857663E+02  0.47000000000E+01 0. -1.
         -5    1    3    3    0  502 -0.22914339955E+02 -0.33566318900E+02 -0.99791532446E+02  0.10785269903E+03  0.47000000000E+01 0. -1.
        -11    1    1    2    0    0 -0.15634246009E+02 -0.37241807644E+02 -0.48051583809E+02  0.62772100423E+02  0.00000000000E+00 0. -1.
         11    1    1    2    0    0 -0.83957048698E+01  0.49189380298E+02 -0.14012733461E+02  0.51830875870E+02  0.00000000000E+00 0.  1.
<mgrwt>
<rscale>  0 0.11911886E+03</rscale>
<asrwt>0</asrwt>
<pdfrwt beam="2">  1        3 0.33274185E-01 0.12785023E+03</pdfrwt>
<pdfrwt beam="1">  1       -3 0.89549733E-02 0.12785023E+03</pdfrwt>
<totfact> 0.17788961E+03</totfact>
</mgrwt>
</event>
<event>
 7    1  0.8165933E-006  0.1293887E+03  0.7546771E-02  0.1243799E+00
          2   -1    0    0  501    0  0.00000000000E+00  0.00000000000E+00  0.23653648122E+04  0.23653648122E+04  0.00000000000E+00 0. -1.
         -2   -1    0    0    0  501 -0.00000000000E+00 -0.00000000000E+00 -0.11122788702E+02  0.11122788702E+02  0.00000000000E+00 0.  1.
         23    2    1    2    0    0 -0.16925907927E+02 -0.28839355460E+02  0.21200306055E+04  0.21239753330E+04  0.12499300838E+03 0.  0.
          5    1    3    3  502    0 -0.35135221862E+02  0.35389162851E+01  0.19279547054E+04  0.19282838079E+04  0.47000000000E+01 0. -1.
         -5    1    3    3    0  502  0.18209313934E+02 -0.32378271745E+02  0.19207590011E+03  0.19569152510E+03  0.47000000000E+01 0. -1.
        -11    1    1    2    0    0  0.10677315762E+02 -0.11424727042E+02  0.89324904889E+00  0.15662929283E+02  0.00000000000E+00 0.  1.
         11    1    1    2    0    0  0.62485921651E+01  0.40264082501E+02  0.23331816895E+03  0.23684933862E+03  0.00000000000E+00 0. -1.
<mgrwt>
<rscale>  0 0.11957533E+03</rscale>
<asrwt>0</asrwt>
<pdfrwt beam="1">  1        2 0.36390188E+00 0.12938874E+03</pdfrwt>
<pdfrwt beam="2">  1       -2 0.17112001E-02 0.12938874E+03</pdfrwt>
<totfact> 0.46175137E+03</totfact>
</mgrwt>
</event>
<event>
 7    1  0.8165933E-006  0.1449628E+03  0.7546771E-02  0.1216328E+00
         -1   -1    0    0    0  501 -0.00000000000E+00  0.00000000000E+00  0.13022423248E+03  0.13022423248E+03  0.00000000000E+00 0.  1.
          1   -1    0    0  501    0  0.00000000000E+00 -0.00000000000E+00 -0.15810431481E+03  0.15810431481E+03  0.00000000000E+00 0. -1.
         23    2    1    2    0    0  0.66017128032E+02  0.32091406902E+02 -0.72208511156E+02  0.16195147672E+03  0.12500436847E+03 0.  0.
          5    1    3    3  502    0  0.84499395504E+02  0.32526794228E+02 -0.35961214723E+01  0.90736774644E+02  0.47000000000E+01 0. -1.
         -5    1    3    3    0  502 -0.18482267472E+02 -0.43538732568E+00 -0.68612389683E+02  0.71214702071E+02  0.47000000000E+01 0. -1.
        -11    1    1    2    0    0 -0.24541088881E+00 -0.48593012190E+02  0.29878369112E+02  0.57044351175E+02  0.00000000000E+00 0.  1.
         11    1    1    2    0    0 -0.65771717143E+02  0.16501605288E+02  0.14450059712E+02  0.69332719395E+02  0.00000000000E+00 0. -1.
<mgrwt>
<rscale>  0 0.13779463E+03</rscale>
<asrwt>0</asrwt>
<pdfrwt beam="2">  1        1 0.24323741E-01 0.14496279E+03</pdfrwt>
<pdfrwt beam="1">  1       -1 0.20034497E-01 0.14496279E+03</pdfrwt>
<totfact> 0.38438666E+03</totfact>
</mgrwt>
</event>
<event>
 7    1  0.8165933E-006  0.1526865E+03  0.7546771E-02  0.1204930E+00
         -4   -1    0    0    0  501 -0.00000000000E+00  0.00000000000E+00  0.10626654634E+03  0.10626654634E+03  0.00000000000E+00 0.  1.
          4   -1    0    0  501    0  0.00000000000E+00 -0.00000000000E+00 -0.19740703696E+03  0.19740703696E+03  0.00000000000E+00 0. -1.
         23    2    1    2    0    0 -0.37865891284E+02  0.79079170518E+02 -0.14220212049E+02  0.15334721619E+03  0.12500325336E+03 0.  0.
          5    1    3    3  502    0  0.95776229777E+01 -0.27944569447E+02 -0.20098928170E+02  0.36037296473E+02  0.47000000000E+01 0.  1.
         -5    1    3    3    0  502 -0.47443514262E+02  0.10702373997E+03  0.58787161209E+01  0.11730991972E+03  0.47000000000E+01 0.  1.
        -11    1    1    2    0    0 -0.26535796416E+02 -0.53365558366E+02 -0.39853755238E+02  0.71696255954E+02  0.00000000000E+00 0.  1.
         11    1    1    2    0    0  0.64401687701E+02 -0.25713612152E+02 -0.37066523336E+02  0.78630111159E+02  0.00000000000E+00 0. -1.
<mgrwt>
<rscale>  0 0.14642967E+03</rscale>
<asrwt>0</asrwt>
<pdfrwt beam="2">  1        4 0.30370313E-01 0.15268646E+03</pdfrwt>
<pdfrwt beam="1">  1       -4 0.16348700E-01 0.15268646E+03</pdfrwt>
<totfact> 0.57019486E+02</totfact>
</mgrwt>
</event>
<event>
 7    1  0.8165933E-006  0.1298150E+03  0.7546771E-02  0.1243246E+00
         -2   -1    0    0    0  501 -0.00000000000E+00  0.00000000000E+00  0.38517584103E+02  0.38517584103E+02  0.00000000000E+00 0.  1.
          2   -1    0    0  501    0  0.00000000000E+00 -0.00000000000E+00 -0.33601633730E+03  0.33601633730E+03  0.00000000000E+00 0. -1.
         23    2    1    2    0    0  0.33527127871E+02  0.10291363772E+02 -0.20249367571E+03  0.24053195034E+03  0.12498779925E+03 0.  0.
          5    1    3    3  502    0  0.43286949033E+02  0.35158348152E+02 -0.20573884212E+03  0.21321451770E+03  0.47000000000E+01 0.  1.
         -5    1    3    3    0  502 -0.97598211612E+01 -0.24866984379E+02  0.32451664077E+01  0.27317432644E+02  0.47000000000E+01 0.  1.
        -11    1    1    2    0    0  0.39265412920E+01 -0.37439333018E+02 -0.74360685214E+02  0.83346462966E+02  0.00000000000E+00 0. -1.
         11    1    1    2    0    0 -0.37453669163E+02  0.27147969246E+02 -0.20644392268E+02  0.50655508092E+02  0.00000000000E+00 0.  1.
<mgrwt>
<rscale>  0 0.11990947E+03</rscale>
<asrwt>0</asrwt>
<pdfrwt beam="2">  1        2 0.51694818E-01 0.12981499E+03</pdfrwt>
<pdfrwt beam="1">  1       -2 0.59257825E-02 0.12981499E+03</pdfrwt>
<totfact> 0.13682005E+04</totfact>
</mgrwt>
</event>
<event>
 7    1  0.8165933E-006  0.1530097E+03  0.7546771E-02  0.1201891E+00
         -2   -1    0    0    0  501 -0.00000000000E+00  0.00000000000E+00  0.58817033998E+02  0.58817033998E+02  0.00000000000E+00 0.  1.
          2   -1    0    0  501    0  0.00000000000E+00 -0.00000000000E+00 -0.51140395279E+03  0.51140395279E+03  0.00000000000E+00 0. -1.
         23    2    1    2    0    0 -0.74119747434E+02 -0.47909558494E+02 -0.39119790397E+03  0.42005685217E+03  0.12499158463E+03 0.  0.
          5    1    3    3  502    0 -0.72109338337E+02  0.25148426457E+02 -0.24281059995E+03  0.25458059132E+03  0.47000000000E+01 0. -1.
         -5    1    3    3    0  502 -0.20104090964E+01 -0.73057984951E+02 -0.14838730402E+03  0.16547626084E+03  0.47000000000E+01 0. -1.
        -11    1    1    2    0    0  0.86743106526E+02  0.13244831633E+02 -0.12071208445E+02  0.88574861942E+02  0.00000000000E+00 0.  1.
         11    1    1    2    0    0 -0.12623359092E+02  0.34664726861E+02 -0.49317806377E+02  0.61589272678E+02  0.00000000000E+00 0. -1.
<mgrwt>
<rscale>  0 0.14885143E+03</rscale>
<asrwt>0</asrwt>
<pdfrwt beam="2">  1        2 0.78677531E-01 0.15300967E+03</pdfrwt>
<pdfrwt beam="1">  1       -2 0.90487745E-02 0.15300967E+03</pdfrwt>
<totfact> 0.45890992E+03</totfact>
</mgrwt>
</event>
<event>
 7    1  0.8165933E-006  0.1491968E+03  0.7546771E-02  0.1207439E+00
         -1   -1    0    0    0  501 -0.00000000000E+00  0.00000000000E+00  0.55218148292E+02  0.55218148292E+02  0.00000000000E+00 0.  1.
          1   -1    0    0  501    0  0.00000000000E+00 -0.00000000000E+00 -0.43795946172E+03  0.43795946172E+03  0.00000000000E+00 0. -1.
         23    2    1    2    0    0 -0.81296200774E+02 -0.45647799152E+01 -0.30794733684E+03  0.34218598980E+03  0.12501911803E+03 0.  0.
          5    1    3    3  502    0 -0.48457818236E+01 -0.49263472186E+02 -0.17833942772E+03  0.18514160196E+03  0.47000000000E+01 0.  1.
         -5    1    3    3    0  502 -0.76450418950E+02  0.44698692271E+02 -0.12960790912E+03  0.15704438785E+03  0.47000000000E+01 0.  1.
        -11    1    1    2    0    0  0.73618889838E+02 -0.38867677105E+02 -0.65474552053E+02  0.10591201174E+03  0.00000000000E+00 0.  1.
         11    1    1    2    0    0  0.76773109358E+01  0.43432457020E+02 -0.93194245321E+01  0.45079608468E+02  0.00000000000E+00 0. -1.
<mgrwt>
<rscale>  0 0.14446891E+03</rscale>
<asrwt>0</asrwt>
<pdfrwt beam="2">  1        1 0.67378382E-01 0.14919681E+03</pdfrwt>
<pdfrwt beam="1">  1       -1 0.84950993E-02 0.14919681E+03</pdfrwt>
<totfact> 0.41020332E+03</totfact>
</mgrwt>
</event>
<event>
 7    1  0.8165933E-006  0.1759020E+03  0.7546771E-02  0.1174099E+00
          2   -1    0    0  501    0  0.00000000000E+00  0.00000000000E+00  0.63789094031E+03  0.63789094031E+03  0.00000000000E+00 0. -1.
         -2   -1    0    0    0  501 -0.00000000000E+00 -0.00000000000E+00 -0.53002473768E+02  0.53002473768E+02  0.00000000000E+00 0.  1.
         23    2    1    2    0    0  0.11371672396E+03  0.70104408674E+02  0.42368826534E+03  0.45875186798E+03  0.11443517272E+03 0.  0.
          5    1    3    3  502    0  0.10600991165E+02 -0.18392893048E+02  0.16576732440E+03  0.16718724642E+03  0.47000000000E+01 0. -1.
         -5    1    3    3    0  502  0.10311573280E+03  0.88497301722E+02  0.25792094095E+03  0.29156462155E+03  0.47000000000E+01 0.  1.
        -11    1    1    2    0    0  0.14466335324E+02 -0.27744711009E+02  0.39425937216E+02  0.50333372349E+02  0.00000000000E+00 0.  1.
         11    1    1    2    0    0 -0.12818305929E+03 -0.42359697666E+02  0.12177426398E+03  0.18180817375E+03  0.00000000000E+00 0. -1.
<mgrwt>
<rscale>  0 0.17364483E+03</rscale>
<asrwt>0</asrwt>
<pdfrwt beam="1">  1        2 0.98137062E-01 0.17590205E+03</pdfrwt>
<pdfrwt beam="2">  1       -2 0.81542272E-02 0.17590205E+03</pdfrwt>
<totfact> 0.42253857E+03</totfact>
</mgrwt>
</event>
<event>
 7    1  0.8165933E-006  0.1870855E+03  0.7546771E-02  0.1165592E+00
         -1   -1    0    0    0  501 -0.00000000000E+00  0.00000000000E+00  0.10025794462E+03  0.10025794462E+03  0.00000000000E+00 0.  1.
          1   -1    0    0  501    0  0.00000000000E+00 -0.00000000000E+00 -0.31602353465E+03  0.31602353465E+03  0.00000000000E+00 0. -1.
         23    2    1    2    0    0 -0.13121824304E+03  0.46460216710E+02 -0.10591373795E+03  0.21498534091E+03  0.12499679147E+03 0.  0.
          5    1    3    3  502    0  0.20717104236E+02 -0.11428421278E+02 -0.96818706874E+01  0.25992995996E+02  0.47000000000E+01 0.  1.
         -5    1    3    3    0  502 -0.15193534727E+03  0.57888637988E+02 -0.96231867259E+02  0.18899234491E+03  0.47000000000E+01 0.  1.
        -11    1    1    2    0    0  0.13083841695E+02  0.21532365576E+01  0.16803837103E+02  0.21405426474E+02  0.00000000000E+00 0.  1.
         11    1    1    2    0    0  0.11813440134E+03 -0.48613453268E+02 -0.12665568919E+03  0.17989071189E+03  0.00000000000E+00 0. -1.
<mgrwt>
<rscale>  0 0.18230371E+03</rscale>
<asrwt>0</asrwt>
<pdfrwt beam="2">  1        1 0.48619004E-01 0.18708548E+03</pdfrwt>
<pdfrwt beam="1">  1       -1 0.15424300E-01 0.18708548E+03</pdfrwt>
<totfact> 0.24833057E+03</totfact>
</mgrwt>
</event>
<event>
 7    1  0.8165933E-006  0.1439362E+03  0.7546771E-02  0.1218411E+00
          2   -1    0    0  501    0  0.00000000000E+00  0.00000000000E+00  0.47013757329E+03  0.47013757329E+03  0.00000000000E+00 0. -1.
         -2   -1    0    0    0  501 -0.00000000000E+00 -0.00000000000E+00 -0.35947790097E+02  0.35947790097E+02  0.00000000000E+00 0.  1.
         23    2    1    2    0    0  0.13767686005E+01 -0.71431886638E+02  0.22727816015E+03  0.26902230678E+03  0.12495290931E+03 0.  0.
          5    1    3    3  502    0 -0.32654140621E+02 -0.15744885593E+02  0.19047481139E+03  0.19395086516E+03  0.47000000000E+01 0. -1.
         -5    1    3    3    0  502  0.34030909222E+02 -0.55687001045E+02  0.36803348760E+02  0.75071441626E+02  0.47000000000E+01 0. -1.
        -11    1    1    2    0    0 -0.43485274160E+01  0.29855121546E+02  0.46202427030E+01  0.30521871107E+02  0.00000000000E+00 0.  1.
         11    1    1    2    0    0  0.29717588155E+01  0.41576765092E+02  0.20229138034E+03  0.20654118549E+03  0.00000000000E+00 0. -1.
<mgrwt>
<rscale>  0 0.13628902E+03</rscale>
<asrwt>0</asrwt>
<pdfrwt beam="1">  1        2 0.72328853E-01 0.14393623E+03</pdfrwt>
<pdfrwt beam="2">  1       -2 0.55304296E-02 0.14393623E+03</pdfrwt>
<totfact> 0.10683012E+04</totfact>
</mgrwt>
</event>
<event>
 7    1  0.8165933E-006  0.1807810E+03  0.7546771E-02  0.1172348E+00
          2   -1    0    0  501    0  0.00000000000E+00  0.00000000000E+00  0.71715644252E+03  0.71715644252E+03  0.00000000000E+00 0. -1.
         -2   -1    0    0    0  501 -0.00000000000E+00 -0.00000000000E+00 -0.41114758772E+02  0.41114758772E+02  0.00000000000E+00 0.  1.
         23    2    1    2    0    0 -0.17356215136E+02 -0.12944299280E+03  0.40387964364E+03  0.44249356144E+03  0.12500023514E+03 0.  0.
          5    1    3    3  502    0  0.40871141030E+02 -0.11108786840E+03  0.28846498883E+03  0.31184147328E+03  0.47000000000E+01 0. -1.
         -5    1    3    3    0  502 -0.58227356165E+02 -0.18355124398E+02  0.11541465481E+03  0.13065208816E+03  0.47000000000E+01 0. -1.
        -11    1    1    2    0    0  0.49294570817E+02  0.61536143552E+02  0.95529321849E+02  0.12386485784E+03  0.00000000000E+00 0.  1.
         11    1    1    2    0    0 -0.31938355681E+02  0.67906849244E+02  0.17663271826E+03  0.19191278201E+03  0.00000000000E+00 0. -1.
<mgrwt>
<rscale>  0 0.17538260E+03</rscale>
<asrwt>0</asrwt>
<pdfrwt beam="1">  1        2 0.11033175E+00 0.18078104E+03</pdfrwt>
<pdfrwt beam="2">  1       -2 0.63253480E-02 0.18078104E+03</pdfrwt>
<totfact> 0.54468338E+03</totfact>
</mgrwt>
</event>
<event>
 7    1  0.8165933E-006  0.1257958E+03  0.7546771E-02  0.1249290E+00
          1   -1    0    0  501    0  0.00000000000E+00  0.00000000000E+00  0.34272908943E+03  0.34272908943E+03  0.00000000000E+00 0. -1.
         -1   -1    0    0    0  501 -0.00000000000E+00 -0.00000000000E+00 -0.34596335460E+02  0.34596335460E+02  0.00000000000E+00 0.  1.
         23    2    1    2    0    0 -0.14102812553E+02  0.99623354151E+00  0.17601109481E+03  0.21634347823E+03  0.12499885310E+03 0.  0.
          5    1    3    3  502    0  0.36680764850E+02  0.20937062108E+02  0.14965296226E+03  0.15556972132E+03  0.47000000000E+01 0.  1.
         -5    1    3    3    0  502 -0.50783577403E+02 -0.19940828567E+02  0.26358132549E+02  0.60773756913E+02  0.47000000000E+01 0.  1.
        -11    1    1    2    0    0  0.38615395369E+02 -0.28735439410E+02  0.10364972787E+03  0.11428097097E+03  0.00000000000E+00 0. -1.
         11    1    1    2    0    0 -0.24512582817E+02  0.27739205868E+02  0.28471931289E+02  0.46700975684E+02  0.00000000000E+00 0.  1.
<mgrwt>
<rscale>  0 0.11632283E+03</rscale>
<asrwt>0</asrwt>
<pdfrwt beam="1">  1        1 0.52727550E-01 0.12579585E+03</pdfrwt>
<pdfrwt beam="2">  1       -1 0.53225134E-02 0.12579585E+03</pdfrwt>
<totfact> 0.11127845E+04</totfact>
</mgrwt>
</event>
<event>
 7    1  0.8165933E-006  0.1333383E+03  0.7546771E-02  0.1232042E+00
          2   -1    0    0  501    0  0.00000000000E+00  0.00000000000E+00  0.16529212571E+04  0.16529212571E+04  0.00000000000E+00 0. -1.
         -2   -1    0    0    0  501 -0.00000000000E+00 -0.00000000000E+00 -0.96795063521E+01  0.96795063521E+01  0.00000000000E+00 0.  1.
         23    2    1    2    0    0 -0.19469423095E+02  0.52701038685E+02  0.11266701460E+04  0.11345328237E+04  0.12092415921E+03 0.  0.
          5    1    3    3  502    0  0.47834405607E+02  0.39023905591E+02  0.64566773733E+03  0.64862925666E+03  0.47000000000E+01 0. -1.
         -5    1    3    3    0  502 -0.67303828702E+02  0.13677133094E+02  0.48100240865E+03  0.48590356704E+03  0.47000000000E+01 0.  1.
        -11    1    1    2    0    0 -0.37736564502E+02 -0.19922464927E+02  0.16946282135E+03  0.17475297059E+03  0.00000000000E+00 0.  1.
         11    1    1    2    0    0  0.57205987597E+02 -0.32778573758E+02  0.34710878337E+03  0.35331496912E+03  0.00000000000E+00 0. -1.
<mgrwt>
<rscale>  0 0.12695710E+03</rscale>
<asrwt>0</asrwt>
<pdfrwt beam="1">  1        2 0.25429535E+00 0.13333833E+03</pdfrwt>
<pdfrwt beam="2">  1       -2 0.14891561E-02 0.13333833E+03</pdfrwt>
<totfact> 0.13118913E+04</totfact>
</mgrwt>
</event>
<event>
 7    1  0.8165933E-006  0.1251482E+03  0.7546771E-02  0.1244717E+00
         -1   -1    0    0    0  501 -0.00000000000E+00  0.00000000000E+00  0.22936027603E+02  0.22936027603E+02  0.00000000000E+00 0.  1.
          1   -1    0    0  501    0  0.00000000000E+00 -0.00000000000E+00 -0.61081949526E+03  0.61081949526E+03  0.00000000000E+00 0. -1.
         23    2    1    2    0    0  0.25748222671E+01  0.56507685330E+01 -0.40812229799E+03  0.42687924147E+03  0.12499406299E+03 0.  0.
          5    1    3    3  502    0 -0.38837208708E+02  0.44361280148E+02 -0.28745625480E+03  0.29347817700E+03  0.47000000000E+01 0. -1.
         -5    1    3    3    0  502  0.41412030975E+02 -0.38710511615E+02 -0.12066604320E+03  0.13340106446E+03  0.47000000000E+01 0. -1.
        -11    1    1    2    0    0 -0.44482255106E+02 -0.15099360602E+02 -0.14238371854E+03  0.14993260157E+03  0.00000000000E+00 0. -1.
         11    1    1    2    0    0  0.41907432839E+02  0.94485920693E+01 -0.37377451134E+02  0.56943679829E+02  0.00000000000E+00 0.  1.
<mgrwt>
<rscale>  0 0.11902356E+03</rscale>
<asrwt>0</asrwt>
<pdfrwt beam="2">  1        1 0.93972226E-01 0.12514822E+03</pdfrwt>
<pdfrwt beam="1">  1       -1 0.35286198E-02 0.12514822E+03</pdfrwt>
<totfact> 0.96682066E+03</totfact>
</mgrwt>
</event>
<event>
 7    1  0.8165933E-006  0.1490303E+03  0.7546771E-02  0.1211043E+00
          2   -1    0    0  501    0  0.00000000000E+00  0.00000000000E+00  0.11536362238E+03  0.11536362238E+03  0.00000000000E+00 0.  1.
         -2   -1    0    0    0  501 -0.00000000000E+00 -0.00000000000E+00 -0.15993205568E+03  0.15993205568E+03  0.00000000000E+00 0. -1.
         23    2    1    2    0    0  0.28706138552E+02  0.75899389585E+02 -0.14084671266E+02  0.14969441677E+03  0.12500112287E+03 0.  0.
          5    1    3    3  502    0  0.67242218424E+02  0.49797751557E+01 -0.13047751201E+02  0.68837837783E+02  0.47000000000E+01 0.  1.
         -5    1    3    3    0  502 -0.38536079872E+02  0.70919614430E+02 -0.10369200653E+01  0.80856578990E+02  0.47000000000E+01 0.  1.
        -11    1    1    2    0    0 -0.28525000741E+02 -0.49008626564E+02 -0.62100449454E+02  0.84095106679E+02  0.00000000000E+00 0. -1.
         11    1    1    2    0    0 -0.18113781117E+00 -0.26890763021E+02  0.31616687424E+02  0.41506154609E+02  0.00000000000E+00 0.  1.
<mgrwt>
<rscale>  0 0.14171268E+03</rscale>
<asrwt>0</asrwt>
<pdfrwt beam="1">  1        2 0.17748250E-01 0.14903033E+03</pdfrwt>
<pdfrwt beam="2">  1       -2 0.24604932E-01 0.14903033E+03</pdfrwt>
<totfact> 0.44858210E+03</totfact>
</mgrwt>
</event>
<event>
 7    1  0.8165933E-006  0.1868293E+03  0.7546771E-02  0.1166286E+00
          1   -1    0    0  501    0  0.00000000000E+00  0.00000000000E+00  0.17943476330E+04  0.17943476330E+04  0.00000000000E+00 0. -1.
         -1   -1    0    0    0  501 -0.00000000000E+00 -0.00000000000E+00 -0.18004273128E+02  0.18004273128E+02  0.00000000000E+00 0.  1.
         23    2    1    2    0    0  0.13639636633E+03 -0.26673367681E+02  0.11011895325E+04  0.11169259536E+04  0.12485896867E+03 0.  0.
          5    1    3    3  502    0  0.21964031388E+02 -0.40957428125E+02  0.11681640422E+03  0.12580974481E+03  0.47000000000E+01 0. -1.
         -5    1    3    3    0  502  0.11443233494E+03  0.14284060444E+02  0.98437312832E+03  0.99111620884E+03  0.47000000000E+01 0. -1.
        -11    1    1    2    0    0 -0.17897566061E+02  0.98796101412E+01  0.17321088237E+02  0.26794582758E+02  0.00000000000E+00 0.  1.
         11    1    1    2    0    0 -0.11849880027E+03  0.16793757540E+02  0.65783273910E+03  0.66863136974E+03  0.00000000000E+00 0. -1.
<mgrwt>
<rscale>  0 0.18157633E+03</rscale>
<asrwt>0</asrwt>
<pdfrwt beam="1">  1        1 0.27605334E+00 0.18682933E+03</pdfrwt>
<pdfrwt beam="2">  1       -1 0.27698896E-02 0.18682933E+03</pdfrwt>
<totfact> 0.19509789E+03</totfact>
</mgrwt>
</event>
<event>
 7    1  0.8165933E-006  0.1255862E+03  0.7546771E-02  0.1240420E+00
          1   -1    0    0  501    0  0.00000000000E+00  0.00000000000E+00  0.50404330282E+03  0.50404330282E+03  0.00000000000E+00 0. -1.
         -1   -1    0    0    0  501 -0.00000000000E+00 -0.00000000000E+00 -0.27650825926E+02  0.27650825926E+02  0.00000000000E+00 0.  1.
         23    2    1    2    0    0  0.74025815542E+01  0.95365729589E+01  0.25152693195E+03  0.28113643015E+03  0.12500460161E+03 0.  0.
          5    1    3    3  502    0  0.42516755182E+02  0.42026324794E+02  0.64663598335E+02  0.88189326999E+02  0.47000000000E+01 0.  1.
         -5    1    3    3    0  502 -0.35114173628E+02 -0.32489751835E+02  0.18686333362E+03  0.19294710315E+03  0.47000000000E+01 0.  1.
        -11    1    1    2    0    0  0.27655763213E+02  0.13752396949E+02  0.11306727126E+02  0.32890906631E+02  0.00000000000E+00 0.  1.
         11    1    1    2    0    0 -0.35058344767E+02 -0.23288969908E+02  0.21355881781E+03  0.21766679196E+03  0.00000000000E+00 0. -1.
<mgrwt>
<rscale>  0 0.12163724E+03</rscale>
<asrwt>0</asrwt>
<pdfrwt beam="1">  1        1 0.77545117E-01 0.12558620E+03</pdfrwt>
<pdfrwt beam="2">  1       -1 0.42539736E-02 0.12558620E+03</pdfrwt>
<totfact> 0.94991308E+03</totfact>
</mgrwt>
</event>
<event>
 7    1  0.8165933E-006  0.1617189E+03  0.7546771E-02  0.1194385E+00
         -1   -1    0    0    0  501 -0.00000000000E+00  0.00000000000E+00  0.19035237138E+02  0.19035237138E+02  0.00000000000E+00 0.  1.
          1   -1    0    0  501    0  0.00000000000E+00 -0.00000000000E+00 -0.13533663461E+04  0.13533663461E+04  0.00000000000E+00 0. -1.
         23    2    1    2    0    0 -0.10068508662E+03  0.19744562900E+02 -0.96762145090E+03  0.98104244624E+03  0.12500269859E+03 0.  0.
          5    1    3    3  502    0 -0.72115084762E+02  0.56365941388E+02 -0.84293408914E+03  0.84790192442E+03  0.47000000000E+01 0.  1.
         -5    1    3    3    0  502 -0.28570001859E+02 -0.36621378489E+02 -0.12468736176E+03  0.13314052182E+03  0.47000000000E+01 0.  1.
        -11    1    1    2    0    0  0.54163950550E+02  0.26052982707E+01 -0.30988895968E+03  0.31459766123E+03  0.00000000000E+00 0. -1.
         11    1    1    2    0    0  0.46521136071E+02 -0.22349861170E+02 -0.56820698334E+02  0.76761475721E+02  0.00000000000E+00 0.  1.
<mgrwt>
<rscale>  0 0.15506371E+03</rscale>
<asrwt>0</asrwt>
<pdfrwt beam="2">  1        1 0.20821024E+00 0.16171892E+03</pdfrwt>
<pdfrwt beam="1">  1       -1 0.29284976E-02 0.16171892E+03</pdfrwt>
<totfact> 0.34789163E+03</totfact>
</mgrwt>
</event>
<event>
 7    1  0.8165933E-006  0.1300240E+03  0.7546771E-02  0.1235675E+00
         -3   -1    0    0    0  501 -0.00000000000E+00  0.00000000000E+00  0.33631824725E+03  0.33631824725E+03  0.00000000000E+00 0.  1.
          3   -1    0    0  501    0  0.00000000000E+00 -0.00000000000E+00 -0.48384123331E+02  0.48384123331E+02  0.00000000000E+00 0. -1.
         23    2    1    2    0    0 -0.59734353862E+02  0.30944292808E+02  0.89122379828E+02  0.15763575476E+03  0.11126765165E+03 0.  0.
          5    1    3    3  502    0 -0.18882554018E+02  0.47160149643E+02 -0.73262960837E+01  0.51540228704E+02  0.47000000000E+01 0. -1.
         -5    1    3    3    0  502 -0.40851799845E+02 -0.16215856835E+02  0.96448675912E+02  0.10609552605E+03  0.47000000000E+01 0.  1.
        -11    1    1    2    0    0  0.25747857843E+02 -0.58023220608E+02  0.14198191725E+03  0.15552656088E+03  0.00000000000E+00 0.  1.
         11    1    1    2    0    0  0.33986496019E+02  0.27078927800E+02  0.56829826838E+02  0.71540054940E+02  0.00000000000E+00 0. -1.
<mgrwt>
<rscale>  0 0.12461345E+03</rscale>
<asrwt>0</asrwt>
<pdfrwt beam="2">  1        3 0.74437115E-02 0.13002397E+03</pdfrwt>
<pdfrwt beam="1">  1       -3 0.51741267E-01 0.13002397E+03</pdfrwt>
<totfact> 0.10248275E+03</totfact>
</mgrwt>
</event>
<event>
 7    1  0.8165933E-006  0.2456774E+03  0.7546771E-02  0.1119195E+00
         -2   -1    0    0    0  501 -0.00000000000E+00  0.00000000000E+00  0.40763295113E+02  0.40763295113E+02  0.00000000000E+00 0.  1.
          2   -1    0    0  501    0  0.00000000000E+00 -0.00000000000E+00 -0.17857270323E+04  0.17857270323E+04  0.00000000000E+00 0. -1.
         23    2    1    2    0    0  0.38841828480E+01  0.21146863706E+03 -0.13386546692E+04  0.13610120230E+04  0.12499332800E+03 0.  0.
          5    1    3    3  502    0 -0.39026896031E+02  0.73200706748E+02 -0.26746853114E+03  0.28007668098E+03  0.47000000000E+01 0. -1.
         -5    1    3    3    0  502  0.42911078879E+02  0.13826793032E+03 -0.10711861380E+04  0.10809353420E+04  0.47000000000E+01 0. -1.
        -11    1    1    2    0    0  0.78454108191E+01 -0.17817757865E+03 -0.26219130571E+03  0.31710105770E+03  0.00000000000E+00 0. -1.
         11    1    1    2    0    0 -0.11729593667E+02 -0.33291058413E+02 -0.14411776231E+03  0.14837724674E+03  0.00000000000E+00 0.  1.
<mgrwt>
<rscale>  0 0.24090026E+03</rscale>
<asrwt>0</asrwt>
<pdfrwt beam="2">  1        2 0.27472717E+00 0.24567744E+03</pdfrwt>
<pdfrwt beam="1">  1       -2 0.62712778E-02 0.24567744E+03</pdfrwt>
<totfact> 0.13341507E+03</totfact>
</mgrwt>
</event>
<event>
 7    1  0.8165933E-006  0.1359983E+03  0.7546771E-02  0.1231274E+00
          1   -1    0    0  501    0  0.00000000000E+00  0.00000000000E+00  0.73314490455E+03  0.73314490455E+03  0.00000000000E+00 0. -1.
         -1   -1    0    0    0  501 -0.00000000000E+00 -0.00000000000E+00 -0.29283967921E+02  0.29283967921E+02  0.00000000000E+00 0.  1.
         23    2    1    2    0    0  0.22936056367E+02  0.48421284957E+02  0.59840077595E+03  0.61366034632E+03  0.12499939387E+03 0.  0.
          5    1    3    3  502    0  0.46838339886E+02  0.51490955373E+02  0.15970822562E+03  0.17428125515E+03  0.47000000000E+01 0. -1.
         -5    1    3    3    0  502 -0.23902283519E+02 -0.30696704158E+01  0.43869255034E+03  0.43937909117E+03  0.47000000000E+01 0. -1.
        -11    1    1    2    0    0  0.73037872755E+01 -0.59227713115E+02  0.30070375647E+02  0.66824357842E+02  0.00000000000E+00 0.  1.
         11    1    1    2    0    0 -0.30239843643E+02  0.10806428158E+02  0.75389785030E+02  0.81944168309E+02  0.00000000000E+00 0. -1.
<mgrwt>
<rscale>  0 0.12746020E+03</rscale>
<asrwt>0</asrwt>
<pdfrwt beam="1">  1        1 0.11279151E+00 0.13599828E+03</pdfrwt>
<pdfrwt beam="2">  1       -1 0.45052264E-02 0.13599828E+03</pdfrwt>
<totfact> 0.52519322E+03</totfact>
</mgrwt>
</event>
<event>
 7    1  0.8165933E-006  0.1267112E+03  0.7546771E-02  0.1247150E+00
          2   -1    0    0  501    0  0.00000000000E+00  0.00000000000E+00  0.41649218789E+03  0.41649218789E+03  0.00000000000E+00 0. -1.
         -2   -1    0    0    0  501 -0.00000000000E+00 -0.00000000000E+00 -0.30988733435E+02  0.30988733435E+02  0.00000000000E+00 0.  1.
         23    2    1    2    0    0 -0.16558501045E+01  0.20684384324E+02  0.27259958786E+03  0.30060981087E+03  0.12500054999E+03 0.  0.
          5    1    3    3  502    0  0.45599195760E+02  0.20609298018E+02  0.23421851746E+03  0.23955048266E+03  0.47000000000E+01 0.  1.
         -5    1    3    3    0  502 -0.47255045864E+02  0.75086306366E-01  0.38381070395E+02  0.61059328217E+02  0.47000000000E+01 0.  1.
        -11    1    1    2    0    0 -0.27077957051E+02 -0.32233949991E+02  0.15827771602E+02  0.44975122501E+02  0.00000000000E+00 0.  1.
         11    1    1    2    0    0  0.28733807156E+02  0.11549565667E+02  0.97076094994E+02  0.10189598795E+03  0.00000000000E+00 0. -1.
<mgrwt>
<rscale>  0 0.11757592E+03</rscale>
<asrwt>0</asrwt>
<pdfrwt beam="1">  1        2 0.64075717E-01 0.12671118E+03</pdfrwt>
<pdfrwt beam="2">  1       -2 0.47674978E-02 0.12671118E+03</pdfrwt>
<totfact> 0.15072430E+04</totfact>
</mgrwt>
</event>
<event>
 7    1  0.8165933E-006  0.1724455E+03  0.7546771E-02  0.1179834E+00
          1   -1    0    0  501    0  0.00000000000E+00  0.00000000000E+00  0.77541216500E+03  0.77541216500E+03  0.00000000000E+00 0. -1.
         -1   -1    0    0    0  501 -0.00000000000E+00 -0.00000000000E+00 -0.36799015980E+02  0.36799015980E+02  0.00000000000E+00 0.  1.
         23    2    1    2    0    0  0.61849487734E+02 -0.11055730163E+03  0.48329804082E+03  0.51314172797E+03  0.11700068653E+03 0.  0.
          5    1    3    3  502    0  0.22922567301E+02 -0.48368456525E+01  0.27709068865E+03  0.27811900134E+03  0.47000000000E+01 0. -1.
         -5    1    3    3    0  502  0.38926920433E+02 -0.10572045598E+03  0.20620735217E+03  0.23502272664E+03  0.47000000000E+01 0.  1.
        -11    1    1    2    0    0 -0.76956622435E+02  0.11517598320E+03  0.23976541613E+03  0.27690302204E+03  0.00000000000E+00 0. -1.
         11    1    1    2    0    0  0.15107134702E+02 -0.46186815701E+01  0.15549692062E+02  0.22166430961E+02  0.00000000000E+00 0.  1.
<mgrwt>
<rscale>  0 0.16810973E+03</rscale>
<asrwt>0</asrwt>
<pdfrwt beam="1">  1        1 0.11929417E+00 0.17244546E+03</pdfrwt>
<pdfrwt beam="2">  1       -1 0.56613877E-02 0.17244546E+03</pdfrwt>
<totfact> 0.34763809E+03</totfact>
</mgrwt>
</event>
<event>
 7    1  0.8165933E-006  0.2072764E+03  0.7546771E-02  0.1147243E+00
          1   -1    0    0  501    0  0.00000000000E+00  0.00000000000E+00  0.21843298032E+03  0.21843298032E+03  0.00000000000E+00 0. -1.
         -1   -1    0    0    0  501 -0.00000000000E+00 -0.00000000000E+00 -0.20787181808E+03  0.20787181808E+03  0.00000000000E+00 0.  1.
         23    2    1    2    0    0 -0.12445260113E+03 -0.10884695050E+03  0.81732761053E+02  0.22280880260E+03  0.12500963853E+03 0.  0.
          5    1    3    3  502    0 -0.32775511037E+02 -0.10415894704E+03  0.70848621762E+02  0.13024952045E+03  0.47000000000E+01 0. -1.
         -5    1    3    3    0  502 -0.91677090093E+02 -0.46880034641E+01  0.10884139291E+02  0.92559282152E+02  0.47000000000E+01 0. -1.
        -11    1    1    2    0    0  0.10624121744E+03  0.43471025777E+02 -0.15729875048E+02  0.11586352029E+03  0.00000000000E+00 0.  1.
         11    1    1    2    0    0  0.18211383688E+02  0.65375924723E+02 -0.55441723767E+02  0.87632475507E+02  0.00000000000E+00 0. -1.
<mgrwt>
<rscale>  0 0.20298706E+03</rscale>
<asrwt>0</asrwt>
<pdfrwt beam="1">  1        1 0.33605074E-01 0.20727643E+03</pdfrwt>
<pdfrwt beam="2">  1       -1 0.31980280E-01 0.20727643E+03</pdfrwt>
<totfact> 0.11949599E+03</totfact>
</mgrwt>
</event>
<event>
 7    1  0.8165933E-006  0.1263302E+03  0.7546771E-02  0.1247443E+00
         -4   -1    0    0    0  501 -0.00000000000E+00  0.00000000000E+00  0.11736606655E+03  0.11736606655E+03  0.00000000000E+00 0.  1.
          4   -1    0    0  501    0  0.00000000000E+00 -0.00000000000E+00 -0.10517376741E+03  0.10517376741E+03  0.00000000000E+00 0. -1.
         23    2    1    2    0    0 -0.17748980129E+02 -0.46258242216E+01 -0.63895762383E+01  0.12649169885E+03  0.12499159431E+03 0.  0.
          5    1    3    3  502    0  0.19406901192E+02 -0.47841898023E+02  0.28840942906E+02  0.59324236262E+02  0.47000000000E+01 0. -1.
         -5    1    3    3    0  502 -0.37155881321E+02  0.43216073802E+02 -0.35230519144E+02  0.67167462590E+02  0.47000000000E+01 0. -1.
        -11    1    1    2    0    0 -0.11032507442E+02  0.19821656387E+02 -0.29975682858E+02  0.37591965168E+02  0.00000000000E+00 0. -1.
         11    1    1    2    0    0  0.28781487571E+02 -0.15195832166E+02  0.48557558241E+02  0.58456169942E+02  0.00000000000E+00 0.  1.
<mgrwt>
<rscale>  0 0.11740370E+03</rscale>
<asrwt>0</asrwt>
<pdfrwt beam="2">  1        4 0.16180580E-01 0.12633021E+03</pdfrwt>
<pdfrwt beam="1">  1       -4 0.18056318E-01 0.12633021E+03</pdfrwt>
<totfact> 0.14493328E+03</totfact>
</mgrwt>
</event>
<event>
 7    1  0.8165933E-006  0.1312733E+03  0.7546771E-02  0.1237388E+00
          2   -1    0    0  501    0  0.00000000000E+00  0.00000000000E+00  0.77488885777E+03  0.77488885777E+03  0.00000000000E+00 0. -1.
         -2   -1    0    0    0  501 -0.00000000000E+00 -0.00000000000E+00 -0.21984019694E+02  0.21984019694E+02  0.00000000000E+00 0.  1.
         23    2    1    2    0    0  0.36732833606E+02  0.16202626917E+02  0.58805410321E+03  0.60252825810E+03  0.12498338819E+03 0.  0.
          5    1    3    3  502    0  0.67977266097E+02  0.50196371199E+02  0.39657063224E+03  0.40550085172E+03  0.47000000000E+01 0.  1.
         -5    1    3    3    0  502 -0.31244432491E+02 -0.33993744282E+02  0.19148347097E+03  0.19702740638E+03  0.47000000000E+01 0.  1.
        -11    1    1    2    0    0 -0.60764055211E+02  0.10741441316E+02  0.72600520371E+02  0.95281081676E+02  0.00000000000E+00 0.  1.
         11    1    1    2    0    0  0.24031221605E+02 -0.26944068233E+02  0.92250214492E+02  0.99063537685E+02  0.00000000000E+00 0. -1.
<mgrwt>
<rscale>  0 0.12352791E+03</rscale>
<asrwt>0</asrwt>
<pdfrwt beam="1">  1        2 0.11921365E+00 0.13127328E+03</pdfrwt>
<pdfrwt beam="2">  1       -2 0.33821575E-02 0.13127328E+03</pdfrwt>
<totfact> 0.12469377E+04</totfact>
</mgrwt>
</event>
<event>
 7    1  0.9817511E-006  0.3826114E+03  0.7546771E-02  0.1050912E+00
          2   -1    0    0  501    0  0.00000000000E+00  0.00000000000E+00  0.59937469217E+03  0.59937469217E+03  0.00000000000E+00 0. -1.
         -2   -1    0    0    0  501 -0.00000000000E+00 -0.00000000000E+00 -0.27652082982E+03  0.27652082982E+03  0.00000000000E+00 0.  1.
         23    2    1    2    0    0  0.36160854649E+03 -0.24667818770E+01  0.32709569005E+03  0.50337174048E+03  0.12499877103E+03 0.  0.
          5    1    3    3  502    0  0.29499317907E+03  0.41769002773E+02  0.22380966453E+03  0.37266403265E+03  0.47000000000E+01 0. -1.
         -5    1    3    3    0  502  0.66615367414E+02 -0.44235784650E+02  0.10328602552E+03  0.13070770783E+03  0.47000000000E+01 0. -1.
        -11    1    1    2    0    0 -0.17173166382E+03 -0.16056873631E+02  0.39161272550E+02  0.17687055385E+03  0.00000000000E+00 0. -1.
         11    1    1    2    0    0 -0.18987688266E+03  0.18523655508E+02 -0.43403100246E+02  0.19565322766E+03  0.00000000000E+00 0.  1.
<mgrwt>
<rscale>  0 0.38005805E+03</rscale>
<asrwt>0</asrwt>
<pdfrwt beam="1">  1        2 0.92211491E-01 0.38261145E+03</pdfrwt>
<pdfrwt beam="2">  1       -2 0.42541666E-01 0.38261145E+03</pdfrwt>
<totfact> 0.26712731E+02</totfact>
</mgrwt>
</event>
<event>
 7    1  0.8165933E-006  0.1301801E+03  0.7546771E-02  0.1241236E+00
         -2   -1    0    0    0  501 -0.00000000000E+00  0.00000000000E+00  0.11637274344E+03  0.11637274344E+03  0.00000000000E+00 0.  1.
          2   -1    0    0  501    0  0.00000000000E+00 -0.00000000000E+00 -0.11452186715E+03  0.11452186715E+03  0.00000000000E+00 0. -1.
         23    2    1    2    0    0  0.20774395070E+02  0.29843282886E+02 -0.17633194861E+02  0.13136894193E+03  0.12499868927E+03 0.  0.
          5    1    3    3  502    0  0.37517845356E+02  0.21669288601E+02 -0.66133042376E+02  0.79201111625E+02  0.47000000000E+01 0.  1.
         -5    1    3    3    0  502 -0.16743450287E+02  0.81739942848E+01  0.48499847515E+02  0.52167830308E+02  0.47000000000E+01 0.  1.
        -11    1    1    2    0    0 -0.43531060811E+02 -0.25377548811E+02  0.43188147549E+02  0.66364066540E+02  0.00000000000E+00 0. -1.
         11    1    1    2    0    0  0.22756665741E+02 -0.44657340747E+01 -0.23704076399E+02  0.33161602109E+02  0.00000000000E+00 0.  1.
<mgrwt>
<rscale>  0 0.12113533E+03</rscale>
<asrwt>0</asrwt>
<pdfrwt beam="2">  1        2 0.17618749E-01 0.13018014E+03</pdfrwt>
<pdfrwt beam="1">  1       -2 0.17903499E-01 0.13018014E+03</pdfrwt>
<totfact> 0.77073925E+03</totfact>
</mgrwt>
</event>
<event>
 7    1  0.8165933E-006  0.1290674E+03  0.7546771E-02  0.1242959E+00
         -1   -1    0    0    0  501 -0.00000000000E+00  0.00000000000E+00  0.54278913832E+03  0.54278913832E+03  0.00000000000E+00 0.  1.
          1   -1    0    0  501    0  0.00000000000E+00 -0.00000000000E+00 -0.38264815503E+02  0.38264815503E+02  0.00000000000E+00 0. -1.
         23    2    1    2    0    0 -0.31860111498E+02 -0.33443926206E+01  0.94988934502E+02  0.16025380249E+03  0.12502852422E+03 0.  0.
          5    1    3    3  502    0 -0.32380978969E+02 -0.45962104342E+02  0.10223217547E+03  0.11676707814E+03  0.47000000000E+01 0.  1.
         -5    1    3    3    0  502  0.52086747070E+00  0.42617711721E+02 -0.72432409704E+01  0.43486724354E+02  0.47000000000E+01 0.  1.
        -11    1    1    2    0    0  0.41335602184E+02  0.40798788501E+02  0.24639846505E+03  0.25315089715E+03  0.00000000000E+00 0.  1.
         11    1    1    2    0    0 -0.94754906858E+01 -0.37454395881E+02  0.16313692326E+03  0.16764925418E+03  0.00000000000E+00 0. -1.
<mgrwt>
<rscale>  0 0.12008376E+03</rscale>
<asrwt>0</asrwt>
<pdfrwt beam="2">  1        1 0.58868951E-02 0.12906736E+03</pdfrwt>
<pdfrwt beam="1">  1       -1 0.83506016E-01 0.12906736E+03</pdfrwt>
<totfact> 0.19183126E+03</totfact>
</mgrwt>
</event>
<event>
 7    1  0.8165933E-006  0.1324594E+03  0.7546771E-02  0.1236375E+00
         -1   -1    0    0    0  501 -0.00000000000E+00  0.00000000000E+00  0.35718912045E+03  0.35718912045E+03  0.00000000000E+00 0.  1.
          1   -1    0    0  501    0  0.00000000000E+00 -0.00000000000E+00 -0.43337652614E+02  0.43337652614E+02  0.00000000000E+00 0. -1.
         23    2    1    2    0    0 -0.43024281369E+02  0.82819529715E+01  0.10892712021E+03  0.17149521138E+03  0.12500324186E+03 0.  0.
          5    1    3    3  502    0  0.10431009816E+02 -0.29685670430E+02 -0.11881553727E+02  0.33960363862E+02  0.47000000000E+01 0.  1.
         -5    1    3    3    0  502 -0.53455291185E+02  0.37967623401E+02  0.12080867394E+03  0.13753484751E+03  0.47000000000E+01 0.  1.
        -11    1    1    2    0    0  0.33014265963E+02  0.19431247084E+02  0.19377781550E+03  0.19752811673E+03  0.00000000000E+00 0.  1.
         11    1    1    2    0    0  0.10010015406E+02 -0.27713200055E+02  0.11146532131E+02  0.31503444959E+02  0.00000000000E+00 0. -1.
<mgrwt>
<rscale>  0 0.12416842E+03</rscale>
<asrwt>0</asrwt>
<pdfrwt beam="2">  1        1 0.66673314E-02 0.13245939E+03</pdfrwt>
<pdfrwt beam="1">  1       -1 0.54952170E-01 0.13245939E+03</pdfrwt>
<totfact> 0.36828554E+03</totfact>
</mgrwt>
</event>
<event>
 7    1  0.8165933E-006  0.1782859E+03  0.7546771E-02  0.1176263E+00
          2   -1    0    0  501    0  0.00000000000E+00  0.00000000000E+00  0.17655199663E+04  0.17655199663E+04  0.00000000000E+00 0. -1.
         -2   -1    0    0    0  501 -0.00000000000E+00 -0.00000000000E+00 -0.16991554427E+02  0.16991554427E+02  0.00000000000E+00 0.  1.
         23    2    1    2    0    0 -0.24241710583E+02  0.12478951300E+03  0.11976003053E+04  0.12107982308E+04  0.12500312534E+03 0.  0.
          5    1    3    3  502    0 -0.55859585779E+02  0.63275266686E+02  0.94763625601E+03  0.95139929388E+03  0.47000000000E+01 0. -1.
         -5    1    3    3    0  502  0.31617875196E+02  0.61514246312E+02  0.24996404929E+03  0.25939893691E+03  0.47000000000E+01 0. -1.
        -11    1    1    2    0    0  0.38815292305E+02 -0.55988555683E+02  0.15111749933E+03  0.16576442287E+03  0.00000000000E+00 0.  1.
         11    1    1    2    0    0 -0.14573581722E+02 -0.68800957315E+02  0.39981060723E+03  0.40594886705E+03  0.00000000000E+00 0. -1.
<mgrwt>
<rscale>  0 0.17152883E+03</rscale>
<asrwt>0</asrwt>
<pdfrwt beam="1">  1        2 0.27161831E+00 0.17828591E+03</pdfrwt>
<pdfrwt beam="2">  1       -2 0.26140867E-02 0.17828591E+03</pdfrwt>
<totfact> 0.51030688E+03</totfact>
</mgrwt>
</event>
<event>
 7    1  0.8165933E-006  0.1883208E+03  0.7546771E-02  0.1164879E+00
         -2   -1    0    0    0  501 -0.00000000000E+00  0.00000000000E+00  0.13958657753E+03  0.13958657753E+03  0.00000000000E+00 0.  1.
          2   -1    0    0  501    0  0.00000000000E+00 -0.00000000000E+00 -0.27826673833E+03  0.27826673833E+03  0.00000000000E+00 0. -1.
         23    2    1    2    0    0 -0.13906601708E+03  0.22519679525E+02 -0.16162739484E+03  0.24816961191E+03  0.12497299084E+03 0.  0.
          5    1    3    3  502    0 -0.16214088994E+03  0.15756028184E+02 -0.14793859140E+03  0.22010415135E+03  0.47000000000E+01 0.  1.
         -5    1    3    3    0  502  0.23074872860E+02  0.67636513408E+01 -0.13688803436E+02  0.28065460561E+02  0.47000000000E+01 0.  1.
        -11    1    1    2    0    0 -0.95624365432E+01  0.12020375578E+02 -0.12269245687E+00  0.15360490718E+02  0.00000000000E+00 0. -1.
         11    1    1    2    0    0  0.14862845362E+03 -0.34540055102E+02  0.23069926496E+02  0.15432321323E+03  0.00000000000E+00 0.  1.
<mgrwt>
<rscale>  0 0.18305509E+03</rscale>
<asrwt>0</asrwt>
<pdfrwt beam="2">  1        2 0.42810267E-01 0.18832085E+03</pdfrwt>
<pdfrwt beam="1">  1       -2 0.21474858E-01 0.18832085E+03</pdfrwt>
<totfact> 0.21742416E+03</totfact>
</mgrwt>
</event>
<event>
 7    1  0.8165933E-006  0.1423960E+03  0.7546771E-02  0.1220397E+00
          3   -1    0    0  501    0  0.00000000000E+00  0.00000000000E+00  0.37818802491E+02  0.37818802491E+02  0.00000000000E+00 0. -1.
         -3   -1    0    0    0  501 -0.00000000000E+00 -0.00000000000E+00 -0.52352234775E+03  0.52352234775E+03  0.00000000000E+00 0.  1.
         23    2    1    2    0    0  0.12567181688E+02 -0.67099418106E+02 -0.15096590769E+03  0.20752665598E+03  0.12496536197E+03 0.  0.
          5    1    3    3  502    0  0.29390773295E+01 -0.59947701572E+02 -0.17235004873E+03  0.18256230278E+03  0.47000000000E+01 0. -1.
         -5    1    3    3    0  502  0.96281043584E+01 -0.71517165343E+01  0.21384141039E+02  0.24964353204E+02  0.47000000000E+01 0. -1.
        -11    1    1    2    0    0  0.17803960927E+02  0.56510228891E+02 -0.30260140268E+03  0.30834720025E+03  0.00000000000E+00 0.  1.
         11    1    1    2    0    0 -0.30371142614E+02  0.10589189215E+02 -0.32136234884E+02  0.45467294009E+02  0.00000000000E+00 0. -1.
<mgrwt>
<rscale>  0 0.13487414E+03</rscale>
<asrwt>0</asrwt>
<pdfrwt beam="1">  1        3 0.58182781E-02 0.14239595E+03</pdfrwt>
<pdfrwt beam="2">  1       -3 0.80541889E-01 0.14239595E+03</pdfrwt>
<totfact> 0.61283282E+02</totfact>
</mgrwt>
</event>
<event>
 7    1  0.8165933E-006  0.1397155E+03  0.7546771E-02  0.1224977E+00
         -2   -1    0    0    0  501 -0.00000000000E+00  0.00000000000E+00  0.39453775446E+02  0.39453775446E+02  0.00000000000E+00 0.  1.
          2   -1    0    0  501    0  0.00000000000E+00 -0.00000000000E+00 -0.39711915984E+03  0.39711915984E+03  0.00000000000E+00 0. -1.
         23    2    1    2    0    0  0.21412183422E+02  0.58672147026E+02 -0.21162664700E+03  0.25358678196E+03  0.12497806140E+03 0.  0.
          5    1    3    3  502    0  0.34300853418E+01  0.62739429403E+02 -0.27953841058E+02  0.68931188276E+02  0.47000000000E+01 0.  1.
         -5    1    3    3    0  502  0.17982098080E+02 -0.40672823764E+01 -0.18367280594E+03  0.18465559368E+03  0.47000000000E+01 0.  1.
        -11    1    1    2    0    0  0.34249367043E+02 -0.18097576757E+02 -0.34391438709E+02  0.51800699646E+02  0.00000000000E+00 0.  1.
         11    1    1    2    0    0 -0.55661550465E+02 -0.40574570270E+02 -0.11164729869E+03  0.13118545368E+03  0.00000000000E+00 0. -1.
<mgrwt>
<rscale>  0 0.13168461E+03</rscale>
<asrwt>0</asrwt>
<pdfrwt beam="2">  1        2 0.61095258E-01 0.13971549E+03</pdfrwt>
<pdfrwt beam="1">  1       -2 0.60698113E-02 0.13971549E+03</pdfrwt>
<totfact> 0.11107921E+04</totfact>
</mgrwt>
</event>
<event>
 7    1  0.8165933E-006  0.1720177E+03  0.7546771E-02  0.1181632E+00
         -2   -1    0    0    0  501 -0.00000000000E+00  0.00000000000E+00  0.18955682883E+03  0.18955682883E+03  0.00000000000E+00 0. -1.
          2   -1    0    0  501    0  0.00000000000E+00 -0.00000000000E+00 -0.26808938681E+03  0.26808938681E+03  0.00000000000E+00 0.  1.
         23    2    1    2    0    0  0.41863931066E+02 -0.11050561954E+03 -0.20020806126E+03  0.26395712974E+03  0.12500407141E+03 0.  0.
          5    1    3    3  502    0  0.55891140272E+02 -0.12864573248E+03 -0.19453142045E+03  0.23987102282E+03  0.47000000000E+01 0. -1.
         -5    1    3    3    0  502 -0.14027209205E+02  0.18140112940E+02 -0.56766408132E+01  0.24086106918E+02  0.47000000000E+01 0. -1.
        -11    1    1    2    0    0 -0.50770235309E+02  0.37414362869E+02  0.97633649324E+02  0.11623158272E+03  0.00000000000E+00 0. -1.
         11    1    1    2    0    0  0.89063042425E+01  0.73091256673E+02  0.24041853959E+02  0.77457503181E+02  0.00000000000E+00 0.  1.
<mgrwt>
<rscale>  0 0.16642107E+03</rscale>
<asrwt>0</asrwt>
<pdfrwt beam="2">  1        2 0.41244521E-01 0.17201773E+03</pdfrwt>
<pdfrwt beam="1">  1       -2 0.29162589E-01 0.17201773E+03</pdfrwt>
<totfact> 0.13177811E+03</totfact>
</mgrwt>
</event>
<event>
 7    1  0.8165933E-006  0.1318076E+03  0.7546771E-02  0.1233430E+00
         -1   -1    0    0    0  501 -0.00000000000E+00  0.00000000000E+00  0.72472642726E+02  0.72472642726E+02  0.00000000000E+00 0.  1.
          1   -1    0    0  501    0  0.00000000000E+00 -0.00000000000E+00 -0.44640363210E+03  0.44640363210E+03  0.00000000000E+00 0. -1.
         23    2    1    2    0    0 -0.89939622377E+01 -0.60576691305E+02 -0.38606979552E+03  0.40794991596E+03  0.11671683695E+03 0.  0.
          5    1    3    3  502    0 -0.35204117393E+02 -0.84656598259E+02 -0.22663865832E+03  0.24452656492E+03  0.47000000000E+01 0. -1.
         -5    1    3    3    0  502  0.26210155155E+02  0.24079906954E+02 -0.15943113721E+03  0.16342335103E+03  0.47000000000E+01 0.  1.
        -11    1    1    2    0    0 -0.39775790018E+02  0.13152895000E+02  0.40496114097E+00  0.41896015467E+02  0.00000000000E+00 0. -1.
         11    1    1    2    0    0  0.48769752256E+02  0.47423796305E+02  0.11733845011E+02  0.69030343399E+02  0.00000000000E+00 0.  1.
<mgrwt>
<rscale>  0 0.12605499E+03</rscale>
<asrwt>0</asrwt>
<pdfrwt beam="2">  1        1 0.68677482E-01 0.13180761E+03</pdfrwt>
<pdfrwt beam="1">  1       -1 0.11149637E-01 0.13180761E+03</pdfrwt>
<totfact> 0.26304207E+03</totfact>
</mgrwt>
</event>
<event>
 7    1  0.8165933E-006  0.1305600E+03  0.7546771E-02  0.1240594E+00
         -2   -1    0    0    0  501 -0.00000000000E+00  0.00000000000E+00  0.18439903446E+02  0.18439903446E+02  0.00000000000E+00 0.  1.
          2   -1    0    0  501    0  0.00000000000E+00 -0.00000000000E+00 -0.75041793937E+03  0.75041793937E+03  0.00000000000E+00 0. -1.
         23    2    1    2    0    0 -0.15603713670E+02  0.34319933634E+02 -0.50531500627E+03  0.52190914684E+03  0.12499827306E+03 0.  0.
          5    1    3    3  502    0 -0.13389858557E+02 -0.38291270651E+02 -0.74234331581E+02  0.84725059490E+02  0.47000000000E+01 0. -1.
         -5    1    3    3    0  502 -0.22138551131E+01  0.72611204284E+02 -0.43108067469E+03  0.43718408735E+03  0.47000000000E+01 0. -1.
        -11    1    1    2    0    0 -0.22294551301E+02 -0.49199196325E+02 -0.15961603800E+03  0.16850782629E+03  0.00000000000E+00 0. -1.
         11    1    1    2    0    0  0.37898264971E+02  0.14879262691E+02 -0.67046991660E+02  0.78440869683E+02  0.00000000000E+00 0.  1.
<mgrwt>
<rscale>  0 0.12153013E+03</rscale>
<asrwt>0</asrwt>
<pdfrwt beam="2">  1        2 0.11544890E+00 0.13055996E+03</pdfrwt>
<pdfrwt beam="1">  1       -2 0.28369087E-02 0.13055996E+03</pdfrwt>
<totfact> 0.16784565E+04</totfact>
</mgrwt>
</event>
<event>
 6    1  0.8165933E-006  0.1608845E+03  0.7546771E-02  0.1212895E+00
         -1   -1    0    0    0  501 -0.00000000000E+00  0.00000000000E+00  0.13351274159E+02  0.13351274159E+02  0.00000000000E+00 0.  1.
          1   -1    0    0  501    0  0.00000000000E+00 -0.00000000000E+00 -0.15570304910E+04  0.15570304910E+04  0.00000000000E+00 0. -1.
          5    1    1    2  502    0 -0.31140343588E+02  0.78501391198E+02 -0.87621047650E+03  0.88028352168E+03  0.47000000000E+01 0. -1.
         -5    1    1    2    0  502  0.48129505604E+02 -0.51112562229E+02 -0.41679540837E+03  0.42269308696E+03  0.47000000000E+01 0.  1.
        -11    1    1    2    0    0 -0.52652765320E+02 -0.21674435501E+02 -0.15746216545E+03  0.16744082059E+03  0.00000000000E+00 0. -1.
         11    1    1    2    0    0  0.35663603304E+02 -0.57143934678E+01 -0.93211166524E+02  0.99964335931E+02  0.00000000000E+00 0.  1.
<mgrwt>
<rscale>  0 0.14032273E+03</rscale>
<asrwt>0</asrwt>
<pdfrwt beam="2">  1        1 0.23954295E+00 0.16088451E+03</pdfrwt>
<pdfrwt beam="1">  1       -1 0.20540439E-02 0.16088451E+03</pdfrwt>
<totfact> 0.42846306E+03</totfact>
</mgrwt>
</event>
<event>
 7    1  0.8165933E-006  0.1786048E+03  0.7546771E-02  0.1174553E+00
         -1   -1    0    0    0  501 -0.00000000000E+00  0.00000000000E+00  0.44734194750E+02  0.44734194750E+02  0.00000000000E+00 0.  1.
          1   -1    0    0  501    0  0.00000000000E+00 -0.00000000000E+00 -0.68765693913E+03  0.68765693913E+03  0.00000000000E+00 0. -1.
         23    2    1    2    0    0  0.12745899194E+03 -0.53546616782E+01 -0.44270659541E+03  0.47737701108E+03  0.12500085622E+03 0.  0.
          5    1    3    3  502    0  0.10944933789E+03  0.30162209121E+02 -0.18904197824E+03  0.22056263500E+03  0.47000000000E+01 0.  1.
         -5    1    3    3    0  502  0.18009654045E+02 -0.35516870799E+02 -0.25366461718E+03  0.25681437607E+03  0.47000000000E+01 0.  1.
        -11    1    1    2    0    0 -0.29509893381E+02 -0.17259820578E-02  0.26975403645E+01  0.29632929899E+02  0.00000000000E+00 0.  1.
         11    1    1    2    0    0 -0.97949098558E+02  0.53563876603E+01 -0.20291368934E+03  0.22538119291E+03  0.00000000000E+00 0. -1.
<mgrwt>
<rscale>  0 0.17319858E+03</rscale>
<asrwt>0</asrwt>
<pdfrwt beam="2">  1        1 0.10579337E+00 0.17860482E+03</pdfrwt>
<pdfrwt beam="1">  1       -1 0.68821843E-02 0.17860482E+03</pdfrwt>
<totfact> 0.30953415E+03</totfact>
</mgrwt>
</event>
<event>
 7    1  0.8165933E-006  0.1454241E+03  0.7546771E-02  0.1215715E+00
          2   -1    0    0  501    0  0.00000000000E+00  0.00000000000E+00  0.37401312419E+02  0.37401312419E+02  0.00000000000E+00 0. -1.
         -2   -1    0    0    0  501 -0.00000000000E+00 -0.00000000000E+00 -0.59967797019E+03  0.59967797019E+03  0.00000000000E+00 0.  1.
         23    2    1    2    0    0  0.29206682411E+01  0.74273147221E+02 -0.15369655733E+03  0.21159111535E+03  0.12499255041E+03 0.  0.
          5    1    3    3  502    0  0.38019717858E+02  0.95063568295E+02 -0.93573903633E+02  0.13878309120E+03  0.47000000000E+01 0.  1.
         -5    1    3    3    0  502 -0.35099049616E+02 -0.20790421074E+02 -0.60122653697E+02  0.72808024145E+02  0.47000000000E+01 0.  1.
        -11    1    1    2    0    0 -0.36762869638E+02 -0.43091809932E+01 -0.85075493992E+02  0.92778862371E+02  0.00000000000E+00 0. -1.
         11    1    1    2    0    0  0.33842201397E+02 -0.69963966228E+02 -0.32350460645E+03  0.33270930489E+03  0.00000000000E+00 0.  1.
<mgrwt>
<rscale>  0 0.13824175E+03</rscale>
<asrwt>0</asrwt>
<pdfrwt beam="1">  1        2 0.57540482E-02 0.14542410E+03</pdfrwt>
<pdfrwt beam="2">  1       -2 0.92258147E-01 0.14542410E+03</pdfrwt>
<totfact> 0.13098738E+03</totfact>
</mgrwt>
</event>
<event>
 7    1  0.8165933E-006  0.1399063E+03  0.7546771E-02  0.1225347E+00
          1   -1    0    0  501    0  0.00000000000E+00  0.00000000000E+00  0.47101270305E+03  0.47101270305E+03  0.00000000000E+00 0. -1.
         -1   -1    0    0    0  501 -0.00000000000E+00 -0.00000000000E+00 -0.34741350581E+02  0.34741350581E+02  0.00000000000E+00 0.  1.
         23    2    1    2    0    0  0.61105389412E+02  0.14699406170E+02  0.30198816713E+03  0.33282220431E+03  0.12499530166E+03 0.  0.
          5    1    3    3  502    0  0.99443065196E+02  0.15408213737E+02  0.23080406522E+03  0.25183117914E+03  0.47000000000E+01 0.  1.
         -5    1    3    3    0  502 -0.38337675784E+02 -0.70880756609E+00  0.71184101911E+02  0.80991025166E+02  0.47000000000E+01 0.  1.
        -11    1    1    2    0    0 -0.40568596180E+02 -0.44334317585E+02  0.40530087116E+02  0.72484692683E+02  0.00000000000E+00 0.  1.
         11    1    1    2    0    0 -0.20536793233E+02  0.29634911415E+02  0.93753098217E+02  0.10044715664E+03  0.00000000000E+00 0. -1.
<mgrwt>
<rscale>  0 0.13143167E+03</rscale>
<asrwt>0</asrwt>
<pdfrwt beam="1">  1        1 0.72463488E-01 0.13990628E+03</pdfrwt>
<pdfrwt beam="2">  1       -1 0.53448235E-02 0.13990628E+03</pdfrwt>
<totfact> 0.74582708E+03</totfact>
</mgrwt>
</event>
<event>
 6    1  0.8165933E-006  0.3020407E+03  0.7546771E-02  0.1126985E+00
          1   -1    0    0  501    0  0.00000000000E+00  0.00000000000E+00  0.11140016261E+04  0.11140016261E+04  0.00000000000E+00 0. -1.
         -1   -1    0    0    0  501 -0.00000000000E+00 -0.00000000000E+00 -0.10890678102E+03  0.10890678102E+03  0.00000000000E+00 0.  1.
          5    1    1    2  502    0  0.62701886455E+02 -0.14913238406E+03  0.41054394758E+03  0.44129402605E+03  0.47000000000E+01 0. -1.
         -5    1    1    2    0  502 -0.43866313498E+02  0.11371960770E+03  0.65359817028E+03  0.66488274217E+03  0.47000000000E+01 0.  1.
        -11    1    1    2    0    0 -0.42969113601E+02  0.52516802296E+02 -0.54009077918E+02  0.86725657937E+02  0.00000000000E+00 0.  1.
         11    1    1    2    0    0  0.24133540644E+02 -0.17104025939E+02 -0.50381948363E+01  0.30005980980E+02  0.00000000000E+00 0. -1.
<mgrwt>
<rscale>  0 0.22951033E+03</rscale>
<asrwt>0</asrwt>
<pdfrwt beam="1">  1        1 0.17138486E+00 0.30204072E+03</pdfrwt>
<pdfrwt beam="2">  1       -1 0.16754890E-01 0.30204072E+03</pdfrwt>
<totfact> 0.35534149E+02</totfact>
</mgrwt>
</event>
<event>
 7    1  0.8165933E-006  0.1477121E+03  0.7546771E-02  0.1213190E+00
          2   -1    0    0  501    0  0.00000000000E+00  0.00000000000E+00  0.77999587904E+02  0.77999587904E+02  0.00000000000E+00 0. -1.
         -2   -1    0    0    0  501 -0.00000000000E+00 -0.00000000000E+00 -0.32776820412E+03  0.32776820412E+03  0.00000000000E+00 0.  1.
         23    2    1    2    0    0  0.77464801364E+02 -0.13886064623E+02 -0.23103043171E+02  0.14950786350E+03  0.12500092960E+03 0.  0.
          5    1    3    3  502    0  0.62143826768E+02 -0.37467228044E+02  0.38024194986E+02  0.82058380357E+02  0.47000000000E+01 0.  1.
         -5    1    3    3    0  502  0.15320974597E+02  0.23581163421E+02 -0.61127238157E+02  0.67449483138E+02  0.47000000000E+01 0.  1.
        -11    1    1    2    0    0 -0.84097705350E+02  0.27983274011E+02 -0.22340308579E+03  0.24034231090E+03  0.00000000000E+00 0.  1.
         11    1    1    2    0    0  0.66329039863E+01 -0.14097209388E+02 -0.32624872560E+01  0.15917617627E+02  0.00000000000E+00 0. -1.
<mgrwt>
<rscale>  0 0.14010321E+03</rscale>
<asrwt>0</asrwt>
<pdfrwt beam="1">  1        2 0.11999937E-01 0.14771205E+03</pdfrwt>
<pdfrwt beam="2">  1       -2 0.50425877E-01 0.14771205E+03</pdfrwt>
<totfact> 0.18763500E+03</totfact>
</mgrwt>
</event>
<event>
 7    1  0.8165933E-006  0.1387607E+03  0.7546771E-02  0.1226541E+00
         -1   -1    0    0    0  501 -0.00000000000E+00  0.00000000000E+00  0.90709221220E+03  0.90709221220E+03  0.00000000000E+00 0.  1.
          1   -1    0    0  501    0  0.00000000000E+00 -0.00000000000E+00 -0.16933037286E+02  0.16933037286E+02  0.00000000000E+00 0. -1.
         23    2    1    2    0    0  0.58701116142E+02 -0.13516426206E+02  0.51505958974E+03  0.53342375378E+03  0.12500402116E+03 0.  0.
          5    1    3    3  502    0 -0.10723752156E+02 -0.13903510272E+02  0.38907673944E+03  0.38950109837E+03  0.47000000000E+01 0. -1.
         -5    1    3    3    0  502  0.69424868298E+02  0.38708406573E+00  0.12598285029E+03  0.14392265541E+03  0.47000000000E+01 0. -1.
        -11    1    1    2    0    0 -0.60211651452E+02 -0.28210761244E+02  0.25140945803E+03  0.26005385136E+03  0.00000000000E+00 0.  1.
         11    1    1    2    0    0  0.15105353100E+01  0.41727187450E+02  0.12369012715E+03  0.13054764434E+03  0.00000000000E+00 0. -1.
<mgrwt>
<rscale>  0 0.13061869E+03</rscale>
<asrwt>0</asrwt>
<pdfrwt beam="2">  1        1 0.26050834E-02 0.13876066E+03</pdfrwt>
<pdfrwt beam="1">  1       -1 0.13955261E+00 0.13876066E+03</pdfrwt>
<totfact> 0.18435797E+03</totfact>
</mgrwt>
</event>
<event>
 7    1  0.8165933E-006  0.1258727E+03  0.7546771E-02  0.1248920E+00
         -2   -1    0    0    0  501 -0.00000000000E+00  0.00000000000E+00  0.31056097622E+03  0.31056097622E+03  0.00000000000E+00 0.  1.
          2   -1    0    0  501    0  0.00000000000E+00 -0.00000000000E+00 -0.38386224074E+02  0.38386224074E+02  0.00000000000E+00 0. -1.
         23    2    1    2    0    0  0.10617487992E+02 -0.94352040965E+01  0.15851830441E+03  0.20241538224E+03  0.12506870115E+03 0.  0.
          5    1    3    3  502    0  0.47362438689E-01  0.50096245225E+01 -0.20923264112E+02  0.22022069888E+02  0.47000000000E+01 0.  1.
         -5    1    3    3    0  502  0.10570125553E+02 -0.14444828619E+02  0.17944156852E+03  0.18039331235E+03  0.47000000000E+01 0.  1.
        -11    1    1    2    0    0 -0.70483548489E+01 -0.34846191084E+02  0.15487683702E+02  0.38778920634E+02  0.00000000000E+00 0. -1.
         11    1    1    2    0    0 -0.35691331427E+01  0.44281395180E+02  0.98168764034E+02  0.10775289742E+03  0.00000000000E+00 0.  1.
<mgrwt>
<rscale>  0 0.11653823E+03</rscale>
<asrwt>0</asrwt>
<pdfrwt beam="2">  1        2 0.59055731E-02 0.12587269E+03</pdfrwt>
<pdfrwt beam="1">  1       -2 0.47778610E-01 0.12587269E+03</pdfrwt>
<totfact> 0.50050247E+03</totfact>
</mgrwt>
</event>
<event>
 7    1  0.8165933E-006  0.2034006E+03  0.7546771E-02  0.1150163E+00
         -1   -1    0    0    0  501 -0.00000000000E+00  0.00000000000E+00  0.35832040843E+02  0.35832040843E+02  0.00000000000E+00 0.  1.
          1   -1    0    0  501    0  0.00000000000E+00 -0.00000000000E+00 -0.11072362114E+04  0.11072362114E+04  0.00000000000E+00 0. -1.
         23    2    1    2    0    0 -0.46477548405E+02  0.15357835004E+03 -0.66032451779E+03  0.69094159598E+03  0.12500139263E+03 0.  0.
          5    1    3    3  502    0 -0.23235759559E+02  0.52291414550E+02 -0.47466994749E+03  0.47812962845E+03  0.47000000000E+01 0. -1.
         -5    1    3    3    0  502 -0.23241788846E+02  0.10128693549E+03 -0.18565457030E+03  0.21281196752E+03  0.47000000000E+01 0. -1.
        -11    1    1    2    0    0  0.63551088099E+02 -0.62675972150E+02 -0.14331663566E+03  0.16883920262E+03  0.00000000000E+00 0.  1.
         11    1    1    2    0    0 -0.17073539693E+02 -0.90902377886E+02 -0.26776301715E+03  0.28328745369E+03  0.00000000000E+00 0. -1.
<mgrwt>
<rscale>  0 0.19949809E+03</rscale>
<asrwt>0</asrwt>
<pdfrwt beam="2">  1        1 0.17034404E+00 0.20340064E+03</pdfrwt>
<pdfrwt beam="1">  1       -1 0.55126213E-02 0.20340064E+03</pdfrwt>
<totfact> 0.20207471E+03</totfact>
</mgrwt>
</event>
<event>
 7    1  0.8165933E-006  0.2945611E+03  0.7546771E-02  0.1087992E+00
         -2   -1    0    0    0  501 -0.00000000000E+00  0.00000000000E+00  0.19849050623E+02  0.19849050623E+02  0.00000000000E+00 0.  1.
          2   -1    0    0  501    0  0.00000000000E+00 -0.00000000000E+00 -0.10928260150E+04  0.10928260150E+04  0.00000000000E+00 0. -1.
         23    2    1    2    0    0 -0.61466042764E+01 -0.51226236747E+02 -0.55362770472E+03  0.56990360588E+03  0.12499830592E+03 0.  0.
          5    1    3    3  502    0  0.28553479314E+02 -0.75726248353E+02 -0.45857384957E+03  0.46568426147E+03  0.47000000000E+01 0.  1.
         -5    1    3    3    0  502 -0.34700083590E+02  0.24500011606E+02 -0.95053855152E+02  0.10421934441E+03  0.47000000000E+01 0.  1.
        -11    1    1    2    0    0 -0.67804767948E+02  0.24689818203E+02 -0.16972502922E+03  0.18442792420E+03  0.00000000000E+00 0.  1.
         11    1    1    2    0    0  0.73951372224E+02  0.26536418545E+02 -0.34962423045E+03  0.35834353556E+03  0.00000000000E+00 0. -1.
<mgrwt>
<rscale>  0 0.29456109E+03</rscale>
<asrwt>0</asrwt>
<pdfrwt beam="2">  1        2 0.16812708E+00 0.29456109E+03</pdfrwt>
<pdfrwt beam="1">  1       -2 0.30537001E-02 0.29456109E+03</pdfrwt>
<totfact> 0.95207059E+03</totfact>
</mgrwt>
</event>
<event>
 7    1  0.8165933E-006  0.1487922E+03  0.7546771E-02  0.1209630E+00
          1   -1    0    0  501    0  0.00000000000E+00  0.00000000000E+00  0.40885080758E+03  0.40885080758E+03  0.00000000000E+00 0. -1.
         -1   -1    0    0    0  501 -0.00000000000E+00 -0.00000000000E+00 -0.70456513974E+02  0.70456513974E+02  0.00000000000E+00 0.  1.
         23    2    1    2    0    0 -0.17489069729E+02  0.78799510331E+02  0.31853628831E+03  0.35157427639E+03  0.12499549778E+03 0.  0.
          5    1    3    3  502    0 -0.15295063275E+02  0.50611952725E+02  0.28736078619E+02  0.60360259556E+02  0.47000000000E+01 0. -1.
         -5    1    3    3    0  502 -0.21940064535E+01  0.28187557607E+02  0.28980020969E+03  0.29121401684E+03  0.47000000000E+01 0. -1.
        -11    1    1    2    0    0  0.35649874273E+02 -0.32191266678E+02 -0.30383598149E+02  0.56836205208E+02  0.00000000000E+00 0.  1.
         11    1    1    2    0    0 -0.18160804544E+02 -0.46608243654E+02  0.50241603450E+02  0.70896839953E+02  0.00000000000E+00 0. -1.
<mgrwt>
<rscale>  0 0.14278502E+03</rscale>
<asrwt>0</asrwt>
<pdfrwt beam="1">  1        1 0.62900123E-01 0.14879215E+03</pdfrwt>
<pdfrwt beam="2">  1       -1 0.10839464E-01 0.14879215E+03</pdfrwt>
<totfact> 0.30861811E+03</totfact>
</mgrwt>
</event>
<event>
 7    1  0.8165933E-006  0.1534052E+03  0.7546771E-02  0.1204556E+00
         -2   -1    0    0    0  501 -0.00000000000E+00  0.00000000000E+00  0.11215608204E+03  0.11215608204E+03  0.00000000000E+00 0.  1.
          2   -1    0    0  501    0  0.00000000000E+00 -0.00000000000E+00 -0.17962443586E+03  0.17962443586E+03  0.00000000000E+00 0. -1.
         23    2    1    2    0    0 -0.88929502923E+02  0.23570389800E+00 -0.54282385048E+02  0.16272594674E+03  0.12499857747E+03 0.  0.
          5    1    3    3  502    0  0.96997313398E+01 -0.92095457455E+00 -0.62693963162E+02  0.63620405235E+02  0.47000000000E+01 0. -1.
         -5    1    3    3    0  502 -0.98629234263E+02  0.11566584726E+01  0.84115781142E+01  0.99105541503E+02  0.47000000000E+01 0. -1.
        -11    1    1    2    0    0  0.88923705773E+02  0.12556850370E+02 -0.40786261187E+02  0.98633762178E+02  0.00000000000E+00 0. -1.
         11    1    1    2    0    0  0.57971498206E-02 -0.12792554268E+02  0.27600292406E+02  0.30420808984E+02  0.00000000000E+00 0.  1.
<mgrwt>
<rscale>  0 0.14672486E+03</rscale>
<asrwt>0</asrwt>
<pdfrwt beam="2">  1        2 0.27634528E-01 0.15340520E+03</pdfrwt>
<pdfrwt beam="1">  1       -2 0.17254782E-01 0.15340520E+03</pdfrwt>
<totfact> 0.50057499E+03</totfact>
</mgrwt>
</event>
<event>
 7    1  0.8165933E-006  0.1510312E+03  0.7546771E-02  0.1208206E+00
          1   -1    0    0  501    0  0.00000000000E+00  0.00000000000E+00  0.13908590186E+03  0.13908590186E+03  0.00000000000E+00 0. -1.
         -1   -1    0    0    0  501 -0.00000000000E+00 -0.00000000000E+00 -0.30481895702E+03  0.30481895702E+03  0.00000000000E+00 0.  1.
         23    2    1    2    0    0  0.77406321130E+02 -0.34589097122E+02  0.78210659890E+02  0.17008032431E+03  0.12498906035E+03 0.  0.
          5    1    3    3  502    0  0.63384084368E+02 -0.71325169572E+02  0.87338497371E+02  0.12944081694E+03  0.47000000000E+01 0.  1.
         -5    1    3    3    0  502  0.14022236762E+02  0.36736072451E+02 -0.91278374812E+01  0.40639507379E+02  0.47000000000E+01 0.  1.
        -11    1    1    2    0    0 -0.53217059977E+02 -0.25349287523E+02 -0.13193883076E+03  0.14450777457E+03  0.00000000000E+00 0.  1.
         11    1    1    2    0    0 -0.24189261152E+02  0.59938384645E+02 -0.11200488430E+03  0.12931675999E+03  0.00000000000E+00 0. -1.
<mgrwt>
<rscale>  0 0.14387684E+03</rscale>
<asrwt>0</asrwt>
<pdfrwt beam="1">  1        1 0.21397831E-01 0.15103115E+03</pdfrwt>
<pdfrwt beam="2">  1       -1 0.46895224E-01 0.15103115E+03</pdfrwt>
<totfact> 0.10712480E+03</totfact>
</mgrwt>
</event>
<event>
 7    1  0.8165933E-006  0.1308619E+03  0.7546771E-02  0.1237361E+00
         -2   -1    0    0    0  501 -0.00000000000E+00  0.00000000000E+00  0.17518737296E+02  0.17518737296E+02  0.00000000000E+00 0.  1.
          2   -1    0    0  501    0  0.00000000000E+00 -0.00000000000E+00 -0.91802971138E+03  0.91802971138E+03  0.00000000000E+00 0. -1.
         23    2    1    2    0    0 -0.38674791689E+02  0.18343809152E+01 -0.67028383122E+03  0.68293869437E+03  0.12500296561E+03 0.  0.
          5    1    3    3  502    0 -0.20250953705E+02  0.43986883690E+02 -0.57470979015E+03  0.57676544622E+03  0.47000000000E+01 0.  1.
         -5    1    3    3    0  502 -0.18423837985E+02 -0.42152502775E+02 -0.95574041068E+02  0.10617324815E+03  0.47000000000E+01 0.  1.
        -11    1    1    2    0    0  0.63172186202E+02  0.19830851004E+02 -0.18720371166E+03  0.19856791639E+03  0.00000000000E+00 0.  1.
         11    1    1    2    0    0 -0.24497394513E+02 -0.21665231919E+02 -0.43023431199E+02  0.54041837905E+02  0.00000000000E+00 0. -1.
<mgrwt>
<rscale>  0 0.12354464E+03</rscale>
<asrwt>0</asrwt>
<pdfrwt beam="2">  1        2 0.14123539E+00 0.13086193E+03</pdfrwt>
<pdfrwt beam="1">  1       -2 0.26951895E-02 0.13086193E+03</pdfrwt>
<totfact> 0.14032132E+04</totfact>
</mgrwt>
</event>
<event>
 7    1  0.8165933E-006  0.1461472E+03  0.7546771E-02  0.1215169E+00
         -2   -1    0    0    0  501 -0.00000000000E+00  0.00000000000E+00  0.87112092609E+02  0.87112092609E+02  0.00000000000E+00 0.  1.
          2   -1    0    0  501    0  0.00000000000E+00 -0.00000000000E+00 -0.20313251939E+03  0.20313251939E+03  0.00000000000E+00 0. -1.
         23    2    1    2    0    0 -0.30192724493E+02  0.69434637959E+02 -0.79549400053E+02  0.16639448259E+03  0.12500498880E+03 0.  0.
          5    1    3    3  502    0 -0.70318399858E+01 -0.55306192749E+01 -0.86866582470E+02  0.87452430917E+02  0.47000000000E+01 0. -1.
         -5    1    3    3    0  502 -0.23160884507E+02  0.74965257234E+02  0.73171824171E+01  0.78942051670E+02  0.47000000000E+01 0. -1.
        -11    1    1    2    0    0  0.43084278086E+02 -0.74097109126E+01  0.10531166086E+02  0.44967369204E+02  0.00000000000E+00 0.  1.
         11    1    1    2    0    0 -0.12891553593E+02 -0.62024927046E+02 -0.47002192817E+02  0.78882760212E+02  0.00000000000E+00 0. -1.
<mgrwt>
<rscale>  0 0.13864135E+03</rscale>
<asrwt>0</asrwt>
<pdfrwt beam="2">  1        2 0.31251157E-01 0.14614724E+03</pdfrwt>
<pdfrwt beam="1">  1       -2 0.13401861E-01 0.14614724E+03</pdfrwt>
<totfact> 0.66076900E+03</totfact>
</mgrwt>
</event>
<event>
 7    1  0.8165933E-006  0.1360725E+03  0.7546771E-02  0.1231537E+00
         -2   -1    0    0    0  501 -0.00000000000E+00  0.00000000000E+00  0.22362796199E+02  0.22362796199E+02  0.00000000000E+00 0.  1.
          2   -1    0    0  501    0  0.00000000000E+00 -0.00000000000E+00 -0.13544216782E+04  0.13544216782E+04  0.00000000000E+00 0. -1.
         23    2    1    2    0    0  0.23798394491E+02 -0.48236029956E+02 -0.12041310030E+04  0.12117950359E+04  0.12499063327E+03 0.  0.
          5    1    3    3  502    0  0.52625173888E+01 -0.81828925566E+02 -0.50844524208E+03  0.51503623304E+03  0.47000000000E+01 0. -1.
         -5    1    3    3    0  502  0.18535877102E+02  0.33592895611E+02 -0.69568576091E+03  0.69675880282E+03  0.47000000000E+01 0. -1.
        -11    1    1    2    0    0 -0.35834096899E+01 -0.25004123717E+02 -0.16673433107E+02  0.30266324511E+02  0.00000000000E+00 0. -1.
         11    1    1    2    0    0 -0.20214984801E+02  0.73240153672E+02 -0.11125444592E+03  0.13472311404E+03  0.00000000000E+00 0.  1.
<mgrwt>
<rscale>  0 0.12728771E+03</rscale>
<asrwt>0</asrwt>
<pdfrwt beam="2">  1        2 0.20837257E+00 0.13607254E+03</pdfrwt>
<pdfrwt beam="1">  1       -2 0.34404301E-02 0.13607254E+03</pdfrwt>
<totfact> 0.55444166E+03</totfact>
</mgrwt>
</event>
<event>
 7    1  0.8165933E-006  0.1334467E+03  0.7546771E-02  0.1234851E+00
          1   -1    0    0  501    0  0.00000000000E+00  0.00000000000E+00  0.19724102206E+03  0.19724102206E+03  0.00000000000E+00 0. -1.
         -1   -1    0    0    0  501 -0.00000000000E+00 -0.00000000000E+00 -0.72634937632E+02  0.72634937632E+02  0.00000000000E+00 0.  1.
         23    2    1    2    0    0  0.32873786359E+02  0.33192295078E+02  0.90300796240E+02  0.16112806066E+03  0.12500241537E+03 0.  0.
          5    1    3    3  502    0  0.39225516347E+02 -0.41869009176E+02  0.32889830570E+02  0.66298461648E+02  0.47000000000E+01 0.  1.
         -5    1    3    3    0  502 -0.63517299875E+01  0.75061304254E+02  0.57410965670E+02  0.94829599015E+02  0.47000000000E+01 0.  1.
        -11    1    1    2    0    0  0.16564568756E+02  0.20868266747E+02 -0.25070141890E+01  0.26761065286E+02  0.00000000000E+00 0.  1.
         11    1    1    2    0    0 -0.49438355115E+02 -0.54060561825E+02  0.36812302381E+02  0.81986833747E+02  0.00000000000E+00 0. -1.
<mgrwt>
<rscale>  0 0.12513988E+03</rscale>
<asrwt>0</asrwt>
<pdfrwt beam="1">  1        1 0.30344773E-01 0.13344669E+03</pdfrwt>
<pdfrwt beam="2">  1       -1 0.11174606E-01 0.13344669E+03</pdfrwt>
<totfact> 0.72491084E+03</totfact>
</mgrwt>
</event>
<event>
 7    1  0.8165933E-006  0.1303668E+03  0.7546771E-02  0.1240413E+00
          4   -1    0    0  501    0  0.00000000000E+00  0.00000000000E+00  0.20042662403E+03  0.20042662403E+03  0.00000000000E+00 0. -1.
         -4   -1    0    0    0  501 -0.00000000000E+00 -0.00000000000E+00 -0.98185755213E+02  0.98185755213E+02  0.00000000000E+00 0.  1.
         23    2    1    2    0    0  0.16187888233E+02  0.33292453045E+02  0.14139381283E+03  0.19232190125E+03  0.12500027297E+03 0.  0.
          5    1    3    3  502    0  0.46114527997E+02  0.63510955161E+02  0.12246540335E+03  0.14553369416E+03  0.47000000000E+01 0.  1.
         -5    1    3    3    0  502 -0.29926639764E+02 -0.30218502116E+02  0.18928409472E+02  0.46788207092E+02  0.47000000000E+01 0.  1.
        -11    1    1    2    0    0  0.16821190322E+02  0.22238895883E+02  0.46084837675E+01  0.28262325746E+02  0.00000000000E+00 0. -1.
         11    1    1    2    0    0 -0.33009078555E+02 -0.55531348927E+02 -0.43761427779E+02  0.78028152240E+02  0.00000000000E+00 0.  1.
<mgrwt>
<rscale>  0 0.12164176E+03</rscale>
<asrwt>0</asrwt>
<pdfrwt beam="1">  1        4 0.30834865E-01 0.13036680E+03</pdfrwt>
<pdfrwt beam="2">  1       -4 0.15105501E-01 0.13036680E+03</pdfrwt>
<totfact> 0.61723822E+02</totfact>
</mgrwt>
</event>
<event>
 7    1  0.8165933E-006  0.1695949E+03  0.7546771E-02  0.1184372E+00
          2   -1    0    0  501    0  0.00000000000E+00  0.00000000000E+00  0.11178294243E+04  0.11178294243E+04  0.00000000000E+00 0. -1.
         -2   -1    0    0    0  501 -0.00000000000E+00 -0.00000000000E+00 -0.22564359786E+02  0.22564359786E+02  0.00000000000E+00 0.  1.
         23    2    1    2    0    0  0.14391582784E+02  0.11370844837E+03  0.60150063467E+03  0.62495234187E+03  0.12500274881E+03 0.  0.
          5    1    3    3  502    0 -0.48853643146E+02  0.74897657830E+02  0.24680411513E+03  0.26254656509E+03  0.47000000000E+01 0. -1.
         -5    1    3    3    0  502  0.63245225929E+02  0.38810790542E+02  0.35469651954E+03  0.36240577678E+03  0.47000000000E+01 0. -1.
        -11    1    1    2    0    0 -0.36855245777E+02 -0.21964826225E+02  0.77380717899E+02  0.88479027091E+02  0.00000000000E+00 0.  1.
         11    1    1    2    0    0  0.22463662993E+02 -0.91743622147E+02  0.41638371194E+03  0.42696241513E+03  0.00000000000E+00 0. -1.
<mgrwt>
<rscale>  0 0.16389168E+03</rscale>
<asrwt>0</asrwt>
<pdfrwt beam="1">  1        2 0.17197371E+00 0.16959486E+03</pdfrwt>
<pdfrwt beam="2">  1       -2 0.34714408E-02 0.16959486E+03</pdfrwt>
<totfact> 0.74466691E+03</totfact>
</mgrwt>
</event>
<event>
 7    1  0.8165933E-006  0.1350834E+03  0.7546771E-02  0.1234097E+00
         -2   -1    0    0    0  501 -0.00000000000E+00  0.00000000000E+00  0.14343076425E+02  0.14343076425E+02  0.00000000000E+00 0. -1.
          2   -1    0    0  501    0  0.00000000000E+00 -0.00000000000E+00 -0.14412853496E+04  0.14412853496E+04  0.00000000000E+00 0.  1.
         23    2    1    2    0    0 -0.33104912723E+02  0.39068315233E+02 -0.11953108250E+04  0.12029195730E+04  0.12500104879E+03 0.  0.
          5    1    3    3  502    0 -0.40812319473E+02 -0.34416359501E+02 -0.31744092857E+03  0.32193316753E+03  0.47000000000E+01 0. -1.
         -5    1    3    3    0  502  0.77074067500E+01  0.73484674734E+02 -0.87786989645E+03  0.88098640548E+03  0.47000000000E+01 0. -1.
        -11    1    1    2    0    0  0.59095944447E+02 -0.18766911883E+02 -0.10582867625E+03  0.12265494832E+03  0.00000000000E+00 0. -1.
         11    1    1    2    0    0 -0.25991031723E+02 -0.20301403350E+02 -0.12580277187E+03  0.13005390467E+03  0.00000000000E+00 0.  1.
<mgrwt>
<rscale>  0 0.12562397E+03</rscale>
<asrwt>0</asrwt>
<pdfrwt beam="2">  1        2 0.22173624E+00 0.13508342E+03</pdfrwt>
<pdfrwt beam="1">  1       -2 0.22066268E-02 0.13508342E+03</pdfrwt>
<totfact> 0.95615896E+03</totfact>
</mgrwt>
</event>
<event>
 7    1  0.8165933E-006  0.1252092E+03  0.7546771E-02  0.1250683E+00
         -1   -1    0    0    0  501 -0.00000000000E+00  0.00000000000E+00  0.46176265029E+02  0.46176265029E+02  0.00000000000E+00 0.  1.
          1   -1    0    0  501    0  0.00000000000E+00 -0.00000000000E+00 -0.25870013549E+03  0.25870013549E+03  0.00000000000E+00 0. -1.
         23    2    1    2    0    0  0.34322313559E+01 -0.63650140170E+01 -0.14629812711E+03  0.19256293924E+03  0.12500019983E+03 0.  0.
          5    1    3    3  502    0 -0.23913401498E+02 -0.57243029752E+02 -0.10257113718E+03  0.11996475903E+03  0.47000000000E+01 0. -1.
         -5    1    3    3    0  502  0.27345632854E+02  0.50878015735E+02 -0.43726989927E+02  0.72598180207E+02  0.47000000000E+01 0. -1.
        -11    1    1    2    0    0 -0.10369976716E+02  0.39738450017E+02 -0.66576479750E+02  0.78224730634E+02  0.00000000000E+00 0. -1.
         11    1    1    2    0    0  0.69377453605E+01 -0.33373436000E+02  0.35073639739E+00  0.34088730648E+02  0.00000000000E+00 0.  1.
<mgrwt>
<rscale>  0 0.11551597E+03</rscale>
<asrwt>0</asrwt>
<pdfrwt beam="2">  1        1 0.39800020E-01 0.12520920E+03</pdfrwt>
<pdfrwt beam="1">  1       -1 0.71040409E-02 0.12520920E+03</pdfrwt>
<totfact> 0.10245962E+04</totfact>
</mgrwt>
</event>
<event>
 7    1  0.8165933E-006  0.1460944E+03  0.7546771E-02  0.1215123E+00
          3   -1    0    0  501    0  0.00000000000E+00  0.00000000000E+00  0.78582417925E+03  0.78582417925E+03  0.00000000000E+00 0. -1.
         -3   -1    0    0    0  501 -0.00000000000E+00 -0.00000000000E+00 -0.39733357651E+02  0.39733357651E+02  0.00000000000E+00 0.  1.
         23    2    1    2    0    0  0.50956142020E+02  0.55864140361E+02  0.66744994429E+03  0.68325178313E+03  0.12500496162E+03 0.  0.
          5    1    3    3  502    0  0.70494284527E+02  0.32846651357E+02  0.63053988801E+03  0.63533533431E+03  0.47000000000E+01 0. -1.
         -5    1    3    3    0  502 -0.19538142507E+02  0.23017489003E+02  0.36910056283E+02  0.47916448820E+02  0.47000000000E+01 0. -1.
        -11    1    1    2    0    0 -0.51046439337E+02 -0.43971145445E+02  0.98393059892E+02  0.11924929700E+03  0.00000000000E+00 0. -1.
         11    1    1    2    0    0  0.90297317491E-01 -0.11892994916E+02 -0.19752182586E+02  0.23056456765E+02  0.00000000000E+00 0.  1.
<mgrwt>
<rscale>  0 0.13867513E+03</rscale>
<asrwt>0</asrwt>
<pdfrwt beam="1">  1        3 0.12089602E+00 0.14609439E+03</pdfrwt>
<pdfrwt beam="2">  1       -3 0.61128248E-02 0.14609439E+03</pdfrwt>
<totfact> 0.22688341E+02</totfact>
</mgrwt>
</event>
<event>
 7    1  0.8699083E-006  0.1257309E+03  0.7546771E-02  0.1248438E+00
         -1   -1    0    0    0  501 -0.00000000000E+00  0.00000000000E+00  0.29565088037E+02  0.29565088037E+02  0.00000000000E+00 0.  1.
          1   -1    0    0  501    0  0.00000000000E+00 -0.00000000000E+00 -0.41472614416E+03  0.41472614416E+03  0.00000000000E+00 0. -1.
         23    2    1    2    0    0  0.29267724447E+01 -0.13209015351E+02 -0.24988498237E+03  0.27973337106E+03  0.12500084154E+03 0.  0.
          5    1    3    3  502    0 -0.21052862711E+02 -0.64368260581E+02 -0.15475099442E+03  0.16898655649E+03  0.47000000000E+01 0. -1.
         -5    1    3    3    0  502  0.23979635156E+02  0.51159245231E+02 -0.95133987948E+02  0.11074681457E+03  0.47000000000E+01 0. -1.
        -11    1    1    2    0    0 -0.49016260928E+01 -0.12358270312E+02  0.10251480849E+02  0.16788259083E+02  0.00000000000E+00 0.  1.
         11    1    1    2    0    0  0.19748536481E+01  0.25567285662E+02 -0.14552755460E+03  0.14776960205E+03  0.00000000000E+00 0. -1.
<mgrwt>
<rscale>  0 0.11681975E+03</rscale>
<asrwt>0</asrwt>
<pdfrwt beam="2">  1        1 0.63804018E-01 0.12573088E+03</pdfrwt>
<pdfrwt beam="1">  1       -1 0.45484754E-02 0.12573088E+03</pdfrwt>
<totfact> 0.11053146E+04</totfact>
</mgrwt>
</event>
<event>
 7    1  0.8165933E-006  0.1265734E+03  0.7546771E-02  0.1247461E+00
          3   -1    0    0  501    0  0.00000000000E+00  0.00000000000E+00  0.95644730878E+02  0.95644730878E+02  0.00000000000E+00 0. -1.
         -3   -1    0    0    0  501 -0.00000000000E+00 -0.00000000000E+00 -0.15448683221E+03  0.15448683221E+03  0.00000000000E+00 0.  1.
         23    2    1    2    0    0  0.13823113450E+02  0.14320910063E+02  0.19451599847E+02  0.12805929578E+03  0.12499860627E+03 0.  0.
          5    1    3    3  502    0 -0.34339258437E+02  0.15100073330E+02  0.55891708179E+02  0.67477180793E+02  0.47000000000E+01 0.  1.
         -5    1    3    3    0  502  0.48162371887E+02 -0.77916326648E+00 -0.36440108333E+02  0.60582114988E+02  0.47000000000E+01 0.  1.
        -11    1    1    2    0    0 -0.47831416062E+02  0.11704491583E+02 -0.30608116158E+02  0.57980136775E+02  0.00000000000E+00 0.  1.
         11    1    1    2    0    0  0.34008302611E+02 -0.26025401646E+02 -0.47685585017E+02  0.64092130529E+02  0.00000000000E+00 0. -1.
<mgrwt>
<rscale>  0 0.11739307E+03</rscale>
<asrwt>0</asrwt>
<pdfrwt beam="1">  1        3 0.14714574E-01 0.12657337E+03</pdfrwt>
<pdfrwt beam="2">  1       -3 0.23767205E-01 0.12657337E+03</pdfrwt>
<totfact> 0.14354257E+03</totfact>
</mgrwt>
</event>
<event>
 7    1  0.8165933E-006  0.1119927E+03  0.7546771E-02  0.1265661E+00
          2   -1    0    0  501    0  0.00000000000E+00  0.00000000000E+00  0.65431250121E+03  0.65431250121E+03  0.00000000000E+00 0. -1.
         -2   -1    0    0    0  501 -0.00000000000E+00 -0.00000000000E+00 -0.27773904553E+03  0.27773904553E+03  0.00000000000E+00 0.  1.
         23    2    1    2    0    0  0.19185699704E+02 -0.46811196650E+01  0.64130353255E+03  0.65100889877E+03  0.11023774972E+03 0.  0.
          5    1    3    3  502    0 -0.35807509899E+02  0.21313136418E+02  0.39676423257E+03  0.39897415178E+03  0.47000000000E+01 0. -1.
         -5    1    3    3    0  502  0.54993209603E+02 -0.25994256083E+02  0.24453929999E+03  0.25203474699E+03  0.47000000000E+01 0.  1.
        -11    1    1    2    0    0 -0.16029723626E+02  0.45406735568E+02 -0.18855629762E+03  0.19460781343E+03  0.00000000000E+00 0.  1.
         11    1    1    2    0    0 -0.31559760779E+01 -0.40725615903E+02 -0.76173779246E+02  0.86434834531E+02  0.00000000000E+00 0. -1.
<mgrwt>
<rscale>  0 0.10729613E+03</rscale>
<asrwt>0</asrwt>
<pdfrwt beam="1">  1        2 0.10066346E+00 0.11199270E+03</pdfrwt>
<pdfrwt beam="2">  1       -2 0.42729084E-01 0.11199270E+03</pdfrwt>
<totfact> 0.24598511E+02</totfact>
</mgrwt>
</event>
<event>
 7    1  0.8165933E-006  0.1491884E+03  0.7546771E-02  0.1210995E+00
         -4   -1    0    0    0  501 -0.00000000000E+00  0.00000000000E+00  0.83073554768E+02  0.83073554768E+02  0.00000000000E+00 0.  1.
          4   -1    0    0  501    0  0.00000000000E+00 -0.00000000000E+00 -0.22585912469E+03  0.22585912469E+03  0.00000000000E+00 0. -1.
         23    2    1    2    0    0  0.19075217005E+02 -0.79162318851E+02 -0.10186599728E+03  0.18064841194E+03  0.12500652265E+03 0.  0.
          5    1    3    3  502    0 -0.87103192353E+01 -0.38115878884E+02  0.23429680796E+02  0.45822809020E+02  0.47000000000E+01 0. -1.
         -5    1    3    3    0  502  0.27785536240E+02 -0.41046439966E+02 -0.12529567808E+03  0.13482560292E+03  0.47000000000E+01 0. -1.
        -11    1    1    2    0    0  0.24257022142E+02  0.46758056067E+02 -0.50915215652E+02  0.73260344766E+02  0.00000000000E+00 0. -1.
         11    1    1    2    0    0 -0.43332239146E+02  0.32404262784E+02  0.99956430083E+01  0.55023922753E+02  0.00000000000E+00 0.  1.
<mgrwt>
<rscale>  0 0.14174883E+03</rscale>
<asrwt>0</asrwt>
<pdfrwt beam="2">  1        4 0.34747557E-01 0.14918836E+03</pdfrwt>
<pdfrwt beam="1">  1       -4 0.12780547E-01 0.14918836E+03</pdfrwt>
<totfact> 0.67393992E+02</totfact>
</mgrwt>
</event>
<event>
 7    1  0.8165933E-006  0.1439615E+03  0.7546771E-02  0.1217854E+00
          2   -1    0    0  501    0  0.00000000000E+00  0.00000000000E+00  0.26271315877E+03  0.26271315877E+03  0.00000000000E+00 0.  1.
         -2   -1    0    0    0  501 -0.00000000000E+00 -0.00000000000E+00 -0.96244158893E+02  0.96244158893E+02  0.00000000000E+00 0. -1.
         23    2    1    2    0    0 -0.53794669539E+02 -0.46970773014E+02  0.19122911131E+03  0.23936055894E+03  0.12499913671E+03 0.  0.
          5    1    3    3  502    0 -0.55576134236E+02 -0.61014897246E+02  0.48477085099E+02  0.95831321405E+02  0.47000000000E+01 0. -1.
         -5    1    3    3    0  502  0.17814646972E+01  0.14044124232E+02  0.14275202621E+03  0.14352923754E+03  0.47000000000E+01 0. -1.
        -11    1    1    2    0    0  0.35259439313E+02  0.42998099105E+02  0.28913402923E+02  0.62674153013E+02  0.00000000000E+00 0.  1.
         11    1    1    2    0    0  0.18535230226E+02  0.39726739090E+01 -0.53673514353E+02  0.56922605707E+02  0.00000000000E+00 0. -1.
<mgrwt>
<rscale>  0 0.13668989E+03</rscale>
<asrwt>0</asrwt>
<pdfrwt beam="1">  1        2 0.40417409E-01 0.14396147E+03</pdfrwt>
<pdfrwt beam="2">  1       -2 0.14806794E-01 0.14396147E+03</pdfrwt>
<totfact> 0.42604879E+03</totfact>
</mgrwt>
</event>
<event>
 7    1  0.8165933E-006  0.3460940E+03  0.7546771E-02  0.1065372E+00
         -1   -1    0    0    0  501 -0.00000000000E+00  0.00000000000E+00  0.86068540850E+02  0.86068540850E+02  0.00000000000E+00 0.  1.
          1   -1    0    0  501    0  0.00000000000E+00 -0.00000000000E+00 -0.19232847343E+04  0.19232847343E+04  0.00000000000E+00 0. -1.
         23    2    1    2    0    0 -0.30638573007E+03  0.10140212527E+03 -0.14779163204E+04  0.15178991065E+04  0.12500576292E+03 0.  0.
          5    1    3    3  502    0 -0.15544328516E+03  0.42647086207E+02 -0.10082709602E+04  0.10210846234E+04  0.47000000000E+01 0. -1.
         -5    1    3    3    0  502 -0.15094244492E+03  0.58755039066E+02 -0.46964536016E+03  0.49681448310E+03  0.47000000000E+01 0. -1.
        -11    1    1    2    0    0  0.10737660288E+03 -0.66960096023E+02 -0.92099709326E+02  0.15651116817E+03  0.00000000000E+00 0. -1.
         11    1    1    2    0    0  0.19900912719E+03 -0.34442029250E+02 -0.26720016373E+03  0.33494300049E+03  0.00000000000E+00 0.  1.
<mgrwt>
<rscale>  0 0.34336514E+03</rscale>
<asrwt>0</asrwt>
<pdfrwt beam="2">  1        1 0.29588992E+00 0.34609399E+03</pdfrwt>
<pdfrwt beam="1">  1       -1 0.13241316E-01 0.34609399E+03</pdfrwt>
<totfact> 0.14654534E+02</totfact>
</mgrwt>
</event>
<event>
 7    1  0.8165933E-006  0.1565929E+03  0.7546771E-02  0.1201703E+00
         -2   -1    0    0    0  501 -0.00000000000E+00  0.00000000000E+00  0.12761344504E+03  0.12761344504E+03  0.00000000000E+00 0.  1.
          2   -1    0    0  501    0  0.00000000000E+00 -0.00000000000E+00 -0.22355090354E+03  0.22355090354E+03  0.00000000000E+00 0. -1.
         23    2    1    2    0    0 -0.93042895311E+01  0.93872854389E+02 -0.14531007086E+03  0.21362668610E+03  0.12499064656E+03 0.  0.
          5    1    3    3  502    0  0.17061682728E+02 -0.14538543527E+02  0.77330728145E+01  0.24173553329E+02  0.47000000000E+01 0. -1.
         -5    1    3    3    0  502 -0.26365972259E+02  0.10841139792E+03 -0.15304314368E+03  0.18945313278E+03  0.47000000000E+01 0. -1.
        -11    1    1    2    0    0 -0.10149693943E+02 -0.49842330480E+00 -0.18063981207E+02  0.20726121923E+02  0.00000000000E+00 0. -1.
         11    1    1    2    0    0  0.19453983474E+02 -0.93374431084E+02  0.67436593566E+02  0.11681154055E+03  0.00000000000E+00 0.  1.
<mgrwt>
<rscale>  0 0.14900310E+03</rscale>
<asrwt>0</asrwt>
<pdfrwt beam="2">  1        2 0.34392446E-01 0.15659293E+03</pdfrwt>
<pdfrwt beam="1">  1       -2 0.19632838E-01 0.15659293E+03</pdfrwt>
<totfact> 0.31819247E+03</totfact>
</mgrwt>
</event>
<event>
 7    1  0.8165933E-006  0.2931525E+03  0.7546771E-02  0.1090280E+00
         -1   -1    0    0    0  501 -0.00000000000E+00  0.00000000000E+00  0.37938675738E+03  0.37938675738E+03  0.00000000000E+00 0.  1.
          1   -1    0    0  501    0  0.00000000000E+00 -0.00000000000E+00 -0.26060746068E+03  0.26060746068E+03  0.00000000000E+00 0. -1.
         23    2    1    2    0    0  0.18089067055E+03  0.19388207126E+03 -0.69821409125E+02  0.30135260067E+03  0.12500667386E+03 0.  0.
          5    1    3    3  502    0  0.15087830177E+03  0.10540615454E+03 -0.91100776220E+02  0.20541704113E+03  0.47000000000E+01 0.  1.
         -5    1    3    3    0  502  0.30012368779E+02  0.88475916721E+02  0.21279367095E+02  0.95935559535E+02  0.47000000000E+01 0.  1.
        -11    1    1    2    0    0 -0.93651145815E+02 -0.58531421220E+02  0.34357813635E+02  0.11565865182E+03  0.00000000000E+00 0. -1.
         11    1    1    2    0    0 -0.87239524736E+02 -0.13535065004E+03  0.15424289220E+03  0.22298296557E+03  0.00000000000E+00 0.  1.
<mgrwt>
<rscale>  0 0.29013334E+03</rscale>
<asrwt>0</asrwt>
<pdfrwt beam="2">  1        1 0.40093456E-01 0.29315245E+03</pdfrwt>
<pdfrwt beam="1">  1       -1 0.58367193E-01 0.29315245E+03</pdfrwt>
<totfact> 0.32268332E+02</totfact>
</mgrwt>
</event>
<event>
 7    1  0.8165933E-006  0.1261580E+03  0.7546771E-02  0.1243331E+00
         -1   -1    0    0    0  501 -0.00000000000E+00  0.00000000000E+00  0.27312717948E+03  0.27312717948E+03  0.00000000000E+00 0.  1.
          1   -1    0    0  501    0  0.00000000000E+00 -0.00000000000E+00 -0.51614857628E+02  0.51614857628E+02  0.00000000000E+00 0. -1.
         23    2    1    2    0    0  0.29614519855E+02 -0.29014403551E+02  0.78364972068E+02  0.14851565006E+03  0.11915105567E+03 0.  0.
          5    1    3    3  502    0  0.74939655323E+02 -0.72465530540E+01  0.42599536776E+02  0.86632990279E+02  0.47000000000E+01 0. -1.
         -5    1    3    3    0  502 -0.45325135468E+02 -0.21767850497E+02  0.35765435292E+02  0.61882659785E+02  0.47000000000E+01 0.  1.
        -11    1    1    2    0    0  0.33176033715E+02  0.17958330303E+02  0.67205723885E+02  0.77069839518E+02  0.00000000000E+00 0. -1.
         11    1    1    2    0    0 -0.62790553570E+02  0.11056073248E+02  0.75941625901E+02  0.99156547529E+02  0.00000000000E+00 0.  1.
<mgrwt>
<rscale>  0 0.11985813E+03</rscale>
<asrwt>0</asrwt>
<pdfrwt beam="2">  1        1 0.79407474E-02 0.12615795E+03</pdfrwt>
<pdfrwt beam="1">  1       -1 0.42019565E-01 0.12615795E+03</pdfrwt>
<totfact> 0.47167962E+03</totfact>
</mgrwt>
</event>
<event>
 7    1  0.8165933E-006  0.1430056E+03  0.7546771E-02  0.1220137E+00
         -1   -1    0    0    0  501 -0.00000000000E+00  0.00000000000E+00  0.27201991357E+03  0.27201991357E+03  0.00000000000E+00 0.  1.
          1   -1    0    0  501    0  0.00000000000E+00 -0.00000000000E+00 -0.60601954382E+02  0.60601954382E+02  0.00000000000E+00 0. -1.
         23    2    1    2    0    0 -0.54865956236E+02 -0.42600321767E+02  0.11623161139E+03  0.18428344077E+03  0.12500215393E+03 0.  0.
          5    1    3    3  502    0 -0.79897232829E+02 -0.44891359201E+02  0.33498369984E+02  0.97688447302E+02  0.47000000000E+01 0. -1.
         -5    1    3    3    0  502  0.25031276592E+02  0.22910374341E+01  0.82733241408E+02  0.86594993471E+02  0.47000000000E+01 0. -1.
        -11    1    1    2    0    0  0.49004233756E+02 -0.68564736692E+01  0.83693351183E+02  0.97226555989E+02  0.00000000000E+00 0.  1.
         11    1    1    2    0    0  0.58617224800E+01  0.49456795437E+02  0.11492996611E+02  0.51111871188E+02  0.00000000000E+00 0. -1.
<mgrwt>
<rscale>  0 0.13505874E+03</rscale>
<asrwt>0</asrwt>
<pdfrwt beam="2">  1        1 0.93233778E-02 0.14300559E+03</pdfrwt>
<pdfrwt beam="1">  1       -1 0.41849217E-01 0.14300559E+03</pdfrwt>
<totfact> 0.38641642E+03</totfact>
</mgrwt>
</event>
<event>
 7    1  0.8165933E-006  0.2599127E+03  0.7546771E-02  0.1109284E+00
         -2   -1    0    0    0  501 -0.00000000000E+00  0.00000000000E+00  0.36284522077E+03  0.36284522077E+03  0.00000000000E+00 0.  1.
          2   -1    0    0  501    0  0.00000000000E+00 -0.00000000000E+00 -0.17683977235E+03  0.17683977235E+03  0.00000000000E+00 0. -1.
         23    2    1    2    0    0  0.22251522783E+03 -0.49158642139E+02  0.86254167908E+02  0.27385107021E+03  0.12500011385E+03 0.  0.
          5    1    3    3  502    0  0.14673177460E+02 -0.94332595702E+01 -0.28002433804E+02  0.33324387794E+02  0.47000000000E+01 0.  1.
         -5    1    3    3    0  502  0.20784205037E+03 -0.39725382568E+02  0.11425660171E+03  0.24052668242E+03  0.47000000000E+01 0.  1.
        -11    1    1    2    0    0 -0.16553130214E+03  0.54768349252E+02  0.11206572149E+03  0.20726531307E+03  0.00000000000E+00 0.  1.
         11    1    1    2    0    0 -0.56983925685E+02 -0.56097071134E+01 -0.12314440980E+02  0.58568609827E+02  0.00000000000E+00 0. -1.
<mgrwt>
<rscale>  0 0.25646894E+03</rscale>
<asrwt>0</asrwt>
<pdfrwt beam="2">  1        2 0.27206119E-01 0.25991273E+03</pdfrwt>
<pdfrwt beam="1">  1       -2 0.55822342E-01 0.25991273E+03</pdfrwt>
<totfact> 0.60179913E+02</totfact>
</mgrwt>
</event>
<event>
 6    1  0.8165933E-006  0.1994911E+03  0.7546771E-02  0.1174101E+00
         -1   -1    0    0    0  501 -0.00000000000E+00  0.00000000000E+00  0.11123441213E+02  0.11123441213E+02  0.00000000000E+00 0.  1.
          1   -1    0    0  501    0  0.00000000000E+00 -0.00000000000E+00 -0.24104486836E+04  0.24104486836E+04  0.00000000000E+00 0. -1.
          5    1    1    2  502    0  0.83183840650E+02  0.42199011128E+02 -0.65986092521E+03  0.66643742280E+03  0.47000000000E+01 0. -1.
         -5    1    1    2    0  502 -0.36051122336E+02 -0.93145048024E+02 -0.11703712564E+04  0.11746346884E+04  0.47000000000E+01 0.  1.
        -11    1    1    2    0    0 -0.46982913996E+02  0.73844316157E+02 -0.50286694511E+03  0.51042682308E+03  0.00000000000E+00 0. -1.
         11    1    1    2    0    0 -0.14980431815E+00 -0.22898279261E+02 -0.66226115623E+02  0.70073190486E+02  0.00000000000E+00 0.  1.
<mgrwt>
<rscale>  0 0.17364280E+03</rscale>
<asrwt>0</asrwt>
<pdfrwt beam="2">  1        1 0.37083819E+00 0.19949105E+03</pdfrwt>
<pdfrwt beam="1">  1       -1 0.17112990E-02 0.19949105E+03</pdfrwt>
<totfact> 0.15734462E+03</totfact>
</mgrwt>
</event>
<event>
 7    1  0.8165933E-006  0.1533326E+03  0.7546771E-02  0.1204799E+00
         -1   -1    0    0    0  501 -0.00000000000E+00  0.00000000000E+00  0.38444982355E+02  0.38444982355E+02  0.00000000000E+00 0.  1.
          1   -1    0    0  501    0  0.00000000000E+00 -0.00000000000E+00 -0.66226481565E+03  0.66226481565E+03  0.00000000000E+00 0. -1.
         23    2    1    2    0    0  0.73071091048E+02  0.50455415772E+02 -0.49891129058E+03  0.52194191236E+03  0.12500300269E+03 0.  0.
          5    1    3    3  502    0  0.86346288877E+02  0.61804950702E+02 -0.49069758361E+03  0.50207742640E+03  0.47000000000E+01 0. -1.
         -5    1    3    3    0  502 -0.13275197829E+02 -0.11349534930E+02 -0.82137069724E+01  0.19864485968E+02  0.47000000000E+01 0. -1.
        -11    1    1    2    0    0 -0.19003212385E+02 -0.61065820591E+02 -0.99049683837E+02  0.11790248680E+03  0.00000000000E+00 0. -1.
         11    1    1    2    0    0 -0.54067878663E+02  0.10610404819E+02 -0.25858858870E+02  0.60865398837E+02  0.00000000000E+00 0.  1.
<mgrwt>
<rscale>  0 0.14653281E+03</rscale>
<asrwt>0</asrwt>
<pdfrwt beam="2">  1        1 0.10188690E+00 0.15333259E+03</pdfrwt>
<pdfrwt beam="1">  1       -1 0.59146124E-02 0.15333259E+03</pdfrwt>
<totfact> 0.40775630E+03</totfact>
</mgrwt>
</event>
<event>
 7    1  0.8165933E-006  0.1325120E+03  0.7546771E-02  0.1237711E+00
         -2   -1    0    0    0  501 -0.00000000000E+00  0.00000000000E+00  0.18261139980E+02  0.18261139980E+02  0.00000000000E+00 0.  1.
          2   -1    0    0  501    0  0.00000000000E+00 -0.00000000000E+00 -0.26174851108E+04  0.26174851108E+04  0.00000000000E+00 0. -1.
         23    2    1    2    0    0  0.42231651243E+02 -0.82763474462E+00 -0.24658081020E+04  0.24693661162E+04  0.12559945117E+03 0.  0.
          5    1    3    3  502    0  0.70033687634E+02  0.58862019573E+01 -0.22975694605E+04  0.22986489251E+04  0.47000000000E+01 0. -1.
         -5    1    3    3    0  502 -0.27802036391E+02 -0.67138367019E+01 -0.16823864153E+03  0.17071719109E+03  0.47000000000E+01 0.  1.
        -11    1    1    2    0    0  0.22234361292E+02  0.39895505764E+01 -0.78340366262E+02  0.81532179671E+02  0.00000000000E+00 0. -1.
         11    1    1    2    0    0 -0.64466012535E+02 -0.31619158318E+01 -0.55075502519E+02  0.84847954964E+02  0.00000000000E+00 0.  1.
<mgrwt>
<rscale>  0 0.12332467E+03</rscale>
<asrwt>0</asrwt>
<pdfrwt beam="2">  1        2 0.40269017E+00 0.13251196E+03</pdfrwt>
<pdfrwt beam="1">  1       -2 0.28094051E-02 0.13251196E+03</pdfrwt>
<totfact> 0.16474151E+03</totfact>
</mgrwt>
</event>
<event>
 6    1  0.8165933E-006  0.2379822E+03  0.7546771E-02  0.1147793E+00
          2   -1    0    0  501    0  0.00000000000E+00  0.00000000000E+00  0.36850553281E+03  0.36850553281E+03  0.00000000000E+00 0. -1.
         -2   -1    0    0    0  501 -0.00000000000E+00 -0.00000000000E+00 -0.89058538510E+02  0.89058538510E+02  0.00000000000E+00 0.  1.
          5    1    1    2  502    0  0.11769387841E+02 -0.56478434264E+02  0.14618580193E+03  0.15722821221E+03  0.47000000000E+01 0. -1.
         -5    1    1    2    0  502 -0.66633770432E+02  0.12185261636E+03  0.39039479007E+02  0.14434088263E+03  0.47000000000E+01 0.  1.
        -11    1    1    2    0    0 -0.15298770647E+02  0.34553251856E-01  0.46311371919E+02  0.48772909963E+02  0.00000000000E+00 0.  1.
         11    1    1    2    0    0  0.70163153238E+02 -0.65408735349E+02  0.47910341438E+02  0.10722206652E+03  0.00000000000E+00 0. -1.
<mgrwt>
<rscale>  0 0.20232424E+03</rscale>
<asrwt>0</asrwt>
<pdfrwt beam="1">  1        2 0.56693158E-01 0.23798217E+03</pdfrwt>
<pdfrwt beam="2">  1       -2 0.13701314E-01 0.23798217E+03</pdfrwt>
<totfact> 0.34425970E+03</totfact>
</mgrwt>
</event>
<event>
 7    1  0.8165933E-006  0.1302115E+03  0.7546771E-02  0.1242927E+00
         -1   -1    0    0    0  501 -0.00000000000E+00  0.00000000000E+00  0.40725548873E+03  0.40725548873E+03  0.00000000000E+00 0.  1.
          1   -1    0    0  501    0  0.00000000000E+00 -0.00000000000E+00 -0.35356671916E+02  0.35356671916E+02  0.00000000000E+00 0. -1.
         23    2    1    2    0    0  0.11337245945E+02  0.34655830286E+02  0.13456854018E+03  0.18725314122E+03  0.12500194868E+03 0.  0.
          5    1    3    3  502    0  0.15271302219E+01  0.47482877895E+02 -0.37774826108E+01  0.47888570607E+02  0.47000000000E+01 0.  1.
         -5    1    3    3    0  502  0.98101157233E+01 -0.12827047608E+02  0.13834602279E+03  0.13936457061E+03  0.47000000000E+01 0.  1.
        -11    1    1    2    0    0 -0.30431685191E+01 -0.46196832248E+02  0.23664403176E+03  0.24113026759E+03  0.00000000000E+00 0.  1.
         11    1    1    2    0    0 -0.82940774262E+01  0.11541001961E+02  0.68624487956E+00  0.14228751831E+02  0.00000000000E+00 0. -1.
<mgrwt>
<rscale>  0 0.12010316E+03</rscale>
<asrwt>0</asrwt>
<pdfrwt beam="2">  1        1 0.54394883E-02 0.13021155E+03</pdfrwt>
<pdfrwt beam="1">  1       -1 0.62654687E-01 0.13021155E+03</pdfrwt>
<totfact> 0.37846669E+03</totfact>
</mgrwt>
</event>
<event>
 7    1  0.8165933E-006  0.1952002E+03  0.7546771E-02  0.1158825E+00
         -4   -1    0    0    0  501 -0.00000000000E+00  0.00000000000E+00  0.11368518985E+03  0.11368518985E+03  0.00000000000E+00 0.  1.
          4   -1    0    0  501    0  0.00000000000E+00 -0.00000000000E+00 -0.31399557889E+03  0.31399557889E+03  0.00000000000E+00 0. -1.
         23    2    1    2    0    0  0.10680267860E+03  0.10522596532E+03 -0.15186158480E+03  0.24731574283E+03  0.12499527903E+03 0.  0.
          5    1    3    3  502    0 -0.12746612915E+02  0.46505747812E+02 -0.45493693032E+01  0.48662588109E+02  0.47000000000E+01 0. -1.
         -5    1    3    3    0  502  0.11954929152E+03  0.58720217508E+02 -0.14731221550E+03  0.19865315472E+03  0.47000000000E+01 0. -1.
        -11    1    1    2    0    0 -0.47562281363E+02  0.27897760339E+01  0.90460321122E+00  0.47652615519E+02  0.00000000000E+00 0.  1.
         11    1    1    2    0    0 -0.59240397238E+02 -0.10801574135E+03 -0.49353407445E+02  0.13271241039E+03  0.00000000000E+00 0. -1.
<mgrwt>
<rscale>  0 0.18959760E+03</rscale>
<asrwt>0</asrwt>
<pdfrwt beam="2">  1        4 0.48307011E-01 0.19520025E+03</pdfrwt>
<pdfrwt beam="1">  1       -4 0.17490030E-01 0.19520025E+03</pdfrwt>
<totfact> 0.21174009E+02</totfact>
</mgrwt>
</event>
<event>
 7    1  0.8165933E-006  0.1566131E+03  0.7546771E-02  0.1201425E+00
         -2   -1    0    0    0  501 -0.00000000000E+00  0.00000000000E+00  0.80322076341E+03  0.80322076341E+03  0.00000000000E+00 0.  1.
          2   -1    0    0  501    0  0.00000000000E+00 -0.00000000000E+00 -0.27277066297E+02  0.27277066297E+02  0.00000000000E+00 0. -1.
         23    2    1    2    0    0  0.89634044249E+02 -0.29444652716E+02  0.31451715190E+03  0.35135269679E+03  0.12500571683E+03 0.  0.
          5    1    3    3  502    0  0.48558408825E+02 -0.12570298023E+02  0.30028961000E+03  0.30448624162E+03  0.47000000000E+01 0. -1.
         -5    1    3    3    0  502  0.41075635424E+02 -0.16874354693E+02  0.14227541894E+02  0.46866455169E+02  0.47000000000E+01 0. -1.
        -11    1    1    2    0    0 -0.15664542202E+02  0.43968796648E+02  0.10614095434E+03  0.11595057201E+03  0.00000000000E+00 0. -1.
         11    1    1    2    0    0 -0.73969502047E+02 -0.14524143932E+02  0.35528559088E+03  0.36319456091E+03  0.00000000000E+00 0.  1.
<mgrwt>
<rscale>  0 0.14922748E+03</rscale>
<asrwt>0</asrwt>
<pdfrwt beam="2">  1        2 0.41964723E-02 0.15661315E+03</pdfrwt>
<pdfrwt beam="1">  1       -2 0.12357241E+00 0.15661315E+03</pdfrwt>
<totfact> 0.10027781E+03</totfact>
</mgrwt>
</event>
<event>
 6    1  0.8165933E-006  0.1860915E+03  0.7546771E-02  0.1183324E+00
          2   -1    0    0  501    0  0.00000000000E+00  0.00000000000E+00  0.63564471825E+02  0.63564471825E+02  0.00000000000E+00 0. -1.
         -2   -1    0    0    0  501 -0.00000000000E+00 -0.00000000000E+00 -0.41823864552E+03  0.41823864552E+03  0.00000000000E+00 0.  1.
          5    1    1    2  502    0  0.13155922675E+02 -0.57269937262E+02  0.16504933899E+01  0.58972350672E+02  0.47000000000E+01 0. -1.
         -5    1    1    2    0  502  0.39736090932E+02  0.99198696898E+02 -0.12388789917E+03  0.16367541034E+03  0.47000000000E+01 0.  1.
        -11    1    1    2    0    0 -0.55558928264E+02 -0.68329943421E+02 -0.17769191716E+03  0.19831841342E+03  0.00000000000E+00 0.  1.
         11    1    1    2    0    0  0.26669146569E+01  0.26401183784E+02 -0.54744850751E+02  0.60836942911E+02  0.00000000000E+00 0. -1.
<mgrwt>
<rscale>  0 0.16485313E+03</rscale>
<asrwt>0</asrwt>
<pdfrwt beam="1">  1        2 0.97791494E-02 0.18609149E+03</pdfrwt>
<pdfrwt beam="2">  1       -2 0.64344408E-01 0.18609149E+03</pdfrwt>
<totfact> 0.14807814E+03</totfact>
</mgrwt>
</event>
<event>
 7    1  0.8165933E-006  0.1550794E+03  0.7546771E-02  0.1202571E+00
          3   -1    0    0  501    0  0.00000000000E+00  0.00000000000E+00  0.48734634385E+03  0.48734634385E+03  0.00000000000E+00 0. -1.
         -3   -1    0    0    0  501 -0.00000000000E+00 -0.00000000000E+00 -0.41868268743E+02  0.41868268743E+02  0.00000000000E+00 0.  1.
         23    2    1    2    0    0 -0.77454111266E+02  0.49289681630E+02  0.26336523241E+03  0.30563189214E+03  0.12498398210E+03 0.  0.
          5    1    3    3  502    0 -0.64820521463E+02  0.14878288358E+02  0.36962131130E+02  0.76232228125E+02  0.47000000000E+01 0. -1.
         -5    1    3    3    0  502 -0.12633589802E+02  0.34411393271E+02  0.22640310128E+03  0.22939966401E+03  0.47000000000E+01 0. -1.
        -11    1    1    2    0    0  0.32990781145E+02  0.25874972772E+02  0.50582652059E+02  0.65700156361E+02  0.00000000000E+00 0.  1.
         11    1    1    2    0    0  0.44463330121E+02 -0.75164654402E+02  0.13153019064E+03  0.15788256410E+03  0.00000000000E+00 0. -1.
<mgrwt>
<rscale>  0 0.14830546E+03</rscale>
<asrwt>0</asrwt>
<pdfrwt beam="1">  1        3 0.74976356E-01 0.15507936E+03</pdfrwt>
<pdfrwt beam="2">  1       -3 0.64412725E-02 0.15507936E+03</pdfrwt>
<totfact> 0.61610701E+02</totfact>
</mgrwt>
</event>
<event>
 7    1  0.8165933E-006  0.1633228E+03  0.7546771E-02  0.1191975E+00
          1   -1    0    0  501    0  0.00000000000E+00  0.00000000000E+00  0.78246309052E+02  0.78246309052E+02  0.00000000000E+00 0. -1.
         -1   -1    0    0    0  501 -0.00000000000E+00 -0.00000000000E+00 -0.30520930709E+03  0.30520930709E+03  0.00000000000E+00 0.  1.
         23    2    1    2    0    0  0.98356010562E+02 -0.37058914618E+02 -0.84977049762E+02  0.18410711325E+03  0.12500824852E+03 0.  0.
          5    1    3    3  502    0 -0.89034114068E+01  0.32157499274E+02 -0.29709412810E+02  0.44923431567E+02  0.47000000000E+01 0. -1.
         -5    1    3    3    0  502  0.10725942197E+03 -0.69216413892E+02 -0.55267636952E+02  0.13918368169E+03  0.47000000000E+01 0. -1.
        -11    1    1    2    0    0 -0.29438365836E+02  0.58216872142E+02 -0.48481013839E+02  0.81278719772E+02  0.00000000000E+00 0. -1.
         11    1    1    2    0    0 -0.68917644726E+02 -0.21157957524E+02 -0.93504934442E+02  0.11806978312E+03  0.00000000000E+00 0.  1.
<mgrwt>
<rscale>  0 0.15713074E+03</rscale>
<asrwt>0</asrwt>
<pdfrwt beam="1">  1        1 0.12037894E-01 0.16332278E+03</pdfrwt>
<pdfrwt beam="2">  1       -1 0.46955277E-01 0.16332278E+03</pdfrwt>
<totfact> 0.22557633E+03</totfact>
</mgrwt>
</event>
<event>
 7    1  0.8165933E-006  0.1426946E+03  0.7546771E-02  0.1220459E+00
         -1   -1    0    0    0  501 -0.00000000000E+00  0.00000000000E+00  0.12704464667E+03  0.12704464667E+03  0.00000000000E+00 0.  1.
          1   -1    0    0  501    0  0.00000000000E+00 -0.00000000000E+00 -0.14002759098E+03  0.14002759098E+03  0.00000000000E+00 0. -1.
         23    2    1    2    0    0  0.97331876442E+01 -0.68130722608E+02 -0.43728490253E+02  0.14924456952E+03  0.12500092146E+03 0.  0.
          5    1    3    3  502    0 -0.36729429094E+02 -0.81548945010E+02 -0.10048849609E+02  0.90124085417E+02  0.47000000000E+01 0. -1.
         -5    1    3    3    0  502  0.46462616738E+02  0.13418222402E+02 -0.33679640644E+02  0.59120484102E+02  0.47000000000E+01 0. -1.
        -11    1    1    2    0    0 -0.16665356950E+02  0.39225395852E+02 -0.28688353230E+02  0.51374968740E+02  0.00000000000E+00 0. -1.
         11    1    1    2    0    0  0.69321693058E+01  0.28905326756E+02  0.59433899168E+02  0.66452699391E+02  0.00000000000E+00 0.  1.
<mgrwt>
<rscale>  0 0.13483090E+03</rscale>
<asrwt>0</asrwt>
<pdfrwt beam="2">  1        1 0.21542706E-01 0.14269464E+03</pdfrwt>
<pdfrwt beam="1">  1       -1 0.19545330E-01 0.14269464E+03</pdfrwt>
<totfact> 0.46584581E+03</totfact>
</mgrwt>
</event>
<event>
 7    1  0.8165933E-006  0.1331987E+03  0.7546771E-02  0.1235716E+00
         -1   -1    0    0    0  501 -0.00000000000E+00  0.00000000000E+00  0.31451389243E+02  0.31451389243E+02  0.00000000000E+00 0.  1.
          1   -1    0    0  501    0  0.00000000000E+00 -0.00000000000E+00 -0.46735699230E+03  0.46735699230E+03  0.00000000000E+00 0. -1.
         23    2    1    2    0    0 -0.44742611226E+02  0.10619453982E+02 -0.30553634771E+03  0.33330821048E+03  0.12500891705E+03 0.  0.
          5    1    3    3  502    0 -0.18422038696E+02  0.67590984937E+02 -0.15649639284E+03  0.17152586897E+03  0.47000000000E+01 0.  1.
         -5    1    3    3    0  502 -0.26320572530E+02 -0.56971530955E+02 -0.14903995487E+03  0.16178234151E+03  0.47000000000E+01 0.  1.
        -11    1    1    2    0    0 -0.16195478563E+01 -0.19037227152E+02  0.69426693466E+01  0.20328295810E+02  0.00000000000E+00 0.  1.
         11    1    1    2    0    0  0.46362159083E+02  0.84177731701E+01 -0.13731192469E+03  0.14517187525E+03  0.00000000000E+00 0. -1.
<mgrwt>
<rscale>  0 0.12458730E+03</rscale>
<asrwt>0</asrwt>
<pdfrwt beam="2">  1        1 0.71901071E-01 0.13319874E+03</pdfrwt>
<pdfrwt beam="1">  1       -1 0.48386756E-02 0.13319874E+03</pdfrwt>
<totfact> 0.87016100E+03</totfact>
</mgrwt>
</event>
<event>
 7    1  0.8165933E-006  0.2409509E+03  0.7546771E-02  0.1121838E+00
         -2   -1    0    0    0  501 -0.00000000000E+00  0.00000000000E+00  0.16031839851E+03  0.16031839851E+03  0.00000000000E+00 0.  1.
          2   -1    0    0  501    0  0.00000000000E+00 -0.00000000000E+00 -0.34327736473E+03  0.34327736473E+03  0.00000000000E+00 0. -1.
         23    2    1    2    0    0  0.91802515070E+01  0.20578864430E+03 -0.12230921990E+03  0.27021633841E+03  0.12499632447E+03 0.  0.
          5    1    3    3  502    0  0.58449328459E+02  0.15831336381E+03 -0.10722079238E+03  0.19999458362E+03  0.47000000000E+01 0.  1.
         -5    1    3    3    0  502 -0.49269076952E+02  0.47475280491E+02 -0.15088427517E+02  0.70221754794E+02  0.47000000000E+01 0.  1.
        -11    1    1    2    0    0  0.38862429289E+02 -0.86105556818E+02 -0.40766378535E+02  0.10289000410E+03  0.00000000000E+00 0.  1.
         11    1    1    2    0    0 -0.48042680796E+02 -0.11968308748E+03 -0.19883367781E+02  0.13048942073E+03  0.00000000000E+00 0. -1.
<mgrwt>
<rscale>  0 0.23695510E+03</rscale>
<asrwt>0</asrwt>
<pdfrwt beam="2">  1        2 0.52811902E-01 0.24095088E+03</pdfrwt>
<pdfrwt beam="1">  1       -2 0.24664369E-01 0.24095088E+03</pdfrwt>
<totfact> 0.13713918E+03</totfact>
</mgrwt>
</event>
<event>
 7    1  0.8165933E-006  0.1385299E+03  0.7546771E-02  0.1226351E+00
         -2   -1    0    0    0  501 -0.00000000000E+00  0.00000000000E+00  0.22979018264E+02  0.22979018264E+02  0.00000000000E+00 0.  1.
          2   -1    0    0  501    0  0.00000000000E+00 -0.00000000000E+00 -0.75935192051E+03  0.75935192051E+03  0.00000000000E+00 0. -1.
         23    2    1    2    0    0  0.53967269676E+02 -0.37870592858E+02 -0.53787006111E+03  0.55542301843E+03  0.12183545776E+03 0.  0.
          5    1    3    3  502    0  0.29878853314E+02 -0.60255378973E+02 -0.50210606487E+03  0.50661232412E+03  0.47000000000E+01 0. -1.
         -5    1    3    3    0  502  0.24088416362E+02  0.22384786116E+02 -0.35763996236E+02  0.48810694310E+02  0.47000000000E+01 0.  1.
        -11    1    1    2    0    0 -0.45262242774E+01  0.56225324915E+02 -0.11603394603E+03  0.12901802394E+03  0.00000000000E+00 0.  1.
         11    1    1    2    0    0 -0.49441045399E+02 -0.18354732058E+02 -0.82468895108E+02  0.97889896411E+02  0.00000000000E+00 0. -1.
<mgrwt>
<rscale>  0 0.13074743E+03</rscale>
<asrwt>0</asrwt>
<pdfrwt beam="2">  1        2 0.11682334E+00 0.13852988E+03</pdfrwt>
<pdfrwt beam="1">  1       -2 0.35352345E-02 0.13852988E+03</pdfrwt>
<totfact> 0.12016033E+04</totfact>
</mgrwt>
</event>
<event>
 7    1  0.8165933E-006  0.1427988E+03  0.7546771E-02  0.1219666E+00
          1   -1    0    0  501    0  0.00000000000E+00  0.00000000000E+00  0.20492204319E+03  0.20492204319E+03  0.00000000000E+00 0. -1.
         -1   -1    0    0    0  501 -0.00000000000E+00 -0.00000000000E+00 -0.81415306262E+02  0.81415306262E+02  0.00000000000E+00 0.  1.
         23    2    1    2    0    0 -0.60706728560E+02 -0.32878748523E+02  0.72826480938E+02  0.16029719188E+03  0.12500069761E+03 0.  0.
          5    1    3    3  502    0  0.16227462538E+02 -0.58234779352E+02  0.40693336108E+02  0.73025048238E+02  0.47000000000E+01 0.  1.
         -5    1    3    3    0  502 -0.76934191098E+02  0.25356030829E+02  0.32133144829E+02  0.87272143642E+02  0.47000000000E+01 0.  1.
        -11    1    1    2    0    0  0.30503689572E+02 -0.12592027617E+02 -0.18566283353E+02  0.37864774059E+02  0.00000000000E+00 0. -1.
         11    1    1    2    0    0  0.30203038989E+02  0.45470776140E+02  0.69246539346E+02  0.88175383517E+02  0.00000000000E+00 0.  1.
<mgrwt>
<rscale>  0 0.13539317E+03</rscale>
<asrwt>0</asrwt>
<pdfrwt beam="1">  1        1 0.31526468E-01 0.14279879E+03</pdfrwt>
<pdfrwt beam="2">  1       -1 0.12525432E-01 0.14279879E+03</pdfrwt>
<totfact> 0.58231179E+03</totfact>
</mgrwt>
</event>
<event>
 7    1  0.8165933E-006  0.1362077E+03  0.7546771E-02  0.1230732E+00
          2   -1    0    0  501    0  0.00000000000E+00  0.00000000000E+00  0.16245866901E+04  0.16245866901E+04  0.00000000000E+00 0.  1.
         -2   -1    0    0    0  501 -0.00000000000E+00 -0.00000000000E+00 -0.10406273044E+02  0.10406273044E+02  0.00000000000E+00 0. -1.
         23    2    1    2    0    0 -0.51715045545E+02 -0.15906793562E+02  0.11938925152E+04  0.12016371591E+04  0.12500020842E+03 0.  0.
          5    1    3    3  502    0  0.23471781210E+02 -0.37441108180E+02  0.71480668753E+03  0.71618674355E+03  0.47000000000E+01 0.  1.
         -5    1    3    3    0  502 -0.75186826755E+02  0.21534314618E+02  0.47908582771E+03  0.48545041553E+03  0.47000000000E+01 0.  1.
        -11    1    1    2    0    0  0.28538709692E+02 -0.36886940296E+02  0.22250764700E+03  0.22734281887E+03  0.00000000000E+00 0. -1.
         11    1    1    2    0    0  0.23176335853E+02  0.52793733858E+02  0.19778025482E+03  0.20601298521E+03  0.00000000000E+00 0.  1.
<mgrwt>
<rscale>  0 0.12781636E+03</rscale>
<asrwt>0</asrwt>
<pdfrwt beam="1">  1        2 0.24993621E+00 0.13620765E+03</pdfrwt>
<pdfrwt beam="2">  1       -2 0.16009664E-02 0.13620765E+03</pdfrwt>
<totfact> 0.12232752E+04</totfact>
</mgrwt>
</event>
<event>
 7    1  0.8165933E-006  0.1493920E+03  0.7546771E-02  0.1210027E+00
         -1   -1    0    0    0  501 -0.00000000000E+00  0.00000000000E+00  0.11334052068E+03  0.11334052068E+03  0.00000000000E+00 0.  1.
          1   -1    0    0  501    0  0.00000000000E+00 -0.00000000000E+00 -0.21184850188E+03  0.21184850188E+03  0.00000000000E+00 0. -1.
         23    2    1    2    0    0 -0.64546583737E+02  0.50264617356E+02 -0.12954659955E+03  0.19773791788E+03  0.12500067793E+03 0.  0.
          5    1    3    3  502    0 -0.17942785951E+02 -0.31350639321E+01  0.22851952097E+02  0.29598545711E+02  0.47000000000E+01 0.  1.
         -5    1    3    3    0  502 -0.46603797785E+02  0.53399681288E+02 -0.15239855165E+03  0.16813937217E+03  0.47000000000E+01 0.  1.
        -11    1    1    2    0    0  0.86311872145E+02 -0.34373225075E+02  0.36739902834E+02  0.99905346881E+02  0.00000000000E+00 0.  1.
         11    1    1    2    0    0 -0.21765288408E+02 -0.15891392281E+02 -0.57012844861E+01  0.27545757803E+02  0.00000000000E+00 0. -1.
<mgrwt>
<rscale>  0 0.14248274E+03</rscale>
<asrwt>0</asrwt>
<pdfrwt beam="2">  1        1 0.32592077E-01 0.14939198E+03</pdfrwt>
<pdfrwt beam="1">  1       -1 0.17437003E-01 0.14939198E+03</pdfrwt>
<totfact> 0.33335154E+03</totfact>
</mgrwt>
</event>
<event>
 7    1  0.8165933E-006  0.1294049E+03  0.7546771E-02  0.1243612E+00
          2   -1    0    0  501    0  0.00000000000E+00  0.00000000000E+00  0.41856053072E+03  0.41856053072E+03  0.00000000000E+00 0. -1.
         -2   -1    0    0    0  501 -0.00000000000E+00 -0.00000000000E+00 -0.16018906530E+03  0.16018906530E+03  0.00000000000E+00 0.  1.
         23    2    1    2    0    0  0.24514772428E+02 -0.37618527201E+01  0.39322214535E+03  0.41396773637E+03  0.12700592725E+03 0.  0.
          5    1    3    3  502    0 -0.15394801899E+02  0.17641047503E+02  0.35119569431E+03  0.35200669338E+03  0.47000000000E+01 0. -1.
         -5    1    3    3    0  502  0.39909574327E+02 -0.21402900223E+02  0.42026451033E+02  0.61961042982E+02  0.47000000000E+01 0.  1.
        -11    1    1    2    0    0  0.95798368707E+01  0.38780137717E+02 -0.33008473064E+02  0.51819220853E+02  0.00000000000E+00 0. -1.
         11    1    1    2    0    0 -0.34094609299E+02 -0.35018284997E+02 -0.10184220686E+03  0.11296263880E+03  0.00000000000E+00 0.  1.
<mgrwt>
<rscale>  0 0.11968843E+03</rscale>
<asrwt>0</asrwt>
<pdfrwt beam="1">  1        2 0.64393927E-01 0.12940491E+03</pdfrwt>
<pdfrwt beam="2">  1       -2 0.24644472E-01 0.12940491E+03</pdfrwt>
<totfact> 0.10971116E+03</totfact>
</mgrwt>
</event>
<event>
 7    1  0.8165933E-006  0.1797129E+03  0.7546771E-02  0.1175258E+00
         -1   -1    0    0    0  501 -0.00000000000E+00  0.00000000000E+00  0.41091864275E+02  0.41091864275E+02  0.00000000000E+00 0. -1.
          1   -1    0    0  501    0  0.00000000000E+00 -0.00000000000E+00 -0.67409765820E+03  0.67409765820E+03  0.00000000000E+00 0.  1.
         23    2    1    2    0    0  0.12877235643E+03 -0.94662921791E+01 -0.36320252541E+03  0.40523179111E+03  0.12499919836E+03 0.  0.
          5    1    3    3  502    0  0.93778196740E+02 -0.22552484686E+02 -0.35335160111E+03  0.36630917099E+03  0.47000000000E+01 0.  1.
         -5    1    3    3    0  502  0.34994159691E+02  0.13086192507E+02 -0.98509243052E+01  0.38922620113E+02  0.47000000000E+01 0.  1.
        -11    1    1    2    0    0 -0.48092993971E+02  0.12213243826E+01 -0.19067707284E+03  0.19665241877E+03  0.00000000000E+00 0.  1.
         11    1    1    2    0    0 -0.80679362459E+02  0.82449677966E+01 -0.79126195677E+02  0.11330531260E+03  0.00000000000E+00 0. -1.
<mgrwt>
<rscale>  0 0.17250723E+03</rscale>
<asrwt>0</asrwt>
<pdfrwt beam="2">  1        1 0.10370733E+00 0.17971291E+03</pdfrwt>
<pdfrwt beam="1">  1       -1 0.63218256E-02 0.17971291E+03</pdfrwt>
<totfact> 0.36200293E+03</totfact>
</mgrwt>
</event>
<event>
 7    1  0.8165933E-006  0.1687213E+03  0.7546771E-02  0.1185267E+00
          1   -1    0    0  501    0  0.00000000000E+00  0.00000000000E+00  0.13369031183E+03  0.13369031183E+03  0.00000000000E+00 0. -1.
         -1   -1    0    0    0  501 -0.00000000000E+00 -0.00000000000E+00 -0.19094838175E+03  0.19094838175E+03  0.00000000000E+00 0.  1.
         23    2    1    2    0    0 -0.34638498686E+01  0.11327213801E+03 -0.63607671021E+01  0.16884112171E+03  0.12499715804E+03 0.  0.
          5    1    3    3  502    0 -0.22693789385E+02  0.13623383125E+03 -0.84739053527E+01  0.13845057575E+03  0.47000000000E+01 0. -1.
         -5    1    3    3    0  502  0.19229939517E+02 -0.22961693243E+02  0.21131382506E+01  0.30390545959E+02  0.47000000000E+01 0. -1.
        -11    1    1    2    0    0 -0.11724492482E+02  0.10853268746E+02 -0.22444681890E+02  0.27550334147E+02  0.00000000000E+00 0.  1.
         11    1    1    2    0    0  0.15188342351E+02 -0.12412540675E+03 -0.28452620937E+02  0.12824723772E+03  0.00000000000E+00 0. -1.
<mgrwt>
<rscale>  0 0.16307623E+03</rscale>
<asrwt>0</asrwt>
<pdfrwt beam="1">  1        1 0.20567740E-01 0.16872126E+03</pdfrwt>
<pdfrwt beam="2">  1       -1 0.29376674E-01 0.16872126E+03</pdfrwt>
<totfact> 0.25523289E+03</totfact>
</mgrwt>
</event>
<event>
 6    1  0.8165933E-006  0.1606208E+03  0.7546771E-02  0.1207528E+00
         -1   -1    0    0    0  501 -0.00000000000E+00  0.00000000000E+00  0.55373341742E+02  0.55373341742E+02  0.00000000000E+00 0.  1.
          1   -1    0    0  501    0  0.00000000000E+00 -0.00000000000E+00 -0.38188037704E+03  0.38188037704E+03  0.00000000000E+00 0. -1.
          5    1    1    2  502    0  0.79777325177E+02 -0.50741335515E+01 -0.21644529500E+03  0.23078306734E+03  0.47000000000E+01 0. -1.
         -5    1    1    2    0  502 -0.49235548732E+02  0.44263366233E+02 -0.62874216779E+02  0.91425609020E+02  0.47000000000E+01 0.  1.
        -11    1    1    2    0    0 -0.50650662971E+02 -0.11390225975E+02  0.54629257923E+01  0.52202207476E+02  0.00000000000E+00 0.  1.
         11    1    1    2    0    0  0.20108886525E+02 -0.27799006706E+02 -0.52650449316E+02  0.62842834948E+02  0.00000000000E+00 0. -1.
<mgrwt>
<rscale>  0 0.14440038E+03</rscale>
<asrwt>0</asrwt>
<pdfrwt beam="2">  1        1 0.58750827E-01 0.16062080E+03</pdfrwt>
<pdfrwt beam="1">  1       -1 0.85189757E-02 0.16062080E+03</pdfrwt>
<totfact> 0.48787198E+03</totfact>
</mgrwt>
</event>
<event>
 7    1  0.8165933E-006  0.1771308E+03  0.7546771E-02  0.1176276E+00
         -1   -1    0    0    0  501 -0.00000000000E+00  0.00000000000E+00  0.10008571222E+03  0.10008571222E+03  0.00000000000E+00 0.  1.
          1   -1    0    0  501    0  0.00000000000E+00 -0.00000000000E+00 -0.27788526680E+03  0.27788526680E+03  0.00000000000E+00 0. -1.
         23    2    1    2    0    0  0.75780518694E+02  0.10003912371E+03 -0.10674556592E+03  0.20680895728E+03  0.12499926272E+03 0.  0.
          5    1    3    3  502    0  0.73428776539E+02  0.30209756414E+02 -0.11111105802E+03  0.13664615553E+03  0.47000000000E+01 0.  1.
         -5    1    3    3    0  502  0.23517421556E+01  0.69829367297E+02  0.43654920988E+01  0.70162801751E+02  0.47000000000E+01 0.  1.
        -11    1    1    2    0    0 -0.18347826446E+02 -0.31597943388E+02  0.21601374510E+02  0.42446344276E+02  0.00000000000E+00 0.  1.
         11    1    1    2    0    0 -0.57432692249E+02 -0.68441180323E+02 -0.92655363169E+02  0.12871567747E+03  0.00000000000E+00 0. -1.
<mgrwt>
<rscale>  0 0.17151598E+03</rscale>
<asrwt>0</asrwt>
<pdfrwt beam="2">  1        1 0.42751579E-01 0.17713082E+03</pdfrwt>
<pdfrwt beam="1">  1       -1 0.15397802E-01 0.17713082E+03</pdfrwt>
<totfact> 0.29181243E+03</totfact>
</mgrwt>
</event>
<event>
 7    1  0.8165933E-006  0.1665820E+03  0.7546771E-02  0.1189885E+00
         -3   -1    0    0    0  501 -0.00000000000E+00  0.00000000000E+00  0.92541434844E+03  0.92541434844E+03  0.00000000000E+00 0.  1.
          3   -1    0    0  501    0  0.00000000000E+00 -0.00000000000E+00 -0.25620842426E+02  0.25620842426E+02  0.00000000000E+00 0. -1.
         23    2    1    2    0    0  0.77754806462E+02 -0.77956386119E+02  0.42213066166E+03  0.45381036120E+03  0.12500616127E+03 0.  0.
          5    1    3    3  502    0  0.10093795112E+03 -0.69550664846E+02  0.23583382093E+03  0.26582973132E+03  0.47000000000E+01 0.  1.
         -5    1    3    3    0  502 -0.23183144659E+02 -0.84057212732E+01  0.18629684073E+03  0.18798062988E+03  0.47000000000E+01 0.  1.
        -11    1    1    2    0    0 -0.71110325362E+02  0.35400358201E+02  0.40532189903E+03  0.41303232993E+03  0.00000000000E+00 0.  1.
         11    1    1    2    0    0 -0.66444810997E+01  0.42556027918E+02  0.72340945329E+02  0.84192499739E+02  0.00000000000E+00 0. -1.
<mgrwt>
<rscale>  0 0.15895233E+03</rscale>
<asrwt>0</asrwt>
<pdfrwt beam="2">  1        3 0.39416688E-02 0.16658196E+03</pdfrwt>
<pdfrwt beam="1">  1       -3 0.14237141E+00 0.16658196E+03</pdfrwt>
<totfact> 0.31040945E+02</totfact>
</mgrwt>
</event>
<event>
 7    1  0.8165933E-006  0.1778526E+03  0.7546771E-02  0.1175488E+00
         -2   -1    0    0    0  501 -0.00000000000E+00  0.00000000000E+00  0.78996163352E+02  0.78996163352E+02  0.00000000000E+00 0.  1.
          2   -1    0    0  501    0  0.00000000000E+00 -0.00000000000E+00 -0.40265650768E+03  0.40265650768E+03  0.00000000000E+00 0. -1.
         23    2    1    2    0    0 -0.58614808370E+02  0.11212846697E+03 -0.25444442522E+03  0.31044085968E+03  0.12499229164E+03 0.  0.
          5    1    3    3  502    0 -0.42267567779E+02  0.13182072160E+03 -0.24731455708E+03  0.28346045592E+03  0.47000000000E+01 0. -1.
         -5    1    3    3    0  502 -0.16347240591E+02 -0.19692254628E+02 -0.71298681406E+01  0.26980403759E+02  0.47000000000E+01 0. -1.
        -11    1    1    2    0    0 -0.10442601391E+02 -0.38480847220E+02 -0.56934049983E+02  0.69507622417E+02  0.00000000000E+00 0. -1.
         11    1    1    2    0    0  0.69057409762E+02 -0.73647619748E+02 -0.12281869125E+02  0.10170418893E+03  0.00000000000E+00 0.  1.
<mgrwt>
<rscale>  0 0.17228249E+03</rscale>
<asrwt>0</asrwt>
<pdfrwt beam="2">  1        2 0.61947156E-01 0.17785264E+03</pdfrwt>
<pdfrwt beam="1">  1       -2 0.12153256E-01 0.17785264E+03</pdfrwt>
<totfact> 0.37572321E+03</totfact>
</mgrwt>
</event>
<event>
 7    1  0.8165933E-006  0.1284656E+03  0.7546771E-02  0.1245286E+00
          2   -1    0    0  501    0  0.00000000000E+00  0.00000000000E+00  0.20074866516E+03  0.20074866516E+03  0.00000000000E+00 0. -1.
         -2   -1    0    0    0  501 -0.00000000000E+00 -0.00000000000E+00 -0.61580625370E+02  0.61580625370E+02  0.00000000000E+00 0.  1.
         23    2    1    2    0    0  0.12141205485E+02 -0.27128007118E+02  0.87472019823E+02  0.15541800728E+03  0.12498025881E+03 0.  0.
          5    1    3    3  502    0 -0.34773112161E+02  0.10261694229E+02  0.87944931975E+02  0.95241129550E+02  0.47000000000E+01 0. -1.
         -5    1    3    3    0  502  0.46914317645E+02 -0.37389701346E+02 -0.47291215264E+00  0.60176877726E+02  0.47000000000E+01 0. -1.
        -11    1    1    2    0    0 -0.11653825164E+02 -0.18821292235E+02 -0.14401940955E+02  0.26409630546E+02  0.00000000000E+00 0.  1.
         11    1    1    2    0    0 -0.48738032092E+00  0.45949299353E+02  0.66097960922E+02  0.80501652708E+02  0.00000000000E+00 0. -1.
<mgrwt>
<rscale>  0 0.11868282E+03</rscale>
<asrwt>0</asrwt>
<pdfrwt beam="1">  1        2 0.30884410E-01 0.12846557E+03</pdfrwt>
<pdfrwt beam="2">  1       -2 0.94739425E-02 0.12846557E+03</pdfrwt>
<totfact> 0.11500846E+04</totfact>
</mgrwt>
</event>
<event>
 7    1  0.8165933E-006  0.1492519E+03  0.7546771E-02  0.1210608E+00
          2   -1    0    0  501    0  0.00000000000E+00  0.00000000000E+00  0.18572184877E+03  0.18572184877E+03  0.00000000000E+00 0. -1.
         -2   -1    0    0    0  501 -0.00000000000E+00 -0.00000000000E+00 -0.10013066124E+03  0.10013066124E+03  0.00000000000E+00 0.  1.
         23    2    1    2    0    0 -0.11023903502E+02  0.80806849179E+02  0.59466225085E+02  0.16066227090E+03  0.12499944017E+03 0.  0.
          5    1    3    3  502    0 -0.19903599786E+02  0.11321798593E+03  0.41816454097E+02  0.12241393489E+03  0.47000000000E+01 0.  1.
         -5    1    3    3    0  502  0.88796962837E+01 -0.32411136753E+02  0.17649770988E+02  0.38248336011E+02  0.47000000000E+01 0.  1.
        -11    1    1    2    0    0  0.35725877614E+02 -0.50405377101E+02  0.49857207377E+02  0.79390059198E+02  0.00000000000E+00 0. -1.
         11    1    1    2    0    0 -0.24701974112E+02 -0.30401472077E+02 -0.23732244936E+02  0.45800179903E+02  0.00000000000E+00 0.  1.
<mgrwt>
<rscale>  0 0.14204156E+03</rscale>
<asrwt>0</asrwt>
<pdfrwt beam="1">  1        2 0.28572592E-01 0.14925191E+03</pdfrwt>
<pdfrwt beam="2">  1       -2 0.15404717E-01 0.14925191E+03</pdfrwt>
<totfact> 0.58121019E+03</totfact>
</mgrwt>
</event>
<event>
 7    1  0.8165933E-006  0.1436451E+03  0.7546771E-02  0.1217254E+00
         -2   -1    0    0    0  501 -0.00000000000E+00  0.00000000000E+00  0.28261696825E+02  0.28261696825E+02  0.00000000000E+00 0.  1.
          2   -1    0    0  501    0  0.00000000000E+00 -0.00000000000E+00 -0.62291072800E+03  0.62291072800E+03  0.00000000000E+00 0. -1.
         23    2    1    2    0    0  0.33548311932E+02  0.62320875182E+02 -0.28051170768E+03  0.31515191247E+03  0.12499811627E+03 0.  0.
          5    1    3    3  502    0  0.68052520554E+02  0.25504100945E+01 -0.18522675482E+03  0.19740489064E+03  0.47000000000E+01 0.  1.
         -5    1    3    3    0  502 -0.34504208622E+02  0.59770465088E+02 -0.95284952857E+02  0.11774702183E+03  0.47000000000E+01 0.  1.
        -11    1    1    2    0    0 -0.63652406244E+02 -0.46075904261E+02 -0.16156464099E+03  0.17966009850E+03  0.00000000000E+00 0.  1.
         11    1    1    2    0    0  0.30104094312E+02 -0.16244970921E+02 -0.15257268251E+03  0.15636041386E+03  0.00000000000E+00 0. -1.
<mgrwt>
<rscale>  0 0.13712267E+03</rscale>
<asrwt>0</asrwt>
<pdfrwt beam="2">  1        2 0.95832412E-01 0.14364508E+03</pdfrwt>
<pdfrwt beam="1">  1       -2 0.43479537E-02 0.14364508E+03</pdfrwt>
<totfact> 0.11195801E+04</totfact>
</mgrwt>
</event>
<event>
 7    1  0.8165933E-006  0.1623995E+03  0.7546771E-02  0.1193022E+00
         -1   -1    0    0    0  501 -0.00000000000E+00  0.00000000000E+00  0.12616657230E+03  0.12616657230E+03  0.00000000000E+00 0.  1.
          1   -1    0    0  501    0  0.00000000000E+00 -0.00000000000E+00 -0.23049135877E+03  0.23049135877E+03  0.00000000000E+00 0. -1.
         23    2    1    2    0    0  0.10353882238E+03  0.53123216699E+01 -0.13849711172E+03  0.21343624888E+03  0.12500029551E+03 0.  0.
          5    1    3    3  502    0  0.12037525580E+03 -0.23579579567E+02 -0.82018084100E+02  0.14763216080E+03  0.47000000000E+01 0.  1.
         -5    1    3    3    0  502 -0.16836433419E+02  0.28891901237E+02 -0.56479027620E+02  0.65804088081E+02  0.47000000000E+01 0.  1.
        -11    1    1    2    0    0 -0.24344595660E+02 -0.44488566291E+02  0.13540221227E+02  0.52490279665E+02  0.00000000000E+00 0.  1.
         11    1    1    2    0    0 -0.79194226722E+02  0.39176244621E+02  0.20632104017E+02  0.90731402529E+02  0.00000000000E+00 0. -1.
<mgrwt>
<rscale>  0 0.15622793E+03</rscale>
<asrwt>0</asrwt>
<pdfrwt beam="2">  1        1 0.35460209E-01 0.16239945E+03</pdfrwt>
<pdfrwt beam="1">  1       -1 0.19410242E-01 0.16239945E+03</pdfrwt>
<totfact> 0.25378277E+03</totfact>
</mgrwt>
</event>
<event>
 7    1  0.8165933E-006  0.1428422E+03  0.7546771E-02  0.1219967E+00
          2   -1    0    0  501    0  0.00000000000E+00  0.00000000000E+00  0.16953255636E+04  0.16953255636E+04  0.00000000000E+00 0. -1.
         -2   -1    0    0    0  501 -0.00000000000E+00 -0.00000000000E+00 -0.10557400511E+02  0.10557400511E+02  0.00000000000E+00 0.  1.
         23    2    1    2    0    0 -0.31608784422E+02 -0.61485474041E+02  0.11594962122E+04  0.11682616849E+04  0.12499727814E+03 0.  0.
          5    1    3    3  502    0  0.40327906253E+02  0.81347474504E+00  0.53499104641E+03  0.53653006580E+03  0.47000000000E+01 0.  1.
         -5    1    3    3    0  502 -0.71936690676E+02 -0.62298948786E+02  0.62450516578E+03  0.63173161910E+03  0.47000000000E+01 0.  1.
        -11    1    1    2    0    0 -0.10241214949E+02 -0.11458685083E+02  0.19120906816E+02  0.24531470093E+02  0.00000000000E+00 0.  1.
         11    1    1    2    0    0  0.41849999371E+02  0.72944159124E+02  0.50615104406E+03  0.51308980910E+03  0.00000000000E+00 0. -1.
<mgrwt>
<rscale>  0 0.13517895E+03</rscale>
<asrwt>0</asrwt>
<pdfrwt beam="1">  1        2 0.26081910E+00 0.14284221E+03</pdfrwt>
<pdfrwt beam="2">  1       -2 0.16242168E-02 0.14284221E+03</pdfrwt>
<totfact> 0.11040371E+04</totfact>
</mgrwt>
</event>
<event>
 7    1  0.8165933E-006  0.1287590E+03  0.7546771E-02  0.1243068E+00
          4   -1    0    0  501    0  0.00000000000E+00  0.00000000000E+00  0.22128763382E+02  0.22128763382E+02  0.00000000000E+00 0. -1.
         -4   -1    0    0    0  501 -0.00000000000E+00 -0.00000000000E+00 -0.65169893097E+03  0.65169893097E+03  0.00000000000E+00 0.  1.
         23    2    1    2    0    0  0.28774112275E+02 -0.11325092704E+02 -0.24047538804E+03  0.27277697870E+03  0.12499064203E+03 0.  0.
          5    1    3    3  502    0  0.68684571876E+02 -0.28566109778E+02 -0.19902658298E+03  0.21252591318E+03  0.47000000000E+01 0. -1.
         -5    1    3    3    0  502 -0.39910459601E+02  0.17241017074E+02 -0.41448805061E+02  0.60251065520E+02  0.47000000000E+01 0. -1.
        -11    1    1    2    0    0 -0.14655433286E+02  0.52026858594E+02 -0.20933485164E+03  0.21620049919E+03  0.00000000000E+00 0.  1.
         11    1    1    2    0    0 -0.14118678990E+02 -0.40701765890E+02 -0.17975992790E+03  0.18485021645E+03  0.00000000000E+00 0. -1.
<mgrwt>
<rscale>  0 0.12001745E+03</rscale>
<asrwt>0</asrwt>
<pdfrwt beam="1">  1        4 0.34044252E-02 0.12875895E+03</pdfrwt>
<pdfrwt beam="2">  1       -4 0.10026137E+00 0.12875895E+03</pdfrwt>
<totfact> 0.61715680E+02</totfact>
</mgrwt>
</event>
<event>
 7    1  0.8165933E-006  0.1295020E+03  0.7546771E-02  0.1242897E+00
         -2   -1    0    0    0  501 -0.00000000000E+00  0.00000000000E+00  0.37002079947E+03  0.37002079947E+03  0.00000000000E+00 0.  1.
          2   -1    0    0  501    0  0.00000000000E+00 -0.00000000000E+00 -0.36774334531E+02  0.36774334531E+02  0.00000000000E+00 0. -1.
         23    2    1    2    0    0  0.83769314093E+01  0.32791702426E+02  0.13778618068E+03  0.18909200659E+03  0.12500114657E+03 0.  0.
          5    1    3    3  502    0  0.54935214505E+02 -0.20270464831E+02  0.61374040371E+02  0.84956649937E+02  0.47000000000E+01 0. -1.
         -5    1    3    3    0  502 -0.46558283096E+02  0.53062167257E+02  0.76412140305E+02  0.10413535665E+03  0.47000000000E+01 0. -1.
        -11    1    1    2    0    0 -0.30662437579E+02 -0.55023030694E+02  0.11190643172E+03  0.12841638698E+03  0.00000000000E+00 0.  1.
         11    1    1    2    0    0  0.22285506170E+02  0.22231328268E+02  0.83553852548E+02  0.89286740435E+02  0.00000000000E+00 0. -1.
<mgrwt>
<rscale>  0 0.12012164E+03</rscale>
<asrwt>0</asrwt>
<pdfrwt beam="2">  1        2 0.56575902E-02 0.12950195E+03</pdfrwt>
<pdfrwt beam="1">  1       -2 0.56926274E-01 0.12950195E+03</pdfrwt>
<totfact> 0.37390612E+03</totfact>
</mgrwt>
</event>
<event>
 7    1  0.8165933E-006  0.1385067E+03  0.7546771E-02  0.1226945E+00
          1   -1    0    0  501    0  0.00000000000E+00  0.00000000000E+00  0.89051703802E+02  0.89051703802E+02  0.00000000000E+00 0.  1.
         -1   -1    0    0    0  501 -0.00000000000E+00 -0.00000000000E+00 -0.17147951227E+03  0.17147951227E+03  0.00000000000E+00 0. -1.
         23    2    1    2    0    0 -0.11655904324E+02 -0.58503500662E+02 -0.45161242870E+02  0.14568335096E+03  0.12500232476E+03 0.  0.
          5    1    3    3  502    0  0.15504383334E+01 -0.23309286785E+02  0.43315595550E+02  0.49437410200E+02  0.47000000000E+01 0. -1.
         -5    1    3    3    0  502 -0.13206342657E+02 -0.35194213877E+02 -0.88476838420E+02  0.96245940764E+02  0.47000000000E+01 0. -1.
        -11    1    1    2    0    0  0.37536923868E+01  0.37094272823E+02 -0.67413859949E+02  0.77037028733E+02  0.00000000000E+00 0. -1.
         11    1    1    2    0    0  0.79022119371E+01  0.21409227839E+02  0.30147294355E+02  0.37810836371E+02  0.00000000000E+00 0.  1.
<mgrwt>
<rscale>  0 0.13034488E+03</rscale>
<asrwt>0</asrwt>
<pdfrwt beam="1">  1        1 0.13700262E-01 0.13850668E+03</pdfrwt>
<pdfrwt beam="2">  1       -1 0.26381463E-01 0.13850668E+03</pdfrwt>
<totfact> 0.51045753E+03</totfact>
</mgrwt>
</event>
<event>
 7    1  0.8165933E-006  0.1623332E+03  0.7546771E-02  0.1193355E+00
         -1   -1    0    0    0  501 -0.00000000000E+00  0.00000000000E+00  0.17697174098E+02  0.17697174098E+02  0.00000000000E+00 0.  1.
          1   -1    0    0  501    0  0.00000000000E+00 -0.00000000000E+00 -0.13334741289E+04  0.13334741289E+04  0.00000000000E+00 0. -1.
         23    2    1    2    0    0 -0.61098372000E+02  0.83633547241E+02 -0.84785968675E+03  0.86326016371E+03  0.12499792222E+03 0.  0.
          5    1    3    3  502    0 -0.48041737183E+02  0.90692591529E+02 -0.83915915898E+03  0.84542494568E+03  0.47000000000E+01 0. -1.
         -5    1    3    3    0  502 -0.13056634817E+02 -0.70590442878E+01 -0.87005277648E+01  0.17835218036E+02  0.47000000000E+01 0. -1.
        -11    1    1    2    0    0  0.49313360617E+02 -0.85594797535E+02 -0.46531344719E+03  0.47568359341E+03  0.00000000000E+00 0. -1.
         11    1    1    2    0    0  0.11785011383E+02  0.19612502934E+01 -0.26038209103E+01  0.12227545924E+02  0.00000000000E+00 0.  1.
<mgrwt>
<rscale>  0 0.15594271E+03</rscale>
<asrwt>0</asrwt>
<pdfrwt beam="2">  1        1 0.20514990E+00 0.16233318E+03</pdfrwt>
<pdfrwt beam="1">  1       -1 0.27226417E-02 0.16233318E+03</pdfrwt>
<totfact> 0.39900758E+03</totfact>
</mgrwt>
</event>
<event>
 6    1  0.8165933E-006  0.1814611E+03  0.7546771E-02  0.1176945E+00
         -1   -1    0    0    0  501 -0.00000000000E+00  0.00000000000E+00  0.36949994094E+02  0.36949994094E+02  0.00000000000E+00 0.  1.
          1   -1    0    0  501    0  0.00000000000E+00 -0.00000000000E+00 -0.76846661956E+03  0.76846661956E+03  0.00000000000E+00 0. -1.
          5    1    1    2  502    0 -0.91492823996E+00  0.10805612698E+03 -0.38245595951E+03  0.39745643111E+03  0.47000000000E+01 0. -1.
         -5    1    1    2    0  502  0.63370222538E+02 -0.21964037427E+02 -0.13339944603E+03  0.14938442438E+03  0.47000000000E+01 0.  1.
        -11    1    1    2    0    0  0.10476158590E+01  0.19443613494E+02 -0.30919188349E+02  0.36539674504E+02  0.00000000000E+00 0. -1.
         11    1    1    2    0    0 -0.63502910157E+02 -0.10553570305E+03 -0.18474203158E+03  0.22203608366E+03  0.00000000000E+00 0.  1.
<mgrwt>
<rscale>  0 0.17086873E+03</rscale>
<asrwt>0</asrwt>
<pdfrwt beam="2">  1        1 0.11822564E+00 0.18146108E+03</pdfrwt>
<pdfrwt beam="1">  1       -1 0.56846140E-02 0.18146108E+03</pdfrwt>
<totfact> 0.35075940E+03</totfact>
</mgrwt>
</event>
<event>
 7    1  0.8165933E-006  0.1358548E+03  0.7546771E-02  0.1231533E+00
          2   -1    0    0  501    0  0.00000000000E+00  0.00000000000E+00  0.14093287932E+03  0.14093287932E+03  0.00000000000E+00 0. -1.
         -2   -1    0    0    0  501 -0.00000000000E+00 -0.00000000000E+00 -0.10644257583E+03  0.10644257583E+03  0.00000000000E+00 0.  1.
         23    2    1    2    0    0 -0.23817396685E+01  0.53153677293E+02  0.42554211825E+02  0.14236362303E+03  0.12500221647E+03 0.  0.
          5    1    3    3  502    0 -0.37387164388E+02 -0.27478948227E+02  0.59001782678E+01  0.47008454135E+02  0.47000000000E+01 0. -1.
         -5    1    3    3    0  502  0.35005424719E+02  0.80632625520E+02  0.36654033557E+02  0.95355168890E+02  0.47000000000E+01 0. -1.
        -11    1    1    2    0    0 -0.36926961291E+02 -0.34996155869E+02 -0.27179089928E+02  0.57680450112E+02  0.00000000000E+00 0.  1.
         11    1    1    2    0    0  0.39308700960E+02 -0.18157521424E+02  0.19115181598E+02  0.47331382009E+02  0.00000000000E+00 0. -1.
<mgrwt>
<rscale>  0 0.12729017E+03</rscale>
<asrwt>0</asrwt>
<pdfrwt beam="1">  1        2 0.21681981E-01 0.13585485E+03</pdfrwt>
<pdfrwt beam="2">  1       -2 0.16375781E-01 0.13585485E+03</pdfrwt>
<totfact> 0.70854822E+03</totfact>
</mgrwt>
</event>
<event>
 7    1  0.8165933E-006  0.1535575E+03  0.7546771E-02  0.1202953E+00
          3   -1    0    0  501    0  0.00000000000E+00  0.00000000000E+00  0.31421756537E+02  0.31421756537E+02  0.00000000000E+00 0. -1.
         -3   -1    0    0    0  501 -0.00000000000E+00 -0.00000000000E+00 -0.66309966473E+03  0.66309966473E+03  0.00000000000E+00 0.  1.
         23    2    1    2    0    0 -0.34167083773E+01  0.89120417841E+02 -0.29201352570E+03  0.32992696500E+03  0.12500312103E+03 0.  0.
          5    1    3    3  502    0 -0.58244522196E+02  0.58945793228E+02 -0.11282857458E+03  0.14006929766E+03  0.47000000000E+01 0.  1.
         -5    1    3    3    0  502  0.54827813819E+02  0.30174624613E+02 -0.17918495113E+03  0.18985766734E+03  0.47000000000E+01 0.  1.
        -11    1    1    2    0    0 -0.22359206872E+02 -0.43273703465E+02 -0.48569720037E+02  0.68786373999E+02  0.00000000000E+00 0. -1.
         11    1    1    2    0    0  0.25775915250E+02 -0.45846714376E+02 -0.29109466245E+03  0.29580808227E+03  0.00000000000E+00 0.  1.
<mgrwt>
<rscale>  0 0.14799950E+03</rscale>
<asrwt>0</asrwt>
<pdfrwt beam="1">  1        3 0.48341164E-02 0.15355749E+03</pdfrwt>
<pdfrwt beam="2">  1       -3 0.10201533E+00 0.15355749E+03</pdfrwt>
<totfact> 0.49105888E+02</totfact>
</mgrwt>
</event>
<event>
 7    1  0.8165933E-006  0.1254180E+03  0.7546771E-02  0.1250207E+00
         -1   -1    0    0    0  501 -0.00000000000E+00  0.00000000000E+00  0.42515182844E+02  0.42515182844E+02  0.00000000000E+00 0.  1.
          1   -1    0    0  501    0  0.00000000000E+00 -0.00000000000E+00 -0.27882006537E+03  0.27882006537E+03  0.00000000000E+00 0. -1.
         23    2    1    2    0    0 -0.97128283854E+01 -0.31245185866E+01 -0.15339485446E+03  0.19814052498E+03  0.12500233842E+03 0.  0.
          5    1    3    3  502    0  0.17500317675E+01  0.15656799800E+02  0.18517211669E+02  0.24762373052E+02  0.47000000000E+01 0.  1.
         -5    1    3    3    0  502 -0.11462860153E+02 -0.18781318387E+02 -0.17191206613E+03  0.17337815192E+03  0.47000000000E+01 0.  1.
        -11    1    1    2    0    0 -0.57298709140E+01 -0.22144545256E+02 -0.89902002721E+02  0.92766278348E+02  0.00000000000E+00 0. -1.
         11    1    1    2    0    0  0.15442699299E+02  0.25269063842E+02  0.69919746539E+01  0.30428444894E+02  0.00000000000E+00 0.  1.
<mgrwt>
<rscale>  0 0.11579066E+03</rscale>
<asrwt>0</asrwt>
<pdfrwt beam="2">  1        1 0.42895395E-01 0.12541805E+03</pdfrwt>
<pdfrwt beam="1">  1       -1 0.65407973E-02 0.12541805E+03</pdfrwt>
<totfact> 0.10571738E+04</totfact>
</mgrwt>
</event>
<event>
 7    1  0.8165933E-006  0.1868919E+03  0.7546771E-02  0.1166411E+00
         -1   -1    0    0    0  501 -0.00000000000E+00  0.00000000000E+00  0.34622014642E+02  0.34622014642E+02  0.00000000000E+00 0.  1.
          1   -1    0    0  501    0  0.00000000000E+00 -0.00000000000E+00 -0.12873198926E+04  0.12873198926E+04  0.00000000000E+00 0. -1.
         23    2    1    2    0    0 -0.95917848365E+02 -0.10052060160E+03 -0.10145820523E+04  0.10316517473E+04  0.12499584720E+03 0.  0.
          5    1    3    3  502    0 -0.36439827159E+02 -0.83666586008E+02 -0.86381679000E+03  0.86863657263E+03  0.47000000000E+01 0. -1.
         -5    1    3    3    0  502 -0.59478021206E+02 -0.16854015589E+02 -0.15076526230E+03  0.16301517464E+03  0.47000000000E+01 0. -1.
        -11    1    1    2    0    0  0.23185199086E+02  0.85668263337E+02 -0.10166241096E+03  0.13495128974E+03  0.00000000000E+00 0.  1.
         11    1    1    2    0    0  0.72732649279E+02  0.14852338260E+02 -0.13645341470E+03  0.15533887024E+03  0.00000000000E+00 0. -1.
<mgrwt>
<rscale>  0 0.18144540E+03</rscale>
<asrwt>0</asrwt>
<pdfrwt beam="2">  1        1 0.19804923E+00 0.18689191E+03</pdfrwt>
<pdfrwt beam="1">  1       -1 0.53264632E-02 0.18689191E+03</pdfrwt>
<totfact> 0.15945766E+03</totfact>
</mgrwt>
</event>
<event>
 7    1  0.8165933E-006  0.2203886E+03  0.7546771E-02  0.1137341E+00
         -1   -1    0    0    0  501 -0.00000000000E+00  0.00000000000E+00  0.62911031316E+02  0.62911031316E+02  0.00000000000E+00 0.  1.
          1   -1    0    0  501    0  0.00000000000E+00 -0.00000000000E+00 -0.98219061731E+03  0.98219061731E+03  0.00000000000E+00 0. -1.
         23    2    1    2    0    0  0.17026388919E+03  0.62903127681E+02 -0.75144234084E+03  0.78309434074E+03  0.12499823781E+03 0.  0.
          5    1    3    3  502    0  0.17942390994E+03  0.83044311767E+02 -0.67313670959E+03  0.70158707013E+03  0.47000000000E+01 0.  1.
         -5    1    3    3    0  502 -0.91600207545E+01 -0.20141184086E+02 -0.78305631246E+02  0.81507270605E+02  0.47000000000E+01 0.  1.
        -11    1    1    2    0    0 -0.42101263055E+02 -0.52541278655E+02 -0.30631351388E+02  0.73968790726E+02  0.00000000000E+00 0.  1.
         11    1    1    2    0    0 -0.12816262613E+03 -0.10361849025E+02 -0.13720589376E+03  0.18803851716E+03  0.00000000000E+00 0. -1.
<mgrwt>
<rscale>  0 0.21542443E+03</rscale>
<asrwt>0</asrwt>
<pdfrwt beam="2">  1        1 0.15110624E+00 0.22038865E+03</pdfrwt>
<pdfrwt beam="1">  1       -1 0.96786208E-02 0.22038865E+03</pdfrwt>
<totfact> 0.10606858E+03</totfact>
</mgrwt>
</event>
<event>
 7    1  0.8165933E-006  0.1407312E+03  0.7546771E-02  0.1232991E+00
          1   -1    0    0  501    0  0.00000000000E+00  0.00000000000E+00  0.60024741904E+03  0.60024741904E+03  0.00000000000E+00 0. -1.
         -1   -1    0    0    0  501 -0.00000000000E+00 -0.00000000000E+00 -0.33519493097E+02  0.33519493097E+02  0.00000000000E+00 0.  1.
         23    2    1    2    0    0 -0.22293102299E+02  0.60696818981E+02  0.50305457032E+03  0.52236879675E+03  0.12499669139E+03 0.  0.
          5    1    3    3  502    0  0.11485574072E+01  0.34889529947E+02  0.47771827649E+03  0.47901507301E+03  0.47000000000E+01 0.  1.
         -5    1    3    3    0  502 -0.23441659706E+02  0.25807289034E+02  0.25336293833E+02  0.43353723741E+02  0.47000000000E+01 0.  1.
        -11    1    1    2    0    0 -0.14809695671E+02  0.39697563247E+01  0.19257911958E+02  0.24616117162E+02  0.00000000000E+00 0. -1.
         11    1    1    2    0    0  0.37102797970E+02 -0.64666575305E+02  0.44415443662E+02  0.86781998217E+02  0.00000000000E+00 0.  1.
<mgrwt>
<rscale>  0 0.12633904E+03</rscale>
<asrwt>0</asrwt>
<pdfrwt beam="1">  1        1 0.92345749E-01 0.14073116E+03</pdfrwt>
<pdfrwt beam="2">  1       -1 0.51568455E-02 0.14073116E+03</pdfrwt>
<totfact> 0.57072191E+03</totfact>
</mgrwt>
</event>
<event>
 7    1  0.8165933E-006  0.1253634E+03  0.7546771E-02  0.1248403E+00
         -3   -1    0    0    0  501 -0.00000000000E+00  0.00000000000E+00  0.17365781299E+03  0.17365781299E+03  0.00000000000E+00 0.  1.
          3   -1    0    0  501    0  0.00000000000E+00 -0.00000000000E+00 -0.69660537216E+02  0.69660537216E+02  0.00000000000E+00 0. -1.
         23    2    1    2    0    0  0.95429696598E+01  0.16819578105E-01  0.60835819506E+02  0.13934485508E+03  0.12499969260E+03 0.  0.
          5    1    3    3  502    0 -0.48226854121E+02 -0.79549605239E+00 -0.82530980039E+01  0.49159596205E+02  0.47000000000E+01 0.  1.
         -5    1    3    3    0  502  0.57769823780E+02  0.81231563049E+00  0.69088917510E+02  0.90185258879E+02  0.47000000000E+01 0.  1.
        -11    1    1    2    0    0 -0.25667338382E+02  0.63733958821E+01  0.68408506891E+02  0.73342731404E+02  0.00000000000E+00 0.  1.
         11    1    1    2    0    0  0.16124368722E+02 -0.63902154602E+01 -0.25247050628E+02  0.30630763714E+02  0.00000000000E+00 0. -1.
<mgrwt>
<rscale>  0 0.11683995E+03</rscale>
<asrwt>0</asrwt>
<pdfrwt beam="2">  1        3 0.10717006E-01 0.12536344E+03</pdfrwt>
<pdfrwt beam="1">  1       -3 0.26716586E-01 0.12536344E+03</pdfrwt>
<totfact> 0.19765566E+03</totfact>
</mgrwt>
</event>
<event>
 7    1  0.8165933E-006  0.1294682E+03  0.7546771E-02  0.1242682E+00
          2   -1    0    0  501    0  0.00000000000E+00  0.00000000000E+00  0.73095293426E+03  0.73095293426E+03  0.00000000000E+00 0. -1.
         -2   -1    0    0    0  501 -0.00000000000E+00 -0.00000000000E+00 -0.19238305741E+02  0.19238305741E+02  0.00000000000E+00 0.  1.
         23    2    1    2    0    0 -0.27267250369E+02  0.19804314277E+02  0.51666884551E+03  0.53264314371E+03  0.12500523516E+03 0.  0.
          5    1    3    3  502    0 -0.11530403623E+02  0.28255978008E+02  0.22687559389E+02  0.38316652410E+02  0.47000000000E+01 0. -1.
         -5    1    3    3    0  502 -0.15736846746E+02 -0.84516637308E+01  0.49398128612E+03  0.49432649131E+03  0.47000000000E+01 0. -1.
        -11    1    1    2    0    0  0.52402372661E+02  0.59059816194E+01  0.71286624454E+02  0.88671709725E+02  0.00000000000E+00 0. -1.
         11    1    1    2    0    0 -0.25135122292E+02 -0.25710295896E+02  0.12375915855E+03  0.12887638656E+03  0.00000000000E+00 0.  1.
<mgrwt>
<rscale>  0 0.12025168E+03</rscale>
<asrwt>0</asrwt>
<pdfrwt beam="1">  1        2 0.11245428E+00 0.12946823E+03</pdfrwt>
<pdfrwt beam="2">  1       -2 0.29597399E-02 0.12946823E+03</pdfrwt>
<totfact> 0.16270985E+04</totfact>
</mgrwt>
</event>
<event>
 7    1  0.8165933E-006  0.2211876E+03  0.7546771E-02  0.1136299E+00
          2   -1    0    0  501    0  0.00000000000E+00  0.00000000000E+00  0.75888915031E+03  0.75888915031E+03  0.00000000000E+00 0. -1.
         -2   -1    0    0    0  501 -0.00000000000E+00 -0.00000000000E+00 -0.60118917980E+02  0.60118917980E+02  0.00000000000E+00 0.  1.
         23    2    1    2    0    0 -0.14723247031E+03  0.10780424155E+03  0.40174485714E+03  0.45860974391E+03  0.12499924863E+03 0.  0.
          5    1    3    3  502    0 -0.44407025685E+02 -0.47076943091E+00  0.21435105078E+03  0.21895357618E+03  0.47000000000E+01 0.  1.
         -5    1    3    3    0  502 -0.10282544462E+03  0.10827501098E+03  0.18739380636E+03  0.23965616772E+03  0.47000000000E+01 0.  1.
        -11    1    1    2    0    0  0.24626010271E+02 -0.65941853635E+02  0.71666313177E+02  0.10045311786E+03  0.00000000000E+00 0.  1.
         11    1    1    2    0    0  0.12260646004E+03 -0.41862387917E+02  0.22535906202E+03  0.25994520653E+03  0.00000000000E+00 0. -1.
<mgrwt>
<rscale>  0 0.21679002E+03</rscale>
<asrwt>0</asrwt>
<pdfrwt beam="1">  1        2 0.11675217E+00 0.22118763E+03</pdfrwt>
<pdfrwt beam="2">  1       -2 0.92490648E-02 0.22118763E+03</pdfrwt>
<totfact> 0.28332453E+03</totfact>
</mgrwt>
</event>
<event>
 7    1  0.8165933E-006  0.1433656E+03  0.7546771E-02  0.1214246E+00
          2   -1    0    0  501    0  0.00000000000E+00  0.00000000000E+00  0.52665783488E+03  0.52665783488E+03  0.00000000000E+00 0. -1.
         -2   -1    0    0    0  501 -0.00000000000E+00 -0.00000000000E+00 -0.59632186399E+02  0.59632186399E+02  0.00000000000E+00 0.  1.
         23    2    1    2    0    0 -0.21770446574E+02  0.66740967127E+02  0.42986368727E+03  0.45314069583E+03  0.12500156615E+03 0.  0.
          5    1    3    3  502    0  0.17227272653E+02 -0.10583816012E+02  0.27389019742E+03  0.27467567480E+03  0.47000000000E+01 0.  1.
         -5    1    3    3    0  502 -0.38997719226E+02  0.77324783139E+02  0.15597348986E+03  0.17846502103E+03  0.47000000000E+01 0.  1.
        -11    1    1    2    0    0 -0.20393419986E+02 -0.62400726720E+02  0.56449100804E+02  0.86580848087E+02  0.00000000000E+00 0. -1.
         11    1    1    2    0    0  0.42163866560E+02 -0.43402404068E+01 -0.19287139599E+02  0.46568477364E+02  0.00000000000E+00 0.  1.
<mgrwt>
<rscale>  0 0.13932080E+03</rscale>
<asrwt>0</asrwt>
<pdfrwt beam="1">  1        2 0.81024279E-01 0.14336562E+03</pdfrwt>
<pdfrwt beam="2">  1       -2 0.91741829E-02 0.14336562E+03</pdfrwt>
<totfact> 0.43342869E+03</totfact>
</mgrwt>
</event>
<event>
 7    1  0.8165933E-006  0.1440224E+03  0.7546771E-02  0.1217060E+00
         -2   -1    0    0    0  501 -0.00000000000E+00  0.00000000000E+00  0.35607837071E+03  0.35607837071E+03  0.00000000000E+00 0.  1.
          2   -1    0    0  501    0  0.00000000000E+00 -0.00000000000E+00 -0.54005679199E+02  0.54005679199E+02  0.00000000000E+00 0. -1.
         23    2    1    2    0    0 -0.44473112430E+02  0.56079719124E+02  0.98891938455E+02  0.17470567479E+03  0.12497865692E+03 0.  0.
          5    1    3    3  502    0 -0.70399173794E+02  0.29381674414E+02  0.11145873499E+03  0.13514609157E+03  0.47000000000E+01 0. -1.
         -5    1    3    3    0  502  0.25926061363E+02  0.26698044711E+02 -0.12566796530E+02  0.39559583216E+02  0.47000000000E+01 0. -1.
        -11    1    1    2    0    0 -0.17207403493E+02 -0.51964728367E+02  0.72788376638E+02  0.91074560130E+02  0.00000000000E+00 0.  1.
         11    1    1    2    0    0  0.61680515924E+02 -0.41149907568E+01  0.13039237642E+03  0.14430381500E+03  0.00000000000E+00 0. -1.
<mgrwt>
<rscale>  0 0.13726318E+03</rscale>
<asrwt>0</asrwt>
<pdfrwt beam="2">  1        2 0.83085663E-02 0.14402242E+03</pdfrwt>
<pdfrwt beam="1">  1       -2 0.54781286E-01 0.14402242E+03</pdfrwt>
<totfact> 0.24947144E+03</totfact>
</mgrwt>
</event>
<event>
 7    1  0.8165933E-006  0.1429343E+03  0.7546771E-02  0.1219518E+00
          1   -1    0    0  501    0  0.00000000000E+00  0.00000000000E+00  0.10727972074E+03  0.10727972074E+03  0.00000000000E+00 0. -1.
         -1   -1    0    0    0  501 -0.00000000000E+00 -0.00000000000E+00 -0.33911397908E+03  0.33911397908E+03  0.00000000000E+00 0.  1.
         23    2    1    2    0    0  0.20692535157E+02 -0.66156796805E+02  0.42204969275E+02  0.14903512216E+03  0.12500122172E+03 0.  0.
          5    1    3    3  502    0  0.24190371760E+02 -0.43012075826E+01 -0.39277149522E+02  0.46566715013E+02  0.47000000000E+01 0.  1.
         -5    1    3    3    0  502 -0.34978366025E+01 -0.61855589222E+02  0.81482118798E+02  0.10246840714E+03  0.47000000000E+01 0.  1.
        -11    1    1    2    0    0 -0.15437764630E+02 -0.18224881727E+02 -0.25995169153E+02  0.35301837205E+02  0.00000000000E+00 0. -1.
         11    1    1    2    0    0 -0.52547705276E+01  0.84381678532E+02 -0.24804405846E+03  0.26205674047E+03  0.00000000000E+00 0.  1.
<mgrwt>
<rscale>  0 0.13549840E+03</rscale>
<asrwt>0</asrwt>
<pdfrwt beam="1">  1        1 0.16504572E-01 0.14293428E+03</pdfrwt>
<pdfrwt beam="2">  1       -1 0.52171382E-01 0.14293428E+03</pdfrwt>
<totfact> 0.12275366E+03</totfact>
</mgrwt>
</event>
<event>
 7    1  0.8165933E-006  0.1793142E+03  0.7546771E-02  0.1174853E+00
          2   -1    0    0  501    0  0.00000000000E+00  0.00000000000E+00  0.14896353230E+04  0.14896353230E+04  0.00000000000E+00 0. -1.
         -2   -1    0    0    0  501 -0.00000000000E+00 -0.00000000000E+00 -0.29079498144E+02  0.29079498144E+02  0.00000000000E+00 0.  1.
         23    2    1    2    0    0  0.11953398805E+03  0.47339823569E+02  0.12161284223E+04  0.12292769890E+04  0.12499657170E+03 0.  0.
          5    1    3    3  502    0  0.12107127730E+03  0.23413808260E+02  0.11748267588E+04  0.11812901692E+04  0.47000000000E+01 0. -1.
         -5    1    3    3    0  502 -0.15372892547E+01  0.23926015309E+02  0.41301663436E+02  0.47986819746E+02  0.47000000000E+01 0. -1.
        -11    1    1    2    0    0 -0.21872448815E+02 -0.46355122120E+02  0.12539045647E+03  0.13546205350E+03  0.00000000000E+00 0. -1.
         11    1    1    2    0    0 -0.97661539235E+02 -0.98470144922E+00  0.11903694613E+03  0.15397577870E+03  0.00000000000E+00 0.  1.
<mgrwt>
<rscale>  0 0.17290362E+03</rscale>
<asrwt>0</asrwt>
<pdfrwt beam="1">  1        2 0.22917461E+00 0.17931418E+03</pdfrwt>
<pdfrwt beam="2">  1       -2 0.44737701E-02 0.17931418E+03</pdfrwt>
<totfact> 0.31960385E+03</totfact>
</mgrwt>
</event>
<event>
 7    1  0.8165933E-006  0.1290695E+03  0.7546771E-02  0.1243319E+00
         -1   -1    0    0    0  501 -0.00000000000E+00  0.00000000000E+00  0.14367994680E+03  0.14367994680E+03  0.00000000000E+00 0.  1.
          1   -1    0    0  501    0  0.00000000000E+00 -0.00000000000E+00 -0.10174943117E+03  0.10174943117E+03  0.00000000000E+00 0. -1.
         23    2    1    2    0    0 -0.31676270733E+02  0.33411249913E+01 -0.20813817928E+02  0.13073693918E+03  0.12507750799E+03 0.  0.
          5    1    3    3  502    0  0.44141132681E+02 -0.82891206742E+01 -0.28666938755E+02  0.53488620224E+02  0.47000000000E+01 0. -1.
         -5    1    3    3    0  502 -0.75817403414E+02  0.11630245666E+02  0.78531208265E+01  0.77248318955E+02  0.47000000000E+01 0. -1.
        -11    1    1    2    0    0  0.17121630453E+02  0.40630749819E+02  0.49978681915E+02  0.66647405847E+02  0.00000000000E+00 0.  1.
         11    1    1    2    0    0  0.14554640280E+02 -0.43971874810E+02  0.12765651642E+02  0.48045032936E+02  0.00000000000E+00 0. -1.
<mgrwt>
<rscale>  0 0.11986554E+03</rscale>
<asrwt>0</asrwt>
<pdfrwt beam="2">  1        1 0.15653759E-01 0.12906949E+03</pdfrwt>
<pdfrwt beam="1">  1       -1 0.22104607E-01 0.12906949E+03</pdfrwt>
<totfact> 0.57095060E+03</totfact>
</mgrwt>
</event>
<event>
 7    1  0.8165933E-006  0.1826705E+03  0.7546771E-02  0.1170224E+00
         -1   -1    0    0    0  501 -0.00000000000E+00  0.00000000000E+00  0.48895874656E+02  0.48895874656E+02  0.00000000000E+00 0.  1.
          1   -1    0    0  501    0  0.00000000000E+00 -0.00000000000E+00 -0.63472538671E+03  0.63472538671E+03  0.00000000000E+00 0. -1.
         23    2    1    2    0    0  0.97757143509E+02  0.90473166314E+02 -0.37544672573E+03  0.41752695255E+03  0.12500663708E+03 0.  0.
          5    1    3    3  502    0  0.18898511351E+02  0.99880677696E+02 -0.23554056469E+03  0.25658283481E+03  0.47000000000E+01 0. -1.
         -5    1    3    3    0  502  0.78858632158E+02 -0.94075113819E+01 -0.13990616105E+03  0.16094411774E+03  0.47000000000E+01 0. -1.
        -11    1    1    2    0    0 -0.47677341931E+02 -0.33948249336E+02 -0.17137992540E+03  0.18109856818E+03  0.00000000000E+00 0.  1.
         11    1    1    2    0    0 -0.50079801578E+02 -0.56524916978E+02 -0.39002860918E+02  0.84995740630E+02  0.00000000000E+00 0. -1.
<mgrwt>
<rscale>  0 0.17752098E+03</rscale>
<asrwt>0</asrwt>
<pdfrwt beam="2">  1        1 0.97650052E-01 0.18267050E+03</pdfrwt>
<pdfrwt beam="1">  1       -1 0.75224428E-02 0.18267050E+03</pdfrwt>
<totfact> 0.30330103E+03</totfact>
</mgrwt>
</event>
<event>
 7    1  0.8165933E-006  0.1389262E+03  0.7546771E-02  0.1224811E+00
         -2   -1    0    0    0  501 -0.00000000000E+00  0.00000000000E+00  0.18725654470E+02  0.18725654470E+02  0.00000000000E+00 0.  1.
          2   -1    0    0  501    0  0.00000000000E+00 -0.00000000000E+00 -0.10586582303E+04  0.10586582303E+04  0.00000000000E+00 0. -1.
         23    2    1    2    0    0 -0.48984626607E+02 -0.35723688292E+02 -0.80487139839E+03  0.81677320015E+03  0.12499926791E+03 0.  0.
          5    1    3    3  502    0 -0.21771370321E+02  0.45848281738E+02 -0.36595705737E+03  0.36948980411E+03  0.47000000000E+01 0. -1.
         -5    1    3    3    0  502 -0.27213256286E+02 -0.81571970030E+02 -0.43891434102E+03  0.44728339603E+03  0.47000000000E+01 0. -1.
        -11    1    1    2    0    0  0.41537098734E+02  0.67597630202E+02 -0.17675577400E+03  0.19374564207E+03  0.00000000000E+00 0.  1.
         11    1    1    2    0    0  0.74475278736E+01 -0.31873941910E+02 -0.58305403392E+02  0.66865042504E+02  0.00000000000E+00 0. -1.
<mgrwt>
<rscale>  0 0.13179843E+03</rscale>
<asrwt>0</asrwt>
<pdfrwt beam="2">  1        2 0.16287054E+00 0.13892621E+03</pdfrwt>
<pdfrwt beam="1">  1       -2 0.28808691E-02 0.13892621E+03</pdfrwt>
<totfact> 0.10513028E+04</totfact>
</mgrwt>
</event>
<event>
 7    1  0.8165933E-006  0.1811423E+03  0.7546771E-02  0.1172064E+00
         -1   -1    0    0    0  501 -0.00000000000E+00  0.00000000000E+00  0.37367248488E+02  0.37367248488E+02  0.00000000000E+00 0.  1.
          1   -1    0    0  501    0  0.00000000000E+00 -0.00000000000E+00 -0.81213037022E+03  0.81213037022E+03  0.00000000000E+00 0. -1.
         23    2    1    2    0    0  0.10417448163E+03  0.79589525242E+02 -0.49504773309E+03  0.52714779353E+03  0.12500289210E+03 0.  0.
          5    1    3    3  502    0  0.60410579093E+02 -0.26479485478E+02 -0.16980657526E+03  0.18222778114E+03  0.47000000000E+01 0.  1.
         -5    1    3    3    0  502  0.43763902536E+02  0.10606901072E+03 -0.32524115783E+03  0.34492001239E+03  0.47000000000E+01 0.  1.
        -11    1    1    2    0    0 -0.55886270647E+02  0.11539971150E+02 -0.97420229266E+02  0.11290326502E+03  0.00000000000E+00 0.  1.
         11    1    1    2    0    0 -0.48288210982E+02 -0.91129496391E+02 -0.18229515938E+03  0.20944656017E+03  0.00000000000E+00 0. -1.
<mgrwt>
<rscale>  0 0.17566710E+03</rscale>
<asrwt>0</asrwt>
<pdfrwt beam="2">  1        1 0.12494313E+00 0.18114231E+03</pdfrwt>
<pdfrwt beam="1">  1       -1 0.57488078E-02 0.18114231E+03</pdfrwt>
<totfact> 0.31718525E+03</totfact>
</mgrwt>
</event>
<event>
 7    1  0.8165933E-006  0.1250119E+03  0.7546771E-02  0.1249084E+00
          1   -1    0    0  501    0  0.00000000000E+00  0.00000000000E+00  0.21687720750E+03  0.21687720750E+03  0.00000000000E+00 0. -1.
         -1   -1    0    0    0  501 -0.00000000000E+00 -0.00000000000E+00 -0.57414665335E+02  0.57414665335E+02  0.00000000000E+00 0.  1.
         23    2    1    2    0    0  0.13920629793E+01  0.10005358290E+01  0.11637802703E+03  0.17079763458E+03  0.12500019156E+03 0.  0.
          5    1    3    3  502    0 -0.18087509150E+02 -0.72765755466E+01  0.13842862678E+03  0.13987380473E+03  0.47000000000E+01 0. -1.
         -5    1    3    3    0  502  0.19479572129E+02  0.82771113756E+01 -0.22050599748E+02  0.30923829846E+02  0.47000000000E+01 0. -1.
        -11    1    1    2    0    0  0.15848336105E+02  0.99240737221E+01 -0.25678861527E+02  0.31765719350E+02  0.00000000000E+00 0.  1.
         11    1    1    2    0    0 -0.17240399084E+02 -0.10924609551E+02  0.68763376662E+02  0.71728518905E+02  0.00000000000E+00 0. -1.
<mgrwt>
<rscale>  0 0.11644233E+03</rscale>
<asrwt>0</asrwt>
<pdfrwt beam="1">  1        1 0.33365724E-01 0.12501195E+03</pdfrwt>
<pdfrwt beam="2">  1       -1 0.88330255E-02 0.12501195E+03</pdfrwt>
<totfact> 0.91767824E+03</totfact>
</mgrwt>
</event>
<event>
 7    1  0.8165933E-006  0.1321035E+03  0.7546771E-02  0.1235906E+00
         -2   -1    0    0    0  501 -0.00000000000E+00  0.00000000000E+00  0.10670164003E+03  0.10670164003E+03  0.00000000000E+00 0.  1.
          2   -1    0    0  501    0  0.00000000000E+00 -0.00000000000E+00 -0.13327836127E+03  0.13327836127E+03  0.00000000000E+00 0. -1.
         23    2    1    2    0    0 -0.31346272444E+01 -0.42615552922E+02 -0.31337735486E+02  0.13576966168E+03  0.12500174450E+03 0.  0.
          5    1    3    3  502    0  0.58356819652E+02 -0.26798031507E+01 -0.15201122579E+02  0.60546377864E+02  0.47000000000E+01 0.  1.
         -5    1    3    3    0  502 -0.61491446896E+02 -0.39935749771E+02 -0.16136612907E+02  0.75223283811E+02  0.47000000000E+01 0.  1.
        -11    1    1    2    0    0 -0.33988655018E+01  0.59958081676E+02 -0.28239178890E+02  0.66362452255E+02  0.00000000000E+00 0.  1.
         11    1    1    2    0    0  0.65334927462E+01 -0.17342528754E+02  0.33000193133E+02  0.37847887363E+02  0.00000000000E+00 0. -1.
<mgrwt>
<rscale>  0 0.12446583E+03</rscale>
<asrwt>0</asrwt>
<pdfrwt beam="2">  1        2 0.20504363E-01 0.13210355E+03</pdfrwt>
<pdfrwt beam="1">  1       -2 0.16415637E-01 0.13210355E+03</pdfrwt>
<totfact> 0.74989075E+03</totfact>
</mgrwt>
</event>
<event>
 7    1  0.8165933E-006  0.2746189E+03  0.7546771E-02  0.1100677E+00
         -2   -1    0    0    0  501 -0.00000000000E+00  0.00000000000E+00  0.75157823227E+03  0.75157823227E+03  0.00000000000E+00 0.  1.
          2   -1    0    0  501    0  0.00000000000E+00 -0.00000000000E+00 -0.96778936418E+02  0.96778936418E+02  0.00000000000E+00 0. -1.
         23    2    1    2    0    0  0.12039528841E+03 -0.21283038168E+03  0.38823084921E+03  0.47554045346E+03  0.12499493493E+03 0.  0.
          5    1    3    3  502    0  0.10641190705E+03 -0.21007321612E+03  0.39434898147E+03  0.45933371232E+03  0.47000000000E+01 0. -1.
         -5    1    3    3    0  502  0.13983381352E+02 -0.27571655618E+01 -0.61181322538E+01  0.16206741136E+02  0.47000000000E+01 0. -1.
        -11    1    1    2    0    0 -0.96393866282E+02  0.16684254333E+03  0.25509277748E+03  0.31968818690E+03  0.00000000000E+00 0.  1.
         11    1    1    2    0    0 -0.24001422123E+02  0.45987838345E+02  0.11475669161E+02  0.53128528328E+02  0.00000000000E+00 0. -1.
<mgrwt>
<rscale>  0 0.27105558E+03</rscale>
<asrwt>0</asrwt>
<pdfrwt beam="2">  1        2 0.14889068E-01 0.27461888E+03</pdfrwt>
<pdfrwt beam="1">  1       -2 0.11562742E+00 0.27461888E+03</pdfrwt>
<totfact> 0.23947407E+02</totfact>
</mgrwt>
</event>
<event>
 7    1  0.8165933E-006  0.1831903E+03  0.7546771E-02  0.1170238E+00
          2   -1    0    0  501    0  0.00000000000E+00  0.00000000000E+00  0.12915829827E+04  0.12915829827E+04  0.00000000000E+00 0.  1.
         -2   -1    0    0    0  501 -0.00000000000E+00 -0.00000000000E+00 -0.25422024505E+02  0.25422024505E+02  0.00000000000E+00 0. -1.
         23    2    1    2    0    0  0.13110451720E+03 -0.27301614569E+02  0.87218542245E+03  0.89121606781E+03  0.12499958319E+03 0.  0.
          5    1    3    3  502    0  0.14652353818E+03 -0.48668838223E+02  0.78343080510E+03  0.79851344349E+03  0.47000000000E+01 0. -1.
         -5    1    3    3    0  502 -0.15419020980E+02  0.21367223654E+02  0.88754617351E+02  0.92702624320E+02  0.47000000000E+01 0. -1.
        -11    1    1    2    0    0 -0.40006887193E+02  0.47248737043E+02  0.21812436542E+03  0.22674045286E+03  0.00000000000E+00 0. -1.
         11    1    1    2    0    0 -0.91097630006E+02 -0.19947122474E+02  0.17585117035E+03  0.19904848656E+03  0.00000000000E+00 0.  1.
<mgrwt>
<rscale>  0 0.17750646E+03</rscale>
<asrwt>0</asrwt>
<pdfrwt beam="1">  1        2 0.19870502E+00 0.18319025E+03</pdfrwt>
<pdfrwt beam="2">  1       -2 0.39110817E-02 0.18319025E+03</pdfrwt>
<totfact> 0.49957792E+03</totfact>
</mgrwt>
</event>
<event>
 7    1  0.8165933E-006  0.1553166E+03  0.7546771E-02  0.1202482E+00
          2   -1    0    0  501    0  0.00000000000E+00  0.00000000000E+00  0.65883476025E+03  0.65883476025E+03  0.00000000000E+00 0. -1.
         -2   -1    0    0    0  501 -0.00000000000E+00 -0.00000000000E+00 -0.31183701978E+02  0.31183701978E+02  0.00000000000E+00 0.  1.
         23    2    1    2    0    0 -0.51068627658E+02  0.76740272019E+02  0.38246010823E+03  0.41279411858E+03  0.12500470337E+03 0.  0.
          5    1    3    3  502    0  0.31817854508E+02  0.70443065418E+01  0.31847522028E+02  0.45807780775E+02  0.47000000000E+01 0. -1.
         -5    1    3    3    0  502 -0.82886482166E+02  0.69695965478E+02  0.35061258621E+03  0.36698633781E+03  0.47000000000E+01 0. -1.
        -11    1    1    2    0    0  0.20926040878E+02 -0.40568192991E+02  0.21825863629E+03  0.22298096283E+03  0.00000000000E+00 0. -1.
         11    1    1    2    0    0  0.30142586779E+02 -0.36172079029E+02  0.26932313754E+02  0.54243380824E+02  0.00000000000E+00 0.  1.
<mgrwt>
<rscale>  0 0.14837673E+03</rscale>
<asrwt>0</asrwt>
<pdfrwt beam="1">  1        2 0.10135918E+00 0.15531661E+03</pdfrwt>
<pdfrwt beam="2">  1       -2 0.47974931E-02 0.15531661E+03</pdfrwt>
<totfact> 0.90965311E+03</totfact>
</mgrwt>
</event>
<event>
 7    1  0.8165933E-006  0.1226766E+03  0.7546771E-02  0.1252440E+00
          4   -1    0    0  501    0  0.00000000000E+00  0.00000000000E+00  0.48704527709E+02  0.48704527709E+02  0.00000000000E+00 0. -1.
         -4   -1    0    0    0  501 -0.00000000000E+00 -0.00000000000E+00 -0.29583532196E+03  0.29583532196E+03  0.00000000000E+00 0.  1.
         23    2    1    2    0    0 -0.11248275841E+02  0.68606702164E+01 -0.62337592590E+02  0.13760643863E+03  0.12196706112E+03 0.  0.
          5    1    3    3  502    0  0.66596876937E+01 -0.54913843934E+02 -0.14695478273E+02  0.57427595958E+02  0.47000000000E+01 0. -1.
         -5    1    3    3    0  502 -0.17907963535E+02  0.61774514150E+02 -0.47642114317E+02  0.80178842677E+02  0.47000000000E+01 0.  1.
        -11    1    1    2    0    0  0.30550425474E+02 -0.41882334276E+02 -0.86909647752E+02  0.10119656760E+03  0.00000000000E+00 0. -1.
         11    1    1    2    0    0 -0.19302149633E+02  0.35021664060E+02 -0.97883553907E+02  0.10573684343E+03  0.00000000000E+00 0.  1.
<mgrwt>
<rscale>  0 0.11450962E+03</rscale>
<asrwt>0</asrwt>
<pdfrwt beam="1">  1        4 0.74930041E-02 0.12267663E+03</pdfrwt>
<pdfrwt beam="2">  1       -4 0.45513127E-01 0.12267663E+03</pdfrwt>
<totfact> 0.93523108E+02</totfact>
</mgrwt>
</event>
<event>
 7    1  0.8165933E-006  0.1426533E+03  0.7546771E-02  0.1219644E+00
          2   -1    0    0  501    0  0.00000000000E+00  0.00000000000E+00  0.18642162088E+03  0.18642162088E+03  0.00000000000E+00 0. -1.
         -2   -1    0    0    0  501 -0.00000000000E+00 -0.00000000000E+00 -0.89794014721E+02  0.89794014721E+02  0.00000000000E+00 0.  1.
         23    2    1    2    0    0  0.14981525735E+02 -0.67086357859E+02  0.59956284333E+02  0.15474085419E+03  0.12499980161E+03 0.  0.
          5    1    3    3  502    0  0.24763904469E+02 -0.60185247975E+02  0.96223467557E+02  0.11626074465E+03  0.47000000000E+01 0.  1.
         -5    1    3    3    0  502 -0.97823787331E+01 -0.69011098841E+01 -0.36267183224E+02  0.38480109541E+02  0.47000000000E+01 0.  1.
        -11    1    1    2    0    0 -0.35902216129E+02  0.70453256211E+02  0.52595823924E+02  0.94968158495E+02  0.00000000000E+00 0. -1.
         11    1    1    2    0    0  0.20920690394E+02 -0.33668983519E+01 -0.15924502099E+02  0.26506622911E+02  0.00000000000E+00 0.  1.
<mgrwt>
<rscale>  0 0.13540836E+03</rscale>
<asrwt>0</asrwt>
<pdfrwt beam="1">  1        2 0.28680249E-01 0.14265334E+03</pdfrwt>
<pdfrwt beam="2">  1       -2 0.13814464E-01 0.14265334E+03</pdfrwt>
<totfact> 0.68942281E+03</totfact>
</mgrwt>
</event>
<event>
 7    1  0.8165933E-006  0.1341686E+03  0.7546771E-02  0.1232614E+00
         -2   -1    0    0    0  501 -0.00000000000E+00  0.00000000000E+00  0.25697457976E+02  0.25697457976E+02  0.00000000000E+00 0.  1.
          2   -1    0    0  501    0  0.00000000000E+00 -0.00000000000E+00 -0.56415293093E+03  0.56415293093E+03  0.00000000000E+00 0. -1.
         23    2    1    2    0    0  0.47595882920E+02 -0.10630608241E+02 -0.31572217114E+03  0.34304766764E+03  0.12499133978E+03 0.  0.
          5    1    3    3  502    0  0.13903359909E+02 -0.40030155361E+02 -0.26172975057E+02  0.50028305771E+02  0.47000000000E+01 0.  1.
         -5    1    3    3    0  502  0.33692523010E+02  0.29399547120E+02 -0.28954919608E+03  0.29301936187E+03  0.47000000000E+01 0.  1.
        -11    1    1    2    0    0 -0.56425389504E+02 -0.27557388709E+02 -0.10114233419E+03  0.11905043477E+03  0.00000000000E+00 0. -1.
         11    1    1    2    0    0  0.88295065843E+01  0.38187996950E+02 -0.12159096761E+03  0.12775228649E+03  0.00000000000E+00 0.  1.
<mgrwt>
<rscale>  0 0.12658434E+03</rscale>
<asrwt>0</asrwt>
<pdfrwt beam="2">  1        2 0.86792761E-01 0.13416860E+03</pdfrwt>
<pdfrwt beam="1">  1       -2 0.39534550E-02 0.13416860E+03</pdfrwt>
<totfact> 0.14366238E+04</totfact>
</mgrwt>
</event>
<event>
 7    1  0.8165933E-006  0.1435526E+03  0.7546771E-02  0.1218958E+00
         -2   -1    0    0    0  501 -0.00000000000E+00  0.00000000000E+00  0.26427132233E+02  0.26427132233E+02  0.00000000000E+00 0. -1.
          2   -1    0    0  501    0  0.00000000000E+00 -0.00000000000E+00 -0.88508492489E+03  0.88508492489E+03  0.00000000000E+00 0.  1.
         23    2    1    2    0    0  0.98184004455E+01 -0.69903914595E+02 -0.70467601312E+03  0.71914924719E+03  0.12499759199E+03 0.  0.
          5    1    3    3  502    0 -0.18922137542E+02 -0.84784492282E+02 -0.64719484217E+03  0.65301585827E+03  0.47000000000E+01 0. -1.
         -5    1    3    3    0  502  0.28740537988E+02  0.14880577687E+02 -0.57481170949E+02  0.66133388918E+02  0.47000000000E+01 0. -1.
        -11    1    1    2    0    0  0.18856124620E+02  0.17920394424E+02 -0.12236816188E+03  0.12510260195E+03  0.00000000000E+00 0.  1.
         11    1    1    2    0    0 -0.28674525066E+02  0.51983520171E+02 -0.31613617656E+02  0.67260207987E+02  0.00000000000E+00 0. -1.
<mgrwt>
<rscale>  0 0.13589751E+03</rscale>
<asrwt>0</asrwt>
<pdfrwt beam="2">  1        2 0.13616693E+00 0.14355263E+03</pdfrwt>
<pdfrwt beam="1">  1       -2 0.40657120E-02 0.14355263E+03</pdfrwt>
<totfact> 0.80685499E+03</totfact>
</mgrwt>
</event>
<event>
 7    1  0.8165933E-006  0.2087014E+03  0.7546771E-02  0.1146483E+00
         -1   -1    0    0    0  501 -0.00000000000E+00  0.00000000000E+00  0.38556372462E+03  0.38556372462E+03  0.00000000000E+00 0.  1.
          1   -1    0    0  501    0  0.00000000000E+00 -0.00000000000E+00 -0.10571699955E+03  0.10571699955E+03  0.00000000000E+00 0. -1.
         23    2    1    2    0    0  0.16607663332E+03  0.18027235125E+02  0.10813001047E+03  0.23504972763E+03  0.12509934433E+03 0.  0.
          5    1    3    3  502    0  0.17161914612E+03  0.44634209997E+02  0.10757946423E+03  0.20746270783E+03  0.47000000000E+01 0. -1.
         -5    1    3    3    0  502 -0.55425128011E+01 -0.26606974872E+02  0.55054624197E+00  0.27587019795E+02  0.47000000000E+01 0. -1.
        -11    1    1    2    0    0 -0.49609135326E+01 -0.27925993881E+02  0.31812364840E+02  0.42620398333E+02  0.00000000000E+00 0.  1.
         11    1    1    2    0    0 -0.16111571979E+03  0.98987587565E+01  0.13990434976E+03  0.21361059821E+03  0.00000000000E+00 0. -1.
<mgrwt>
<rscale>  0 0.20390794E+03</rscale>
<asrwt>0</asrwt>
<pdfrwt beam="2">  1        1 0.16264154E-01 0.20870140E+03</pdfrwt>
<pdfrwt beam="1">  1       -1 0.59317495E-01 0.20870140E+03</pdfrwt>
<totfact> 0.99110154E+02</totfact>
</mgrwt>
</event>
<event>
 7    1  0.8165933E-006  0.1377721E+03  0.7546771E-02  0.1227872E+00
          1   -1    0    0  501    0  0.00000000000E+00  0.00000000000E+00  0.15504820844E+03  0.15504820844E+03  0.00000000000E+00 0. -1.
         -1   -1    0    0    0  501 -0.00000000000E+00 -0.00000000000E+00 -0.14259403193E+03  0.14259403193E+03  0.00000000000E+00 0.  1.
         23    2    1    2    0    0  0.57744470637E+02  0.47666625927E+01  0.89908383973E+02  0.16451340212E+03  0.12499598796E+03 0.  0.
          5    1    3    3  502    0  0.96632403565E+02  0.13370675973E+02  0.63434129716E+02  0.11645846988E+03  0.47000000000E+01 0. -1.
         -5    1    3    3    0  502 -0.38887932927E+02 -0.86040133802E+01  0.26474254256E+02  0.48054932234E+02  0.47000000000E+01 0. -1.
        -11    1    1    2    0    0 -0.78143952624E+02 -0.40504004614E+00 -0.80331868637E+02  0.11207073886E+03  0.00000000000E+00 0.  1.
         11    1    1    2    0    0  0.20399481987E+02 -0.43616225466E+01  0.28776611720E+01  0.21058099401E+02  0.00000000000E+00 0. -1.
<mgrwt>
<rscale>  0 0.12971971E+03</rscale>
<asrwt>0</asrwt>
<pdfrwt beam="1">  1        1 0.23853570E-01 0.13777207E+03</pdfrwt>
<pdfrwt beam="2">  1       -1 0.21937543E-01 0.13777207E+03</pdfrwt>
<totfact> 0.33936662E+03</totfact>
</mgrwt>
</event>
<event>
 7    1  0.8165933E-006  0.1241036E+03  0.7546771E-02  0.1247522E+00
         -1   -1    0    0    0  501 -0.00000000000E+00  0.00000000000E+00  0.34112895239E+02  0.34112895239E+02  0.00000000000E+00 0.  1.
          1   -1    0    0  501    0  0.00000000000E+00 -0.00000000000E+00 -0.36780443517E+03  0.36780443517E+03  0.00000000000E+00 0. -1.
         23    2    1    2    0    0 -0.30455667561E+02 -0.21226796214E+02 -0.20089891121E+03  0.23613994683E+03  0.11842118644E+03 0.  0.
          5    1    3    3  502    0  0.45076104703E+02 -0.14711199447E+02 -0.87909787160E+02  0.99992476131E+02  0.47000000000E+01 0. -1.
         -5    1    3    3    0  502 -0.75531772264E+02 -0.65155967672E+01 -0.11298912405E+03  0.13614747069E+03  0.47000000000E+01 0.  1.
        -11    1    1    2    0    0  0.85325552900E+01  0.56786464939E+02 -0.79183882698E+02  0.97814080680E+02  0.00000000000E+00 0. -1.
         11    1    1    2    0    0  0.21923112271E+02 -0.35559668726E+02 -0.53608746021E+02  0.67963302903E+02  0.00000000000E+00 0.  1.
<mgrwt>
<rscale>  0 0.11735678E+03</rscale>
<asrwt>0</asrwt>
<pdfrwt beam="2">  1        1 0.56585301E-01 0.12410359E+03</pdfrwt>
<pdfrwt beam="1">  1       -1 0.52481374E-02 0.12410359E+03</pdfrwt>
<totfact> 0.10394422E+04</totfact>
</mgrwt>
</event>
<event>
 7    1  0.8165933E-006  0.1552198E+03  0.7546771E-02  0.1202754E+00
          1   -1    0    0  501    0  0.00000000000E+00  0.00000000000E+00  0.22586453883E+03  0.22586453883E+03  0.00000000000E+00 0. -1.
         -1   -1    0    0    0  501 -0.00000000000E+00 -0.00000000000E+00 -0.89346797632E+02  0.89346797632E+02  0.00000000000E+00 0.  1.
         23    2    1    2    0    0  0.38281219372E+02 -0.83691621241E+02  0.71650439458E+02  0.17095895085E+03  0.12499375256E+03 0.  0.
          5    1    3    3  502    0  0.48993953166E+02 -0.15853238284E+02 -0.20764648673E+02  0.55722466254E+02  0.47000000000E+01 0. -1.
         -5    1    3    3    0  502 -0.10712733794E+02 -0.67838382957E+02  0.92415088130E+02  0.11523648459E+03  0.47000000000E+01 0. -1.
        -11    1    1    2    0    0 -0.57448223907E+02  0.36281446920E+02  0.63646909234E+02  0.93099789880E+02  0.00000000000E+00 0. -1.
         11    1    1    2    0    0  0.19167004535E+02  0.47410174321E+02  0.12203925015E+01  0.51152595729E+02  0.00000000000E+00 0.  1.
<mgrwt>
<rscale>  0 0.14815865E+03</rscale>
<asrwt>0</asrwt>
<pdfrwt beam="1">  1        1 0.34748390E-01 0.15521977E+03</pdfrwt>
<pdfrwt beam="2">  1       -1 0.13745661E-01 0.15521977E+03</pdfrwt>
<totfact> 0.44866438E+03</totfact>
</mgrwt>
</event>
<event>
 7    1  0.8165933E-006  0.1807984E+03  0.7546771E-02  0.1172253E+00
          1   -1    0    0  501    0  0.00000000000E+00  0.00000000000E+00  0.68436631579E+02  0.68436631579E+02  0.00000000000E+00 0. -1.
         -1   -1    0    0    0  501 -0.00000000000E+00 -0.00000000000E+00 -0.43268599818E+03  0.43268599818E+03  0.00000000000E+00 0.  1.
         23    2    1    2    0    0 -0.52354563956E+02  0.11967216386E+03 -0.16025667033E+03  0.24159937861E+03  0.12500252873E+03 0.  0.
          5    1    3    3  502    0  0.40179646635E+02  0.26918409077E+02 -0.31920142074E+02  0.58137683313E+02  0.47000000000E+01 0. -1.
         -5    1    3    3    0  502 -0.92534210591E+02  0.92753754787E+02 -0.12833652825E+03  0.18346169530E+03  0.47000000000E+01 0. -1.
        -11    1    1    2    0    0  0.26392046112E+02 -0.12085644598E+03 -0.19698291372E+03  0.23260500625E+03  0.00000000000E+00 0.  1.
         11    1    1    2    0    0  0.25962517844E+02  0.11842821192E+01 -0.70097825486E+01  0.26918244897E+02  0.00000000000E+00 0. -1.
<mgrwt>
<rscale>  0 0.17547713E+03</rscale>
<asrwt>0</asrwt>
<pdfrwt beam="1">  1        1 0.10528712E-01 0.18079839E+03</pdfrwt>
<pdfrwt beam="2">  1       -1 0.66567077E-01 0.18079839E+03</pdfrwt>
<totfact> 0.14018162E+03</totfact>
</mgrwt>
</event>
<event>
 7    1  0.8165933E-006  0.1618375E+03  0.7546771E-02  0.1194107E+00
         -1   -1    0    0    0  501 -0.00000000000E+00  0.00000000000E+00  0.74105984565E+02  0.74105984565E+02  0.00000000000E+00 0.  1.
          1   -1    0    0  501    0  0.00000000000E+00 -0.00000000000E+00 -0.30773428841E+03  0.30773428841E+03  0.00000000000E+00 0. -1.
         23    2    1    2    0    0 -0.80953602039E+02  0.63346474473E+02 -0.15280418628E+03  0.22257693565E+03  0.12500044572E+03 0.  0.
          5    1    3    3  502    0 -0.73192852552E+02 -0.21516537027E+02 -0.69266423169E+02  0.10315077513E+03  0.47000000000E+01 0.  1.
         -5    1    3    3    0  502 -0.77607494865E+01  0.84863011500E+02 -0.83537763109E+02  0.11942616053E+03  0.47000000000E+01 0.  1.
        -11    1    1    2    0    0  0.24365549841E+02  0.21347804176E+02 -0.34626229519E+02  0.47417133327E+02  0.00000000000E+00 0.  1.
         11    1    1    2    0    0  0.56588052197E+02 -0.84694278649E+02 -0.46197888044E+02  0.11184620399E+03  0.00000000000E+00 0. -1.
<mgrwt>
<rscale>  0 0.15530026E+03</rscale>
<asrwt>0</asrwt>
<pdfrwt beam="2">  1        1 0.47343736E-01 0.16183749E+03</pdfrwt>
<pdfrwt beam="1">  1       -1 0.11400921E-01 0.16183749E+03</pdfrwt>
<totfact> 0.40934828E+03</totfact>
</mgrwt>
</event>
<event>
 7    1  0.8165933E-006  0.1529687E+03  0.7546771E-02  0.1204729E+00
          2   -1    0    0  501    0  0.00000000000E+00  0.00000000000E+00  0.18722881018E+03  0.18722881018E+03  0.00000000000E+00 0. -1.
         -2   -1    0    0    0  501 -0.00000000000E+00 -0.00000000000E+00 -0.10995197383E+03  0.10995197383E+03  0.00000000000E+00 0.  1.
         23    2    1    2    0    0 -0.39454859515E+02  0.78835389135E+02  0.69297477987E+02  0.16793319262E+03  0.12501084837E+03 0.  0.
          5    1    3    3  502    0  0.15426674687E+01  0.76442235399E+02 -0.11225639648E+02  0.77420282622E+02  0.47000000000E+01 0.  1.
         -5    1    3    3    0  502 -0.40997526984E+02  0.23931537357E+01  0.80523117635E+02  0.90512910003E+02  0.47000000000E+01 0.  1.
        -11    1    1    2    0    0 -0.10155336714E+02 -0.78576330372E+02  0.17698448664E+01  0.79249624033E+02  0.00000000000E+00 0.  1.
         11    1    1    2    0    0  0.49610196230E+02 -0.25905876223E+00  0.62095135051E+01  0.49997967352E+02  0.00000000000E+00 0. -1.
<mgrwt>
<rscale>  0 0.14658860E+03</rscale>
<asrwt>0</asrwt>
<pdfrwt beam="1">  1        2 0.28804432E-01 0.15296868E+03</pdfrwt>
<pdfrwt beam="2">  1       -2 0.16915688E-01 0.15296868E+03</pdfrwt>
<totfact> 0.49436785E+03</totfact>
</mgrwt>
</event>
<event>
 7    1  0.8165933E-006  0.1304979E+03  0.7546771E-02  0.1249255E+00
          1   -1    0    0  501    0  0.00000000000E+00  0.00000000000E+00  0.69822629957E+03  0.69822629957E+03  0.00000000000E+00 0. -1.
         -1   -1    0    0    0  501 -0.00000000000E+00 -0.00000000000E+00 -0.20232225148E+02  0.20232225148E+02  0.00000000000E+00 0.  1.
         23    2    1    2    0    0 -0.21690399831E+02 -0.30567334643E+02  0.55675938481E+03  0.57184851532E+03  0.12499950599E+03 0.  0.
          5    1    3    3  502    0 -0.58940299600E+02 -0.41611525254E+02  0.19489634193E+03  0.20787532814E+03  0.47000000000E+01 0. -1.
         -5    1    3    3    0  502  0.37249899769E+02  0.11044190610E+02  0.36186304288E+03  0.36397318718E+03  0.47000000000E+01 0. -1.
        -11    1    1    2    0    0  0.22802191744E+02  0.47581080026E+02  0.47711283799E+02  0.71135544748E+02  0.00000000000E+00 0.  1.
         11    1    1    2    0    0 -0.11117919130E+01 -0.17013745383E+02  0.73523405808E+02  0.75474464654E+02  0.00000000000E+00 0. -1.
<mgrwt>
<rscale>  0 0.11634281E+03</rscale>
<asrwt>0</asrwt>
<pdfrwt beam="1">  1        1 0.10741941E+00 0.13049794E+03</pdfrwt>
<pdfrwt beam="2">  1       -1 0.31126506E-02 0.13049794E+03</pdfrwt>
<totfact> 0.96613711E+03</totfact>
</mgrwt>
</event>
<event>
 7    1  0.8165933E-006  0.1387604E+03  0.7546771E-02  0.1226237E+00
          2   -1    0    0  501    0  0.00000000000E+00  0.00000000000E+00  0.73669052607E+03  0.73669052607E+03  0.00000000000E+00 0. -1.
         -2   -1    0    0    0  501 -0.00000000000E+00 -0.00000000000E+00 -0.22505714001E+02  0.22505714001E+02  0.00000000000E+00 0.  1.
         23    2    1    2    0    0  0.43618359103E+02 -0.41569085795E+02  0.49555577891E+03  0.51461633386E+03  0.12499556357E+03 0.  0.
          5    1    3    3  502    0  0.57091585138E+02 -0.35108462572E+02  0.11106014573E+03  0.12980176889E+03  0.47000000000E+01 0.  1.
         -5    1    3    3    0  502 -0.13473226035E+02 -0.64606232222E+01  0.38449563318E+03  0.38481456496E+03  0.47000000000E+01 0.  1.
        -11    1    1    2    0    0  0.24717638590E+02  0.53092941476E+00  0.89298628444E+02  0.92657911618E+02  0.00000000000E+00 0. -1.
         11    1    1    2    0    0 -0.68335997693E+02  0.41038156380E+02  0.12933040472E+03  0.15192199460E+03  0.00000000000E+00 0.  1.
<mgrwt>
<rscale>  0 0.13082484E+03</rscale>
<asrwt>0</asrwt>
<pdfrwt beam="1">  1        2 0.11333698E+00 0.13876037E+03</pdfrwt>
<pdfrwt beam="2">  1       -2 0.34624181E-02 0.13876037E+03</pdfrwt>
<totfact> 0.12857441E+04</totfact>
</mgrwt>
</event>
<event>
 7    1  0.8165933E-006  0.1358339E+03  0.7546771E-02  0.1231161E+00
          1   -1    0    0  501    0  0.00000000000E+00  0.00000000000E+00  0.42870134118E+02  0.42870134118E+02  0.00000000000E+00 0. -1.
         -1   -1    0    0    0  501 -0.00000000000E+00 -0.00000000000E+00 -0.33980750092E+03  0.33980750092E+03  0.00000000000E+00 0.  1.
         23    2    1    2    0    0  0.26388509310E+01 -0.53121540222E+02 -0.16790853637E+03  0.21597252079E+03  0.12498796574E+03 0.  0.
          5    1    3    3  502    0  0.62218726715E+02 -0.41094312220E+02 -0.97622204411E+02  0.12293127041E+03  0.47000000000E+01 0.  1.
         -5    1    3    3    0  502 -0.59579875784E+02 -0.12027228002E+02 -0.70286331961E+02  0.93041250381E+02  0.47000000000E+01 0.  1.
        -11    1    1    2    0    0  0.58819702364E+01 -0.13888934250E+02 -0.84415245597E+02  0.85752164740E+02  0.00000000000E+00 0.  1.
         11    1    1    2    0    0 -0.85208211674E+01  0.67010474472E+02 -0.44613584836E+02  0.80952949509E+02  0.00000000000E+00 0. -1.
<mgrwt>
<rscale>  0 0.12753439E+03</rscale>
<asrwt>0</asrwt>
<pdfrwt beam="1">  1        1 0.65954051E-02 0.13583392E+03</pdfrwt>
<pdfrwt beam="2">  1       -1 0.52278078E-01 0.13583392E+03</pdfrwt>
<totfact> 0.41049746E+03</totfact>
</mgrwt>
</event>
<event>
 7    1  0.8165933E-006  0.1449091E+03  0.7546771E-02  0.1216747E+00
         -1   -1    0    0    0  501 -0.00000000000E+00  0.00000000000E+00  0.55292170260E+02  0.55292170260E+02  0.00000000000E+00 0.  1.
          1   -1    0    0  501    0  0.00000000000E+00 -0.00000000000E+00 -0.41991460140E+03  0.41991460140E+03  0.00000000000E+00 0. -1.
         23    2    1    2    0    0  0.88338631094E+01  0.72756361675E+02 -0.31687511428E+03  0.34843722453E+03  0.12500854404E+03 0.  0.
          5    1    3    3  502    0 -0.31402075269E+02  0.70811776238E+01 -0.22980092745E+03  0.23209220078E+03  0.47000000000E+01 0.  1.
         -5    1    3    3    0  502  0.40235938379E+02  0.65675184051E+02 -0.87074186834E+02  0.11634502374E+03  0.47000000000E+01 0.  1.
        -11    1    1    2    0    0 -0.45414995101E+02 -0.66183061984E+02 -0.32505110038E+02  0.86598508372E+02  0.00000000000E+00 0.  1.
         11    1    1    2    0    0  0.36581131991E+02 -0.65732996903E+01 -0.15242206821E+02  0.40171038764E+02  0.00000000000E+00 0. -1.
<mgrwt>
<rscale>  0 0.13748971E+03</rscale>
<asrwt>0</asrwt>
<pdfrwt beam="2">  1        1 0.64602248E-01 0.14490915E+03</pdfrwt>
<pdfrwt beam="1">  1       -1 0.85064876E-02 0.14490915E+03</pdfrwt>
<totfact> 0.43132998E+03</totfact>
</mgrwt>
</event>
<event>
 7    1  0.8165933E-006  0.1375754E+03  0.7546771E-02  0.1227815E+00
         -1   -1    0    0    0  501 -0.00000000000E+00  0.00000000000E+00  0.35302489590E+02  0.35302489590E+02  0.00000000000E+00 0.  1.
          1   -1    0    0  501    0  0.00000000000E+00 -0.00000000000E+00 -0.44174520221E+03  0.44174520221E+03  0.00000000000E+00 0. -1.
         23    2    1    2    0    0  0.32433918428E+02  0.47508440111E+02 -0.26471473689E+03  0.29833015438E+03  0.12497190940E+03 0.  0.
          5    1    3    3  502    0 -0.21713258812E+02  0.25407585403E+02 -0.22491343624E+03  0.22743164865E+03  0.47000000000E+01 0. -1.
         -5    1    3    3    0  502  0.54147177240E+02  0.22100854708E+02 -0.39801300647E+02  0.70898505732E+02  0.47000000000E+01 0. -1.
        -11    1    1    2    0    0 -0.11960646672E+02 -0.29071925822E+01  0.12094305256E+02  0.17256333827E+02  0.00000000000E+00 0.  1.
         11    1    1    2    0    0 -0.20473271756E+02 -0.44601247529E+02 -0.15382228099E+03  0.16146120359E+03  0.00000000000E+00 0. -1.
<mgrwt>
<rscale>  0 0.12975818E+03</rscale>
<asrwt>0</asrwt>
<pdfrwt beam="2">  1        1 0.67960805E-01 0.13757539E+03</pdfrwt>
<pdfrwt beam="1">  1       -1 0.54311519E-02 0.13757539E+03</pdfrwt>
<totfact> 0.79000213E+03</totfact>
</mgrwt>
</event>
<event>
 7    1  0.8165933E-006  0.1658881E+03  0.7546771E-02  0.1189305E+00
         -3   -1    0    0    0  501 -0.00000000000E+00  0.00000000000E+00  0.36696174789E+03  0.36696174789E+03  0.00000000000E+00 0.  1.
          3   -1    0    0  501    0  0.00000000000E+00 -0.00000000000E+00 -0.75372718850E+02  0.75372718850E+02  0.00000000000E+00 0. -1.
         23    2    1    2    0    0  0.77008009352E+02  0.77226091846E+02  0.71574464609E+02  0.18067034731E+03  0.12499907058E+03 0.  0.
          5    1    3    3  502    0  0.73858360775E+02  0.10743907812E+02 -0.98174785716E+01  0.75425207304E+02  0.47000000000E+01 0.  1.
         -5    1    3    3    0  502  0.31496485769E+01  0.66482184034E+02  0.81391943180E+02  0.10524514001E+03  0.47000000000E+01 0.  1.
        -11    1    1    2    0    0 -0.58660006442E+02 -0.43804115377E+02  0.20977909386E+03  0.22218700480E+03  0.00000000000E+00 0.  1.
         11    1    1    2    0    0 -0.18348002910E+02 -0.33421976468E+02  0.10235470567E+02  0.39477114631E+02  0.00000000000E+00 0. -1.
<mgrwt>
<rscale>  0 0.15946209E+03</rscale>
<asrwt>0</asrwt>
<pdfrwt beam="2">  1        3 0.11595803E-01 0.16588813E+03</pdfrwt>
<pdfrwt beam="1">  1       -3 0.56455653E-01 0.16588813E+03</pdfrwt>
<totfact> 0.42871421E+02</totfact>
</mgrwt>
</event>
<event>
 7    1  0.8165933E-006  0.1488606E+03  0.7546771E-02  0.1211508E+00
          1   -1    0    0  501    0  0.00000000000E+00  0.00000000000E+00  0.16698444758E+03  0.16698444758E+03  0.00000000000E+00 0. -1.
         -1   -1    0    0    0  501 -0.00000000000E+00 -0.00000000000E+00 -0.11738359701E+03  0.11738359701E+03  0.00000000000E+00 0.  1.
         23    2    1    2    0    0 -0.74868771405E+02 -0.30714947688E+02  0.64812208810E+02  0.16235795327E+03  0.12494295352E+03 0.  0.
          5    1    3    3  502    0 -0.26694031081E+02 -0.62644474651E+02  0.77216336797E+02  0.10305995424E+03  0.47000000000E+01 0. -1.
         -5    1    3    3    0  502 -0.48174740324E+02  0.31929526962E+02 -0.12404127986E+02  0.59297999026E+02  0.47000000000E+01 0. -1.
        -11    1    1    2    0    0  0.24122842180E+02 -0.31109631651E+02 -0.14708683181E+02  0.42024588722E+02  0.00000000000E+00 0.  1.
         11    1    1    2    0    0  0.50745929225E+02  0.61824579340E+02 -0.50267505567E+00  0.79985502597E+02  0.00000000000E+00 0. -1.
<mgrwt>
<rscale>  0 0.14136222E+03</rscale>
<asrwt>0</asrwt>
<pdfrwt beam="1">  1        1 0.25689915E-01 0.14886061E+03</pdfrwt>
<pdfrwt beam="2">  1       -1 0.18059015E-01 0.14886061E+03</pdfrwt>
<totfact> 0.42435858E+03</totfact>
</mgrwt>
</event>
<event>
 7    1  0.8165933E-006  0.2192901E+03  0.7546771E-02  0.1137848E+00
          4   -1    0    0  501    0  0.00000000000E+00  0.00000000000E+00  0.28820999861E+03  0.28820999861E+03  0.00000000000E+00 0. -1.
         -4   -1    0    0    0  501 -0.00000000000E+00 -0.00000000000E+00 -0.15601381412E+03  0.15601381412E+03  0.00000000000E+00 0.  1.
         23    2    1    2    0    0  0.15335933946E+03 -0.94582089170E+02  0.95459039926E+02  0.23916639977E+03  0.12499311935E+03 0.  0.
          5    1    3    3  502    0  0.55220030574E+02  0.46759142717E+01  0.81692157700E+02  0.98827195551E+02  0.47000000000E+01 0.  1.
         -5    1    3    3    0  502  0.98139308882E+02 -0.99258003441E+02  0.13766882227E+02  0.14033920422E+03  0.47000000000E+01 0.  1.
        -11    1    1    2    0    0 -0.88507405889E+02  0.41837055311E+02 -0.25117154477E+02  0.10106815296E+03  0.00000000000E+00 0.  1.
         11    1    1    2    0    0 -0.64851933567E+02  0.52745033859E+02  0.61854299041E+02  0.10398925999E+03  0.00000000000E+00 0. -1.
<mgrwt>
<rscale>  0 0.21476431E+03</rscale>
<asrwt>0</asrwt>
<pdfrwt beam="1">  1        4 0.44340000E-01 0.21929008E+03</pdfrwt>
<pdfrwt beam="2">  1       -4 0.24002125E-01 0.21929008E+03</pdfrwt>
<totfact> 0.14401859E+02</totfact>
</mgrwt>
</event>
<event>
 7    1  0.8165933E-006  0.1489892E+03  0.7546771E-02  0.1211440E+00
          2   -1    0    0  501    0  0.00000000000E+00  0.00000000000E+00  0.84780519614E+03  0.84780519614E+03  0.00000000000E+00 0. -1.
         -2   -1    0    0    0  501 -0.00000000000E+00 -0.00000000000E+00 -0.21693330520E+02  0.21693330520E+02  0.00000000000E+00 0.  1.
         23    2    1    2    0    0 -0.79449695749E+02 -0.16170087757E+02  0.49826906551E+03  0.52006715242E+03  0.12499622190E+03 0.  0.
          5    1    3    3  502    0 -0.26174011607E+02 -0.22866171055E+02  0.23428702746E+02  0.42177420200E+02  0.47000000000E+01 0. -1.
         -5    1    3    3    0  502 -0.53275684142E+02  0.66960832978E+01  0.47484036277E+03  0.47788973222E+03  0.47000000000E+01 0. -1.
        -11    1    1    2    0    0 -0.17432410183E+02  0.11783490049E+02  0.93019549297E+02  0.95369681314E+02  0.00000000000E+00 0. -1.
         11    1    1    2    0    0  0.96882105932E+02  0.43865977084E+01  0.23482325081E+03  0.25406169292E+03  0.00000000000E+00 0.  1.
<mgrwt>
<rscale>  0 0.14141310E+03</rscale>
<asrwt>0</asrwt>
<pdfrwt beam="1">  1        2 0.13043154E+00 0.14898920E+03</pdfrwt>
<pdfrwt beam="2">  1       -2 0.33374361E-02 0.14898920E+03</pdfrwt>
<totfact> 0.11454775E+04</totfact>
</mgrwt>
</event>
<event>
 7    1  0.8165933E-006  0.1420521E+03  0.7546771E-02  0.1222333E+00
          1   -1    0    0  501    0  0.00000000000E+00  0.00000000000E+00  0.17164999950E+03  0.17164999950E+03  0.00000000000E+00 0. -1.
         -1   -1    0    0    0  501 -0.00000000000E+00 -0.00000000000E+00 -0.15117866928E+03  0.15117866928E+03  0.00000000000E+00 0.  1.
         23    2    1    2    0    0 -0.27164138184E+01 -0.67480711670E+02  0.11053997301E+03  0.17999410134E+03  0.12497105878E+03 0.  0.
          5    1    3    3  502    0  0.34568869489E+02 -0.27874526585E+02 -0.11659495195E+02  0.46152245865E+02  0.47000000000E+01 0.  1.
         -5    1    3    3    0  502 -0.37285283308E+02 -0.39606185084E+02  0.12219946821E+03  0.13384185548E+03  0.47000000000E+01 0.  1.
        -11    1    1    2    0    0  0.39008617692E+02  0.35005656187E+02 -0.75671834720E+02  0.92050501298E+02  0.00000000000E+00 0.  1.
         11    1    1    2    0    0 -0.36292203874E+02  0.32475055483E+02 -0.14396808068E+02  0.50784066134E+02  0.00000000000E+00 0. -1.
<mgrwt>
<rscale>  0 0.13351400E+03</rscale>
<asrwt>0</asrwt>
<pdfrwt beam="1">  1        1 0.26407692E-01 0.14205207E+03</pdfrwt>
<pdfrwt beam="2">  1       -1 0.23258257E-01 0.14205207E+03</pdfrwt>
<totfact> 0.27196964E+03</totfact>
</mgrwt>
</event>
<event>
 7    1  0.8165933E-006  0.2134562E+03  0.7546771E-02  0.1142742E+00
         -2   -1    0    0    0  501 -0.00000000000E+00  0.00000000000E+00  0.12017685908E+03  0.12017685908E+03  0.00000000000E+00 0.  1.
          2   -1    0    0  501    0  0.00000000000E+00 -0.00000000000E+00 -0.35120785840E+03  0.35120785840E+03  0.00000000000E+00 0. -1.
         23    2    1    2    0    0  0.12040959177E+03 -0.12425207377E+03 -0.92251770149E+02  0.23253799881E+03  0.12500593653E+03 0.  0.
          5    1    3    3  502    0  0.19333802589E+02 -0.10535694301E+03 -0.67407512598E+02  0.12664811139E+03  0.47000000000E+01 0. -1.
         -5    1    3    3    0  502  0.10107578918E+03 -0.18895130762E+02 -0.24844257551E+02  0.10588988743E+03  0.47000000000E+01 0. -1.
        -11    1    1    2    0    0 -0.12546297336E+02  0.60867601499E+02 -0.78072661978E+02  0.99787850149E+02  0.00000000000E+00 0. -1.
         11    1    1    2    0    0 -0.10786329444E+03  0.63384472272E+02 -0.60706567198E+02  0.13905886852E+03  0.00000000000E+00 0.  1.
<mgrwt>
<rscale>  0 0.20852152E+03</rscale>
<asrwt>0</asrwt>
<pdfrwt beam="2">  1        2 0.54031977E-01 0.21345616E+03</pdfrwt>
<pdfrwt beam="1">  1       -2 0.18488748E-01 0.21345616E+03</pdfrwt>
<totfact> 0.21946321E+03</totfact>
</mgrwt>
</event>
<event>
 7    1  0.8165933E-006  0.1305045E+03  0.7546771E-02  0.1243978E+00
         -1   -1    0    0    0  501 -0.00000000000E+00  0.00000000000E+00  0.46973596823E+02  0.46973596823E+02  0.00000000000E+00 0.  1.
          1   -1    0    0  501    0  0.00000000000E+00 -0.00000000000E+00 -0.10318219472E+04  0.10318219472E+04  0.00000000000E+00 0. -1.
         23    2    1    2    0    0  0.37447964260E+02 -0.11535537807E+01 -0.97824408059E+03  0.98691079532E+03  0.12501102350E+03 0.  0.
          5    1    3    3  502    0  0.48435533814E+02  0.21173031600E+02 -0.93707590212E+03  0.93857745261E+03  0.47000000000E+01 0.  1.
         -5    1    3    3    0  502 -0.10987569554E+02 -0.22326585381E+02 -0.41168178467E+02  0.48333342712E+02  0.47000000000E+01 0.  1.
        -11    1    1    2    0    0 -0.14335995965E+02 -0.41036464635E+02 -0.49643514959E+01  0.43751079939E+02  0.00000000000E+00 0. -1.
         11    1    1    2    0    0 -0.23111968295E+02  0.42190018416E+02 -0.16399182445E+01  0.48133668718E+02  0.00000000000E+00 0.  1.
<mgrwt>
<rscale>  0 0.11946726E+03</rscale>
<asrwt>0</asrwt>
<pdfrwt beam="2">  1        1 0.15874184E+00 0.13050455E+03</pdfrwt>
<pdfrwt beam="1">  1       -1 0.72267073E-02 0.13050455E+03</pdfrwt>
<totfact> 0.15193636E+03</totfact>
</mgrwt>
</event>
<event>
 7    1  0.8165933E-006  0.1424980E+03  0.7546771E-02  0.1220505E+00
         -2   -1    0    0    0  501 -0.00000000000E+00  0.00000000000E+00  0.10761517887E+03  0.10761517887E+03  0.00000000000E+00 0.  1.
          2   -1    0    0  501    0  0.00000000000E+00 -0.00000000000E+00 -0.17003387825E+03  0.17003387825E+03  0.00000000000E+00 0. -1.
         23    2    1    2    0    0 -0.36320954757E+02  0.58000610217E+02 -0.78058418498E+02  0.16247702789E+03  0.12498954098E+03 0.  0.
          5    1    3    3  502    0 -0.49187595892E+02  0.78878397669E+00 -0.89789044229E+02  0.10249002016E+03  0.47000000000E+01 0.  1.
         -5    1    3    3    0  502  0.12866641135E+02  0.57211826241E+02  0.11730625731E+02  0.59987007726E+02  0.47000000000E+01 0.  1.
        -11    1    1    2    0    0  0.66384602477E+02 -0.34915068470E+02  0.18193276776E+02  0.77181427637E+02  0.00000000000E+00 0. -1.
         11    1    1    2    0    0 -0.30063647719E+02 -0.23085541747E+02 -0.25535576584E+01  0.37990601583E+02  0.00000000000E+00 0.  1.
<mgrwt>
<rscale>  0 0.13479781E+03</rscale>
<asrwt>0</asrwt>
<pdfrwt beam="2">  1        2 0.26159058E-01 0.14249796E+03</pdfrwt>
<pdfrwt beam="1">  1       -2 0.16556181E-01 0.14249796E+03</pdfrwt>
<totfact> 0.56680098E+03</totfact>
</mgrwt>
</event>
<event>
 7    1  0.8165933E-006  0.1413451E+03  0.7546771E-02  0.1219537E+00
         -2   -1    0    0    0  501 -0.00000000000E+00  0.00000000000E+00  0.13959466965E+03  0.13959466965E+03  0.00000000000E+00 0.  1.
          2   -1    0    0  501    0  0.00000000000E+00 -0.00000000000E+00 -0.13555957647E+03  0.13555957647E+03  0.00000000000E+00 0. -1.
         23    2    1    2    0    0 -0.63742634386E+02  0.17039024788E+02 -0.41700601310E+02  0.14736814198E+03  0.12499990926E+03 0.  0.
          5    1    3    3  502    0 -0.80849862865E+01  0.65248120902E+02 -0.85053849828E+01  0.66461386220E+02  0.47000000000E+01 0.  1.
         -5    1    3    3    0  502 -0.55657648100E+02 -0.48209096114E+02 -0.33195216328E+02  0.80906755757E+02  0.47000000000E+01 0.  1.
        -11    1    1    2    0    0  0.10706084432E+02 -0.52595540378E+02  0.31945665688E+02  0.62461481473E+02  0.00000000000E+00 0.  1.
         11    1    1    2    0    0  0.53036549955E+02  0.35556515590E+02  0.13790028799E+02  0.65324622664E+02  0.00000000000E+00 0. -1.
<mgrwt>
<rscale>  0 0.13548457E+03</rscale>
<asrwt>0</asrwt>
<pdfrwt beam="2">  1        2 0.20855319E-01 0.14134507E+03</pdfrwt>
<pdfrwt beam="1">  1       -2 0.21476103E-01 0.14134507E+03</pdfrwt>
<totfact> 0.47069589E+03</totfact>
</mgrwt>
</event>
<event>
 7    1  0.8165933E-006  0.1254082E+03  0.7546771E-02  0.1240965E+00
          2   -1    0    0  501    0  0.00000000000E+00  0.00000000000E+00  0.90375944777E+03  0.90375944777E+03  0.00000000000E+00 0. -1.
         -2   -1    0    0    0  501 -0.00000000000E+00 -0.00000000000E+00 -0.22205946758E+02  0.22205946758E+02  0.00000000000E+00 0.  1.
         23    2    1    2    0    0 -0.28533991982E+01  0.59439375259E+02  0.71876597974E+03  0.72962438562E+03  0.11039034943E+03 0.  0.
          5    1    3    3  502    0  0.51499857112E+02  0.25071050231E+02  0.42480340398E+03  0.42867331953E+03  0.47000000000E+01 0. -1.
         -5    1    3    3    0  502 -0.54353256310E+02  0.34368325028E+02  0.29396257575E+03  0.30095106609E+03  0.47000000000E+01 0.  1.
        -11    1    1    2    0    0 -0.21672029907E+02 -0.13597648785E+02  0.13497654187E+03  0.13737991042E+03  0.00000000000E+00 0. -1.
         11    1    1    2    0    0  0.24525429106E+02 -0.45841726474E+02  0.27810979404E+02  0.58961098483E+02  0.00000000000E+00 0.  1.
<mgrwt>
<rscale>  0 0.12130196E+03</rscale>
<asrwt>0</asrwt>
<pdfrwt beam="1">  1        2 0.13903989E+00 0.12540818E+03</pdfrwt>
<pdfrwt beam="2">  1       -2 0.34163002E-02 0.12540818E+03</pdfrwt>
<totfact> 0.10085119E+04</totfact>
</mgrwt>
</event>
<event>
 7    1  0.8165933E-006  0.1413270E+03  0.7546771E-02  0.1222325E+00
         -1   -1    0    0    0  501 -0.00000000000E+00  0.00000000000E+00  0.44386152904E+03  0.44386152904E+03  0.00000000000E+00 0.  1.
          1   -1    0    0  501    0  0.00000000000E+00 -0.00000000000E+00 -0.54791532910E+02  0.54791532910E+02  0.00000000000E+00 0. -1.
         23    2    1    2    0    0 -0.33231794492E+02 -0.56279675514E+02  0.64955466566E+02  0.15553948642E+03  0.12530588637E+03 0.  0.
          5    1    3    3  502    0 -0.31968611702E+01 -0.27979943050E+02 -0.36249490221E+02  0.46143392547E+02  0.47000000000E+01 0. -1.
         -5    1    3    3    0  502 -0.30034933322E+02 -0.28299732463E+02  0.10120495679E+03  0.10939609388E+03  0.47000000000E+01 0.  1.
        -11    1    1    2    0    0  0.39900554236E+02  0.46369173371E+02  0.32539921185E+03  0.33109938317E+03  0.00000000000E+00 0.  1.
         11    1    1    2    0    0 -0.66687597437E+01  0.99105021427E+01 -0.12846822856E+01  0.12014192350E+02  0.00000000000E+00 0. -1.
<mgrwt>
<rscale>  0 0.13351947E+03</rscale>
<asrwt>0</asrwt>
<pdfrwt beam="2">  1        1 0.84294669E-02 0.14132699E+03</pdfrwt>
<pdfrwt beam="1">  1       -1 0.68286387E-01 0.14132699E+03</pdfrwt>
<totfact> 0.17797363E+03</totfact>
</mgrwt>
</event>
<event>
 7    1  0.8165933E-006  0.1254781E+03  0.7546771E-02  0.1251509E+00
          1   -1    0    0  501    0  0.00000000000E+00  0.00000000000E+00  0.89211046792E+03  0.89211046792E+03  0.00000000000E+00 0. -1.
         -1   -1    0    0    0  501 -0.00000000000E+00 -0.00000000000E+00 -0.12886418316E+02  0.12886418316E+02  0.00000000000E+00 0.  1.
         23    2    1    2    0    0  0.71418743371E+01 -0.82595943051E+01  0.53873312407E+03  0.55315289747E+03  0.12500208692E+03 0.  0.
          5    1    3    3  502    0 -0.46079157247E+02  0.13541237931E+01  0.42058481341E+03  0.42312976455E+03  0.47000000000E+01 0.  1.
         -5    1    3    3    0  502  0.53221031584E+02 -0.96137180983E+01  0.11814831067E+03  0.13002313291E+03  0.47000000000E+01 0.  1.
        -11    1    1    2    0    0 -0.33443538066E+02  0.36628697965E+02  0.20708978436E+03  0.21294673169E+03  0.00000000000E+00 0.  1.
         11    1    1    2    0    0  0.26301663729E+02 -0.28369103660E+02  0.13340114117E+03  0.13889725707E+03  0.00000000000E+00 0. -1.
<mgrwt>
<rscale>  0 0.11504151E+03</rscale>
<asrwt>0</asrwt>
<pdfrwt beam="1">  1        1 0.13724772E+00 0.12547808E+03</pdfrwt>
<pdfrwt beam="2">  1       -1 0.19825266E-02 0.12547808E+03</pdfrwt>
<totfact> 0.12826118E+04</totfact>
</mgrwt>
</event>
<event>
 7    1  0.2893542E-005  0.4005595E+03  0.7546771E-02  0.1044353E+00
         -1   -1    0    0    0  501 -0.00000000000E+00  0.00000000000E+00  0.33935277939E+03  0.33935277939E+03  0.00000000000E+00 0.  1.
          1   -1    0    0  501    0  0.00000000000E+00 -0.00000000000E+00 -0.59244001619E+03  0.59244001619E+03  0.00000000000E+00 0. -1.
         23    2    1    2    0    0 -0.70671140676E+02  0.37393648412E+03 -0.34580797082E+03  0.52917962192E+03  0.12500006116E+03 0.  0.
          5    1    3    3  502    0  0.22338671312E+01  0.64664531316E+02 -0.79583622866E+01  0.65359905928E+02  0.47000000000E+01 0.  1.
         -5    1    3    3    0  502 -0.72905007807E+02  0.30927195280E+03 -0.33784960853E+03  0.46381971599E+03  0.47000000000E+01 0.  1.
        -11    1    1    2    0    0  0.71393070491E+02 -0.13445326017E+03  0.32210270097E+02  0.15560254234E+03  0.00000000000E+00 0. -1.
         11    1    1    2    0    0 -0.72192981511E+00 -0.23948322395E+03  0.60510463922E+02  0.24701063131E+03  0.00000000000E+00 0.  1.
<mgrwt>
<rscale>  0 0.39834917E+03</rscale>
<asrwt>0</asrwt>
<pdfrwt beam="2">  1        1 0.91144617E-01 0.40055951E+03</pdfrwt>
<pdfrwt beam="1">  1       -1 0.52208120E-01 0.40055951E+03</pdfrwt>
<totfact> 0.13486522E+02</totfact>
</mgrwt>
</event>
<event>
 7    1  0.8165933E-006  0.1701660E+03  0.7546771E-02  0.1184147E+00
          1   -1    0    0  501    0  0.00000000000E+00  0.00000000000E+00  0.23030920192E+03  0.23030920192E+03  0.00000000000E+00 0. -1.
         -1   -1    0    0    0  501 -0.00000000000E+00 -0.00000000000E+00 -0.11763387127E+03  0.11763387127E+03  0.00000000000E+00 0.  1.
         23    2    1    2    0    0 -0.10776366687E+02 -0.11496153580E+03  0.10631609866E+03  0.20064791358E+03  0.12499675034E+03 0.  0.
          5    1    3    3  502    0 -0.63325393557E+02 -0.33941955978E+02  0.32447466708E+02  0.78975248911E+02  0.47000000000E+01 0.  1.
         -5    1    3    3    0  502  0.52549026870E+02 -0.81019579827E+02  0.73868631957E+02  0.12167266467E+03  0.47000000000E+01 0.  1.
        -11    1    1    2    0    0  0.31632630929E+02  0.17790002710E+02 -0.23842233232E+02  0.43423031002E+02  0.00000000000E+00 0.  1.
         11    1    1    2    0    0 -0.20856264242E+02  0.97171533094E+02  0.30201465219E+02  0.10387212862E+03  0.00000000000E+00 0. -1.
<mgrwt>
<rscale>  0 0.16409693E+03</rscale>
<asrwt>0</asrwt>
<pdfrwt beam="1">  1        1 0.35432185E-01 0.17016601E+03</pdfrwt>
<pdfrwt beam="2">  1       -1 0.18097519E-01 0.17016601E+03</pdfrwt>
<totfact> 0.28474545E+03</totfact>
</mgrwt>
</event>
<event>
 7    1  0.8165933E-006  0.3203961E+03  0.7546771E-02  0.1076886E+00
         -1   -1    0    0    0  501 -0.00000000000E+00  0.00000000000E+00  0.74779707589E+02  0.74779707589E+02  0.00000000000E+00 0.  1.
          1   -1    0    0  501    0  0.00000000000E+00 -0.00000000000E+00 -0.13857563073E+04  0.13857563073E+04  0.00000000000E+00 0. -1.
         23    2    1    2    0    0  0.16645570139E+02 -0.29453509344E+03 -0.82488666828E+03  0.88492467764E+03  0.12500269326E+03 0.  0.
          5    1    3    3  502    0 -0.44958960093E+02 -0.10681897700E+03 -0.39716273020E+03  0.41375346065E+03  0.47000000000E+01 0.  1.
         -5    1    3    3    0  502  0.61604530233E+02 -0.18771611644E+03 -0.42772393808E+03  0.47117121699E+03  0.47000000000E+01 0.  1.
        -11    1    1    2    0    0  0.40080167844E+01  0.22395574019E+03 -0.29171744829E+03  0.36779247871E+03  0.00000000000E+00 0.  1.
         11    1    1    2    0    0 -0.20653586924E+02  0.70579353248E+02 -0.19437248311E+03  0.20781885850E+03  0.00000000000E+00 0. -1.
<mgrwt>
<rscale>  0 0.31732668E+03</rscale>
<asrwt>0</asrwt>
<pdfrwt beam="2">  1        1 0.21319327E+00 0.32039611E+03</pdfrwt>
<pdfrwt beam="1">  1       -1 0.11504571E-01 0.32039611E+03</pdfrwt>
<totfact> 0.41664303E+02</totfact>
</mgrwt>
</event>
<event>
 7    1  0.8165933E-006  0.3137682E+03  0.7546771E-02  0.1080063E+00
         -2   -1    0    0    0  501 -0.00000000000E+00  0.00000000000E+00  0.23007813925E+03  0.23007813925E+03  0.00000000000E+00 0. -1.
          2   -1    0    0  501    0  0.00000000000E+00 -0.00000000000E+00 -0.56260003369E+03  0.56260003369E+03  0.00000000000E+00 0.  1.
         23    2    1    2    0    0  0.49015114314E+02 -0.28358849576E+03 -0.37444471523E+03  0.48852773887E+03  0.12500236211E+03 0.  0.
          5    1    3    3  502    0  0.38758751084E+02 -0.29446128181E+02 -0.21406048366E+02  0.53381871053E+02  0.47000000000E+01 0.  1.
         -5    1    3    3    0  502  0.10256363230E+02 -0.25414236757E+03 -0.35303866686E+03  0.43514586782E+03  0.47000000000E+01 0.  1.
        -11    1    1    2    0    0  0.25817157452E+02  0.63359466233E+02  0.14574715590E+02  0.69952626218E+02  0.00000000000E+00 0. -1.
         11    1    1    2    0    0 -0.74832271766E+02  0.22022902952E+03  0.27348105191E+02  0.23419780785E+03  0.00000000000E+00 0.  1.
<mgrwt>
<rscale>  0 0.31059005E+03</rscale>
<asrwt>0</asrwt>
<pdfrwt beam="2">  1        2 0.86553850E-01 0.31376824E+03</pdfrwt>
<pdfrwt beam="1">  1       -2 0.35396637E-01 0.31376824E+03</pdfrwt>
<totfact> 0.41074767E+02</totfact>
</mgrwt>
</event>
<event>
 7    1  0.8165933E-006  0.1617848E+03  0.7546771E-02  0.1193926E+00
          1   -1    0    0  501    0  0.00000000000E+00  0.00000000000E+00  0.13471432980E+03  0.13471432980E+03  0.00000000000E+00 0. -1.
         -1   -1    0    0    0  501 -0.00000000000E+00 -0.00000000000E+00 -0.16685384611E+03  0.16685384611E+03  0.00000000000E+00 0.  1.
         23    2    1    2    0    0  0.82488331844E+02  0.61387316304E+02 -0.12553674979E+02  0.16227115442E+03  0.12490638617E+03 0.  0.
          5    1    3    3  502    0  0.44013036672E+02  0.96338511497E+02  0.76704088538E+01  0.10629760753E+03  0.47000000000E+01 0.  1.
         -5    1    3    3    0  502  0.38475295172E+02 -0.34951195194E+02 -0.20224083833E+02  0.55973546885E+02  0.47000000000E+01 0.  1.
        -11    1    1    2    0    0 -0.72702033068E+02 -0.65896600985E+02  0.18382619006E+02  0.99829195705E+02  0.00000000000E+00 0. -1.
         11    1    1    2    0    0 -0.97862987758E+01  0.45092846811E+01 -0.37968460335E+02  0.39467825786E+02  0.00000000000E+00 0.  1.
<mgrwt>
<rscale>  0 0.15545505E+03</rscale>
<asrwt>0</asrwt>
<pdfrwt beam="1">  1        1 0.20725282E-01 0.16178483E+03</pdfrwt>
<pdfrwt beam="2">  1       -1 0.25669822E-01 0.16178483E+03</pdfrwt>
<totfact> 0.31602288E+03</totfact>
</mgrwt>
</event>
<event>
 7    1  0.8165933E-006  0.1362476E+03  0.7546771E-02  0.1229686E+00
          1   -1    0    0  501    0  0.00000000000E+00  0.00000000000E+00  0.24429013118E+03  0.24429013118E+03  0.00000000000E+00 0. -1.
         -1   -1    0    0    0  501 -0.00000000000E+00 -0.00000000000E+00 -0.67626776640E+02  0.67626776640E+02  0.00000000000E+00 0.  1.
         23    2    1    2    0    0  0.13660872991E+02  0.52434739464E+02  0.14624686339E+03  0.19987881621E+03  0.12500949869E+03 0.  0.
          5    1    3    3  502    0  0.49729921827E+02  0.73586135421E+02  0.71551893589E+02  0.11414792126E+03  0.47000000000E+01 0. -1.
         -5    1    3    3    0  502 -0.36069048837E+02 -0.21151395957E+02  0.74694969805E+02  0.85730894951E+02  0.47000000000E+01 0. -1.
        -11    1    1    2    0    0  0.20171672287E+02 -0.53484156610E+02 -0.11350121549E+02  0.58277582571E+02  0.00000000000E+00 0.  1.
         11    1    1    2    0    0 -0.33832545278E+02  0.10494171467E+01  0.41766612699E+02  0.53760509044E+02  0.00000000000E+00 0. -1.
<mgrwt>
<rscale>  0 0.12850846E+03</rscale>
<asrwt>0</asrwt>
<pdfrwt beam="1">  1        1 0.37583097E-01 0.13624755E+03</pdfrwt>
<pdfrwt beam="2">  1       -1 0.10404120E-01 0.13624755E+03</pdfrwt>
<totfact> 0.62127516E+03</totfact>
</mgrwt>
</event>
<event>
 7    1  0.8165933E-006  0.2557892E+03  0.7546771E-02  0.1112005E+00
         -1   -1    0    0    0  501 -0.00000000000E+00  0.00000000000E+00  0.57111030896E+02  0.57111030896E+02  0.00000000000E+00 0.  1.
          1   -1    0    0  501    0  0.00000000000E+00 -0.00000000000E+00 -0.11576250175E+04  0.11576250175E+04  0.00000000000E+00 0. -1.
         23    2    1    2    0    0  0.21362749903E+03 -0.64552132860E+02 -0.72117673281E+03  0.76519538073E+03  0.12499761816E+03 0.  0.
          5    1    3    3  502    0  0.22155486605E+03 -0.81706012346E+02 -0.67239090064E+03  0.71266685372E+03  0.47000000000E+01 0. -1.
         -5    1    3    3    0  502 -0.79273670280E+01  0.17153879485E+02 -0.48785832178E+02  0.52528527018E+02  0.47000000000E+01 0. -1.
        -11    1    1    2    0    0 -0.15112538726E+03  0.60113432151E+02 -0.33618174580E+03  0.37345772667E+03  0.00000000000E+00 0. -1.
         11    1    1    2    0    0 -0.62502111768E+02  0.44387007093E+01 -0.43155507974E+02  0.76082940979E+02  0.00000000000E+00 0.  1.
<mgrwt>
<rscale>  0 0.25206799E+03</rscale>
<asrwt>0</asrwt>
<pdfrwt beam="2">  1        1 0.17809615E+00 0.25578915E+03</pdfrwt>
<pdfrwt beam="1">  1       -1 0.87863126E-02 0.25578915E+03</pdfrwt>
<totfact> 0.91616434E+02</totfact>
</mgrwt>
</event>
<event>
 7    1  0.8165933E-006  0.1837403E+03  0.7546771E-02  0.1167620E+00
          1   -1    0    0  501    0  0.00000000000E+00  0.00000000000E+00  0.37990681603E+03  0.37990681603E+03  0.00000000000E+00 0. -1.
         -1   -1    0    0    0  501 -0.00000000000E+00 -0.00000000000E+00 -0.15938616451E+03  0.15938616451E+03  0.00000000000E+00 0.  1.
         23    2    1    2    0    0 -0.41288902710E+02 -0.13630590666E+03  0.29991055520E+03  0.35171983584E+03  0.11608801888E+03 0.  0.
          5    1    3    3  502    0 -0.65939043525E+02 -0.12078609095E+03  0.17135823911E+03  0.21982486970E+03  0.47000000000E+01 0. -1.
         -5    1    3    3    0  502  0.24650140815E+02 -0.15519815712E+02  0.12855231608E+03  0.13189496614E+03  0.47000000000E+01 0.  1.
        -11    1    1    2    0    0  0.43651275495E+02  0.33079016608E+02 -0.62237025267E+02  0.82904176651E+02  0.00000000000E+00 0.  1.
         11    1    1    2    0    0 -0.23623727843E+01  0.10322689005E+03 -0.17152878417E+02  0.10466896805E+03  0.00000000000E+00 0. -1.
<mgrwt>
<rscale>  0 0.18018960E+03</rscale>
<asrwt>0</asrwt>
<pdfrwt beam="1">  1        1 0.58447202E-01 0.18374031E+03</pdfrwt>
<pdfrwt beam="2">  1       -1 0.24520948E-01 0.18374031E+03</pdfrwt>
<totfact> 0.93117593E+02</totfact>
</mgrwt>
</event>
<event>
 7    1  0.8165933E-006  0.2090422E+03  0.7546771E-02  0.1144344E+00
         -2   -1    0    0    0  501 -0.00000000000E+00  0.00000000000E+00  0.22853481726E+02  0.22853481726E+02  0.00000000000E+00 0. -1.
          2   -1    0    0  501    0  0.00000000000E+00 -0.00000000000E+00 -0.19179488035E+04  0.19179488035E+04  0.00000000000E+00 0.  1.
         23    2    1    2    0    0  0.16630647724E+03 -0.20115465947E+02 -0.11852730574E+04  0.12035658860E+04  0.12504457220E+03 0.  0.
          5    1    3    3  502    0  0.49522689065E+02 -0.19340917242E+02 -0.77867195658E+03  0.78049899025E+03  0.47000000000E+01 0. -1.
         -5    1    3    3    0  502  0.11678378817E+03 -0.77454870511E+00 -0.40660110082E+03  0.42306689577E+03  0.47000000000E+01 0. -1.
        -11    1    1    2    0    0 -0.13543430773E+03  0.26731394279E+02 -0.67977609684E+03  0.69365161355E+03  0.00000000000E+00 0.  1.
         11    1    1    2    0    0 -0.30872169509E+02 -0.66159283316E+01 -0.30046167552E+02  0.43584785676E+02  0.00000000000E+00 0. -1.
<mgrwt>
<rscale>  0 0.20652992E+03</rscale>
<asrwt>0</asrwt>
<pdfrwt beam="2">  1        2 0.29506915E+00 0.20904215E+03</pdfrwt>
<pdfrwt beam="1">  1       -2 0.35159190E-02 0.20904215E+03</pdfrwt>
<totfact> 0.27428550E+03</totfact>
</mgrwt>
</event>
<event>
 7    1  0.8165933E-006  0.1250774E+03  0.7546771E-02  0.1249654E+00
          3   -1    0    0  501    0  0.00000000000E+00  0.00000000000E+00  0.28665791806E+03  0.28665791806E+03  0.00000000000E+00 0. -1.
         -3   -1    0    0    0  501 -0.00000000000E+00 -0.00000000000E+00 -0.41793032138E+02  0.41793032138E+02  0.00000000000E+00 0.  1.
         23    2    1    2    0    0  0.26504560811E+01 -0.34337728312E+01  0.15542975190E+03  0.19950631477E+03  0.12500218455E+03 0.  0.
          5    1    3    3  502    0  0.58295856025E+02  0.94422247478E+01  0.42639109716E+02  0.72991411243E+02  0.47000000000E+01 0.  1.
         -5    1    3    3    0  502 -0.55645399944E+02 -0.12875997579E+02  0.11279064219E+03  0.12651490352E+03  0.47000000000E+01 0.  1.
        -11    1    1    2    0    0 -0.17730252190E+02 -0.34222817727E+02  0.77672636491E+02  0.86709869999E+02  0.00000000000E+00 0. -1.
         11    1    1    2    0    0  0.15079796109E+02  0.37656590558E+02  0.11762497529E+02  0.42234765434E+02  0.00000000000E+00 0.  1.
<mgrwt>
<rscale>  0 0.11611102E+03</rscale>
<asrwt>0</asrwt>
<pdfrwt beam="1">  1        3 0.44101217E-01 0.12507742E+03</pdfrwt>
<pdfrwt beam="2">  1       -3 0.64296974E-02 0.12507742E+03</pdfrwt>
<totfact> 0.17682714E+03</totfact>
</mgrwt>
</event>
<event>
 7    1  0.8165933E-006  0.2406906E+03  0.7546771E-02  0.1121928E+00
         -1   -1    0    0    0  501 -0.00000000000E+00  0.00000000000E+00  0.94362549728E+03  0.94362549728E+03  0.00000000000E+00 0.  1.
          1   -1    0    0  501    0  0.00000000000E+00 -0.00000000000E+00 -0.63439693465E+02  0.63439693465E+02  0.00000000000E+00 0. -1.
         23    2    1    2    0    0 -0.18679354968E+03 -0.86119028514E+02  0.30034389125E+03  0.38488757058E+03  0.12499468670E+03 0.  0.
          5    1    3    3  502    0 -0.14151333563E+03 -0.10419613082E+03  0.16558198190E+03  0.24150018751E+03  0.47000000000E+01 0.  1.
         -5    1    3    3    0  502 -0.45280214048E+02  0.18077102302E+02  0.13476190934E+03  0.14338738306E+03  0.47000000000E+01 0.  1.
        -11    1    1    2    0    0  0.18484949329E+03  0.98635876631E+02  0.51283334875E+03  0.55398232365E+03  0.00000000000E+00 0. -1.
         11    1    1    2    0    0  0.19440563872E+01 -0.12516848117E+02  0.67008563821E+02  0.68195296520E+02  0.00000000000E+00 0.  1.
<mgrwt>
<rscale>  0 0.23682182E+03</rscale>
<asrwt>0</asrwt>
<pdfrwt beam="2">  1        1 0.97599535E-02 0.24069065E+03</pdfrwt>
<pdfrwt beam="1">  1       -1 0.14517314E+00 0.24069065E+03</pdfrwt>
<totfact> 0.27380981E+02</totfact>
</mgrwt>
</event>
<event>
 7    1  0.8165933E-006  0.1494219E+03  0.7546771E-02  0.1211484E+00
          2   -1    0    0  501    0  0.00000000000E+00  0.00000000000E+00  0.78016832458E+03  0.78016832458E+03  0.00000000000E+00 0. -1.
         -2   -1    0    0    0  501 -0.00000000000E+00 -0.00000000000E+00 -0.26320589723E+02  0.26320589723E+02  0.00000000000E+00 0.  1.
         23    2    1    2    0    0 -0.98759857631E+01  0.81267108914E+02  0.55125280692E+03  0.57114496342E+03  0.12500013607E+03 0.  0.
          5    1    3    3  502    0 -0.33607191729E+02  0.66574890554E+02  0.53126594804E+03  0.53649534661E+03  0.47000000000E+01 0.  1.
         -5    1    3    3    0  502  0.23731205966E+02  0.14692218360E+02  0.19986858874E+02  0.34649616803E+02  0.47000000000E+01 0.  1.
        -11    1    1    2    0    0 -0.20539953546E+02 -0.22028058070E+02  0.10277190631E+02  0.31823665429E+02  0.00000000000E+00 0.  1.
         11    1    1    2    0    0  0.30415939309E+02 -0.59239050844E+02  0.19231773731E+03  0.20352028546E+03  0.00000000000E+00 0. -1.
<mgrwt>
<rscale>  0 0.14137976E+03</rscale>
<asrwt>0</asrwt>
<pdfrwt beam="1">  1        2 0.12002588E+00 0.14942193E+03</pdfrwt>
<pdfrwt beam="2">  1       -2 0.40493221E-02 0.14942193E+03</pdfrwt>
<totfact> 0.95455590E+03</totfact>
</mgrwt>
</event>
<event>
 7    1  0.8165933E-006  0.1318656E+03  0.7546771E-02  0.1237270E+00
         -2   -1    0    0    0  501 -0.00000000000E+00  0.00000000000E+00  0.70880492298E+02  0.70880492298E+02  0.00000000000E+00 0.  1.
          2   -1    0    0  501    0  0.00000000000E+00 -0.00000000000E+00 -0.19576637666E+03  0.19576637666E+03  0.00000000000E+00 0. -1.
         23    2    1    2    0    0 -0.27338080889E+02  0.31869975963E+02 -0.87267522947E+02  0.15812703355E+03  0.12500188856E+03 0.  0.
          5    1    3    3  502    0 -0.65456144546E+02  0.94003762931E+01 -0.74073255939E+01  0.66707064137E+02  0.47000000000E+01 0.  1.
         -5    1    3    3    0  502  0.38118063657E+02  0.22469599670E+02 -0.79860197353E+02  0.91419969414E+02  0.47000000000E+01 0.  1.
        -11    1    1    2    0    0  0.36553288389E+02  0.15493216830E+02  0.97742129162E+01  0.40886646939E+02  0.00000000000E+00 0.  1.
         11    1    1    2    0    0 -0.92152075000E+01 -0.47363192793E+02 -0.47392574335E+02  0.67633188472E+02  0.00000000000E+00 0. -1.
<mgrwt>
<rscale>  0 0.12360215E+03</rscale>
<asrwt>0</asrwt>
<pdfrwt beam="2">  1        2 0.30117904E-01 0.13186561E+03</pdfrwt>
<pdfrwt beam="1">  1       -2 0.10904691E-01 0.13186561E+03</pdfrwt>
<totfact> 0.94936630E+03</totfact>
</mgrwt>
</event>
<event>
 7    1  0.8165933E-006  0.1758735E+03  0.7546771E-02  0.1178276E+00
         -2   -1    0    0    0  501 -0.00000000000E+00  0.00000000000E+00  0.11772667528E+03  0.11772667528E+03  0.00000000000E+00 0.  1.
          2   -1    0    0  501    0  0.00000000000E+00 -0.00000000000E+00 -0.30567251770E+03  0.30567251770E+03  0.00000000000E+00 0. -1.
         23    2    1    2    0    0  0.34080475279E+02 -0.11893186453E+03 -0.20532680143E+03  0.27035269517E+03  0.12500086882E+03 0.  0.
          5    1    3    3  502    0  0.63228148266E+02 -0.52652995989E+02 -0.43919870767E+02  0.93387267697E+02  0.47000000000E+01 0. -1.
         -5    1    3    3    0  502 -0.29147672987E+02 -0.66278868536E+02 -0.16140693067E+03  0.17696542748E+03  0.47000000000E+01 0. -1.
        -11    1    1    2    0    0  0.15559372337E+02  0.27633698225E+02  0.35452129232E+02  0.47566467308E+02  0.00000000000E+00 0.  1.
         11    1    1    2    0    0 -0.49639847615E+02  0.91298166301E+02 -0.18071170211E+02  0.10548003050E+03  0.00000000000E+00 0. -1.
<mgrwt>
<rscale>  0 0.16959046E+03</rscale>
<asrwt>0</asrwt>
<pdfrwt beam="2">  1        2 0.47026541E-01 0.17587349E+03</pdfrwt>
<pdfrwt beam="1">  1       -2 0.18111796E-01 0.17587349E+03</pdfrwt>
<totfact> 0.26204896E+03</totfact>
</mgrwt>
</event>
<event>
 7    1  0.8165933E-006  0.1369176E+03  0.7546771E-02  0.1229431E+00
          2   -1    0    0  501    0  0.00000000000E+00  0.00000000000E+00  0.62859972552E+03  0.62859972552E+03  0.00000000000E+00 0. -1.
         -2   -1    0    0    0  501 -0.00000000000E+00 -0.00000000000E+00 -0.26720993266E+02  0.26720993266E+02  0.00000000000E+00 0.  1.
         23    2    1    2    0    0 -0.38042354365E+02  0.41050872842E+02  0.44455227298E+03  0.46515927605E+03  0.12495612750E+03 0.  0.
          5    1    3    3  502    0 -0.16960565302E+01 -0.42904539810E+01 -0.71437295984E+01  0.97163509453E+01  0.47000000000E+01 0.  1.
         -5    1    3    3    0  502 -0.36346297835E+02  0.45341326823E+02  0.45169600258E+03  0.45544292511E+03  0.47000000000E+01 0.  1.
        -11    1    1    2    0    0 -0.24613603410E+02 -0.48483057516E+00  0.13394488448E+02  0.28026359991E+02  0.00000000000E+00 0.  1.
         11    1    1    2    0    0  0.62655957776E+02 -0.40566042267E+02  0.14393197082E+03  0.16213508274E+03  0.00000000000E+00 0. -1.
<mgrwt>
<rscale>  0 0.12867792E+03</rscale>
<asrwt>0</asrwt>
<pdfrwt beam="1">  1        2 0.96707639E-01 0.13691760E+03</pdfrwt>
<pdfrwt beam="2">  1       -2 0.41109225E-02 0.13691760E+03</pdfrwt>
<totfact> 0.12005921E+04</totfact>
</mgrwt>
</event>
<event>
 7    1  0.8165933E-006  0.1537230E+03  0.7546771E-02  0.1204378E+00
         -1   -1    0    0    0  501 -0.00000000000E+00  0.00000000000E+00  0.50540178061E+02  0.50540178061E+02  0.00000000000E+00 0.  1.
          1   -1    0    0  501    0  0.00000000000E+00 -0.00000000000E+00 -0.40872588365E+03  0.40872588365E+03  0.00000000000E+00 0. -1.
         23    2    1    2    0    0  0.89189104861E+02 -0.45756969496E+01 -0.23989624308E+03  0.28492272403E+03  0.12512041319E+03 0.  0.
          5    1    3    3  502    0  0.76049675297E+02  0.46445832680E+02 -0.93429726323E+02  0.12919741579E+03  0.47000000000E+01 0.  1.
         -5    1    3    3    0  502  0.13139429564E+02 -0.51021529630E+02 -0.14646651676E+03  0.15572530824E+03  0.47000000000E+01 0.  1.
        -11    1    1    2    0    0 -0.57456241038E+02 -0.14337563508E+01 -0.63335671134E+01  0.57822049115E+02  0.00000000000E+00 0.  1.
         11    1    1    2    0    0 -0.31732863824E+02  0.60094533004E+01 -0.11195589539E+03  0.11652128857E+03  0.00000000000E+00 0. -1.
<mgrwt>
<rscale>  0 0.14686562E+03</rscale>
<asrwt>0</asrwt>
<pdfrwt beam="2">  1        1 0.62880906E-01 0.15372297E+03</pdfrwt>
<pdfrwt beam="1">  1       -1 0.77754119E-02 0.15372297E+03</pdfrwt>
<totfact> 0.51295065E+03</totfact>
</mgrwt>
</event>
<event>
 6    1  0.8165933E-006  0.1587743E+03  0.7546771E-02  0.1213199E+00
          2   -1    0    0  501    0  0.00000000000E+00  0.00000000000E+00  0.57405810936E+03  0.57405810936E+03  0.00000000000E+00 0. -1.
         -2   -1    0    0    0  501 -0.00000000000E+00 -0.00000000000E+00 -0.93046563487E+02  0.93046563487E+02  0.00000000000E+00 0.  1.
          5    1    1    2  502    0  0.71478052192E+02 -0.61030719078E+00  0.45721211174E+03  0.46278989784E+03  0.47000000000E+01 0. -1.
         -5    1    1    2    0  502 -0.49958378213E+02  0.21987429763E+02  0.76881051095E+02  0.94403774494E+02  0.47000000000E+01 0.  1.
        -11    1    1    2    0    0  0.20443947778E+02  0.21508777538E+02 -0.37684630013E+02  0.47965757068E+02  0.00000000000E+00 0. -1.
         11    1    1    2    0    0 -0.41963621757E+02 -0.42885900110E+02 -0.15396986944E+02  0.61945243451E+02  0.00000000000E+00 0.  1.
<mgrwt>
<rscale>  0 0.14009666E+03</rscale>
<asrwt>0</asrwt>
<pdfrwt beam="1">  1        2 0.88316630E-01 0.15877431E+03</pdfrwt>
<pdfrwt beam="2">  1       -2 0.14314856E-01 0.15877431E+03</pdfrwt>
<totfact> 0.19423633E+03</totfact>
</mgrwt>
</event>
<event>
 7    1  0.8165933E-006  0.1244292E+03  0.7546771E-02  0.1243274E+00
          3   -1    0    0  501    0  0.00000000000E+00  0.00000000000E+00  0.15015249982E+03  0.15015249982E+03  0.00000000000E+00 0. -1.
         -3   -1    0    0    0  501 -0.00000000000E+00 -0.00000000000E+00 -0.13518864186E+03  0.13518864186E+03  0.00000000000E+00 0.  1.
         23    2    1    2    0    0 -0.40315265987E+02  0.34185545180E+02  0.90757382220E+02  0.15401146532E+03  0.11264393837E+03 0.  0.
          5    1    3    3  502    0 -0.55913493501E+02 -0.26745773427E+01  0.16316586228E+01  0.56198082078E+02  0.47000000000E+01 0. -1.
         -5    1    3    3    0  502  0.15598227514E+02  0.36860122522E+02  0.89125723598E+02  0.97813383239E+02  0.47000000000E+01 0.  1.
        -11    1    1    2    0    0 -0.27077668047E+02 -0.26123734400E+02 -0.38726114341E+02  0.53994087989E+02  0.00000000000E+00 0. -1.
         11    1    1    2    0    0  0.67392934034E+02 -0.80618107797E+01 -0.37067409927E+02  0.77335588376E+02  0.00000000000E+00 0.  1.
<mgrwt>
<rscale>  0 0.11989259E+03</rscale>
<asrwt>0</asrwt>
<pdfrwt beam="1">  1        3 0.23100385E-01 0.12442921E+03</pdfrwt>
<pdfrwt beam="2">  1       -3 0.20798252E-01 0.12442921E+03</pdfrwt>
<totfact> 0.82674808E+02</totfact>
</mgrwt>
</event>
<event>
 7    1  0.8165933E-006  0.1534235E+03  0.7546771E-02  0.1204686E+00
          2   -1    0    0  501    0  0.00000000000E+00  0.00000000000E+00  0.40319242308E+03  0.40319242308E+03  0.00000000000E+00 0.  1.
         -2   -1    0    0    0  501 -0.00000000000E+00 -0.00000000000E+00 -0.58765990561E+02  0.58765990561E+02  0.00000000000E+00 0. -1.
         23    2    1    2    0    0  0.40638348349E+02  0.79138163803E+02  0.27858749035E+03  0.31804051288E+03  0.12499781491E+03 0.  0.
          5    1    3    3  502    0 -0.29237734163E+02  0.77929594624E+02  0.14934734568E+03  0.17103972193E+03  0.47000000000E+01 0.  1.
         -5    1    3    3    0  502  0.69876082512E+02  0.12085691792E+01  0.12924014467E+03  0.14700079095E+03  0.47000000000E+01 0.  1.
        -11    1    1    2    0    0 -0.10662022987E+02  0.15825965482E+02  0.34663823995E+02  0.39569187654E+02  0.00000000000E+00 0.  1.
         11    1    1    2    0    0 -0.29976325362E+02 -0.94964129285E+02  0.31175118178E+02  0.10434871310E+03  0.00000000000E+00 0. -1.
<mgrwt>
<rscale>  0 0.14662237E+03</rscale>
<asrwt>0</asrwt>
<pdfrwt beam="1">  1        2 0.62029602E-01 0.15342353E+03</pdfrwt>
<pdfrwt beam="2">  1       -2 0.90409219E-02 0.15342353E+03</pdfrwt>
<totfact> 0.59537590E+03</totfact>
</mgrwt>
</event>
<event>
 7    1  0.8165933E-006  0.1404578E+03  0.7546771E-02  0.1223751E+00
         -1   -1    0    0    0  501 -0.00000000000E+00  0.00000000000E+00  0.39566038650E+03  0.39566038650E+03  0.00000000000E+00 0.  1.
          1   -1    0    0  501    0  0.00000000000E+00 -0.00000000000E+00 -0.40115718025E+02  0.40115718025E+02  0.00000000000E+00 0. -1.
         23    2    1    2    0    0  0.32456383102E+02 -0.55219802076E+02  0.19004975259E+03  0.23632031486E+03  0.12500295762E+03 0.  0.
          5    1    3    3  502    0  0.15681372274E+02 -0.74369025732E+02  0.19555080296E+03  0.20985438752E+03  0.47000000000E+01 0. -1.
         -5    1    3    3    0  502  0.16775010829E+02  0.19149223656E+02 -0.55010503691E+01  0.26465927342E+02  0.47000000000E+01 0. -1.
        -11    1    1    2    0    0  0.25777068424E+02  0.55195247523E+01  0.82191790696E+02  0.86315774155E+02  0.00000000000E+00 0.  1.
         11    1    1    2    0    0 -0.58233451526E+02  0.49700277324E+02  0.83303125194E+02  0.11314001551E+03  0.00000000000E+00 0. -1.
<mgrwt>
<rscale>  0 0.13252901E+03</rscale>
<asrwt>0</asrwt>
<pdfrwt beam="2">  1        1 0.61716492E-02 0.14045776E+03</pdfrwt>
<pdfrwt beam="1">  1       -1 0.60870826E-01 0.14045776E+03</pdfrwt>
<totfact> 0.33839427E+03</totfact>
</mgrwt>
</event>
<event>
 7    1  0.8165933E-006  0.1395707E+03  0.7546771E-02  0.1225338E+00
          2   -1    0    0  501    0  0.00000000000E+00  0.00000000000E+00  0.21108916011E+04  0.21108916011E+04  0.00000000000E+00 0. -1.
         -2   -1    0    0    0  501 -0.00000000000E+00 -0.00000000000E+00 -0.89548372092E+01  0.89548372092E+01  0.00000000000E+00 0.  1.
         23    2    1    2    0    0  0.25100859896E+02  0.56799373903E+02  0.15984410215E+04  0.16045228787E+04  0.12499498812E+03 0.  0.
          5    1    3    3  502    0  0.11216688222E+02  0.51558099816E+02  0.15777040184E+04  0.15785930797E+04  0.47000000000E+01 0. -1.
         -5    1    3    3    0  502  0.13884171674E+02  0.52412740878E+01  0.20737003134E+02  0.25929798999E+02  0.47000000000E+01 0. -1.
        -11    1    1    2    0    0 -0.42283484644E+02 -0.72516471495E+02  0.43359599702E+03  0.44164694083E+03  0.00000000000E+00 0.  1.
         11    1    1    2    0    0  0.17182624748E+02  0.15717097591E+02  0.69899745338E+02  0.73676618736E+02  0.00000000000E+00 0. -1.
<mgrwt>
<rscale>  0 0.13143796E+03</rscale>
<asrwt>0</asrwt>
<pdfrwt beam="1">  1        2 0.32475216E+00 0.13957066E+03</pdfrwt>
<pdfrwt beam="2">  1       -2 0.13776689E-02 0.13957066E+03</pdfrwt>
<totfact> 0.85679890E+03</totfact>
</mgrwt>
</event>
<event>
 7    1  0.8165933E-006  0.1445957E+03  0.7546771E-02  0.1216086E+00
         -1   -1    0    0    0  501 -0.00000000000E+00  0.00000000000E+00  0.14843174172E+03  0.14843174172E+03  0.00000000000E+00 0.  1.
          1   -1    0    0  501    0  0.00000000000E+00 -0.00000000000E+00 -0.11782417028E+03  0.11782417028E+03  0.00000000000E+00 0. -1.
         23    2    1    2    0    0 -0.44671705146E+02  0.57365159447E+02  0.14652110018E+02  0.14533613816E+03  0.12498634312E+03 0.  0.
          5    1    3    3  502    0 -0.42608259694E+02  0.92746403787E+02 -0.88425464288E+01  0.10255554513E+03  0.47000000000E+01 0.  1.
         -5    1    3    3    0  502 -0.20634454519E+01 -0.35381244340E+02  0.23494656446E+02  0.42780593026E+02  0.47000000000E+01 0.  1.
        -11    1    1    2    0    0 -0.27255734045E+02 -0.34774568823E+02  0.18627372809E+01  0.44222341246E+02  0.00000000000E+00 0.  1.
         11    1    1    2    0    0  0.71927439191E+02 -0.22590590625E+02  0.14092724136E+02  0.76697432597E+02  0.00000000000E+00 0. -1.
<mgrwt>
<rscale>  0 0.13797083E+03</rscale>
<asrwt>0</asrwt>
<pdfrwt beam="2">  1        1 0.18126795E-01 0.14459567E+03</pdfrwt>
<pdfrwt beam="1">  1       -1 0.22835653E-01 0.14459567E+03</pdfrwt>
<totfact> 0.45173884E+03</totfact>
</mgrwt>
</event>
<event>
 7    1  0.8165933E-006  0.1275508E+03  0.7546771E-02  0.1246806E+00
         -1   -1    0    0    0  501 -0.00000000000E+00  0.00000000000E+00  0.12334993504E+02  0.12334993504E+02  0.00000000000E+00 0.  1.
          1   -1    0    0  501    0  0.00000000000E+00 -0.00000000000E+00 -0.21892931113E+04  0.21892931113E+04  0.00000000000E+00 0. -1.
         23    2    1    2    0    0 -0.14388111505E+02 -0.20934396228E+02 -0.19781364110E+04  0.19822444032E+04  0.12499578741E+03 0.  0.
          5    1    3    3  502    0  0.24927252330E+02  0.75501021607E+01 -0.16749807678E+04  0.16751898502E+04  0.47000000000E+01 0. -1.
         -5    1    3    3    0  502 -0.39315363835E+02 -0.28484498389E+02 -0.30315564321E+03  0.30705455296E+03  0.47000000000E+01 0. -1.
        -11    1    1    2    0    0 -0.30424566210E+01 -0.15903488953E+02  0.23942937105E+00  0.16193666342E+02  0.00000000000E+00 0.  1.
         11    1    1    2    0    0  0.17430568126E+02  0.36837885181E+02 -0.19906113617E+03  0.20319003525E+03  0.00000000000E+00 0. -1.
<mgrwt>
<rscale>  0 0.11777940E+03</rscale>
<asrwt>0</asrwt>
<pdfrwt beam="2">  1        1 0.33681418E+00 0.12755083E+03</pdfrwt>
<pdfrwt beam="1">  1       -1 0.18976921E-02 0.12755083E+03</pdfrwt>
<totfact> 0.18915025E+03</totfact>
</mgrwt>
</event>
<event>
 7    1  0.8165933E-006  0.1255876E+03  0.7546771E-02  0.1251729E+00
          1   -1    0    0  501    0  0.00000000000E+00  0.00000000000E+00  0.27129394414E+02  0.27129394414E+02  0.00000000000E+00 0. -1.
         -1   -1    0    0    0  501 -0.00000000000E+00 -0.00000000000E+00 -0.43257057538E+03  0.43257057538E+03  0.00000000000E+00 0.  1.
         23    2    1    2    0    0 -0.37454077334E+01 -0.11559367117E+02 -0.19960627459E+03  0.23582813178E+03  0.12499838333E+03 0.  0.
          5    1    3    3  502    0  0.41041887124E+02  0.76040674731E+01 -0.14617618629E+02  0.44474971784E+02  0.47000000000E+01 0. -1.
         -5    1    3    3    0  502 -0.44787294857E+02 -0.19163434590E+02 -0.18498865597E+03  0.19135316000E+03  0.47000000000E+01 0. -1.
        -11    1    1    2    0    0  0.40355672407E+02  0.26611207820E+02 -0.11880503791E+03  0.12826290855E+03  0.00000000000E+00 0. -1.
         11    1    1    2    0    0 -0.36610264674E+02 -0.15051840704E+02 -0.87029868456E+02  0.95608929455E+02  0.00000000000E+00 0.  1.
<mgrwt>
<rscale>  0 0.11491505E+03</rscale>
<asrwt>0</asrwt>
<pdfrwt beam="1">  1        1 0.41737529E-02 0.12558759E+03</pdfrwt>
<pdfrwt beam="2">  1       -1 0.66549320E-01 0.12558759E+03</pdfrwt>
<totfact> 0.48260935E+03</totfact>
</mgrwt>
</event>
<event>
 7    1  0.8165933E-006  0.1426865E+03  0.7546771E-02  0.1221183E+00
         -1   -1    0    0    0  501 -0.00000000000E+00  0.00000000000E+00  0.43348378468E+03  0.43348378468E+03  0.00000000000E+00 0.  1.
          1   -1    0    0  501    0  0.00000000000E+00 -0.00000000000E+00 -0.39537269930E+02  0.39537269930E+02  0.00000000000E+00 0. -1.
         23    2    1    2    0    0  0.59271244894E+02 -0.34941587380E+02  0.16509171104E+03  0.21820792429E+03  0.12500172066E+03 0.  0.
          5    1    3    3  502    0  0.55818753151E+02 -0.54290815375E+02  0.17792080209E+03  0.19427075861E+03  0.47000000000E+01 0.  1.
         -5    1    3    3    0  502  0.34524917431E+01  0.19349227995E+02 -0.12829091047E+02  0.23937165671E+02  0.47000000000E+01 0.  1.
        -11    1    1    2    0    0 -0.36432985002E+02 -0.24668432944E+02  0.12900534863E+03  0.13630214216E+03  0.00000000000E+00 0.  1.
         11    1    1    2    0    0 -0.22838259892E+02  0.59610020324E+02  0.99849455079E+02  0.11851098817E+03  0.00000000000E+00 0. -1.
<mgrwt>
<rscale>  0 0.13431981E+03</rscale>
<asrwt>0</asrwt>
<pdfrwt beam="2">  1        1 0.60826572E-02 0.14268646E+03</pdfrwt>
<pdfrwt beam="1">  1       -1 0.66689810E-01 0.14268646E+03</pdfrwt>
<totfact> 0.28965335E+03</totfact>
</mgrwt>
</event>
<event>
 7    1  0.8165933E-006  0.1436603E+03  0.7546771E-02  0.1219120E+00
          2   -1    0    0  501    0  0.00000000000E+00  0.00000000000E+00  0.21932900009E+03  0.21932900009E+03  0.00000000000E+00 0.  1.
         -2   -1    0    0    0  501 -0.00000000000E+00 -0.00000000000E+00 -0.76269353117E+02  0.76269353117E+02  0.00000000000E+00 0. -1.
         23    2    1    2    0    0 -0.69019449856E+02 -0.15486660071E+02  0.87362779588E+02  0.16813845995E+03  0.12503905533E+03 0.  0.
          5    1    3    3  502    0 -0.90265295587E+02  0.13298620486E+02  0.94404704858E+02  0.13137357114E+03  0.47000000000E+01 0.  1.
         -5    1    3    3    0  502  0.21245845731E+02 -0.28785280557E+02 -0.70419252698E+01  0.36764888808E+02  0.47000000000E+01 0.  1.
        -11    1    1    2    0    0  0.74599150615E+02  0.25456323551E+02  0.89410028920E+01  0.79328426267E+02  0.00000000000E+00 0. -1.
         11    1    1    2    0    0 -0.55797007588E+01 -0.99696634804E+01  0.46755864492E+02  0.48131466992E+02  0.00000000000E+00 0.  1.
<mgrwt>
<rscale>  0 0.13578227E+03</rscale>
<asrwt>0</asrwt>
<pdfrwt beam="1">  1        2 0.33742923E-01 0.14366032E+03</pdfrwt>
<pdfrwt beam="2">  1       -2 0.11733747E-01 0.14366032E+03</pdfrwt>
<totfact> 0.75219920E+03</totfact>
</mgrwt>
</event>
<event>
 7    1  0.8165933E-006  0.1553328E+03  0.7546771E-02  0.1202355E+00
         -1   -1    0    0    0  501 -0.00000000000E+00  0.00000000000E+00  0.19637508574E+02  0.19637508574E+02  0.00000000000E+00 0.  1.
          1   -1    0    0  501    0  0.00000000000E+00 -0.00000000000E+00 -0.10491958850E+04  0.10491958850E+04  0.00000000000E+00 0. -1.
         23    2    1    2    0    0  0.11735821775E+02 -0.91449586303E+02 -0.62422908314E+03  0.64326527582E+03  0.12501004154E+03 0.  0.
          5    1    3    3  502    0  0.13675894865E+02  0.25349997282E+02 -0.56157617883E+02  0.63288391581E+02  0.47000000000E+01 0.  1.
         -5    1    3    3    0  502 -0.19400730903E+01 -0.11679958358E+03 -0.56807146526E+03  0.57997688424E+03  0.47000000000E+01 0.  1.
        -11    1    1    2    0    0 -0.47029484001E+02  0.72022806523E+02 -0.31739446556E+03  0.32884388970E+03  0.00000000000E+00 0. -1.
         11    1    1    2    0    0  0.35293662226E+02  0.19426779780E+02 -0.87934827708E+02  0.96724228040E+02  0.00000000000E+00 0.  1.
<mgrwt>
<rscale>  0 0.14847861E+03</rscale>
<asrwt>0</asrwt>
<pdfrwt beam="2">  1        1 0.16141481E+00 0.15533276E+03</pdfrwt>
<pdfrwt beam="1">  1       -1 0.30211541E-02 0.15533276E+03</pdfrwt>
<totfact> 0.53821340E+03</totfact>
</mgrwt>
</event>
<event>
 7    1  0.8165933E-006  0.1440315E+03  0.7546771E-02  0.1218431E+00
         -1   -1    0    0    0  501 -0.00000000000E+00  0.00000000000E+00  0.17670494988E+02  0.17670494988E+02  0.00000000000E+00 0.  1.
          1   -1    0    0  501    0  0.00000000000E+00 -0.00000000000E+00 -0.15728255260E+04  0.15728255260E+04  0.00000000000E+00 0. -1.
         23    2    1    2    0    0 -0.40497267925E+02  0.58888922220E+02 -0.13271242149E+04  0.13349171321E+04  0.12504852632E+03 0.  0.
          5    1    3    3  502    0 -0.14135869716E+02 -0.37261802093E+02 -0.25264347549E+03  0.25581063390E+03  0.47000000000E+01 0. -1.
         -5    1    3    3    0  502 -0.26361398209E+02  0.96150724313E+02 -0.10744807394E+04  0.10791064982E+04  0.47000000000E+01 0. -1.
        -11    1    1    2    0    0  0.54309102154E+02 -0.27026153904E+02 -0.20529719054E+03  0.21407201595E+03  0.00000000000E+00 0. -1.
         11    1    1    2    0    0 -0.13811834228E+02 -0.31862768316E+02 -0.22733625591E+02  0.41506872949E+02  0.00000000000E+00 0.  1.
<mgrwt>
<rscale>  0 0.13627505E+03</rscale>
<asrwt>0</asrwt>
<pdfrwt beam="2">  1        1 0.24197318E+00 0.14403148E+03</pdfrwt>
<pdfrwt beam="1">  1       -1 0.27185374E-02 0.14403148E+03</pdfrwt>
<totfact> 0.27805144E+03</totfact>
</mgrwt>
</event>
<event>
 7    1  0.8165933E-006  0.1297868E+03  0.7546771E-02  0.1242191E+00
          1   -1    0    0  501    0  0.00000000000E+00  0.00000000000E+00  0.17416948147E+02  0.17416948147E+02  0.00000000000E+00 0. -1.
         -1   -1    0    0    0  501 -0.00000000000E+00 -0.00000000000E+00 -0.75812622823E+03  0.75812622823E+03  0.00000000000E+00 0.  1.
         23    2    1    2    0    0 -0.31848740582E+01 -0.34788652266E+02 -0.35699738826E+03  0.37985753700E+03  0.12499687775E+03 0.  0.
          5    1    3    3  502    0  0.11543687143E+02  0.38061289662E+02 -0.22288982401E+03  0.22645944920E+03  0.47000000000E+01 0.  1.
         -5    1    3    3    0  502 -0.14728561202E+02 -0.72849941929E+02 -0.13410756425E+03  0.15339808781E+03  0.47000000000E+01 0.  1.
        -11    1    1    2    0    0  0.45649384112E+02  0.90417621056E+01 -0.16753579927E+03  0.17387887672E+03  0.00000000000E+00 0. -1.
         11    1    1    2    0    0 -0.42464510054E+02  0.25746890161E+02 -0.21617609256E+03  0.22180676266E+03  0.00000000000E+00 0.  1.
<mgrwt>
<rscale>  0 0.12055120E+03</rscale>
<asrwt>0</asrwt>
<pdfrwt beam="1">  1        1 0.26795301E-02 0.12978680E+03</pdfrwt>
<pdfrwt beam="2">  1       -1 0.11663482E+00 0.12978680E+03</pdfrwt>
<totfact> 0.27222274E+03</totfact>
</mgrwt>
</event>
<event>
 7    1  0.8165933E-006  0.1180794E+03  0.7546771E-02  0.1321983E+00
          2   -1    0    0  501    0  0.00000000000E+00  0.00000000000E+00  0.13498451667E+04  0.13498451667E+04  0.00000000000E+00 0. -1.
         -2   -1    0    0    0  501 -0.00000000000E+00 -0.00000000000E+00 -0.17807959687E+02  0.17807959687E+02  0.00000000000E+00 0.  1.
         23    2    1    2    0    0 -0.15598611520E+01 -0.13911120017E+02  0.13341603361E+04  0.13393754344E+04  0.11724674594E+03 0.  0.
          5    1    3    3  502    0  0.16411947045E+02  0.26945232500E+00  0.12831814291E+04  0.12832950147E+04  0.47000000000E+01 0. -1.
         -5    1    3    3    0  502 -0.17971808197E+02 -0.14180572342E+02  0.50978906985E+02  0.56080419749E+02  0.47000000000E+01 0.  1.
        -11    1    1    2    0    0  0.12152093833E+02  0.59996288526E+01  0.33636738644E+01  0.13963639667E+02  0.00000000000E+00 0. -1.
         11    1    1    2    0    0 -0.10592232681E+02  0.79114911643E+01 -0.54868029901E+01  0.14314052279E+02  0.00000000000E+00 0.  1.
<mgrwt>
<rscale>  0 0.82543862E+02</rscale>
<asrwt>0</asrwt>
<pdfrwt beam="1">  1        2 0.20766841E+00 0.11807943E+03</pdfrwt>
<pdfrwt beam="2">  1       -2 0.27396872E-02 0.11807943E+03</pdfrwt>
<totfact> 0.77492903E+03</totfact>
</mgrwt>
</event>
<event>
 7    1  0.8165933E-006  0.1548097E+03  0.7546771E-02  0.1201850E+00
          4   -1    0    0  501    0  0.00000000000E+00  0.00000000000E+00  0.63978210901E+02  0.63978210901E+02  0.00000000000E+00 0. -1.
         -4   -1    0    0    0  501 -0.00000000000E+00 -0.00000000000E+00 -0.34743089926E+03  0.34743089926E+03  0.00000000000E+00 0.  1.
         23    2    1    2    0    0  0.57132401265E+02  0.71251443201E+02 -0.96931244184E+02  0.18265184377E+03  0.12500060200E+03 0.  0.
          5    1    3    3  502    0  0.80179251797E+02  0.91278762335E+02 -0.63627726661E+02  0.13722646418E+03  0.47000000000E+01 0.  1.
         -5    1    3    3    0  502 -0.23046850532E+02 -0.20027319134E+02 -0.33303517523E+02  0.45425379587E+02  0.47000000000E+01 0.  1.
        -11    1    1    2    0    0 -0.24395538235E+02 -0.75148695118E+02 -0.17793748085E+03  0.19469005048E+03  0.00000000000E+00 0.  1.
         11    1    1    2    0    0 -0.32736863031E+02  0.38972519172E+01 -0.85839633225E+01  0.34067215911E+02  0.00000000000E+00 0. -1.
<mgrwt>
<rscale>  0 0.14888506E+03</rscale>
<asrwt>0</asrwt>
<pdfrwt beam="1">  1        4 0.98428016E-02 0.15480966E+03</pdfrwt>
<pdfrwt beam="2">  1       -4 0.53450908E-01 0.15480966E+03</pdfrwt>
<totfact> 0.44850454E+02</totfact>
</mgrwt>
</event>
<event>
 7    1  0.8165933E-006  0.1693859E+03  0.7546771E-02  0.1185151E+00
         -1   -1    0    0    0  501 -0.00000000000E+00  0.00000000000E+00  0.65767397861E+02  0.65767397861E+02  0.00000000000E+00 0.  1.
          1   -1    0    0  501    0  0.00000000000E+00 -0.00000000000E+00 -0.40998549884E+03  0.40998549884E+03  0.00000000000E+00 0. -1.
         23    2    1    2    0    0  0.33215266064E+02 -0.10939582596E+03 -0.25034187268E+03  0.30226253705E+03  0.12498354872E+03 0.  0.
          5    1    3    3  502    0 -0.26775236177E+02 -0.10426958891E+03 -0.17742997210E+03  0.20758744047E+03  0.47000000000E+01 0. -1.
         -5    1    3    3    0  502  0.59990502241E+02 -0.51262370469E+01 -0.72911900579E+02  0.94675096575E+02  0.47000000000E+01 0. -1.
        -11    1    1    2    0    0  0.77326517418E+01  0.54165411216E+02 -0.89115266970E+02  0.10457158544E+03  0.00000000000E+00 0. -1.
         11    1    1    2    0    0 -0.40947917806E+02  0.55230414739E+02 -0.47609613269E+01  0.68918774203E+02  0.00000000000E+00 0.  1.
<mgrwt>
<rscale>  0 0.16318120E+03</rscale>
<asrwt>0</asrwt>
<pdfrwt beam="2">  1        1 0.63074692E-01 0.16938591E+03</pdfrwt>
<pdfrwt beam="1">  1       -1 0.10118061E-01 0.16938591E+03</pdfrwt>
<totfact> 0.34364987E+03</totfact>
</mgrwt>
</event>
<event>
 7    1  0.8165933E-006  0.1541575E+03  0.7546771E-02  0.1203111E+00
          2   -1    0    0  501    0  0.00000000000E+00  0.00000000000E+00  0.10380257149E+04  0.10380257149E+04  0.00000000000E+00 0. -1.
         -2   -1    0    0    0  501 -0.00000000000E+00 -0.00000000000E+00 -0.54704849975E+02  0.54704849975E+02  0.00000000000E+00 0.  1.
         23    2    1    2    0    0  0.86853969207E+02 -0.24426632973E+02  0.94387909095E+03  0.95638500789E+03  0.12499709040E+03 0.  0.
          5    1    3    3  502    0  0.11107816144E+03 -0.21542830289E+02  0.88850816846E+03  0.89569599022E+03  0.47000000000E+01 0.  1.
         -5    1    3    3    0  502 -0.24224192230E+02 -0.28838026842E+01  0.55370922495E+02  0.60689017664E+02  0.47000000000E+01 0.  1.
        -11    1    1    2    0    0 -0.21818016652E+02 -0.35675287445E+02  0.15650235989E+02  0.44650664849E+02  0.00000000000E+00 0. -1.
         11    1    1    2    0    0 -0.65035952556E+02  0.60101920418E+02  0.23791537969E+02  0.91694892124E+02  0.00000000000E+00 0.  1.
<mgrwt>
<rscale>  0 0.14787324E+03</rscale>
<asrwt>0</asrwt>
<pdfrwt beam="1">  1        2 0.15969625E+00 0.15415753E+03</pdfrwt>
<pdfrwt beam="2">  1       -2 0.84161315E-02 0.15415753E+03</pdfrwt>
<totfact> 0.21586620E+03</totfact>
</mgrwt>
</event>
<event>
 7    1  0.8165933E-006  0.1279600E+03  0.7546771E-02  0.1245289E+00
          2   -1    0    0  501    0  0.00000000000E+00  0.00000000000E+00  0.23776399580E+02  0.23776399580E+02  0.00000000000E+00 0. -1.
         -2   -1    0    0    0  501 -0.00000000000E+00 -0.00000000000E+00 -0.54288882503E+03  0.54288882503E+03  0.00000000000E+00 0.  1.
         23    2    1    2    0    0  0.59525597359E+01 -0.26518232627E+02 -0.24082217981E+03  0.27270694838E+03  0.12504042458E+03 0.  0.
          5    1    3    3  502    0  0.63479957892E+02 -0.28368710632E+02 -0.11935011857E+03  0.13820647452E+03  0.47000000000E+01 0. -1.
         -5    1    3    3    0  502 -0.57527398156E+02  0.18504780058E+01 -0.12147206124E+03  0.13450047386E+03  0.47000000000E+01 0. -1.
        -11    1    1    2    0    0 -0.32312579729E+02 -0.16515945905E+02 -0.17828990210E+03  0.18194550961E+03  0.00000000000E+00 0. -1.
         11    1    1    2    0    0  0.26360019993E+02  0.43034178531E+02 -0.10000034354E+03  0.11201276661E+03  0.00000000000E+00 0.  1.
<mgrwt>
<rscale>  0 0.11868081E+03</rscale>
<asrwt>0</asrwt>
<pdfrwt beam="1">  1        2 0.36579079E-02 0.12795998E+03</pdfrwt>
<pdfrwt beam="2">  1       -2 0.83521352E-01 0.12795998E+03</pdfrwt>
<totfact> 0.29407783E+03</totfact>
</mgrwt>
</event>
<event>
 7    1  0.8165933E-006  0.1435202E+03  0.7546771E-02  0.1220289E+00
         -2   -1    0    0    0  501 -0.00000000000E+00  0.00000000000E+00  0.12490506484E+02  0.12490506484E+02  0.00000000000E+00 0.  1.
          2   -1    0    0  501    0  0.00000000000E+00 -0.00000000000E+00 -0.15676544546E+04  0.15676544546E+04  0.00000000000E+00 0. -1.
         23    2    1    2    0    0 -0.67978812193E+02  0.18777042031E+02 -0.11761589412E+04  0.11848830733E+04  0.12499738429E+03 0.  0.
          5    1    3    3  502    0 -0.71277442014E+02 -0.82051979898E+01 -0.30782069338E+03  0.31610673560E+03  0.47000000000E+01 0.  1.
         -5    1    3    3    0  502  0.32986298205E+01  0.26982240021E+02 -0.86833824784E+03  0.86877633767E+03  0.47000000000E+01 0.  1.
        -11    1    1    2    0    0  0.53431758367E+02  0.29066461817E+02 -0.17701780988E+03  0.18717669999E+03  0.00000000000E+00 0.  1.
         11    1    1    2    0    0  0.14547053826E+02 -0.47843503849E+02 -0.20198719698E+03  0.20808518780E+03  0.00000000000E+00 0. -1.
<mgrwt>
<rscale>  0 0.13495088E+03</rscale>
<asrwt>0</asrwt>
<pdfrwt beam="2">  1        2 0.24117765E+00 0.14352018E+03</pdfrwt>
<pdfrwt beam="1">  1       -2 0.19216161E-02 0.14352018E+03</pdfrwt>
<totfact> 0.10070988E+04</totfact>
</mgrwt>
</event>
<event>
 6    1  0.8165933E-006  0.1459191E+03  0.7546771E-02  0.1227598E+00
         -2   -1    0    0    0  501 -0.00000000000E+00  0.00000000000E+00  0.42765032001E+02  0.42765032001E+02  0.00000000000E+00 0.  1.
          2   -1    0    0  501    0  0.00000000000E+00 -0.00000000000E+00 -0.35812789213E+03  0.35812789213E+03  0.00000000000E+00 0. -1.
          5    1    1    2  502    0  0.12266298824E+02 -0.80082299662E+01 -0.25789066293E+03  0.25834913946E+03  0.47000000000E+01 0. -1.
         -5    1    1    2    0  502 -0.49591930509E+00 -0.24125140112E+02  0.12170887586E+02  0.27431529779E+02  0.47000000000E+01 0.  1.
        -11    1    1    2    0    0  0.35910769477E+02  0.44014885157E+01 -0.32310115979E+02  0.48506701188E+02  0.00000000000E+00 0.  1.
         11    1    1    2    0    0 -0.47681148996E+02  0.27731881562E+02 -0.37332968812E+02  0.66605553709E+02  0.00000000000E+00 0. -1.
<mgrwt>
<rscale>  0 0.12990425E+03</rscale>
<asrwt>0</asrwt>
<pdfrwt beam="2">  1        2 0.55096598E-01 0.14591910E+03</pdfrwt>
<pdfrwt beam="1">  1       -2 0.65792358E-02 0.14591910E+03</pdfrwt>
<totfact> 0.11005420E+04</totfact>
</mgrwt>
</event>
<event>
 7    1  0.8165933E-006  0.1451340E+03  0.7546771E-02  0.1216969E+00
          1   -1    0    0  501    0  0.00000000000E+00  0.00000000000E+00  0.23494071978E+03  0.23494071978E+03  0.00000000000E+00 0. -1.
         -1   -1    0    0    0  501 -0.00000000000E+00 -0.00000000000E+00 -0.10235410445E+03  0.10235410445E+03  0.00000000000E+00 0.  1.
         23    2    1    2    0    0  0.40810576232E+02 -0.61427745818E+02  0.16178578492E+03  0.21734424325E+03  0.12500003513E+03 0.  0.
          5    1    3    3  502    0  0.51178004320E+02 -0.35781253408E+01  0.73533825114E+01  0.52039920652E+02  0.47000000000E+01 0.  1.
         -5    1    3    3    0  502 -0.10367428089E+02 -0.57849620477E+02  0.15443240241E+03  0.16530432259E+03  0.47000000000E+01 0.  1.
        -11    1    1    2    0    0 -0.33686621022E+02  0.83073937436E+02 -0.35325208497E+02  0.96353193368E+02  0.00000000000E+00 0.  1.
         11    1    1    2    0    0 -0.71239552099E+01 -0.21646191618E+02  0.61260389051E+01  0.23597387611E+02  0.00000000000E+00 0. -1.
<mgrwt>
<rscale>  0 0.13732872E+03</rscale>
<asrwt>0</asrwt>
<pdfrwt beam="1">  1        1 0.36144726E-01 0.14513401E+03</pdfrwt>
<pdfrwt beam="2">  1       -1 0.15746785E-01 0.14513401E+03</pdfrwt>
<totfact> 0.34400648E+03</totfact>
</mgrwt>
</event>
<event>
 7    1  0.8165933E-006  0.2107859E+03  0.7546771E-02  0.1142741E+00
         -2   -1    0    0    0  501 -0.00000000000E+00  0.00000000000E+00  0.15055601273E+03  0.15055601273E+03  0.00000000000E+00 0.  1.
          2   -1    0    0  501    0  0.00000000000E+00 -0.00000000000E+00 -0.28391095444E+03  0.28391095444E+03  0.00000000000E+00 0. -1.
         23    2    1    2    0    0 -0.15268785919E+03  0.74142512199E+02 -0.81871280910E+02  0.22612744002E+03  0.12498007054E+03 0.  0.
          5    1    3    3  502    0 -0.72606083140E+00  0.57529080004E+02 -0.25874628342E+02  0.63259059448E+02  0.47000000000E+01 0.  1.
         -5    1    3    3    0  502 -0.15196179836E+03  0.16613432195E+02 -0.55996652568E+02  0.16286838057E+03  0.47000000000E+01 0.  1.
        -11    1    1    2    0    0  0.64339909383E+02 -0.67552389728E+02 -0.71469826354E+02  0.11751972335E+03  0.00000000000E+00 0. -1.
         11    1    1    2    0    0  0.88347949811E+02 -0.65901224712E+01  0.19986165550E+02  0.90819803806E+02  0.00000000000E+00 0.  1.
<mgrwt>
<rscale>  0 0.20852281E+03</rscale>
<asrwt>0</asrwt>
<pdfrwt beam="2">  1        2 0.43678608E-01 0.21078594E+03</pdfrwt>
<pdfrwt beam="1">  1       -2 0.23162464E-01 0.21078594E+03</pdfrwt>
<totfact> 0.18729096E+03</totfact>
</mgrwt>
</event>
<event>
 7    1  0.8165933E-006  0.1254854E+03  0.7546771E-02  0.1250681E+00
          2   -1    0    0  501    0  0.00000000000E+00  0.00000000000E+00  0.12681837641E+04  0.12681837641E+04  0.00000000000E+00 0. -1.
         -2   -1    0    0    0  501 -0.00000000000E+00 -0.00000000000E+00 -0.23827341473E+02  0.23827341473E+02  0.00000000000E+00 0.  1.
         23    2    1    2    0    0  0.83328985024E+01 -0.69893614438E+01  0.11655824965E+04  0.11723178487E+04  0.12501317497E+03 0.  0.
          5    1    3    3  502    0  0.65625367847E+02 -0.12558889338E+02  0.56157616874E+03  0.56555662661E+03  0.47000000000E+01 0.  1.
         -5    1    3    3    0  502 -0.57292469344E+02  0.55695278946E+01  0.60400632774E+03  0.60676122210E+03  0.47000000000E+01 0.  1.
        -11    1    1    2    0    0 -0.13859715340E+02 -0.35205379286E+02  0.64554879347E+02  0.74825416053E+02  0.00000000000E+00 0. -1.
         11    1    1    2    0    0  0.55268168374E+01  0.42194740730E+02  0.14219046830E+02  0.44867840848E+02  0.00000000000E+00 0.  1.
<mgrwt>
<rscale>  0 0.11551730E+03</rscale>
<asrwt>0</asrwt>
<pdfrwt beam="1">  1        2 0.19510514E+00 0.12548539E+03</pdfrwt>
<pdfrwt beam="2">  1       -2 0.36657458E-02 0.12548539E+03</pdfrwt>
<totfact> 0.56013800E+03</totfact>
</mgrwt>
</event>
<event>
 7    1  0.8165933E-006  0.1672169E+03  0.7546771E-02  0.1187187E+00
         -2   -1    0    0    0  501 -0.00000000000E+00  0.00000000000E+00  0.15289508256E+02  0.15289508256E+02  0.00000000000E+00 0.  1.
          2   -1    0    0  501    0  0.00000000000E+00 -0.00000000000E+00 -0.20707387654E+04  0.20707387654E+04  0.00000000000E+00 0. -1.
         23    2    1    2    0    0  0.45511069698E+02 -0.10131259104E+03 -0.15840260608E+04  0.15928276920E+04  0.12500398620E+03 0.  0.
          5    1    3    3  502    0  0.72333281066E+02 -0.82522764982E+02 -0.73542645738E+03  0.74358340117E+03  0.47000000000E+01 0. -1.
         -5    1    3    3    0  502 -0.26822211368E+02 -0.18789826055E+02 -0.84859960346E+03  0.84924429087E+03  0.47000000000E+01 0. -1.
        -11    1    1    2    0    0  0.27130418832E+02  0.37897027840E+02 -0.11835252676E+03  0.12719891876E+03  0.00000000000E+00 0.  1.
         11    1    1    2    0    0 -0.72641488529E+02  0.63415563197E+02 -0.35307066957E+03  0.36600166287E+03  0.00000000000E+00 0. -1.
<mgrwt>
<rscale>  0 0.16134504E+03</rscale>
<asrwt>0</asrwt>
<pdfrwt beam="2">  1        2 0.31857518E+00 0.16721691E+03</pdfrwt>
<pdfrwt beam="1">  1       -2 0.23522321E-02 0.16721691E+03</pdfrwt>
<totfact> 0.41424031E+03</totfact>
</mgrwt>
</event>
<event>
 7    1  0.8165933E-006  0.1441827E+03  0.7546771E-02  0.1217198E+00
         -2   -1    0    0    0  501 -0.00000000000E+00  0.00000000000E+00  0.21403566921E+02  0.21403566921E+02  0.00000000000E+00 0. -1.
          2   -1    0    0  501    0  0.00000000000E+00 -0.00000000000E+00 -0.83121623119E+03  0.83121623119E+03  0.00000000000E+00 0.  1.
         23    2    1    2    0    0  0.94767396961E+01 -0.71247394781E+02 -0.52138257255E+03  0.54095140737E+03  0.12499055289E+03 0.  0.
          5    1    3    3  502    0 -0.45731414803E+02 -0.55258710644E+02 -0.40192650036E+03  0.40830367264E+03  0.47000000000E+01 0. -1.
         -5    1    3    3    0  502  0.55208154499E+02 -0.15988684137E+02 -0.11945607220E+03  0.13264773473E+03  0.47000000000E+01 0. -1.
        -11    1    1    2    0    0  0.29177125696E+02  0.20057936516E+01 -0.14361471379E+03  0.14656232083E+03  0.00000000000E+00 0.  1.
         11    1    1    2    0    0 -0.38653865392E+02  0.69241601129E+02 -0.14481537792E+03  0.16510606990E+03  0.00000000000E+00 0. -1.
<mgrwt>
<rscale>  0 0.13716336E+03</rscale>
<asrwt>0</asrwt>
<pdfrwt beam="2">  1        2 0.12787941E+00 0.14418266E+03</pdfrwt>
<pdfrwt beam="1">  1       -2 0.32928567E-02 0.14418266E+03</pdfrwt>
<totfact> 0.11957949E+04</totfact>
</mgrwt>
</event>
<event>
 7    1  0.8165933E-006  0.1262180E+03  0.7546771E-02  0.1248232E+00
         -1   -1    0    0    0  501 -0.00000000000E+00  0.00000000000E+00  0.15108837528E+03  0.15108837528E+03  0.00000000000E+00 0.  1.
          1   -1    0    0  501    0  0.00000000000E+00 -0.00000000000E+00 -0.10258605693E+03  0.10258605693E+03  0.00000000000E+00 0. -1.
         23    2    1    2    0    0  0.17341356555E+02 -0.24312314008E+01 -0.32509318906E+02  0.13033739902E+03  0.12499739291E+03 0.  0.
          5    1    3    3  502    0  0.27653744150E+02  0.31717166767E+02  0.34276496417E+02  0.54476384240E+02  0.47000000000E+01 0.  1.
         -5    1    3    3    0  502 -0.10312387595E+02 -0.34148398168E+02 -0.66785815323E+02  0.75861014782E+02  0.47000000000E+01 0.  1.
        -11    1    1    2    0    0  0.69113785907E+01 -0.41608094743E+02  0.43651347227E+02  0.60699594866E+02  0.00000000000E+00 0. -1.
         11    1    1    2    0    0 -0.24252735146E+02  0.44039326143E+02  0.37360290023E+02  0.62637438324E+02  0.00000000000E+00 0.  1.
<mgrwt>
<rscale>  0 0.11693986E+03</rscale>
<asrwt>0</asrwt>
<pdfrwt beam="2">  1        1 0.15782470E-01 0.12621799E+03</pdfrwt>
<pdfrwt beam="1">  1       -1 0.23244365E-01 0.12621799E+03</pdfrwt>
<totfact> 0.51989363E+03</totfact>
</mgrwt>
</event>
<event>
 6    1  0.8165933E-006  0.1762820E+03  0.7546771E-02  0.1197338E+00
         -2   -1    0    0    0  501 -0.00000000000E+00  0.00000000000E+00  0.82538661879E+02  0.82538661879E+02  0.00000000000E+00 0.  1.
          2   -1    0    0  501    0  0.00000000000E+00 -0.00000000000E+00 -0.26343191740E+03  0.26343191740E+03  0.00000000000E+00 0. -1.
          5    1    1    2  502    0  0.41872959932E+02 -0.57933836952E+02 -0.17565336310E+03  0.18969941541E+03  0.47000000000E+01 0. -1.
         -5    1    1    2    0  502 -0.27377520283E+01  0.56637011728E+02  0.30953933800E+01  0.56981732545E+02  0.47000000000E+01 0.  1.
        -11    1    1    2    0    0 -0.41505910848E+02  0.40699529474E+02 -0.12922474227E+02  0.59549833542E+02  0.00000000000E+00 0.  1.
         11    1    1    2    0    0  0.23707029443E+01 -0.39402704249E+02  0.45871884246E+01  0.39739597787E+02  0.00000000000E+00 0. -1.
<mgrwt>
<rscale>  0 0.15258005E+03</rscale>
<asrwt>0</asrwt>
<pdfrwt beam="2">  1        2 0.40527988E-01 0.17628198E+03</pdfrwt>
<pdfrwt beam="1">  1       -2 0.12698256E-01 0.17628198E+03</pdfrwt>
<totfact> 0.55127738E+03</totfact>
</mgrwt>
</event>
<event>
 7    1  0.8165933E-006  0.1696440E+03  0.7546771E-02  0.1182992E+00
         -1   -1    0    0    0  501 -0.00000000000E+00  0.00000000000E+00  0.10964482941E+03  0.10964482941E+03  0.00000000000E+00 0.  1.
          1   -1    0    0  501    0  0.00000000000E+00 -0.00000000000E+00 -0.36802664586E+03  0.36802664586E+03  0.00000000000E+00 0. -1.
         23    2    1    2    0    0 -0.83244737347E+02  0.25932402444E+02 -0.26740690493E+03  0.30778756636E+03  0.12499822962E+03 0.  0.
          5    1    3    3  502    0 -0.96116412956E+02  0.54091615479E+02 -0.24662200770E+03  0.27020135526E+03  0.47000000000E+01 0.  1.
         -5    1    3    3    0  502  0.12871675609E+02 -0.28159213035E+02 -0.20784897229E+02  0.37586211096E+02  0.47000000000E+01 0.  1.
        -11    1    1    2    0    0  0.34757820029E+02  0.57479155654E+02 -0.18280046025E+02  0.69614075233E+02  0.00000000000E+00 0.  1.
         11    1    1    2    0    0  0.48486917318E+02 -0.83411558098E+02  0.27305134496E+02  0.10026983367E+03  0.00000000000E+00 0. -1.
<mgrwt>
<rscale>  0 0.16515906E+03</rscale>
<asrwt>0</asrwt>
<pdfrwt beam="2">  1        1 0.56619484E-01 0.16964401E+03</pdfrwt>
<pdfrwt beam="1">  1       -1 0.16868435E-01 0.16964401E+03</pdfrwt>
<totfact> 0.17741012E+03</totfact>
</mgrwt>
</event>
<event>
 7    1  0.8165933E-006  0.1481388E+03  0.7546771E-02  0.1207445E+00
          1   -1    0    0  501    0  0.00000000000E+00  0.00000000000E+00  0.30169729843E+03  0.30169729843E+03  0.00000000000E+00 0. -1.
         -1   -1    0    0    0  501 -0.00000000000E+00 -0.00000000000E+00 -0.66009100828E+02  0.66009100828E+02  0.00000000000E+00 0.  1.
         23    2    1    2    0    0  0.29035193080E+02 -0.91668441317E+02  0.11833731844E+03  0.18960176722E+03  0.11268967845E+03 0.  0.
          5    1    3    3  502    0 -0.23078299225E+02 -0.17519704569E+02  0.89788919523E+02  0.94465274109E+02  0.47000000000E+01 0. -1.
         -5    1    3    3    0  502  0.52113492306E+02 -0.74148736748E+02  0.28548398917E+02  0.95136493116E+02  0.47000000000E+01 0.  1.
        -11    1    1    2    0    0  0.24186853026E+02 -0.33788353833E+01  0.15183458552E+02  0.28756873986E+02  0.00000000000E+00 0.  1.
         11    1    1    2    0    0 -0.53222046106E+02  0.95047276700E+02  0.10216742061E+03  0.14934775805E+03  0.00000000000E+00 0. -1.
<mgrwt>
<rscale>  0 0.14446406E+03</rscale>
<asrwt>0</asrwt>
<pdfrwt beam="1">  1        1 0.46414968E-01 0.14813882E+03</pdfrwt>
<pdfrwt beam="2">  1       -1 0.10155246E-01 0.14813882E+03</pdfrwt>
<totfact> 0.49894533E+03</totfact>
</mgrwt>
</event>
<event>
 6    1  0.8165933E-006  0.1653451E+03  0.7546771E-02  0.1193340E+00
          2   -1    0    0  501    0  0.00000000000E+00  0.00000000000E+00  0.18046681340E+03  0.18046681340E+03  0.00000000000E+00 0. -1.
         -2   -1    0    0    0  501 -0.00000000000E+00 -0.00000000000E+00 -0.12429946053E+03  0.12429946053E+03  0.00000000000E+00 0.  1.
          5    1    1    2  502    0  0.19826937824E+02  0.37470937716E+01  0.85037314704E+02  0.87524756882E+02  0.47000000000E+01 0. -1.
         -5    1    1    2    0  502  0.34262552539E+02  0.72699729249E+02 -0.31235489557E+02  0.86353453592E+02  0.47000000000E+01 0.  1.
        -11    1    1    2    0    0  0.22895994858E+02 -0.39063744981E+02  0.24080141567E+00  0.45279804966E+02  0.00000000000E+00 0.  1.
         11    1    1    2    0    0 -0.76985485221E+02 -0.37383078040E+02  0.21247263068E+01  0.85608258482E+02  0.00000000000E+00 0. -1.
<mgrwt>
<rscale>  0 0.15595551E+03</rscale>
<asrwt>0</asrwt>
<pdfrwt beam="1">  1        2 0.27764125E-01 0.16534508E+03</pdfrwt>
<pdfrwt beam="2">  1       -2 0.19122994E-01 0.16534508E+03</pdfrwt>
<totfact> 0.42092571E+03</totfact>
</mgrwt>
</event>
<event>
 7    1  0.8165933E-006  0.1519189E+03  0.7546771E-02  0.1207195E+00
         -1   -1    0    0    0  501 -0.00000000000E+00  0.00000000000E+00  0.18765572288E+03  0.18765572288E+03  0.00000000000E+00 0.  1.
          1   -1    0    0  501    0  0.00000000000E+00 -0.00000000000E+00 -0.10212835249E+03  0.10212835249E+03  0.00000000000E+00 0. -1.
         23    2    1    2    0    0  0.83539309797E+02  0.21830470366E+02  0.43840881975E+02  0.15811820983E+03  0.12499583844E+03 0.  0.
          5    1    3    3  502    0  0.94102045014E+02  0.57859207732E+02  0.17328957415E+02  0.11191633286E+03  0.47000000000E+01 0. -1.
         -5    1    3    3    0  502 -0.10562735217E+02 -0.36028737366E+02  0.26511924560E+02  0.46201876968E+02  0.47000000000E+01 0. -1.
        -11    1    1    2    0    0 -0.67945644194E+02 -0.62067651911E+01  0.68670862514E+02  0.96803005415E+02  0.00000000000E+00 0.  1.
         11    1    1    2    0    0 -0.15593665603E+02 -0.15623705175E+02 -0.26984374103E+02  0.34862860124E+02  0.00000000000E+00 0. -1.
<mgrwt>
<rscale>  0 0.14465815E+03</rscale>
<asrwt>0</asrwt>
<pdfrwt beam="2">  1        1 0.15712054E-01 0.15191888E+03</pdfrwt>
<pdfrwt beam="1">  1       -1 0.28870111E-01 0.15191888E+03</pdfrwt>
<totfact> 0.36971321E+03</totfact>
</mgrwt>
</event>
<event>
 7    1  0.8165933E-006  0.1255833E+03  0.7546771E-02  0.1247014E+00
          2   -1    0    0  501    0  0.00000000000E+00  0.00000000000E+00  0.64594611471E+03  0.64594611471E+03  0.00000000000E+00 0.  1.
         -2   -1    0    0    0  501 -0.00000000000E+00 -0.00000000000E+00 -0.19708129743E+02  0.19708129743E+02  0.00000000000E+00 0. -1.
         23    2    1    2    0    0  0.91731909649E+01  0.77757213294E+01  0.40895980476E+03  0.42780753942E+03  0.12500623823E+03 0.  0.
          5    1    3    3  502    0  0.40112065745E+02 -0.31410954947E+02  0.79418340651E+02  0.94472158548E+02  0.47000000000E+01 0. -1.
         -5    1    3    3    0  502 -0.30938874780E+02  0.39186676276E+02  0.32954146411E+03  0.33333538087E+03  0.47000000000E+01 0. -1.
        -11    1    1    2    0    0 -0.10210790797E+02  0.42756981652E+02  0.12686173167E+03  0.13426212680E+03  0.00000000000E+00 0.  1.
         11    1    1    2    0    0  0.10375998317E+01 -0.50532702981E+02  0.90416448528E+02  0.10358457824E+03  0.00000000000E+00 0. -1.
<mgrwt>
<rscale>  0 0.11765643E+03</rscale>
<asrwt>0</asrwt>
<pdfrwt beam="1">  1        2 0.99376309E-01 0.12558331E+03</pdfrwt>
<pdfrwt beam="2">  1       -2 0.30320205E-02 0.12558331E+03</pdfrwt>
<totfact> 0.18122601E+04</totfact>
</mgrwt>
</event>
<event>
 7    1  0.8165933E-006  0.3895237E+03  0.7546771E-02  0.1047469E+00
          4   -1    0    0  501    0  0.00000000000E+00  0.00000000000E+00  0.43695682595E+03  0.43695682595E+03  0.00000000000E+00 0. -1.
         -4   -1    0    0    0  501 -0.00000000000E+00 -0.00000000000E+00 -0.86809888341E+02  0.86809888341E+02  0.00000000000E+00 0.  1.
         23    2    1    2    0    0  0.84131587377E+02 -0.25181035433E+02  0.21331925901E+03  0.26238101907E+03  0.12500593731E+03 0.  0.
          5    1    3    3  502    0  0.58453614148E+02  0.10770241704E+02  0.18304990671E+02  0.62369750655E+02  0.47000000000E+01 0.  1.
         -5    1    3    3    0  502  0.25677973229E+02 -0.35951277136E+02  0.19501426834E+03  0.20001126841E+03  0.47000000000E+01 0.  1.
        -11    1    1    2    0    0  0.41271138102E+02 -0.58759394673E+02  0.44806911603E+02  0.84638245670E+02  0.00000000000E+00 0.  1.
         11    1    1    2    0    0 -0.12540272548E+03  0.83940430106E+02  0.92020766993E+02  0.17674744955E+03  0.00000000000E+00 0. -1.
<mgrwt>
<rscale>  0 0.38952367E+03</rscale>
<asrwt>0</asrwt>
<pdfrwt beam="1">  1        4 0.67224126E-01 0.38952367E+03</pdfrwt>
<pdfrwt beam="2">  1       -4 0.13355368E-01 0.38952367E+03</pdfrwt>
<totfact> 0.18599194E+02</totfact>
</mgrwt>
</event>
<event>
 7    1  0.8165933E-006  0.1709327E+03  0.7546771E-02  0.1183292E+00
         -1   -1    0    0    0  501 -0.00000000000E+00  0.00000000000E+00  0.15473519109E+03  0.15473519109E+03  0.00000000000E+00 0.  1.
          1   -1    0    0  501    0  0.00000000000E+00 -0.00000000000E+00 -0.16609701911E+03  0.16609701911E+03  0.00000000000E+00 0. -1.
         23    2    1    2    0    0 -0.96988678556E+02  0.64707263683E+02  0.10415266061E+02  0.17124974235E+03  0.12499665095E+03 0.  0.
          5    1    3    3  502    0  0.15678855784E+02 -0.78186110109E+01 -0.26565893483E+02  0.32168212468E+02  0.47000000000E+01 0. -1.
         -5    1    3    3    0  502 -0.11266753434E+03  0.72525874694E+02  0.36981159545E+02  0.13908152989E+03  0.47000000000E+01 0. -1.
        -11    1    1    2    0    0  0.80930779444E+02  0.30384743598E+00 -0.14547496638E+02  0.82228419924E+02  0.00000000000E+00 0.  1.
         11    1    1    2    0    0  0.16057899111E+02 -0.65011111119E+02 -0.72295974373E+01  0.67354047925E+02  0.00000000000E+00 0. -1.
<mgrwt>
<rscale>  0 0.16488308E+03</rscale>
<asrwt>0</asrwt>
<pdfrwt beam="2">  1        1 0.25553388E-01 0.17093273E+03</pdfrwt>
<pdfrwt beam="1">  1       -1 0.23805414E-01 0.17093273E+03</pdfrwt>
<totfact> 0.27504489E+03</totfact>
</mgrwt>
</event>
<event>
 7    1  0.8165933E-006  0.2612747E+03  0.7546771E-02  0.1108665E+00
         -2   -1    0    0    0  501 -0.00000000000E+00  0.00000000000E+00  0.10822210353E+03  0.10822210353E+03  0.00000000000E+00 0. -1.
          2   -1    0    0  501    0  0.00000000000E+00 -0.00000000000E+00 -0.60223166647E+03  0.60223166647E+03  0.00000000000E+00 0.  1.
         23    2    1    2    0    0  0.48073550528E+01 -0.22938464857E+03 -0.29177856205E+03  0.39166209005E+03  0.12499614335E+03 0.  0.
          5    1    3    3  502    0 -0.18613548709E+02 -0.79184387475E+01 -0.85784268667E+02  0.88262090495E+02  0.47000000000E+01 0. -1.
         -5    1    3    3    0  502  0.23420903762E+02 -0.22146620982E+03 -0.20599429338E+03  0.30339999955E+03  0.47000000000E+01 0. -1.
        -11    1    1    2    0    0 -0.15912546570E+02  0.22058656998E+03 -0.20789594317E+03  0.30353314017E+03  0.00000000000E+00 0.  1.
         11    1    1    2    0    0  0.11105191517E+02  0.87980785861E+01  0.56649422704E+01  0.15258539785E+02  0.00000000000E+00 0. -1.
<mgrwt>
<rscale>  0 0.25748332E+03</rscale>
<asrwt>0</asrwt>
<pdfrwt beam="2">  1        2 0.92651024E-01 0.26127469E+03</pdfrwt>
<pdfrwt beam="1">  1       -2 0.16649555E-01 0.26127469E+03</pdfrwt>
<totfact> 0.14433389E+03</totfact>
</mgrwt>
</event>
<event>
 7    1  0.8165933E-006  0.1135501E+03  0.7546771E-02  0.1264533E+00
         -2   -1    0    0    0  501 -0.00000000000E+00  0.00000000000E+00  0.43561856302E+02  0.43561856302E+02  0.00000000000E+00 0.  1.
          2   -1    0    0  501    0  0.00000000000E+00 -0.00000000000E+00 -0.78565491282E+03  0.78565491282E+03  0.00000000000E+00 0. -1.
         23    2    1    2    0    0  0.69934549338E+01  0.89345661622E+01 -0.72656537346E+03  0.73538484381E+03  0.11298182027E+03 0.  0.
          5    1    3    3  502    0  0.24252109035E+02  0.24036549751E+02 -0.69615436628E+03  0.69700711059E+03  0.47000000000E+01 0. -1.
         -5    1    3    3    0  502 -0.17258654101E+02 -0.15101983589E+02 -0.30411007177E+02  0.38377733221E+02  0.47000000000E+01 0.  1.
        -11    1    1    2    0    0 -0.19975518466E+02 -0.47469735629E+02 -0.44868418572E+01  0.51696507508E+02  0.00000000000E+00 0. -1.
         11    1    1    2    0    0  0.12982063532E+02  0.38535169466E+02 -0.11040841205E+02  0.42135417808E+02  0.00000000000E+00 0.  1.
<mgrwt>
<rscale>  0 0.10788745E+03</rscale>
<asrwt>0</asrwt>
<pdfrwt beam="2">  1        2 0.12086998E+00 0.11355011E+03</pdfrwt>
<pdfrwt beam="1">  1       -2 0.67018242E-02 0.11355011E+03</pdfrwt>
<totfact> 0.43751819E+03</totfact>
</mgrwt>
</event>
<event>
 7    1  0.8165933E-006  0.2416916E+03  0.7546771E-02  0.1121382E+00
         -1   -1    0    0    0  501 -0.00000000000E+00  0.00000000000E+00  0.44884316014E+03  0.44884316014E+03  0.00000000000E+00 0.  1.
          1   -1    0    0  501    0  0.00000000000E+00 -0.00000000000E+00 -0.12277874061E+03  0.12277874061E+03  0.00000000000E+00 0. -1.
         23    2    1    2    0    0 -0.13841875876E+03  0.15374900578E+03  0.19461426706E+03  0.31030555681E+03  0.12496525952E+03 0.  0.
          5    1    3    3  502    0 -0.87809625009E+02  0.70984799723E+02  0.26381774494E+02  0.11604938630E+03  0.47000000000E+01 0.  1.
         -5    1    3    3    0  502 -0.50609133748E+02  0.82764206059E+02  0.16823249257E+03  0.19425617050E+03  0.47000000000E+01 0.  1.
        -11    1    1    2    0    0  0.80892850733E+02 -0.14676105486E+03  0.10366704695E+03  0.19705155961E+03  0.00000000000E+00 0.  1.
         11    1    1    2    0    0  0.57525908025E+02 -0.69879509249E+01  0.27783105520E+02  0.64264784326E+02  0.00000000000E+00 0. -1.
<mgrwt>
<rscale>  0 0.23762929E+03</rscale>
<asrwt>0</asrwt>
<pdfrwt beam="2">  1        1 0.18889037E-01 0.24169159E+03</pdfrwt>
<pdfrwt beam="1">  1       -1 0.69052793E-01 0.24169159E+03</pdfrwt>
<totfact> 0.60725722E+02</totfact>
</mgrwt>
</event>
<event>
 7    1  0.8165933E-006  0.1584103E+03  0.7546771E-02  0.1197443E+00
          4   -1    0    0  501    0  0.00000000000E+00  0.00000000000E+00  0.82983359744E+03  0.82983359744E+03  0.00000000000E+00 0. -1.
         -4   -1    0    0    0  501 -0.00000000000E+00 -0.00000000000E+00 -0.76336648424E+02  0.76336648424E+02  0.00000000000E+00 0.  1.
         23    2    1    2    0    0 -0.29528391231E+02  0.92658222687E+02  0.75366923322E+03  0.77013708526E+03  0.12504537125E+03 0.  0.
          5    1    3    3  502    0 -0.62435476811E+02  0.55194882584E+02  0.64622285696E+03  0.65159092588E+03  0.47000000000E+01 0.  1.
         -5    1    3    3    0  502  0.32907085580E+02  0.37463340102E+02  0.10744637626E+03  0.11854615938E+03  0.47000000000E+01 0.  1.
        -11    1    1    2    0    0 -0.26829977695E+02 -0.21271712489E+02 -0.24238999870E+02  0.41950715966E+02  0.00000000000E+00 0. -1.
         11    1    1    2    0    0  0.56358368926E+02 -0.71386510198E+02  0.24066715667E+02  0.94082444639E+02  0.00000000000E+00 0.  1.
<mgrwt>
<rscale>  0 0.15249255E+03</rscale>
<asrwt>0</asrwt>
<pdfrwt beam="1">  1        4 0.12766670E+00 0.15841028E+03</pdfrwt>
<pdfrwt beam="2">  1       -4 0.11744100E-01 0.15841028E+03</pdfrwt>
<totfact> 0.47430789E+01</totfact>
</mgrwt>
</event>
<event>
 7    1  0.8165933E-006  0.1166778E+03  0.7546771E-02  0.1258545E+00
         -2   -1    0    0    0  501 -0.00000000000E+00  0.00000000000E+00  0.19138703907E+02  0.19138703907E+02  0.00000000000E+00 0.  1.
          2   -1    0    0  501    0  0.00000000000E+00 -0.00000000000E+00 -0.65495976528E+03  0.65495976528E+03  0.00000000000E+00 0. -1.
         23    2    1    2    0    0  0.28405004369E+02 -0.13642060511E+02 -0.45126788318E+03  0.46610773008E+03  0.11234217179E+03 0.  0.
          5    1    3    3  502    0  0.37132509938E+01 -0.47218010727E+02 -0.84773395500E+02  0.97221126071E+02  0.47000000000E+01 0. -1.
         -5    1    3    3    0  502  0.24691753375E+02  0.33575950216E+02 -0.36649448768E+03  0.36888660401E+03  0.47000000000E+01 0.  1.
        -11    1    1    2    0    0 -0.48274929515E+02  0.32570587581E+02 -0.74457364201E+02  0.94526245450E+02  0.00000000000E+00 0.  1.
         11    1    1    2    0    0  0.19869925146E+02 -0.18928527070E+02 -0.11009581400E+03  0.11346449366E+03  0.00000000000E+00 0. -1.
<mgrwt>
<rscale>  0 0.11110058E+03</rscale>
<asrwt>0</asrwt>
<pdfrwt beam="2">  1        2 0.10076305E+00 0.11667782E+03</pdfrwt>
<pdfrwt beam="1">  1       -2 0.29444157E-02 0.11667782E+03</pdfrwt>
<totfact> 0.18503518E+04</totfact>
</mgrwt>
</event>
<event>
 7    1  0.8165933E-006  0.1280001E+03  0.7546771E-02  0.1243582E+00
          1   -1    0    0  501    0  0.00000000000E+00  0.00000000000E+00  0.16404777010E+03  0.16404777010E+03  0.00000000000E+00 0. -1.
         -1   -1    0    0    0  501 -0.00000000000E+00 -0.00000000000E+00 -0.79057718758E+02  0.79057718758E+02  0.00000000000E+00 0.  1.
         23    2    1    2    0    0  0.27565460253E+02  0.18008218866E+00  0.63397718675E+02  0.14284008200E+03  0.12499652501E+03 0.  0.
          5    1    3    3  502    0  0.76360972372E+01 -0.61066445015E+02  0.19401666960E+02  0.64698805001E+02  0.47000000000E+01 0. -1.
         -5    1    3    3    0  502  0.19929363016E+02  0.61246527203E+02  0.43996051715E+02  0.78141277000E+02  0.47000000000E+01 0. -1.
        -11    1    1    2    0    0  0.60781173701E+01 -0.35059772628E+02 -0.15920217621E+02  0.38981848297E+02  0.00000000000E+00 0.  1.
         11    1    1    2    0    0 -0.33643577623E+02  0.34879690440E+02  0.37512550285E+02  0.61283558556E+02  0.00000000000E+00 0. -1.
<mgrwt>
<rscale>  0 0.11970645E+03</rscale>
<asrwt>0</asrwt>
<pdfrwt beam="1">  1        1 0.25238118E-01 0.12800007E+03</pdfrwt>
<pdfrwt beam="2">  1       -1 0.12162726E-01 0.12800007E+03</pdfrwt>
<totfact> 0.79824197E+03</totfact>
</mgrwt>
</event>
<event>
 7    1  0.8165933E-006  0.1355020E+03  0.7546771E-02  0.1232322E+00
         -2   -1    0    0    0  501 -0.00000000000E+00  0.00000000000E+00  0.46738114530E+02  0.46738114530E+02  0.00000000000E+00 0.  1.
          2   -1    0    0  501    0  0.00000000000E+00 -0.00000000000E+00 -0.30636773202E+03  0.30636773202E+03  0.00000000000E+00 0. -1.
         23    2    1    2    0    0  0.51596119496E+02 -0.86178302808E+01 -0.14709655277E+03  0.19999547178E+03  0.12499746537E+03 0.  0.
          5    1    3    3  502    0 -0.10505504097E+02 -0.44104356641E+02 -0.12117569683E+02  0.47164450448E+02  0.47000000000E+01 0. -1.
         -5    1    3    3    0  502  0.62101623593E+02  0.35486526360E+02 -0.13497898309E+03  0.15283102133E+03  0.47000000000E+01 0. -1.
        -11    1    1    2    0    0 -0.70311589921E+02 -0.16700945361E+02 -0.80929855435E+02  0.10850015094E+03  0.00000000000E+00 0.  1.
         11    1    1    2    0    0  0.18715470425E+02  0.25318775642E+02 -0.31603209283E+02  0.44610223831E+02  0.00000000000E+00 0. -1.
<mgrwt>
<rscale>  0 0.12677455E+03</rscale>
<asrwt>0</asrwt>
<pdfrwt beam="2">  1        2 0.47133498E-01 0.13550200E+03</pdfrwt>
<pdfrwt beam="1">  1       -2 0.71904790E-02 0.13550200E+03</pdfrwt>
<totfact> 0.11276416E+04</totfact>
</mgrwt>
</event>
<event>
 7    1  0.8165933E-006  0.1292335E+03  0.7546771E-02  0.1242183E+00
         -1   -1    0    0    0  501 -0.00000000000E+00  0.00000000000E+00  0.29864790483E+02  0.29864790483E+02  0.00000000000E+00 0.  1.
          1   -1    0    0  501    0  0.00000000000E+00 -0.00000000000E+00 -0.99242340349E+03  0.99242340349E+03  0.00000000000E+00 0. -1.
         23    2    1    2    0    0 -0.15440530634E+02 -0.31284782597E+02 -0.89280335852E+03  0.90210816295E+03  0.12443533691E+03 0.  0.
          5    1    3    3  502    0  0.64049107006E+01  0.46380761088E+02 -0.26799051565E+03  0.27209043415E+03  0.47000000000E+01 0.  1.
         -5    1    3    3    0  502 -0.21845441335E+02 -0.77665543685E+02 -0.62481284287E+03  0.63001772879E+03  0.47000000000E+01 0.  1.
        -11    1    1    2    0    0 -0.23228204298E+02  0.14660021196E+02  0.10621170198E+02  0.29449532301E+02  0.00000000000E+00 0.  1.
         11    1    1    2    0    0  0.38668734932E+02  0.16624761401E+02 -0.80376424688E+02  0.90730498723E+02  0.00000000000E+00 0. -1.
<mgrwt>
<rscale>  0 0.12055565E+03</rscale>
<asrwt>0</asrwt>
<pdfrwt beam="2">  1        1 0.15268053E+00 0.12923351E+03</pdfrwt>
<pdfrwt beam="1">  1       -1 0.45945829E-02 0.12923351E+03</pdfrwt>
<totfact> 0.31803243E+03</totfact>
</mgrwt>
</event>
<event>
 7    1  0.8165933E-006  0.1605458E+03  0.7546771E-02  0.1193854E+00
         -1   -1    0    0    0  501 -0.00000000000E+00  0.00000000000E+00  0.15846697674E+03  0.15846697674E+03  0.00000000000E+00 0. -1.
          1   -1    0    0  501    0  0.00000000000E+00 -0.00000000000E+00 -0.15384112420E+03  0.15384112420E+03  0.00000000000E+00 0.  1.
         23    2    1    2    0    0 -0.92211480375E+02 -0.40609595751E+02 -0.37392601799E+02  0.16484285173E+03  0.12499145058E+03 0.  0.
          5    1    3    3  502    0 -0.28792254206E+02 -0.44832908262E+02 -0.74028117176E+02  0.91330365696E+02  0.47000000000E+01 0.  1.
         -5    1    3    3    0  502 -0.63419226169E+02  0.42233125119E+01  0.36635515377E+02  0.73512486037E+02  0.47000000000E+01 0.  1.
        -11    1    1    2    0    0  0.10692218432E+03  0.32710263740E+02  0.56576594949E+02  0.12531251314E+03  0.00000000000E+00 0. -1.
         11    1    1    2    0    0 -0.14710703948E+02  0.78993320105E+01 -0.14558140613E+02  0.22152736061E+02  0.00000000000E+00 0.  1.
<mgrwt>
<rscale>  0 0.15551594E+03</rscale>
<asrwt>0</asrwt>
<pdfrwt beam="2">  1        1 0.23667865E-01 0.16054582E+03</pdfrwt>
<pdfrwt beam="1">  1       -1 0.24379535E-01 0.16054582E+03</pdfrwt>
<totfact> 0.29060980E+03</totfact>
</mgrwt>
</event>
<event>
 6    1  0.8165933E-006  0.3705569E+03  0.7546771E-02  0.1054480E+00
         -3   -1    0    0    0  501 -0.00000000000E+00  0.00000000000E+00  0.24131495485E+02  0.24131495485E+02  0.00000000000E+00 0.  1.
          3   -1    0    0  501    0  0.00000000000E+00 -0.00000000000E+00 -0.14225438405E+04  0.14225438405E+04  0.00000000000E+00 0. -1.
          5    1    1    2  502    0  0.10365797886E+02  0.47165871711E+01 -0.29530392689E+03  0.29556081472E+03  0.47000000000E+01 0. -1.
         -5    1    1    2    0  502 -0.90005205689E+02  0.10198329254E+03 -0.28530089570E+03  0.31610159774E+03  0.47000000000E+01 0.  1.
        -11    1    1    2    0    0  0.48628574905E+02 -0.11433069613E+03 -0.74798650435E+03  0.75823482976E+03  0.00000000000E+00 0. -1.
         11    1    1    2    0    0  0.31010832898E+02  0.76308164137E+01 -0.69821018042E+02  0.76778093729E+02  0.00000000000E+00 0.  1.
<mgrwt>
<rscale>  0 0.37055693E+03</rscale>
<asrwt>0</asrwt>
<pdfrwt beam="2">  1        3 0.21885290E+00 0.37055693E+03</pdfrwt>
<pdfrwt beam="1">  1       -3 0.37125377E-02 0.37055693E+03</pdfrwt>
<totfact> 0.11597254E+02</totfact>
</mgrwt>
</event>
<event>
 7    1  0.1226217E-005  0.2434365E+03  0.7546771E-02  0.1120036E+00
         -1   -1    0    0    0  501 -0.00000000000E+00  0.00000000000E+00  0.61474061173E+02  0.61474061173E+02  0.00000000000E+00 0.  1.
          1   -1    0    0  501    0  0.00000000000E+00 -0.00000000000E+00 -0.91867030915E+03  0.91867030915E+03  0.00000000000E+00 0. -1.
         23    2    1    2    0    0  0.12403445079E+03 -0.16808241839E+03 -0.49921985559E+03  0.55541139294E+03  0.12500042737E+03 0.  0.
          5    1    3    3  502    0  0.30867244614E+02 -0.12743980518E+03 -0.19852562303E+03  0.23796681226E+03  0.47000000000E+01 0.  1.
         -5    1    3    3    0  502  0.93167206172E+02 -0.40642613208E+02 -0.30069423256E+03  0.31744458069E+03  0.47000000000E+01 0.  1.
        -11    1    1    2    0    0 -0.67890902354E+01  0.56634616467E+02 -0.45865186081E+02  0.73192805814E+02  0.00000000000E+00 0.  1.
         11    1    1    2    0    0 -0.11724536055E+03  0.11144780192E+03 -0.31211120630E+03  0.35154017156E+03  0.00000000000E+00 0. -1.
<mgrwt>
<rscale>  0 0.23963550E+03</rscale>
<asrwt>0</asrwt>
<pdfrwt beam="2">  1        1 0.14133388E+00 0.24343654E+03</pdfrwt>
<pdfrwt beam="1">  1       -1 0.94575486E-02 0.24343654E+03</pdfrwt>
<totfact> 0.12286484E+03</totfact>
</mgrwt>
</event>
<event>
 7    1  0.8165933E-006  0.1469259E+03  0.7546771E-02  0.1212994E+00
         -1   -1    0    0    0  501 -0.00000000000E+00  0.00000000000E+00  0.54838941638E+02  0.54838941638E+02  0.00000000000E+00 0.  1.
          1   -1    0    0  501    0  0.00000000000E+00 -0.00000000000E+00 -0.34385878594E+03  0.34385878594E+03  0.00000000000E+00 0. -1.
         23    2    1    2    0    0  0.75175634430E+02 -0.17637462257E+02 -0.19769694776E+03  0.24631543878E+03  0.12499902457E+03 0.  0.
          5    1    3    3  502    0 -0.24274634744E+02 -0.19501229662E+02 -0.10730030711E+03  0.11182576517E+03  0.47000000000E+01 0. -1.
         -5    1    3    3    0  502  0.99450269174E+02  0.18637674053E+01 -0.90396640651E+02  0.13448967361E+03  0.47000000000E+01 0. -1.
        -11    1    1    2    0    0 -0.54171506894E+02 -0.56987499797E+01 -0.10488175196E+03  0.11818295056E+03  0.00000000000E+00 0. -1.
         11    1    1    2    0    0 -0.21004127537E+02  0.23336212236E+02  0.13558855416E+02  0.34199338229E+02  0.00000000000E+00 0.  1.
<mgrwt>
<rscale>  0 0.14024935E+03</rscale>
<asrwt>0</asrwt>
<pdfrwt beam="2">  1        1 0.52901352E-01 0.14692587E+03</pdfrwt>
<pdfrwt beam="1">  1       -1 0.84367602E-02 0.14692587E+03</pdfrwt>
<totfact> 0.56203070E+03</totfact>
</mgrwt>
</event>
<event>
 7    1  0.8165933E-006  0.1299526E+03  0.7546771E-02  0.1237570E+00
         -2   -1    0    0    0  501 -0.00000000000E+00  0.00000000000E+00  0.39689030513E+02  0.39689030513E+02  0.00000000000E+00 0.  1.
          2   -1    0    0  501    0  0.00000000000E+00 -0.00000000000E+00 -0.43412404191E+03  0.43412404191E+03  0.00000000000E+00 0. -1.
         23    2    1    2    0    0 -0.94388572800E+01  0.34147342292E+02 -0.31752845386E+03  0.34309180214E+03  0.12503012706E+03 0.  0.
          5    1    3    3  502    0 -0.46081343164E+02  0.60992812373E+02 -0.13780841757E+03  0.15766059527E+03  0.47000000000E+01 0. -1.
         -5    1    3    3    0  502  0.36642485884E+02 -0.26845470080E+02 -0.17972003629E+03  0.18543120687E+03  0.47000000000E+01 0. -1.
        -11    1    1    2    0    0  0.58479835353E+01 -0.69300472975E+02 -0.58497443515E+02  0.90877419438E+02  0.00000000000E+00 0. -1.
         11    1    1    2    0    0  0.35908737447E+01  0.35153130683E+02 -0.18409114020E+02  0.39843850844E+02  0.00000000000E+00 0.  1.
<mgrwt>
<rscale>  0 0.12341329E+03</rscale>
<asrwt>0</asrwt>
<pdfrwt beam="2">  1        2 0.66788313E-01 0.12995255E+03</pdfrwt>
<pdfrwt beam="1">  1       -2 0.61060048E-02 0.12995255E+03</pdfrwt>
<totfact> 0.99531462E+03</totfact>
</mgrwt>
</event>
<event>
 7    1  0.8165933E-006  0.1522286E+03  0.7546771E-02  0.1206758E+00
          2   -1    0    0  501    0  0.00000000000E+00  0.00000000000E+00  0.80335191197E+03  0.80335191197E+03  0.00000000000E+00 0. -1.
         -2   -1    0    0    0  501 -0.00000000000E+00 -0.00000000000E+00 -0.27279513691E+02  0.27279513691E+02  0.00000000000E+00 0.  1.
         23    2    1    2    0    0 -0.86726608129E+02 -0.50613484185E+01  0.56519640272E+03  0.58533794127E+03  0.12500564002E+03 0.  0.
          5    1    3    3  502    0 -0.11601154508E+03  0.75922731146E+01  0.38207903752E+03  0.39940305721E+03  0.47000000000E+01 0.  1.
         -5    1    3    3    0  502  0.29284936949E+02 -0.12653621533E+02  0.18311736521E+03  0.18593488406E+03  0.47000000000E+01 0.  1.
        -11    1    1    2    0    0 -0.28908441727E+01 -0.18380415230E+02  0.95682780179E+02  0.97475079210E+02  0.00000000000E+00 0. -1.
         11    1    1    2    0    0  0.89617452302E+02  0.23441763648E+02  0.11519321537E+03  0.14781840517E+03  0.00000000000E+00 0.  1.
<mgrwt>
<rscale>  0 0.14499742E+03</rscale>
<asrwt>0</asrwt>
<pdfrwt beam="1">  1        2 0.12359258E+00 0.15222855E+03</pdfrwt>
<pdfrwt beam="2">  1       -2 0.41968489E-02 0.15222855E+03</pdfrwt>
<totfact> 0.87346921E+03</totfact>
</mgrwt>
</event>
<event>
 7    1  0.8165933E-006  0.1413057E+03  0.7546771E-02  0.1221997E+00
          1   -1    0    0  501    0  0.00000000000E+00  0.00000000000E+00  0.15397409397E+03  0.15397409397E+03  0.00000000000E+00 0. -1.
         -1   -1    0    0    0  501 -0.00000000000E+00 -0.00000000000E+00 -0.15555191071E+03  0.15555191071E+03  0.00000000000E+00 0.  1.
         23    2    1    2    0    0 -0.64997232175E+02 -0.19132459620E+02  0.86717366277E+02  0.16579264174E+03  0.12400244852E+03 0.  0.
          5    1    3    3  502    0 -0.89066870575E+01 -0.13443567500E+01  0.10383422263E+03  0.10433011147E+03  0.47000000000E+01 0. -1.
         -5    1    3    3    0  502 -0.56090545118E+02 -0.17788102870E+02 -0.17116856356E+02  0.61462530267E+02  0.47000000000E+01 0.  1.
        -11    1    1    2    0    0 -0.22732906095E+02  0.43641625219E+00 -0.25911604993E+02  0.34472985830E+02  0.00000000000E+00 0. -1.
         11    1    1    2    0    0  0.87730138270E+02  0.18696043367E+02 -0.62383578023E+02  0.10926037711E+03  0.00000000000E+00 0.  1.
<mgrwt>
<rscale>  0 0.13374838E+03</rscale>
<asrwt>0</asrwt>
<pdfrwt beam="1">  1        1 0.23688322E-01 0.14130569E+03</pdfrwt>
<pdfrwt beam="2">  1       -1 0.23931063E-01 0.14130569E+03</pdfrwt>
<totfact> 0.29750362E+03</totfact>
</mgrwt>
</event>
<event>
 7    1  0.8165933E-006  0.1368741E+03  0.7546771E-02  0.1229763E+00
          2   -1    0    0  501    0  0.00000000000E+00  0.00000000000E+00  0.52575092744E+03  0.52575092744E+03  0.00000000000E+00 0. -1.
         -2   -1    0    0    0  501 -0.00000000000E+00 -0.00000000000E+00 -0.31014718032E+02  0.31014718032E+02  0.00000000000E+00 0.  1.
         23    2    1    2    0    0 -0.43373960840E+02  0.34997165691E+02  0.36048887820E+03  0.38559919629E+03  0.12501362642E+03 0.  0.
          5    1    3    3  502    0 -0.21507135446E+02  0.34692202336E+01  0.34204253210E+03  0.34276781665E+03  0.47000000000E+01 0. -1.
         -5    1    3    3    0  502 -0.21866825394E+02  0.31527945457E+02  0.18446346094E+02  0.42831379639E+02  0.47000000000E+01 0. -1.
        -11    1    1    2    0    0 -0.99824868061E+01 -0.63834289423E+01 -0.95012506874E+01  0.15187889008E+02  0.00000000000E+00 0.  1.
         11    1    1    2    0    0  0.53356447646E+02 -0.28613736749E+02  0.14374858190E+03  0.15597856018E+03  0.00000000000E+00 0. -1.
<mgrwt>
<rscale>  0 0.12845717E+03</rscale>
<asrwt>0</asrwt>
<pdfrwt beam="1">  1        2 0.80884751E-01 0.13687406E+03</pdfrwt>
<pdfrwt beam="2">  1       -2 0.47714955E-02 0.13687406E+03</pdfrwt>
<totfact> 0.11756468E+04</totfact>
</mgrwt>
</event>
<event>
 7    1  0.8165933E-006  0.1332573E+03  0.7546771E-02  0.1235613E+00
          4   -1    0    0  501    0  0.00000000000E+00  0.00000000000E+00  0.28243707308E+03  0.28243707308E+03  0.00000000000E+00 0. -1.
         -4   -1    0    0    0  501 -0.00000000000E+00 -0.00000000000E+00 -0.52177383017E+02  0.52177383017E+02  0.00000000000E+00 0.  1.
         23    2    1    2    0    0 -0.36664988125E+02 -0.28061363642E+02  0.88553849967E+02  0.15999781278E+03  0.12500301703E+03 0.  0.
          5    1    3    3  502    0  0.57468794918E+01  0.43189295923E+02  0.55246140814E+02  0.70516437666E+02  0.47000000000E+01 0.  1.
         -5    1    3    3    0  502 -0.42411867617E+02 -0.71250659565E+02  0.33307709153E+02  0.89481375114E+02  0.47000000000E+01 0.  1.
        -11    1    1    2    0    0  0.18982447265E+02  0.31076899757E+02  0.15035528966E+03  0.15470235982E+03  0.00000000000E+00 0. -1.
         11    1    1    2    0    0  0.17682540860E+02 -0.30155361152E+01 -0.86494495721E+01  0.19914283498E+02  0.00000000000E+00 0.  1.
<mgrwt>
<rscale>  0 0.12465276E+03</rscale>
<asrwt>0</asrwt>
<pdfrwt beam="1">  1        4 0.43451856E-01 0.13325733E+03</pdfrwt>
<pdfrwt beam="2">  1       -4 0.80272899E-02 0.13325733E+03</pdfrwt>
<totfact> 0.93214515E+02</totfact>
</mgrwt>
</event>
<event>
 7    1  0.8165933E-006  0.1329243E+03  0.7546771E-02  0.1235032E+00
         -3   -1    0    0    0  501 -0.00000000000E+00  0.00000000000E+00  0.21732680513E+03  0.21732680513E+03  0.00000000000E+00 0.  1.
          3   -1    0    0  501    0  0.00000000000E+00 -0.00000000000E+00 -0.74887805194E+02  0.74887805194E+02  0.00000000000E+00 0. -1.
         23    2    1    2    0    0 -0.35691556192E+02 -0.27809305409E+02  0.24873426066E+02  0.13523146906E+03  0.12498647227E+03 0.  0.
          5    1    3    3  502    0  0.10016029980E+02 -0.43088800341E+02 -0.36155447590E+02  0.57326014704E+02  0.47000000000E+01 0.  1.
         -5    1    3    3    0  502 -0.45707586172E+02  0.15279494932E+02  0.61028873657E+02  0.77905454359E+02  0.47000000000E+01 0.  1.
        -11    1    1    2    0    0  0.47984955556E+02 -0.17349561042E+02  0.87700577734E+02  0.10146405552E+03  0.00000000000E+00 0.  1.
         11    1    1    2    0    0 -0.12293399364E+02  0.45158866451E+02  0.29864996135E+02  0.55519085739E+02  0.00000000000E+00 0. -1.
<mgrwt>
<rscale>  0 0.12502357E+03</rscale>
<asrwt>0</asrwt>
<pdfrwt beam="2">  1        3 0.11521201E-01 0.13292428E+03</pdfrwt>
<pdfrwt beam="1">  1       -3 0.33434893E-01 0.13292428E+03</pdfrwt>
<totfact> 0.11698191E+03</totfact>
</mgrwt>
</event>
<event>
 7    1  0.8165933E-006  0.1348926E+03  0.7546771E-02  0.1233655E+00
         -2   -1    0    0    0  501 -0.00000000000E+00  0.00000000000E+00  0.21280152181E+02  0.21280152181E+02  0.00000000000E+00 0.  1.
          2   -1    0    0  501    0  0.00000000000E+00 -0.00000000000E+00 -0.10812197690E+04  0.10812197690E+04  0.00000000000E+00 0. -1.
         23    2    1    2    0    0  0.33120453307E+02 -0.38409944309E+02 -0.91587553377E+03  0.92575591772E+03  0.12499495023E+03 0.  0.
          5    1    3    3  502    0  0.15635585453E+02  0.13372168715E+02 -0.76375901133E+03  0.76405052439E+03  0.47000000000E+01 0. -1.
         -5    1    3    3    0  502  0.17484867853E+02 -0.51782113024E+02 -0.15211652244E+03  0.16170539333E+03  0.47000000000E+01 0. -1.
        -11    1    1    2    0    0 -0.55635424413E+02  0.44338644273E+02 -0.13329424355E+03  0.15109126775E+03  0.00000000000E+00 0. -1.
         11    1    1    2    0    0  0.22514971107E+02 -0.59286999638E+01 -0.10769839507E+02  0.25652735726E+02  0.00000000000E+00 0.  1.
<mgrwt>
<rscale>  0 0.12590906E+03</rscale>
<asrwt>0</asrwt>
<pdfrwt beam="2">  1        2 0.16634152E+00 0.13489265E+03</pdfrwt>
<pdfrwt beam="1">  1       -2 0.32738693E-02 0.13489265E+03</pdfrwt>
<totfact> 0.84389609E+03</totfact>
</mgrwt>
</event>
<event>
 7    1  0.8165933E-006  0.1416665E+03  0.7546771E-02  0.1221866E+00
          1   -1    0    0  501    0  0.00000000000E+00  0.00000000000E+00  0.95646215057E+02  0.95646215057E+02  0.00000000000E+00 0.  1.
         -1   -1    0    0    0  501 -0.00000000000E+00 -0.00000000000E+00 -0.19956043273E+03  0.19956043273E+03  0.00000000000E+00 0. -1.
         23    2    1    2    0    0 -0.97537233259E+00  0.66930492021E+02  0.18656129777E+00  0.14166666251E+03  0.12485498127E+03 0.  0.
          5    1    3    3  502    0  0.30414755920E+02  0.86571870734E+02 -0.26682892253E+02  0.95675560720E+02  0.47000000000E+01 0.  1.
         -5    1    3    3    0  502 -0.31390128253E+02 -0.19641378714E+02  0.26869453551E+02  0.45991101787E+02  0.47000000000E+01 0.  1.
        -11    1    1    2    0    0  0.20536342255E+02 -0.21472008362E+02  0.81965607673E+01  0.30821617491E+02  0.00000000000E+00 0.  1.
         11    1    1    2    0    0 -0.19560969922E+02 -0.45458483659E+02 -0.11229733974E+03  0.12271836779E+03  0.00000000000E+00 0. -1.
<mgrwt>
<rscale>  0 0.13384009E+03</rscale>
<asrwt>0</asrwt>
<pdfrwt beam="1">  1        1 0.14714803E-01 0.14166654E+03</pdfrwt>
<pdfrwt beam="2">  1       -1 0.30701604E-01 0.14166654E+03</pdfrwt>
<totfact> 0.36158958E+03</totfact>
</mgrwt>
</event>
<event>
 7    1  0.8165933E-006  0.1389431E+03  0.7546771E-02  0.1220955E+00
          1   -1    0    0  501    0  0.00000000000E+00  0.00000000000E+00  0.13839337648E+04  0.13839337648E+04  0.00000000000E+00 0. -1.
         -1   -1    0    0    0  501 -0.00000000000E+00 -0.00000000000E+00 -0.14330404031E+02  0.14330404031E+02  0.00000000000E+00 0.  1.
         23    2    1    2    0    0 -0.60377663010E+02 -0.60358390214E+01  0.98615817313E+03  0.99589815704E+03  0.12499321272E+03 0.  0.
          5    1    3    3  502    0  0.31099627147E+01  0.19197821699E+02  0.74331524909E+03  0.74358447923E+03  0.47000000000E+01 0. -1.
         -5    1    3    3    0  502 -0.63487625725E+02 -0.25233660720E+02  0.24284292404E+03  0.25231367781E+03  0.47000000000E+01 0. -1.
        -11    1    1    2    0    0  0.61492040077E+02 -0.29241496671E+02  0.33818033936E+03  0.34496706807E+03  0.00000000000E+00 0. -1.
         11    1    1    2    0    0 -0.11143770674E+01  0.35277335692E+02  0.45264848234E+02  0.57398943679E+02  0.00000000000E+00 0.  1.
<mgrwt>
<rscale>  0 0.13448075E+03</rscale>
<asrwt>0</asrwt>
<pdfrwt beam="1">  1        1 0.21291278E+00 0.13894314E+03</pdfrwt>
<pdfrwt beam="2">  1       -1 0.22046786E-02 0.13894314E+03</pdfrwt>
<totfact> 0.49975511E+03</totfact>
</mgrwt>
</event>
<event>
 7    1  0.8165933E-006  0.1424013E+03  0.7546771E-02  0.1220540E+00
          2   -1    0    0  501    0  0.00000000000E+00  0.00000000000E+00  0.63710818609E+03  0.63710818609E+03  0.00000000000E+00 0. -1.
         -2   -1    0    0    0  501 -0.00000000000E+00 -0.00000000000E+00 -0.70583489090E+02  0.70583489090E+02  0.00000000000E+00 0.  1.
         23    2    1    2    0    0  0.66525198825E+02  0.14957424442E+02  0.57571716165E+03  0.59306691740E+03  0.12501516577E+03 0.  0.
          5    1    3    3  502    0 -0.36858993159E+02  0.10796555811E+02  0.14544386716E+03  0.15050302152E+03  0.47000000000E+01 0. -1.
         -5    1    3    3    0  502  0.10338419198E+03  0.41608686316E+01  0.43027329449E+03  0.44256389588E+03  0.47000000000E+01 0. -1.
        -11    1    1    2    0    0 -0.65208293064E+02  0.26106954564E+02  0.67297394658E+01  0.70561915750E+02  0.00000000000E+00 0. -1.
         11    1    1    2    0    0 -0.13169057602E+01 -0.41064379007E+02 -0.15922204114E+02  0.44062842031E+02  0.00000000000E+00 0.  1.
<mgrwt>
<rscale>  0 0.13477356E+03</rscale>
<asrwt>0</asrwt>
<pdfrwt beam="1">  1        2 0.98016640E-01 0.14240126E+03</pdfrwt>
<pdfrwt beam="2">  1       -2 0.10858999E-01 0.14240126E+03</pdfrwt>
<totfact> 0.26793735E+03</totfact>
</mgrwt>
</event>
<event>
 7    1  0.8165933E-006  0.1816841E+03  0.7546771E-02  0.1171147E+00
         -1   -1    0    0    0  501 -0.00000000000E+00  0.00000000000E+00  0.81320964035E+03  0.81320964035E+03  0.00000000000E+00 0.  1.
          1   -1    0    0  501    0  0.00000000000E+00 -0.00000000000E+00 -0.37072371621E+02  0.37072371621E+02  0.00000000000E+00 0. -1.
         23    2    1    2    0    0 -0.97240390935E+02 -0.89034104877E+02  0.35011299980E+03  0.39444672311E+03  0.12500535701E+03 0.  0.
          5    1    3    3  502    0  0.16885242880E+02 -0.46307065750E+02  0.16898885419E+03  0.17609309642E+03  0.47000000000E+01 0. -1.
         -5    1    3    3    0  502 -0.11412563381E+03 -0.42727039127E+02  0.18112414561E+03  0.21835362669E+03  0.47000000000E+01 0. -1.
        -11    1    1    2    0    0  0.57271192916E+02  0.18880259260E+02  0.30117613813E+03  0.30715390264E+03  0.00000000000E+00 0.  1.
         11    1    1    2    0    0  0.39969198019E+02  0.70153845617E+02  0.12484813080E+03  0.14868138622E+03  0.00000000000E+00 0. -1.
<mgrwt>
<rscale>  0 0.17658739E+03</rscale>
<asrwt>0</asrwt>
<pdfrwt beam="2">  1        1 0.57034424E-02 0.18168408E+03</pdfrwt>
<pdfrwt beam="1">  1       -1 0.12510916E+00 0.18168408E+03</pdfrwt>
<totfact> 0.82323143E+02</totfact>
</mgrwt>
</event>
<event>
 7    1  0.8165933E-006  0.1536118E+03  0.7546771E-02  0.1204405E+00
         -1   -1    0    0    0  501 -0.00000000000E+00  0.00000000000E+00  0.36516900877E+03  0.36516900877E+03  0.00000000000E+00 0.  1.
          1   -1    0    0  501    0  0.00000000000E+00 -0.00000000000E+00 -0.55411919015E+02  0.55411919015E+02  0.00000000000E+00 0. -1.
         23    2    1    2    0    0  0.70156859274E+02  0.55206789259E+02  0.14025218470E+03  0.20800785425E+03  0.12500727032E+03 0.  0.
          5    1    3    3  502    0  0.22560256092E+01  0.42433582957E+02 -0.88042151872E+01  0.43649774560E+02  0.47000000000E+01 0.  1.
         -5    1    3    3    0  502  0.67900833665E+02  0.12773206302E+02  0.14905639989E+03  0.16435807969E+03  0.47000000000E+01 0.  1.
        -11    1    1    2    0    0 -0.46443173697E+02 -0.74257639068E+02  0.82183916712E+02  0.12010562647E+03  0.00000000000E+00 0. -1.
         11    1    1    2    0    0 -0.23713685577E+02  0.19050849809E+02  0.87320988342E+02  0.92467447067E+02  0.00000000000E+00 0.  1.
<mgrwt>
<rscale>  0 0.14684428E+03</rscale>
<asrwt>0</asrwt>
<pdfrwt beam="2">  1        1 0.85249108E-02 0.15361182E+03</pdfrwt>
<pdfrwt beam="1">  1       -1 0.56179846E-01 0.15361182E+03</pdfrwt>
<totfact> 0.25583846E+03</totfact>
</mgrwt>
</event>
<event>
 7    1  0.8165933E-006  0.1308139E+03  0.7546771E-02  0.1239743E+00
          3   -1    0    0  501    0  0.00000000000E+00  0.00000000000E+00  0.50334270876E+02  0.50334270876E+02  0.00000000000E+00 0. -1.
         -3   -1    0    0    0  501 -0.00000000000E+00 -0.00000000000E+00 -0.36245832552E+03  0.36245832552E+03  0.00000000000E+00 0.  1.
         23    2    1    2    0    0  0.23064634781E+01  0.38492219780E+02 -0.64076260097E+02  0.14566418796E+03  0.12500127115E+03 0.  0.
          5    1    3    3  502    0 -0.61112745027E+02  0.21407339017E+02 -0.29972025836E+02  0.71508419792E+02  0.47000000000E+01 0.  1.
         -5    1    3    3    0  502  0.63419208505E+02  0.17084880763E+02 -0.34104234261E+02  0.74155768168E+02  0.47000000000E+01 0.  1.
        -11    1    1    2    0    0 -0.26817486756E+02 -0.59221688967E+02 -0.18973403580E+03  0.20056268441E+03  0.00000000000E+00 0.  1.
         11    1    1    2    0    0  0.24511023278E+02  0.20729469187E+02 -0.58313758749E+02  0.66565724020E+02  0.00000000000E+00 0. -1.
<mgrwt>
<rscale>  0 0.12205598E+03</rscale>
<asrwt>0</asrwt>
<pdfrwt beam="1">  1        3 0.77437338E-02 0.13081395E+03</pdfrwt>
<pdfrwt beam="2">  1       -3 0.55762821E-01 0.13081395E+03</pdfrwt>
<totfact> 0.82733886E+02</totfact>
</mgrwt>
</event>
<event>
 6    1  0.8165933E-006  0.1288151E+03  0.7546771E-02  0.1246537E+00
         -2   -1    0    0    0  501 -0.00000000000E+00  0.00000000000E+00  0.13439564438E+02  0.13439564438E+02  0.00000000000E+00 0.  1.
          2   -1    0    0  501    0  0.00000000000E+00 -0.00000000000E+00 -0.89980902073E+03  0.89980902073E+03  0.00000000000E+00 0. -1.
          5    1    1    2  502    0 -0.54176998355E+02  0.30030528747E+02 -0.22361024647E+03  0.23207889205E+03  0.47000000000E+01 0. -1.
         -5    1    1    2    0  502  0.60419083162E+02 -0.23223777490E+02 -0.32988585395E+03  0.33620912552E+03  0.47000000000E+01 0.  1.
        -11    1    1    2    0    0 -0.87582388259E+01 -0.48181499687E+02 -0.17243353819E+03  0.17925258367E+03  0.00000000000E+00 0.  1.
         11    1    1    2    0    0  0.25161540195E+01  0.41374748430E+02 -0.16043981768E+03  0.16570798392E+03  0.00000000000E+00 0. -1.
<mgrwt>
<rscale>  0 0.11793870E+03</rscale>
<asrwt>0</asrwt>
<pdfrwt beam="2">  1        2 0.13843217E+00 0.12881513E+03</pdfrwt>
<pdfrwt beam="1">  1       -2 0.20676252E-02 0.12881513E+03</pdfrwt>
<totfact> 0.21171223E+04</totfact>
</mgrwt>
</event>
<event>
 6    1  0.8165933E-006  0.1414745E+03  0.7546771E-02  0.1232860E+00
         -1   -1    0    0    0  501 -0.00000000000E+00  0.00000000000E+00  0.23175708612E+03  0.23175708612E+03  0.00000000000E+00 0.  1.
          1   -1    0    0  501    0  0.00000000000E+00 -0.00000000000E+00 -0.66348522325E+02  0.66348522325E+02  0.00000000000E+00 0. -1.
          5    1    1    2  502    0 -0.16583325837E+02  0.67823269111E+02  0.47421383926E+01  0.70139720596E+02  0.47000000000E+01 0. -1.
         -5    1    1    2    0  502  0.22247025755E+02 -0.62772573005E+02  0.41910622671E+02  0.78828398242E+02  0.47000000000E+01 0.  1.
        -11    1    1    2    0    0 -0.34966617027E+02 -0.30594519146E+02  0.39991399945E+02  0.61302536470E+02  0.00000000000E+00 0.  1.
         11    1    1    2    0    0  0.29302917108E+02  0.25543823040E+02  0.78764402790E+02  0.87834953142E+02  0.00000000000E+00 0. -1.
<mgrwt>
<rscale>  0 0.12642420E+03</rscale>
<asrwt>0</asrwt>
<pdfrwt beam="2">  1        1 0.10207465E-01 0.14147445E+03</pdfrwt>
<pdfrwt beam="1">  1       -1 0.35654936E-01 0.14147445E+03</pdfrwt>
<totfact> 0.45275455E+03</totfact>
</mgrwt>
</event>
<event>
 7    1  0.8165933E-006  0.1372458E+03  0.7546771E-02  0.1228771E+00
         -2   -1    0    0    0  501 -0.00000000000E+00  0.00000000000E+00  0.18691796095E+03  0.18691796095E+03  0.00000000000E+00 0.  1.
          2   -1    0    0  501    0  0.00000000000E+00 -0.00000000000E+00 -0.11927608792E+03  0.11927608792E+03  0.00000000000E+00 0. -1.
         23    2    1    2    0    0  0.56280040220E+02 -0.67076097263E+01 -0.50699214506E+02  0.14631067610E+03  0.12499587447E+03 0.  0.
          5    1    3    3  502    0  0.43070597602E+02 -0.59971726426E+02 -0.39891506296E+01  0.74092426544E+02  0.47000000000E+01 0.  1.
         -5    1    3    3    0  502  0.13209442618E+02  0.53264116700E+02 -0.46710063876E+02  0.72218249560E+02  0.47000000000E+01 0.  1.
        -11    1    1    2    0    0 -0.96652682117E+01 -0.15042804109E+02  0.10531253659E+03  0.10681963175E+03  0.00000000000E+00 0.  1.
         11    1    1    2    0    0 -0.46614772008E+02  0.21750413835E+02  0.13028550950E+02  0.53063741022E+02  0.00000000000E+00 0. -1.
<mgrwt>
<rscale>  0 0.12911745E+03</rscale>
<asrwt>0</asrwt>
<pdfrwt beam="2">  1        2 0.18350167E-01 0.13724578E+03</pdfrwt>
<pdfrwt beam="1">  1       -2 0.28756609E-01 0.13724578E+03</pdfrwt>
<totfact> 0.32630957E+03</totfact>
</mgrwt>
</event>
<event>
 7    1  0.8165933E-006  0.1253067E+03  0.7546771E-02  0.1250281E+00
          2   -1    0    0  501    0  0.00000000000E+00  0.00000000000E+00  0.11881549683E+03  0.11881549683E+03  0.00000000000E+00 0. -1.
         -2   -1    0    0    0  501 -0.00000000000E+00 -0.00000000000E+00 -0.99865318828E+02  0.99865318828E+02  0.00000000000E+00 0.  1.
         23    2    1    2    0    0  0.73793120108E+01  0.43770537087E+01  0.22834509922E+02  0.12737026166E+03  0.12501262283E+03 0.  0.
          5    1    3    3  502    0 -0.10558899891E+02 -0.34061685668E+02 -0.38474575714E+02  0.52669457695E+02  0.47000000000E+01 0. -1.
         -5    1    3    3    0  502  0.17938211902E+02  0.38438739377E+02  0.61309085636E+02  0.74700803962E+02  0.47000000000E+01 0. -1.
        -11    1    1    2    0    0 -0.45077799295E+02  0.14950870588E+02  0.58231709806E+01  0.47848153997E+02  0.00000000000E+00 0.  1.
         11    1    1    2    0    0  0.37698487284E+02 -0.19327924297E+02 -0.97075029046E+01  0.43462400000E+02  0.00000000000E+00 0. -1.
<mgrwt>
<rscale>  0 0.11574777E+03</rscale>
<asrwt>0</asrwt>
<pdfrwt beam="1">  1        2 0.18279307E-01 0.12530670E+03</pdfrwt>
<pdfrwt beam="2">  1       -2 0.15363895E-01 0.12530670E+03</pdfrwt>
<totfact> 0.94826642E+03</totfact>
</mgrwt>
</event>
<event>
 7    1  0.8165933E-006  0.1255466E+03  0.7546771E-02  0.1250266E+00
          1   -1    0    0  501    0  0.00000000000E+00  0.00000000000E+00  0.12725976018E+03  0.12725976018E+03  0.00000000000E+00 0. -1.
         -1   -1    0    0    0  501 -0.00000000000E+00 -0.00000000000E+00 -0.96455828710E+02  0.96455828710E+02  0.00000000000E+00 0.  1.
         23    2    1    2    0    0 -0.10844787091E+02  0.13113135147E+01  0.41789429937E+02  0.13231892387E+03  0.12507042900E+03 0.  0.
          5    1    3    3  502    0 -0.50994530662E+02  0.26614231866E+02 -0.13532582008E+02  0.59278834934E+02  0.47000000000E+01 0. -1.
         -5    1    3    3    0  502  0.40149743571E+02 -0.25302918352E+02  0.55322011945E+02  0.73040088935E+02  0.47000000000E+01 0. -1.
        -11    1    1    2    0    0  0.41101477766E+01 -0.34992335483E+02  0.23794427061E+02  0.42515075167E+02  0.00000000000E+00 0. -1.
         11    1    1    2    0    0  0.67346393148E+01  0.33681021968E+02 -0.34779925525E+02  0.48881589858E+02  0.00000000000E+00 0.  1.
<mgrwt>
<rscale>  0 0.11575672E+03</rscale>
<asrwt>0</asrwt>
<pdfrwt beam="1">  1        1 0.19578425E-01 0.12554657E+03</pdfrwt>
<pdfrwt beam="2">  1       -1 0.14839358E-01 0.12554657E+03</pdfrwt>
<totfact> 0.80621726E+03</totfact>
</mgrwt>
</event>
<event>
 7    1  0.8599370E-006  0.1702486E+03  0.7546771E-02  0.1184032E+00
          1   -1    0    0  501    0  0.00000000000E+00  0.00000000000E+00  0.10624236008E+04  0.10624236008E+04  0.00000000000E+00 0. -1.
         -1   -1    0    0    0  501 -0.00000000000E+00 -0.00000000000E+00 -0.26697802868E+02  0.26697802868E+02  0.00000000000E+00 0.  1.
         23    2    1    2    0    0 -0.80213476963E+02 -0.83217047482E+02  0.73218309108E+03  0.75171580412E+03  0.12500116969E+03 0.  0.
          5    1    3    3  502    0 -0.78230741932E+02 -0.49860153836E+02  0.69626157559E+03  0.70243032079E+03  0.47000000000E+01 0.  1.
         -5    1    3    3    0  502 -0.19827350316E+01 -0.33356893646E+02  0.35921515489E+02  0.49285483329E+02  0.47000000000E+01 0.  1.
        -11    1    1    2    0    0  0.48455373745E+01  0.27341344621E+02  0.10460145147E+02  0.29672259682E+02  0.00000000000E+00 0.  1.
         11    1    1    2    0    0  0.75367939589E+02  0.55875702861E+02  0.29308256167E+03  0.30773333983E+03  0.00000000000E+00 0. -1.
<mgrwt>
<rscale>  0 0.16420295E+03</rscale>
<asrwt>0</asrwt>
<pdfrwt beam="1">  1        1 0.16344975E+00 0.17024856E+03</pdfrwt>
<pdfrwt beam="2">  1       -1 0.41073551E-02 0.17024856E+03</pdfrwt>
<totfact> 0.33622820E+03</totfact>
</mgrwt>
</event>
<event>
 7    1  0.8165933E-006  0.1277780E+03  0.7546771E-02  0.1245432E+00
         -3   -1    0    0    0  501 -0.00000000000E+00  0.00000000000E+00  0.14304539996E+03  0.14304539996E+03  0.00000000000E+00 0.  1.
          3   -1    0    0  501    0  0.00000000000E+00 -0.00000000000E+00 -0.89858407017E+02  0.89858407017E+02  0.00000000000E+00 0. -1.
         23    2    1    2    0    0 -0.19372724427E+02 -0.18166422004E+02  0.84443394842E+01  0.12805668770E+03  0.12498754760E+03 0.  0.
          5    1    3    3  502    0  0.38067994477E+02 -0.46931776201E+02  0.17313123989E+02  0.63036482160E+02  0.47000000000E+01 0.  1.
         -5    1    3    3    0  502 -0.57440718904E+02  0.28765354197E+02 -0.88687845044E+01  0.65020205543E+02  0.47000000000E+01 0.  1.
        -11    1    1    2    0    0 -0.78917590524E+01  0.48236534982E+02  0.69180183974E+01  0.49364989077E+02  0.00000000000E+00 0. -1.
         11    1    1    2    0    0  0.27264483479E+02 -0.30070112978E+02  0.37824635065E+02  0.55482130202E+02  0.00000000000E+00 0.  1.
<mgrwt>
<rscale>  0 0.11859546E+03</rscale>
<asrwt>0</asrwt>
<pdfrwt beam="2">  1        3 0.13824370E-01 0.12777797E+03</pdfrwt>
<pdfrwt beam="1">  1       -3 0.22006985E-01 0.12777797E+03</pdfrwt>
<totfact> 0.18340900E+03</totfact>
</mgrwt>
</event>
<event>
 7    1  0.8165933E-006  0.1263663E+03  0.7546771E-02  0.1247531E+00
          2   -1    0    0  501    0  0.00000000000E+00  0.00000000000E+00  0.72077343960E+02  0.72077343960E+02  0.00000000000E+00 0. -1.
         -2   -1    0    0    0  501 -0.00000000000E+00 -0.00000000000E+00 -0.18340197360E+03  0.18340197360E+03  0.00000000000E+00 0.  1.
         23    2    1    2    0    0 -0.15718238332E+02  0.98187081786E+01 -0.27019806226E+02  0.12922268498E+03  0.12499984935E+03 0.  0.
          5    1    3    3  502    0 -0.51209711706E+02 -0.20261327669E+02  0.23786330151E+02  0.60173378449E+02  0.47000000000E+01 0.  1.
         -5    1    3    3    0  502  0.35491473374E+02  0.30080035848E+02 -0.50806136377E+02  0.69049306531E+02  0.47000000000E+01 0.  1.
        -11    1    1    2    0    0 -0.31882787802E+02 -0.59498119305E+00 -0.35787627262E+01  0.32088529154E+02  0.00000000000E+00 0. -1.
         11    1    1    2    0    0  0.47601026134E+02 -0.92237269855E+01 -0.80726060693E+02  0.94168103430E+02  0.00000000000E+00 0.  1.
<mgrwt>
<rscale>  0 0.11735175E+03</rscale>
<asrwt>0</asrwt>
<pdfrwt beam="1">  1        2 0.11088823E-01 0.12636626E+03</pdfrwt>
<pdfrwt beam="2">  1       -2 0.28215687E-01 0.12636626E+03</pdfrwt>
<totfact> 0.60728761E+03</totfact>
</mgrwt>
</event>
<event>
 7    1  0.8165933E-006  0.1359637E+03  0.7546771E-02  0.1230256E+00
         -1   -1    0    0    0  501 -0.00000000000E+00  0.00000000000E+00  0.29691349337E+02  0.29691349337E+02  0.00000000000E+00 0.  1.
          1   -1    0    0  501    0  0.00000000000E+00 -0.00000000000E+00 -0.49980010363E+03  0.49980010363E+03  0.00000000000E+00 0. -1.
         23    2    1    2    0    0 -0.44108147342E+02 -0.30245406926E+02 -0.27844442641E+03  0.30986677361E+03  0.12500322191E+03 0.  0.
          5    1    3    3  502    0 -0.70369553179E+02 -0.58087715255E+02 -0.23295714295E+03  0.25023424452E+03  0.47000000000E+01 0. -1.
         -5    1    3    3    0  502  0.26261405836E+02  0.27842308328E+02 -0.45487283463E+02  0.59632529096E+02  0.47000000000E+01 0. -1.
        -11    1    1    2    0    0  0.59677924041E+02  0.51789515052E+02 -0.15865902458E+03  0.17724642328E+03  0.00000000000E+00 0. -1.
         11    1    1    2    0    0 -0.15569776698E+02 -0.21544108126E+02 -0.33005303303E+02  0.42378256070E+02  0.00000000000E+00 0.  1.
<mgrwt>
<rscale>  0 0.12813075E+03</rscale>
<asrwt>0</asrwt>
<pdfrwt beam="2">  1        1 0.76892327E-01 0.13596367E+03</pdfrwt>
<pdfrwt beam="1">  1       -1 0.45678997E-02 0.13596367E+03</pdfrwt>
<totfact> 0.86963666E+03</totfact>
</mgrwt>
</event>
<event>
 7    1  0.8165933E-006  0.1523077E+03  0.7546771E-02  0.1206360E+00
          2   -1    0    0  501    0  0.00000000000E+00  0.00000000000E+00  0.14313680600E+03  0.14313680600E+03  0.00000000000E+00 0. -1.
         -2   -1    0    0    0  501 -0.00000000000E+00 -0.00000000000E+00 -0.13907909874E+03  0.13907909874E+03  0.00000000000E+00 0.  1.
         23    2    1    2    0    0 -0.40341105410E+02  0.77104095185E+02  0.24883842122E+02  0.15432703743E+03  0.12500073041E+03 0.  0.
          5    1    3    3  502    0  0.23844084493E+02  0.48984306976E+02  0.55319305141E+02  0.77783791477E+02  0.47000000000E+01 0. -1.
         -5    1    3    3    0  502 -0.64185189903E+02  0.28119788209E+02 -0.30435463019E+02  0.76543245953E+02  0.47000000000E+01 0. -1.
        -11    1    1    2    0    0 -0.57077402349E+00 -0.31455128985E+02 -0.50723121752E+02  0.59687402379E+02  0.00000000000E+00 0.  1.
         11    1    1    2    0    0  0.40911879434E+02 -0.45648966200E+02  0.29896986888E+02  0.68201464932E+02  0.00000000000E+00 0. -1.
<mgrwt>
<rscale>  0 0.14530832E+03</rscale>
<asrwt>0</asrwt>
<pdfrwt beam="1">  1        2 0.22021047E-01 0.15230768E+03</pdfrwt>
<pdfrwt beam="2">  1       -2 0.21396784E-01 0.15230768E+03</pdfrwt>
<totfact> 0.44759617E+03</totfact>
</mgrwt>
</event>
<event>
 7    1  0.8165933E-006  0.1254699E+03  0.7546771E-02  0.1250044E+00
         -2   -1    0    0    0  501 -0.00000000000E+00  0.00000000000E+00  0.13757079037E+02  0.13757079037E+02  0.00000000000E+00 0.  1.
          2   -1    0    0  501    0  0.00000000000E+00 -0.00000000000E+00 -0.89238173296E+03  0.89238173296E+03  0.00000000000E+00 0. -1.
         23    2    1    2    0    0  0.10426195723E+02 -0.30203842568E+01 -0.59847789988E+03  0.61148874208E+03  0.12499942709E+03 0.  0.
          5    1    3    3  502    0 -0.14241051460E+02 -0.21297319990E+02 -0.21775512669E+02  0.33950645611E+02  0.47000000000E+01 0.  1.
         -5    1    3    3    0  502  0.24667247183E+02  0.18276935733E+02 -0.57670238721E+03  0.57753809647E+03  0.47000000000E+01 0.  1.
        -11    1    1    2    0    0 -0.41670677169E+02  0.55805630413E+01 -0.24029729804E+03  0.24394749325E+03  0.00000000000E+00 0. -1.
         11    1    1    2    0    0  0.31244481446E+02 -0.25601787845E+01 -0.39849456010E+02  0.50702576666E+02  0.00000000000E+00 0.  1.
<mgrwt>
<rscale>  0 0.11588501E+03</rscale>
<asrwt>0</asrwt>
<pdfrwt beam="2">  1        2 0.13728952E+00 0.12546986E+03</pdfrwt>
<pdfrwt beam="1">  1       -2 0.21164734E-02 0.12546986E+03</pdfrwt>
<totfact> 0.20644554E+04</totfact>
</mgrwt>
</event>
<event>
 7    1  0.8165933E-006  0.1354577E+03  0.7546771E-02  0.1232418E+00
         -1   -1    0    0    0  501 -0.00000000000E+00  0.00000000000E+00  0.22392514212E+02  0.22392514212E+02  0.00000000000E+00 0.  1.
          1   -1    0    0  501    0  0.00000000000E+00 -0.00000000000E+00 -0.75387234564E+03  0.75387234564E+03  0.00000000000E+00 0. -1.
         23    2    1    2    0    0 -0.71146470483E+01 -0.51713836730E+02 -0.55745354975E+03  0.57367521444E+03  0.12499540960E+03 0.  0.
          5    1    3    3  502    0  0.40458441707E+02  0.22697993869E+02 -0.17236461688E+03  0.17856017356E+03  0.47000000000E+01 0. -1.
         -5    1    3    3    0  502 -0.47573088756E+02 -0.74411830599E+02 -0.38508893287E+03  0.39511504088E+03  0.47000000000E+01 0. -1.
        -11    1    1    2    0    0  0.10092183015E+00  0.76360620283E+02 -0.14494449360E+03  0.16382875431E+03  0.00000000000E+00 0.  1.
         11    1    1    2    0    0  0.70137252182E+01 -0.24646783554E+02 -0.29081788079E+02  0.38760891100E+02  0.00000000000E+00 0. -1.
<mgrwt>
<rscale>  0 0.12671158E+03</rscale>
<asrwt>0</asrwt>
<pdfrwt beam="2">  1        1 0.11598034E+00 0.13545771E+03</pdfrwt>
<pdfrwt beam="1">  1       -1 0.34450027E-02 0.13545771E+03</pdfrwt>
<totfact> 0.74740420E+03</totfact>
</mgrwt>
</event>
<event>
 7    1  0.8165933E-006  0.1994039E+03  0.7546771E-02  0.1154216E+00
          1   -1    0    0  501    0  0.00000000000E+00  0.00000000000E+00  0.32356406428E+03  0.32356406428E+03  0.00000000000E+00 0. -1.
         -1   -1    0    0    0  501 -0.00000000000E+00 -0.00000000000E+00 -0.11278841510E+03  0.11278841510E+03  0.00000000000E+00 0.  1.
         23    2    1    2    0    0  0.38442139225E+02 -0.15053214527E+03  0.93692670898E+02  0.22031845585E+03  0.12499672228E+03 0.  0.
          5    1    3    3  502    0  0.42135245199E+02 -0.15666272815E+03  0.11396328438E+03  0.19831366435E+03  0.47000000000E+01 0.  1.
         -5    1    3    3    0  502 -0.36931059739E+01  0.61305828770E+01 -0.20270613487E+02  0.22004791507E+02  0.47000000000E+01 0.  1.
        -11    1    1    2    0    0 -0.68311523275E+02  0.84085827176E+02  0.63227823180E+02  0.12543782591E+03  0.00000000000E+00 0.  1.
         11    1    1    2    0    0  0.29869384050E+02  0.66446318096E+02  0.53855155104E+02  0.90596197621E+02  0.00000000000E+00 0. -1.
<mgrwt>
<rscale>  0 0.19478358E+03</rscale>
<asrwt>0</asrwt>
<pdfrwt beam="1">  1        1 0.49779087E-01 0.19940388E+03</pdfrwt>
<pdfrwt beam="2">  1       -1 0.17352064E-01 0.19940388E+03</pdfrwt>
<totfact> 0.20026902E+03</totfact>
</mgrwt>
</event>
<event>
 6    1  0.8165933E-006  0.2525081E+03  0.7546771E-02  0.1133718E+00
          1   -1    0    0  501    0  0.00000000000E+00  0.00000000000E+00  0.61549766795E+03  0.61549766795E+03  0.00000000000E+00 0. -1.
         -1   -1    0    0    0  501 -0.00000000000E+00 -0.00000000000E+00 -0.86660813110E+02  0.86660813110E+02  0.00000000000E+00 0.  1.
          5    1    1    2  502    0 -0.12267836405E+02 -0.16449134789E+03  0.33654160664E+03  0.37482028539E+03  0.47000000000E+01 0. -1.
         -5    1    1    2    0  502  0.59035200379E+02  0.63741307393E+02  0.15307859136E+03  0.17607740992E+03  0.47000000000E+01 0.  1.
        -11    1    1    2    0    0 -0.48332352598E+02  0.78157342862E+01  0.31003796234E+02  0.57951163845E+02  0.00000000000E+00 0. -1.
         11    1    1    2    0    0  0.15649886235E+01  0.92934306212E+02  0.82128606072E+01  0.93309621903E+02  0.00000000000E+00 0.  1.
<mgrwt>
<rscale>  0 0.22022192E+03</rscale>
<asrwt>0</asrwt>
<pdfrwt beam="1">  1        1 0.94691946E-01 0.25250808E+03</pdfrwt>
<pdfrwt beam="2">  1       -1 0.13332433E-01 0.25250808E+03</pdfrwt>
<totfact> 0.13159589E+03</totfact>
</mgrwt>
</event>
<event>
 7    1  0.8165933E-006  0.1465475E+03  0.7546771E-02  0.1214496E+00
         -2   -1    0    0    0  501 -0.00000000000E+00  0.00000000000E+00  0.22403716492E+02  0.22403716492E+02  0.00000000000E+00 0.  1.
          2   -1    0    0  501    0  0.00000000000E+00 -0.00000000000E+00 -0.97807735394E+03  0.97807735394E+03  0.00000000000E+00 0. -1.
         23    2    1    2    0    0 -0.65211157143E+02  0.39969239665E+02 -0.73758187364E+03  0.75199946123E+03  0.12500453681E+03 0.  0.
          5    1    3    3  502    0 -0.92169773181E+02  0.62197162934E+02 -0.56095352400E+03  0.57188696457E+03  0.47000000000E+01 0. -1.
         -5    1    3    3    0  502  0.26958616038E+02 -0.22227923270E+02 -0.17662834965E+03  0.18011249665E+03  0.47000000000E+01 0. -1.
        -11    1    1    2    0    0  0.68773722000E+02 -0.11506252115E+02 -0.74455369468E+02  0.10200892470E+03  0.00000000000E+00 0.  1.
         11    1    1    2    0    0 -0.35625648567E+01 -0.28462987549E+02 -0.14363639434E+03  0.14647268451E+03  0.00000000000E+00 0. -1.
<mgrwt>
<rscale>  0 0.13913611E+03</rscale>
<asrwt>0</asrwt>
<pdfrwt beam="2">  1        2 0.15047341E+00 0.14654750E+03</pdfrwt>
<pdfrwt beam="1">  1       -2 0.34467264E-02 0.14654750E+03</pdfrwt>
<totfact> 0.90359578E+03</totfact>
</mgrwt>
</event>
<event>
 7    1  0.8165933E-006  0.1348787E+03  0.7546771E-02  0.1227569E+00
         -1   -1    0    0    0  501 -0.00000000000E+00  0.00000000000E+00  0.74293928172E+02  0.74293928172E+02  0.00000000000E+00 0.  1.
          1   -1    0    0  501    0  0.00000000000E+00 -0.00000000000E+00 -0.25871753470E+03  0.25871753470E+03  0.00000000000E+00 0. -1.
         23    2    1    2    0    0 -0.71991656586E+02  0.42185724282E+01 -0.16844661621E+03  0.21579277045E+03  0.11398097340E+03 0.  0.
          5    1    3    3  502    0 -0.43679336215E+02  0.55339342159E+02 -0.60791378135E+02  0.93209489100E+02  0.47000000000E+01 0. -1.
         -5    1    3    3    0  502 -0.28312320371E+02 -0.51120769731E+02 -0.10765523807E+03  0.12258328135E+03  0.47000000000E+01 0.  1.
        -11    1    1    2    0    0  0.12620563010E+02  0.64720998401E+01 -0.47204669867E+02  0.49289426292E+02  0.00000000000E+00 0. -1.
         11    1    1    2    0    0  0.59371093576E+02 -0.10690672268E+02  0.31227679549E+02  0.67929266123E+02  0.00000000000E+00 0.  1.
<mgrwt>
<rscale>  0 0.12992379E+03</rscale>
<asrwt>0</asrwt>
<pdfrwt beam="2">  1        1 0.39802697E-01 0.13487868E+03</pdfrwt>
<pdfrwt beam="1">  1       -1 0.11429835E-01 0.13487868E+03</pdfrwt>
<totfact> 0.50069481E+03</totfact>
</mgrwt>
</event>
<event>
 7    1  0.8165933E-006  0.1396532E+03  0.7546771E-02  0.1224808E+00
         -2   -1    0    0    0  501 -0.00000000000E+00  0.00000000000E+00  0.51702468534E+02  0.51702468534E+02  0.00000000000E+00 0.  1.
          2   -1    0    0  501    0  0.00000000000E+00 -0.00000000000E+00 -0.33327229587E+03  0.33327229587E+03  0.00000000000E+00 0. -1.
         23    2    1    2    0    0 -0.30713096349E+02 -0.58146543200E+02 -0.21292713608E+03  0.25463891168E+03  0.12320184775E+03 0.  0.
          5    1    3    3  502    0 -0.39955477071E+02  0.29524299041E+02 -0.59802118794E+02  0.77887789762E+02  0.47000000000E+01 0. -1.
         -5    1    3    3    0  502  0.92423807226E+01 -0.87670842241E+02 -0.15312501728E+03  0.17675112192E+03  0.47000000000E+01 0.  1.
        -11    1    1    2    0    0 -0.31013094778E+02  0.24707006175E+02 -0.16788023203E+02  0.43059098050E+02  0.00000000000E+00 0. -1.
         11    1    1    2    0    0  0.61726191127E+02  0.33439537025E+02 -0.51854668059E+02  0.87276754677E+02  0.00000000000E+00 0.  1.
<mgrwt>
<rscale>  0 0.13180095E+03</rscale>
<asrwt>0</asrwt>
<pdfrwt beam="2">  1        2 0.51272660E-01 0.13965318E+03</pdfrwt>
<pdfrwt beam="1">  1       -2 0.79542261E-02 0.13965318E+03</pdfrwt>
<totfact> 0.88490038E+03</totfact>
</mgrwt>
</event>
<event>
 7    1  0.8165933E-006  0.1437800E+03  0.7546771E-02  0.1218558E+00
          1   -1    0    0  501    0  0.00000000000E+00  0.00000000000E+00  0.16746833253E+03  0.16746833253E+03  0.00000000000E+00 0. -1.
         -1   -1    0    0    0  501 -0.00000000000E+00 -0.00000000000E+00 -0.10346908712E+03  0.10346908712E+03  0.00000000000E+00 0.  1.
         23    2    1    2    0    0 -0.53825141425E+02  0.46372471331E+02  0.58073012221E+02  0.15506500961E+03  0.12500052204E+03 0.  0.
          5    1    3    3  502    0  0.31502647189E+02 -0.16744202418E+02  0.50737938627E+01  0.36340314785E+02  0.47000000000E+01 0. -1.
         -5    1    3    3    0  502 -0.85327788614E+02  0.63116673749E+02  0.52999218358E+02  0.11872469483E+03  0.47000000000E+01 0. -1.
        -11    1    1    2    0    0  0.21875711627E+02  0.11659664218E+02  0.35521866515E+02  0.43316250179E+02  0.00000000000E+00 0. -1.
         11    1    1    2    0    0  0.31949429798E+02 -0.58032135549E+02 -0.29595633326E+02  0.72556159854E+02  0.00000000000E+00 0.  1.
<mgrwt>
<rscale>  0 0.13618417E+03</rscale>
<asrwt>0</asrwt>
<pdfrwt beam="1">  1        1 0.25764359E-01 0.14377998E+03</pdfrwt>
<pdfrwt beam="2">  1       -1 0.15918321E-01 0.14377998E+03</pdfrwt>
<totfact> 0.51540241E+03</totfact>
</mgrwt>
</event>
<event>
 7    1  0.8165933E-006  0.1447554E+03  0.7546771E-02  0.1216948E+00
          1   -1    0    0  501    0  0.00000000000E+00  0.00000000000E+00  0.20171164392E+03  0.20171164392E+03  0.00000000000E+00 0. -1.
         -1   -1    0    0    0  501 -0.00000000000E+00 -0.00000000000E+00 -0.85152846183E+02  0.85152846183E+02  0.00000000000E+00 0.  1.
         23    2    1    2    0    0  0.11038856852E+02 -0.72158081330E+02  0.67189452910E+02  0.15958864262E+03  0.12500186882E+03 0.  0.
          5    1    3    3  502    0  0.10262391900E+02 -0.10799660983E+03  0.51453193251E+02  0.12015866809E+03  0.47000000000E+01 0. -1.
         -5    1    3    3    0  502  0.77646495178E+00  0.35838528499E+02  0.15736259659E+02  0.39429974523E+02  0.47000000000E+01 0. -1.
        -11    1    1    2    0    0  0.11509326601E+02  0.64447834248E+02  0.69936837558E+02  0.95797438304E+02  0.00000000000E+00 0.  1.
         11    1    1    2    0    0 -0.22548183452E+02  0.77102470817E+01 -0.20567492735E+02  0.31478409179E+02  0.00000000000E+00 0. -1.
<mgrwt>
<rscale>  0 0.13734423E+03</rscale>
<asrwt>0</asrwt>
<pdfrwt beam="1">  1        1 0.31032560E-01 0.14475535E+03</pdfrwt>
<pdfrwt beam="2">  1       -1 0.13100438E-01 0.14475535E+03</pdfrwt>
<totfact> 0.55437557E+03</totfact>
</mgrwt>
</event>
<event>
 7    1  0.8165933E-006  0.1385541E+03  0.7546771E-02  0.1225852E+00
          1   -1    0    0  501    0  0.00000000000E+00  0.00000000000E+00  0.92478833949E+02  0.92478833949E+02  0.00000000000E+00 0. -1.
         -1   -1    0    0    0  501 -0.00000000000E+00 -0.00000000000E+00 -0.19443247782E+03  0.19443247782E+03  0.00000000000E+00 0.  1.
         23    2    1    2    0    0  0.73639968437E+01  0.59305625331E+02 -0.36076913253E+01  0.13860109445E+03  0.12500344916E+03 0.  0.
          5    1    3    3  502    0  0.42027311625E+01  0.57959214932E+02 -0.58975232024E+02  0.82928291536E+02  0.47000000000E+01 0. -1.
         -5    1    3    3    0  502  0.31612656813E+01  0.13464103989E+01  0.55367540699E+02  0.55672802918E+02  0.47000000000E+01 0. -1.
        -11    1    1    2    0    0  0.81421977210E+01 -0.70002118510E+02 -0.10656282753E+03  0.12775847600E+03  0.00000000000E+00 0.  1.
         11    1    1    2    0    0 -0.15506194565E+02  0.10696493179E+02  0.82168749889E+01  0.20551741308E+02  0.00000000000E+00 0. -1.
<mgrwt>
<rscale>  0 0.13108668E+03</rscale>
<asrwt>0</asrwt>
<pdfrwt beam="1">  1        1 0.14227513E-01 0.13855413E+03</pdfrwt>
<pdfrwt beam="2">  1       -1 0.29912689E-01 0.13855413E+03</pdfrwt>
<totfact> 0.39418753E+03</totfact>
</mgrwt>
</event>
<event>
 6    1  0.8165933E-006  0.1401697E+03  0.7546771E-02  0.1232426E+00
          2   -1    0    0  501    0  0.00000000000E+00  0.00000000000E+00  0.99590374477E+03  0.99590374477E+03  0.00000000000E+00 0.  1.
         -2   -1    0    0    0  501 -0.00000000000E+00 -0.00000000000E+00 -0.20981274529E+02  0.20981274529E+02  0.00000000000E+00 0. -1.
          5    1    1    2  502    0  0.52886572657E+02 -0.13220417250E+02  0.16235316347E+03  0.17132544670E+03  0.47000000000E+01 0. -1.
         -5    1    1    2    0  502 -0.55760302243E+02 -0.19341298327E+02  0.68387088884E+03  0.68642900560E+03  0.47000000000E+01 0.  1.
        -11    1    1    2    0    0  0.38315018091E+02  0.92136088324E+01  0.10109182837E+03  0.10850110120E+03  0.00000000000E+00 0.  1.
         11    1    1    2    0    0 -0.35441288505E+02  0.23348106745E+02  0.27606589570E+02  0.50629465799E+02  0.00000000000E+00 0. -1.
<mgrwt>
<rscale>  0 0.12670655E+03</rscale>
<asrwt>0</asrwt>
<pdfrwt beam="1">  1        2 0.15321592E+00 0.14016973E+03</pdfrwt>
<pdfrwt beam="2">  1       -2 0.32278892E-02 0.14016973E+03</pdfrwt>
<totfact> 0.96896651E+03</totfact>
</mgrwt>
</event>
<event>
 7    1  0.8165933E-006  0.1949040E+03  0.7546771E-02  0.1156519E+00
         -2   -1    0    0    0  501 -0.00000000000E+00  0.00000000000E+00  0.75090554015E+03  0.75090554015E+03  0.00000000000E+00 0.  1.
          2   -1    0    0  501    0  0.00000000000E+00 -0.00000000000E+00 -0.62772139915E+02  0.62772139915E+02  0.00000000000E+00 0. -1.
         23    2    1    2    0    0  0.93296960651E+02  0.12840578120E+03  0.15315897622E+03  0.24788149073E+03  0.11311584300E+03 0.  0.
          5    1    3    3  502    0  0.68881259832E+02  0.13005097349E+03  0.73797306574E+02  0.16469977571E+03  0.47000000000E+01 0. -1.
         -5    1    3    3    0  502  0.24415700819E+02 -0.16451922930E+01  0.79361669649E+02  0.83181715020E+02  0.47000000000E+01 0.  1.
        -11    1    1    2    0    0 -0.91813014298E+02 -0.81879972214E+02  0.47022358466E+03  0.48604956436E+03  0.00000000000E+00 0.  1.
         11    1    1    2    0    0 -0.14839463536E+01 -0.46525808982E+02  0.64750839362E+02  0.79746624983E+02  0.00000000000E+00 0. -1.
<mgrwt>
<rscale>  0 0.19216966E+03</rscale>
<asrwt>0</asrwt>
<pdfrwt beam="2">  1        2 0.96572528E-02 0.19490398E+03</pdfrwt>
<pdfrwt beam="1">  1       -2 0.11552392E+00 0.19490398E+03</pdfrwt>
<totfact> 0.40585025E+02</totfact>
</mgrwt>
</event>
<event>
 7    1  0.8165933E-006  0.2217307E+03  0.7546771E-02  0.1135789E+00
          1   -1    0    0  501    0  0.00000000000E+00  0.00000000000E+00  0.14744446502E+04  0.14744446502E+04  0.00000000000E+00 0. -1.
         -1   -1    0    0    0  501 -0.00000000000E+00 -0.00000000000E+00 -0.36369423022E+02  0.36369423022E+02  0.00000000000E+00 0.  1.
         23    2    1    2    0    0 -0.53879038561E+02 -0.17503624772E+03  0.10356183084E+04  0.10590891396E+04  0.12499554470E+03 0.  0.
          5    1    3    3  502    0 -0.71869227506E+02 -0.42800738793E+02  0.30147500210E+03  0.31289991371E+03  0.47000000000E+01 0. -1.
         -5    1    3    3    0  502  0.17990188945E+02 -0.13223550893E+03  0.73414330628E+03  0.74618922591E+03  0.47000000000E+01 0. -1.
        -11    1    1    2    0    0  0.50199605414E+02  0.18603747632E+03  0.38778699215E+03  0.43302274105E+03  0.00000000000E+00 0. -1.
         11    1    1    2    0    0  0.36794331468E+01 -0.11001228595E+02  0.14669926667E+02  0.18702192580E+02  0.00000000000E+00 0.  1.
<mgrwt>
<rscale>  0 0.21746225E+03</rscale>
<asrwt>0</asrwt>
<pdfrwt beam="1">  1        1 0.22683759E+00 0.22173075E+03</pdfrwt>
<pdfrwt beam="2">  1       -1 0.55952970E-02 0.22173075E+03</pdfrwt>
<totfact> 0.11089128E+03</totfact>
</mgrwt>
</event>
<event>
 7    1  0.8165933E-006  0.1478084E+03  0.7546771E-02  0.1224967E+00
         -2   -1    0    0    0  501 -0.00000000000E+00  0.00000000000E+00  0.90388641038E+01  0.90388641038E+01  0.00000000000E+00 0.  1.
          2   -1    0    0  501    0  0.00000000000E+00 -0.00000000000E+00 -0.22280135133E+04  0.22280135133E+04  0.00000000000E+00 0. -1.
         23    2    1    2    0    0  0.46165201110E+02  0.75096374033E+02 -0.18709649757E+04  0.18767944134E+04  0.11864501122E+03 0.  0.
          5    1    3    3  502    0  0.49757890326E+02  0.21578174163E+02 -0.15769738827E+04  0.15779132365E+04  0.47000000000E+01 0. -1.
         -5    1    3    3    0  502 -0.35926892161E+01  0.53518199870E+02 -0.29399109298E+03  0.29888117686E+03  0.47000000000E+01 0.  1.
        -11    1    1    2    0    0 -0.17048201938E+02 -0.54187422684E+02 -0.19502450330E+03  0.20312920729E+03  0.00000000000E+00 0. -1.
         11    1    1    2    0    0 -0.29116999172E+02 -0.20908951348E+02 -0.15298517027E+03  0.15712875679E+03  0.00000000000E+00 0.  1.
<mgrwt>
<rscale>  0 0.13169173E+03</rscale>
<asrwt>0</asrwt>
<pdfrwt beam="2">  1        2 0.34277159E+00 0.14780842E+03</pdfrwt>
<pdfrwt beam="1">  1       -2 0.13905934E-02 0.14780842E+03</pdfrwt>
<totfact> 0.73603591E+03</totfact>
</mgrwt>
</event>
<event>
 7    1  0.8165933E-006  0.1457321E+03  0.7546771E-02  0.1215044E+00
          1   -1    0    0  501    0  0.00000000000E+00  0.00000000000E+00  0.90037196334E+02  0.90037196334E+02  0.00000000000E+00 0. -1.
         -1   -1    0    0    0  501 -0.00000000000E+00 -0.00000000000E+00 -0.19688886985E+03  0.19688886985E+03  0.00000000000E+00 0.  1.
         23    2    1    2    0    0  0.25038220059E+02 -0.70593407934E+02 -0.47114139167E+02  0.15315872762E+03  0.12501004771E+03 0.  0.
          5    1    3    3  502    0  0.13734911250E+02 -0.25539591808E+02 -0.86954711718E+02  0.91783061764E+02  0.47000000000E+01 0.  1.
         -5    1    3    3    0  502  0.11303308809E+02 -0.45053816127E+02  0.39840572552E+02  0.61375665853E+02  0.47000000000E+01 0.  1.
        -11    1    1    2    0    0  0.14127379380E+02  0.48272224969E+02 -0.71274813597E+02  0.87234681205E+02  0.00000000000E+00 0.  1.
         11    1    1    2    0    0 -0.39165599439E+02  0.22321182966E+02  0.11537279252E+02  0.46532657359E+02  0.00000000000E+00 0. -1.
<mgrwt>
<rscale>  0 0.13873269E+03</rscale>
<asrwt>0</asrwt>
<pdfrwt beam="1">  1        1 0.13851876E-01 0.14573213E+03</pdfrwt>
<pdfrwt beam="2">  1       -1 0.30290595E-01 0.14573213E+03</pdfrwt>
<totfact> 0.40077138E+03</totfact>
</mgrwt>
</event>
<event>
 7    1  0.8165933E-006  0.1278218E+03  0.7546771E-02  0.1245013E+00
          2   -1    0    0  501    0  0.00000000000E+00  0.00000000000E+00  0.21271904398E+03  0.21271904398E+03  0.00000000000E+00 0. -1.
         -2   -1    0    0    0  501 -0.00000000000E+00 -0.00000000000E+00 -0.62581805526E+02  0.62581805526E+02  0.00000000000E+00 0.  1.
         23    2    1    2    0    0 -0.25873099857E+02  0.70779041061E+01  0.11949842549E+03  0.17498078248E+03  0.12497554368E+03 0.  0.
          5    1    3    3  502    0  0.17517361751E+02 -0.30567617754E+02 -0.67676715338E+01  0.36181882149E+02  0.47000000000E+01 0. -1.
         -5    1    3    3    0  502 -0.43390461608E+02  0.37645521860E+02  0.12626609703E+03  0.13879890033E+03  0.47000000000E+01 0. -1.
        -11    1    1    2    0    0  0.28019858216E+02  0.50006636988E+01  0.61142025312E+02  0.67442318696E+02  0.00000000000E+00 0. -1.
         11    1    1    2    0    0 -0.21467583587E+01 -0.12078567805E+02 -0.30503212350E+02  0.32877748331E+02  0.00000000000E+00 0.  1.
<mgrwt>
<rscale>  0 0.11884610E+03</rscale>
<asrwt>0</asrwt>
<pdfrwt beam="1">  1        2 0.32726006E-01 0.12782175E+03</pdfrwt>
<pdfrwt beam="2">  1       -2 0.96279702E-02 0.12782175E+03</pdfrwt>
<totfact> 0.10532495E+04</totfact>
</mgrwt>
</event>
<event>
 7    1  0.8165933E-006  0.1387055E+03  0.7546771E-02  0.1226478E+00
          1   -1    0    0  501    0  0.00000000000E+00  0.00000000000E+00  0.28352233533E+03  0.28352233533E+03  0.00000000000E+00 0. -1.
         -1   -1    0    0    0  501 -0.00000000000E+00 -0.00000000000E+00 -0.54754077075E+02  0.54754077075E+02  0.00000000000E+00 0.  1.
         23    2    1    2    0    0 -0.58988622890E+02 -0.11549334525E+02  0.14474184485E+03  0.20047295790E+03  0.12500464168E+03 0.  0.
          5    1    3    3  502    0 -0.69354601306E+02 -0.32786963359E+02  0.28836343543E+02  0.82089404904E+02  0.47000000000E+01 0.  1.
         -5    1    3    3    0  502  0.10365978416E+02  0.21237628833E+02  0.11590550130E+03  0.11838355300E+03  0.47000000000E+01 0.  1.
        -11    1    1    2    0    0 -0.19396456429E+01 -0.11558358590E+02 -0.15138300425E+02  0.19144869241E+02  0.00000000000E+00 0.  1.
         11    1    1    2    0    0  0.60928268533E+02  0.23107693115E+02  0.99164713828E+02  0.11865858526E+03  0.00000000000E+00 0. -1.
<mgrwt>
<rscale>  0 0.13066139E+03</rscale>
<asrwt>0</asrwt>
<pdfrwt beam="1">  1        1 0.43618820E-01 0.13870546E+03</pdfrwt>
<pdfrwt beam="2">  1       -1 0.84237043E-02 0.13870546E+03</pdfrwt>
<totfact> 0.71337544E+03</totfact>
</mgrwt>
</event>
<event>
 7    1  0.8165933E-006  0.1836708E+03  0.7546771E-02  0.1169404E+00
          2   -1    0    0  501    0  0.00000000000E+00  0.00000000000E+00  0.15045524223E+03  0.15045524223E+03  0.00000000000E+00 0. -1.
         -2   -1    0    0    0  501 -0.00000000000E+00 -0.00000000000E+00 -0.20093954649E+03  0.20093954649E+03  0.00000000000E+00 0.  1.
         23    2    1    2    0    0  0.12971746231E+03 -0.31803989733E+02 -0.15114129758E+02  0.18429158508E+03  0.12608266187E+03 0.  0.
          5    1    3    3  502    0 -0.68543650463E+01 -0.41272909028E+02  0.13775856138E+02  0.44297850423E+02  0.47000000000E+01 0. -1.
         -5    1    3    3    0  502  0.13657182735E+03  0.94689192951E+01 -0.28889985896E+02  0.13999373466E+03  0.47000000000E+01 0. -1.
        -11    1    1    2    0    0 -0.32206843117E+02  0.35815163788E+02 -0.48827483208E+02  0.68586659178E+02  0.00000000000E+00 0.  1.
         11    1    1    2    0    0 -0.97510619191E+02 -0.40111740553E+01  0.13457308706E+02  0.98516544448E+02  0.00000000000E+00 0. -1.
<mgrwt>
<rscale>  0 0.17835606E+03</rscale>
<asrwt>0</asrwt>
<pdfrwt beam="1">  1        2 0.23146960E-01 0.18367077E+03</pdfrwt>
<pdfrwt beam="2">  1       -2 0.30913776E-01 0.18367077E+03</pdfrwt>
<totfact> 0.22326450E+03</totfact>
</mgrwt>
</event>
<event>
 7    1  0.8165933E-006  0.1274086E+03  0.7546771E-02  0.1245515E+00
         -1   -1    0    0    0  501 -0.00000000000E+00  0.00000000000E+00  0.16185318003E+03  0.16185318003E+03  0.00000000000E+00 0.  1.
          1   -1    0    0  501    0  0.00000000000E+00 -0.00000000000E+00 -0.76772160154E+02  0.76772160154E+02  0.00000000000E+00 0. -1.
         23    2    1    2    0    0 -0.18567242738E+02 -0.16244991551E+02  0.46276403488E+02  0.13555242371E+03  0.12499724717E+03 0.  0.
          5    1    3    3  502    0  0.38027305968E+02 -0.27846843941E+02  0.59548797919E+02  0.76089894535E+02  0.47000000000E+01 0. -1.
         -5    1    3    3    0  502 -0.56594548706E+02  0.11601852390E+02 -0.13272394431E+02  0.59462529177E+02  0.47000000000E+01 0. -1.
        -11    1    1    2    0    0  0.30341088003E+00 -0.37879405521E+02  0.20598662210E+02  0.43118978485E+02  0.00000000000E+00 0.  1.
         11    1    1    2    0    0  0.18263831858E+02  0.54124397072E+02  0.18205954176E+02  0.59953937986E+02  0.00000000000E+00 0. -1.
<mgrwt>
<rscale>  0 0.11854627E+03</rscale>
<asrwt>0</asrwt>
<pdfrwt beam="2">  1        1 0.11811102E-01 0.12740861E+03</pdfrwt>
<pdfrwt beam="1">  1       -1 0.24900489E-01 0.12740861E+03</pdfrwt>
<totfact> 0.67757272E+03</totfact>
</mgrwt>
</event>
<event>
 7    1  0.8165933E-006  0.1558774E+03  0.7546771E-02  0.1201802E+00
         -1   -1    0    0    0  501 -0.00000000000E+00  0.00000000000E+00  0.94292643770E+02  0.94292643770E+02  0.00000000000E+00 0.  1.
          1   -1    0    0  501    0  0.00000000000E+00 -0.00000000000E+00 -0.21748441592E+03  0.21748441592E+03  0.00000000000E+00 0. -1.
         23    2    1    2    0    0  0.53466539989E+02 -0.76253221099E+02 -0.77709713173E+02  0.17417391866E+03  0.12499811916E+03 0.  0.
          5    1    3    3  502    0  0.12855376114E+02  0.27995744877E+02 -0.49838103455E+02  0.58778814059E+02  0.47000000000E+01 0. -1.
         -5    1    3    3    0  502  0.40611163875E+02 -0.10424896598E+03 -0.27871609719E+02  0.11539510460E+03  0.47000000000E+01 0. -1.
        -11    1    1    2    0    0 -0.78087038209E+02  0.47105134393E+02 -0.26378389882E+02  0.94933127386E+02  0.00000000000E+00 0. -1.
         11    1    1    2    0    0  0.24620498220E+02  0.29148086706E+02 -0.19103669094E+02  0.42670013640E+02  0.00000000000E+00 0.  1.
<mgrwt>
<rscale>  0 0.14892371E+03</rscale>
<asrwt>0</asrwt>
<pdfrwt beam="2">  1        1 0.33459141E-01 0.15587737E+03</pdfrwt>
<pdfrwt beam="1">  1       -1 0.14506560E-01 0.15587737E+03</pdfrwt>
<totfact> 0.43233343E+03</totfact>
</mgrwt>
</event>
<event>
 7    1  0.1478955E-005  0.1403281E+03  0.7546771E-02  0.1224107E+00
          1   -1    0    0  501    0  0.00000000000E+00  0.00000000000E+00  0.36089857793E+03  0.36089857793E+03  0.00000000000E+00 0. -1.
         -1   -1    0    0    0  501 -0.00000000000E+00 -0.00000000000E+00 -0.46269810179E+02  0.46269810179E+02  0.00000000000E+00 0.  1.
         23    2    1    2    0    0  0.25073233621E+02 -0.58637949434E+02  0.22253135535E+03  0.26308207356E+03  0.12499958864E+03 0.  0.
          5    1    3    3  502    0  0.28590734728E+01 -0.24715172523E+02 -0.98308286215E+01  0.27161539819E+02  0.47000000000E+01 0. -1.
         -5    1    3    3    0  502  0.22214160148E+02 -0.33922776911E+02  0.23236218397E+03  0.23592053374E+03  0.47000000000E+01 0. -1.
        -11    1    1    2    0    0 -0.26164465095E+02  0.15459119491E+02 -0.10989708750E+02  0.32316208125E+02  0.00000000000E+00 0.  1.
         11    1    1    2    0    0  0.10912314743E+01  0.43178829943E+02  0.10308712116E+03  0.11177010642E+03  0.00000000000E+00 0. -1.
<mgrwt>
<rscale>  0 0.13228285E+03</rscale>
<asrwt>0</asrwt>
<pdfrwt beam="1">  1        1 0.55522856E-01 0.14032809E+03</pdfrwt>
<pdfrwt beam="2">  1       -1 0.71184326E-02 0.14032809E+03</pdfrwt>
<totfact> 0.68173024E+03</totfact>
</mgrwt>
</event>
<event>
 7    1  0.8165933E-006  0.2106147E+03  0.7546771E-02  0.1142626E+00
          1   -1    0    0  501    0  0.00000000000E+00  0.00000000000E+00  0.13484852004E+03  0.13484852004E+03  0.00000000000E+00 0. -1.
         -1   -1    0    0    0  501 -0.00000000000E+00 -0.00000000000E+00 -0.34217408509E+03  0.34217408509E+03  0.00000000000E+00 0.  1.
         23    2    1    2    0    0 -0.14381255843E+03 -0.89703197595E+02 -0.40837858151E+02  0.21453732172E+03  0.12501926304E+03 0.  0.
          5    1    3    3  502    0 -0.16314401627E+03 -0.76023539912E+02 -0.52746594752E+02  0.18761620912E+03  0.47000000000E+01 0. -1.
         -5    1    3    3    0  502  0.19331457837E+02 -0.13679657683E+02  0.11908736601E+02  0.26921112604E+02  0.47000000000E+01 0. -1.
        -11    1    1    2    0    0  0.89252541186E+02  0.16854692448E+02 -0.14142851950E+03  0.16808367824E+03  0.00000000000E+00 0.  1.
         11    1    1    2    0    0  0.54560017248E+02  0.72848505148E+02 -0.25059187394E+02  0.94401605162E+02  0.00000000000E+00 0. -1.
<mgrwt>
<rscale>  0 0.20866649E+03</rscale>
<asrwt>0</asrwt>
<pdfrwt beam="1">  1        1 0.20745927E-01 0.21061465E+03</pdfrwt>
<pdfrwt beam="2">  1       -1 0.52642166E-01 0.21061465E+03</pdfrwt>
<totfact> 0.90644224E+02</totfact>
</mgrwt>
</event>
<event>
 7    1  0.8165933E-006  0.1267380E+03  0.7546771E-02  0.1246181E+00
          1   -1    0    0  501    0  0.00000000000E+00  0.00000000000E+00  0.41223281075E+03  0.41223281075E+03  0.00000000000E+00 0. -1.
         -1   -1    0    0    0  501 -0.00000000000E+00 -0.00000000000E+00 -0.32086234989E+02  0.32086234989E+02  0.00000000000E+00 0.  1.
         23    2    1    2    0    0  0.19027569749E+02  0.87151103305E+01  0.27082981644E+03  0.29901725207E+03  0.12499810400E+03 0.  0.
          5    1    3    3  502    0  0.46362676222E+02 -0.28027636180E+01  0.28210247505E+02  0.54545955805E+02  0.47000000000E+01 0.  1.
         -5    1    3    3    0  502 -0.27335106473E+02  0.11517873948E+02  0.24261956894E+03  0.24447129626E+03  0.47000000000E+01 0.  1.
        -11    1    1    2    0    0 -0.21053639832E+00 -0.20146964780E+02  0.11939805454E+03  0.12108608485E+03  0.00000000000E+00 0. -1.
         11    1    1    2    0    0 -0.18817033351E+02  0.11431854449E+02 -0.10081295225E+02  0.24215708820E+02  0.00000000000E+00 0.  1.
<mgrwt>
<rscale>  0 0.11814945E+03</rscale>
<asrwt>0</asrwt>
<pdfrwt beam="1">  1        1 0.63420429E-01 0.12673803E+03</pdfrwt>
<pdfrwt beam="2">  1       -1 0.49363441E-02 0.12673803E+03</pdfrwt>
<totfact> 0.98782241E+03</totfact>
</mgrwt>
</event>
<event>
 7    1  0.8165933E-006  0.1328580E+03  0.7546771E-02  0.1234108E+00
         -1   -1    0    0    0  501 -0.00000000000E+00  0.00000000000E+00  0.48633732677E+03  0.48633732677E+03  0.00000000000E+00 0.  1.
          1   -1    0    0  501    0  0.00000000000E+00 -0.00000000000E+00 -0.29372265209E+02  0.29372265209E+02  0.00000000000E+00 0. -1.
         23    2    1    2    0    0 -0.10738516023E+02  0.43714975921E+02  0.25276903626E+03  0.28555811408E+03  0.12499974391E+03 0.  0.
          5    1    3    3  502    0  0.54322856539E+02  0.35889857578E+02  0.14993634888E+03  0.16352997687E+03  0.47000000000E+01 0.  1.
         -5    1    3    3    0  502 -0.65061372563E+02  0.78251183429E+01  0.10283268737E+03  0.12202813720E+03  0.47000000000E+01 0.  1.
        -11    1    1    2    0    0 -0.26592329131E+02 -0.43841018481E+02  0.17614390089E+03  0.18345533704E+03  0.00000000000E+00 0.  1.
         11    1    1    2    0    0  0.37330845155E+02  0.12604256081E+00  0.28052124414E+02  0.46696140856E+02  0.00000000000E+00 0. -1.
<mgrwt>
<rscale>  0 0.12561718E+03</rscale>
<asrwt>0</asrwt>
<pdfrwt beam="2">  1        1 0.45188104E-02 0.13285801E+03</pdfrwt>
<pdfrwt beam="1">  1       -1 0.74821121E-01 0.13285801E+03</pdfrwt>
<totfact> 0.34471191E+03</totfact>
</mgrwt>
</event>
<event>
 7    1  0.8165933E-006  0.1277715E+03  0.7546771E-02  0.1241253E+00
          2   -1    0    0  501    0  0.00000000000E+00  0.00000000000E+00  0.13765413745E+03  0.13765413745E+03  0.00000000000E+00 0. -1.
         -2   -1    0    0    0  501 -0.00000000000E+00 -0.00000000000E+00 -0.97878985612E+02  0.97878985612E+02  0.00000000000E+00 0.  1.
         23    2    1    2    0    0  0.48930122341E+02  0.38380179196E+01  0.33831670652E+02  0.13217465769E+03  0.11796894059E+03 0.  0.
          5    1    3    3  502    0 -0.35629141310E+02  0.20522590911E+02  0.13004175984E+02  0.43379846025E+02  0.47000000000E+01 0. -1.
         -5    1    3    3    0  502  0.84559263651E+02 -0.16684572991E+02  0.20827494669E+02  0.88794811668E+02  0.47000000000E+01 0.  1.
        -11    1    1    2    0    0  0.23662048268E+02  0.93320415496E+01  0.14182682631E+02  0.29122637489E+02  0.00000000000E+00 0.  1.
         11    1    1    2    0    0 -0.72592170609E+02 -0.13170059469E+02 -0.82392014481E+01  0.74235827877E+02  0.00000000000E+00 0. -1.
<mgrwt>
<rscale>  0 0.12112456E+03</rscale>
<asrwt>0</asrwt>
<pdfrwt beam="1">  1        2 0.21177560E-01 0.12777151E+03</pdfrwt>
<pdfrwt beam="2">  1       -2 0.15058305E-01 0.12777151E+03</pdfrwt>
<totfact> 0.83101848E+03</totfact>
</mgrwt>
</event>
<event>
 7    1  0.8165933E-006  0.1574954E+03  0.7546771E-02  0.1199215E+00
         -1   -1    0    0    0  501 -0.00000000000E+00  0.00000000000E+00  0.67324085244E+02  0.67324085244E+02  0.00000000000E+00 0.  1.
          1   -1    0    0  501    0  0.00000000000E+00 -0.00000000000E+00 -0.32462453664E+03  0.32462453664E+03  0.00000000000E+00 0. -1.
         23    2    1    2    0    0 -0.18755454396E+02 -0.93960551617E+02 -0.17480002675E+03  0.23528671426E+03  0.12499774487E+03 0.  0.
          5    1    3    3  502    0  0.50940346214E+02 -0.20047513869E+02 -0.49928385514E+02  0.74241197221E+02  0.47000000000E+01 0.  1.
         -5    1    3    3    0  502 -0.69695800610E+02 -0.73913037748E+02 -0.12487164124E+03  0.16104551704E+03  0.47000000000E+01 0.  1.
        -11    1    1    2    0    0 -0.26151330428E+02  0.54143469015E+02 -0.74847853718E+01  0.60592320736E+02  0.00000000000E+00 0.  1.
         11    1    1    2    0    0  0.44906784825E+02  0.39817082602E+02 -0.75015639276E+02  0.96069586895E+02  0.00000000000E+00 0. -1.
<mgrwt>
<rscale>  0 0.15102878E+03</rscale>
<asrwt>0</asrwt>
<pdfrwt beam="2">  1        1 0.49942237E-01 0.15749536E+03</pdfrwt>
<pdfrwt beam="1">  1       -1 0.10357552E-01 0.15749536E+03</pdfrwt>
<totfact> 0.44336351E+03</totfact>
</mgrwt>
</event>
<event>
 7    1  0.8165933E-006  0.1429532E+03  0.7546771E-02  0.1220001E+00
         -1   -1    0    0    0  501 -0.00000000000E+00  0.00000000000E+00  0.31301986412E+03  0.31301986412E+03  0.00000000000E+00 0.  1.
          1   -1    0    0  501    0  0.00000000000E+00 -0.00000000000E+00 -0.55881345659E+02  0.55881345659E+02  0.00000000000E+00 0. -1.
         23    2    1    2    0    0  0.49151491017E+02 -0.48942022497E+02  0.99255007225E+02  0.17403212669E+03  0.12499773609E+03 0.  0.
          5    1    3    3  502    0  0.45910358032E+02 -0.59585157935E+02  0.12479086555E+03  0.14578409428E+03  0.47000000000E+01 0.  1.
         -5    1    3    3    0  502  0.32411329848E+01  0.10643135437E+02 -0.25535858322E+02  0.28248032413E+02  0.47000000000E+01 0.  1.
        -11    1    1    2    0    0 -0.59256284551E+01 -0.24888171742E+02  0.19471696111E+02  0.32150911569E+02  0.00000000000E+00 0. -1.
         11    1    1    2    0    0 -0.43225862562E+02  0.73830194240E+02  0.13841181512E+03  0.16271817151E+03  0.00000000000E+00 0.  1.
<mgrwt>
<rscale>  0 0.13515536E+03</rscale>
<asrwt>0</asrwt>
<pdfrwt beam="2">  1        1 0.85971303E-02 0.14295323E+03</pdfrwt>
<pdfrwt beam="1">  1       -1 0.48156901E-01 0.14295323E+03</pdfrwt>
<totfact> 0.33487000E+03</totfact>
</mgrwt>
</event>
<event>
 7    1  0.8165933E-006  0.1414833E+03  0.7546771E-02  0.1222523E+00
          2   -1    0    0  501    0  0.00000000000E+00  0.00000000000E+00  0.93899545827E+02  0.93899545827E+02  0.00000000000E+00 0. -1.
         -2   -1    0    0    0  501 -0.00000000000E+00 -0.00000000000E+00 -0.17537736062E+03  0.17537736062E+03  0.00000000000E+00 0.  1.
         23    2    1    2    0    0 -0.61043549359E+02  0.25800963521E+02 -0.23650214844E+02  0.14344635250E+03  0.12500207496E+03 0.  0.
          5    1    3    3  502    0  0.96219603148E+00 -0.22876449787E+02  0.37074824458E+02  0.43827963501E+02  0.47000000000E+01 0. -1.
         -5    1    3    3    0  502 -0.62005745390E+02  0.48677413308E+02 -0.60725039302E+02  0.99618388995E+02  0.47000000000E+01 0. -1.
        -11    1    1    2    0    0  0.69677664526E+02 -0.48876996181E+02 -0.34299692038E+02  0.91762773299E+02  0.00000000000E+00 0.  1.
         11    1    1    2    0    0 -0.86341151672E+01  0.23076032660E+02 -0.23527907915E+02  0.34067780657E+02  0.00000000000E+00 0. -1.
<mgrwt>
<rscale>  0 0.13338166E+03</rscale>
<asrwt>0</asrwt>
<pdfrwt beam="1">  1        2 0.14446084E-01 0.14148330E+03</pdfrwt>
<pdfrwt beam="2">  1       -2 0.26981132E-01 0.14148330E+03</pdfrwt>
<totfact> 0.48321270E+03</totfact>
</mgrwt>
</event>
<event>
 7    1  0.8165933E-006  0.1391787E+03  0.7546771E-02  0.1224611E+00
         -2   -1    0    0    0  501 -0.00000000000E+00  0.00000000000E+00  0.16107638351E+03  0.16107638351E+03  0.00000000000E+00 0.  1.
          2   -1    0    0  501    0  0.00000000000E+00 -0.00000000000E+00 -0.98685546052E+02  0.98685546052E+02  0.00000000000E+00 0. -1.
         23    2    1    2    0    0  0.30203050392E+02 -0.53228094851E+02  0.25685064231E+02  0.14152893433E+03  0.12500104957E+03 0.  0.
          5    1    3    3  502    0 -0.41073353661E+02 -0.49611825821E+01 -0.17430009913E+02  0.45138995991E+02  0.47000000000E+01 0. -1.
         -5    1    3    3    0  502  0.71276404053E+02 -0.48266912269E+02  0.43115074144E+02  0.96389938339E+02  0.47000000000E+01 0. -1.
        -11    1    1    2    0    0 -0.38088591679E+02 -0.14400776279E+02 -0.33734686824E+00  0.40721455971E+02  0.00000000000E+00 0. -1.
         11    1    1    2    0    0  0.78855412870E+01  0.67628871129E+02  0.37043120091E+02  0.77511539255E+02  0.00000000000E+00 0.  1.
<mgrwt>
<rscale>  0 0.13193575E+03</rscale>
<asrwt>0</asrwt>
<pdfrwt beam="2">  1        2 0.15182392E-01 0.13917872E+03</pdfrwt>
<pdfrwt beam="1">  1       -2 0.24780982E-01 0.13917872E+03</pdfrwt>
<totfact> 0.52871589E+03</totfact>
</mgrwt>
</event>
<event>
 7    1  0.8165933E-006  0.1428101E+03  0.7546771E-02  0.1220801E+00
          2   -1    0    0  501    0  0.00000000000E+00  0.00000000000E+00  0.84918914333E+02  0.84918914333E+02  0.00000000000E+00 0. -1.
         -2   -1    0    0    0  501 -0.00000000000E+00 -0.00000000000E+00 -0.37800631516E+03  0.37800631516E+03  0.00000000000E+00 0.  1.
         23    2    1    2    0    0  0.42861622042E+02 -0.54105297081E+02  0.63961363880E+01  0.14295321339E+03  0.12502083363E+03 0.  0.
          5    1    3    3  502    0 -0.36815971618E+00 -0.10285583648E+02 -0.54842692638E+02  0.55997675919E+02  0.47000000000E+01 0. -1.
         -5    1    3    3    0  502  0.43229781758E+02 -0.43819713433E+02  0.61238829026E+02  0.86955537470E+02  0.47000000000E+01 0. -1.
        -11    1    1    2    0    0 -0.62667718852E+02  0.88973888114E+01 -0.16977332717E+03  0.18118882176E+03  0.00000000000E+00 0. -1.
         11    1    1    2    0    0  0.19806096810E+02  0.45207908270E+02 -0.12971021004E+03  0.13878319434E+03  0.00000000000E+00 0.  1.
<mgrwt>
<rscale>  0 0.13458884E+03</rscale>
<asrwt>0</asrwt>
<pdfrwt beam="1">  1        2 0.13064448E-01 0.14281005E+03</pdfrwt>
<pdfrwt beam="2">  1       -2 0.58154817E-01 0.14281005E+03</pdfrwt>
<totfact> 0.12698918E+03</totfact>
</mgrwt>
</event>
<event>
 7    1  0.8165933E-006  0.1510687E+03  0.7546771E-02  0.1207879E+00
         -2   -1    0    0    0  501 -0.00000000000E+00  0.00000000000E+00  0.33661866125E+02  0.33661866125E+02  0.00000000000E+00 0.  1.
          2   -1    0    0  501    0  0.00000000000E+00 -0.00000000000E+00 -0.58526487151E+03  0.58526487151E+03  0.00000000000E+00 0. -1.
         23    2    1    2    0    0 -0.75437551267E+02  0.38826441412E+02 -0.35573726780E+03  0.38648511687E+03  0.12499370052E+03 0.  0.
          5    1    3    3  502    0 -0.21328985334E+02  0.49425950015E+02 -0.43465883884E+02  0.69348563158E+02  0.47000000000E+01 0.  1.
         -5    1    3    3    0  502 -0.54108565934E+02 -0.10599508603E+02 -0.31227138392E+03  0.31713655372E+03  0.47000000000E+01 0.  1.
        -11    1    1    2    0    0  0.37507480938E+01 -0.13051806812E+02  0.73321834440E+01  0.15433038792E+02  0.00000000000E+00 0.  1.
         11    1    1    2    0    0  0.71686803173E+02 -0.25774634600E+02 -0.20319792103E+03  0.21700858197E+03  0.00000000000E+00 0. -1.
<mgrwt>
<rscale>  0 0.14412841E+03</rscale>
<asrwt>0</asrwt>
<pdfrwt beam="2">  1        2 0.90040743E-01 0.15106867E+03</pdfrwt>
<pdfrwt beam="1">  1       -2 0.51787490E-02 0.15106867E+03</pdfrwt>
<totfact> 0.92779303E+03</totfact>
</mgrwt>
</event>
<event>
 7    1  0.8165933E-006  0.1618191E+03  0.7546771E-02  0.1189687E+00
          3   -1    0    0  501    0  0.00000000000E+00  0.00000000000E+00  0.40238955858E+02  0.40238955858E+02  0.00000000000E+00 0. -1.
         -3   -1    0    0    0  501 -0.00000000000E+00 -0.00000000000E+00 -0.87603080002E+03  0.87603080002E+03  0.00000000000E+00 0.  1.
         23    2    1    2    0    0  0.76095950353E+02 -0.89007692713E+02 -0.17489460673E+03  0.23827201136E+03  0.11168019033E+03 0.  0.
          5    1    3    3  502    0 -0.15291934893E+02 -0.58079238768E+02 -0.96994584469E+02  0.11418003619E+03  0.47000000000E+01 0. -1.
         -5    1    3    3    0  502  0.91387885247E+02 -0.30928453945E+02 -0.77900022262E+02  0.12409197517E+03  0.47000000000E+01 0.  1.
        -11    1    1    2    0    0  0.19679249200E+02  0.37647479914E+02 -0.17221360128E+03  0.17737567493E+03  0.00000000000E+00 0.  1.
         11    1    1    2    0    0 -0.95775199554E+02  0.51360212799E+02 -0.48868363615E+03  0.50062206958E+03  0.00000000000E+00 0. -1.
<mgrwt>
<rscale>  0 0.15912625E+03</rscale>
<asrwt>0</asrwt>
<pdfrwt beam="1">  1        3 0.61906085E-02 0.16181912E+03</pdfrwt>
<pdfrwt beam="2">  1       -3 0.13477397E+00 0.16181912E+03</pdfrwt>
<totfact> 0.17284565E+02</totfact>
</mgrwt>
</event>
<event>
 7    1  0.8165933E-006  0.1475681E+03  0.7546771E-02  0.1213154E+00
         -1   -1    0    0    0  501 -0.00000000000E+00  0.00000000000E+00  0.16611972591E+02  0.16611972591E+02  0.00000000000E+00 0.  1.
          1   -1    0    0  501    0  0.00000000000E+00 -0.00000000000E+00 -0.11348173916E+04  0.11348173916E+04  0.00000000000E+00 0. -1.
         23    2    1    2    0    0 -0.45195440187E+02 -0.64095672195E+02 -0.74271021134E+03  0.75722836140E+03  0.12500180108E+03 0.  0.
          5    1    3    3  502    0 -0.46305760657E+02 -0.99865824944E+02 -0.59942236903E+03  0.60946425076E+03  0.47000000000E+01 0. -1.
         -5    1    3    3    0  502  0.11103204698E+01  0.35770152750E+02 -0.14328784231E+03  0.14776411064E+03  0.47000000000E+01 0. -1.
        -11    1    1    2    0    0  0.68714012538E+02  0.49864445386E+02 -0.21126566168E+03  0.22768675464E+03  0.00000000000E+00 0.  1.
         11    1    1    2    0    0 -0.23518572351E+02  0.14231226809E+02 -0.16422954594E+03  0.16651424811E+03  0.00000000000E+00 0. -1.
<mgrwt>
<rscale>  0 0.14013003E+03</rscale>
<asrwt>0</asrwt>
<pdfrwt beam="2">  1        1 0.17458729E+00 0.14756806E+03</pdfrwt>
<pdfrwt beam="1">  1       -1 0.25556881E-02 0.14756806E+03</pdfrwt>
<totfact> 0.59597210E+03</totfact>
</mgrwt>
</event>
<event>
 7    1  0.8165933E-006  0.1471678E+03  0.7546771E-02  0.1213368E+00
          1   -1    0    0  501    0  0.00000000000E+00  0.00000000000E+00  0.60461309305E+03  0.60461309305E+03  0.00000000000E+00 0. -1.
         -1   -1    0    0    0  501 -0.00000000000E+00 -0.00000000000E+00 -0.33818861143E+02  0.33818861143E+02  0.00000000000E+00 0.  1.
         23    2    1    2    0    0 -0.46828004983E+02  0.61968604368E+02  0.42251491218E+03  0.44741166597E+03  0.12500151140E+03 0.  0.
          5    1    3    3  502    0  0.11528892549E+02 -0.32524086038E+02  0.12675740941E+03  0.13145441178E+03  0.47000000000E+01 0.  1.
         -5    1    3    3    0  502 -0.58356897531E+02  0.94492690406E+02  0.29575750277E+03  0.31595725419E+03  0.47000000000E+01 0.  1.
        -11    1    1    2    0    0 -0.57464155857E+01  0.17024329236E+02  0.41197157165E+01  0.18434238134E+02  0.00000000000E+00 0.  1.
         11    1    1    2    0    0  0.52574420568E+02 -0.78992933603E+02  0.14415960401E+03  0.17258605009E+03  0.00000000000E+00 0. -1.
<mgrwt>
<rscale>  0 0.13997097E+03</rscale>
<asrwt>0</asrwt>
<pdfrwt beam="1">  1        1 0.93017391E-01 0.14716775E+03</pdfrwt>
<pdfrwt beam="2">  1       -1 0.52029022E-02 0.14716775E+03</pdfrwt>
<totfact> 0.55897033E+03</totfact>
</mgrwt>
</event>
<event>
 7    1  0.8165933E-006  0.2064043E+03  0.7546771E-02  0.1148586E+00
         -1   -1    0    0    0  501 -0.00000000000E+00  0.00000000000E+00  0.10278773575E+03  0.10278773575E+03  0.00000000000E+00 0.  1.
          1   -1    0    0  501    0  0.00000000000E+00 -0.00000000000E+00 -0.37985564537E+03  0.37985564537E+03  0.00000000000E+00 0. -1.
         23    2    1    2    0    0 -0.15574892125E+03 -0.52169944256E+02 -0.16820437941E+03  0.26626199516E+03  0.12499322886E+03 0.  0.
          5    1    3    3  502    0 -0.49597402811E+02  0.22948413054E+02 -0.11161172989E+03  0.12436157074E+03  0.47000000000E+01 0.  1.
         -5    1    3    3    0  502 -0.10615151844E+03 -0.75118357310E+02 -0.56592649515E+02  0.14190042442E+03  0.47000000000E+01 0.  1.
        -11    1    1    2    0    0  0.28141017511E+02 -0.15040018261E+02 -0.52698990023E+02  0.61606027021E+02  0.00000000000E+00 0. -1.
         11    1    1    2    0    0  0.12760790374E+03  0.67209962517E+02 -0.56164540192E+02  0.15477535893E+03  0.00000000000E+00 0.  1.
<mgrwt>
<rscale>  0 0.20137263E+03</rscale>
<asrwt>0</asrwt>
<pdfrwt beam="2">  1        1 0.58439331E-01 0.20640430E+03</pdfrwt>
<pdfrwt beam="1">  1       -1 0.15813498E-01 0.20640430E+03</pdfrwt>
<totfact> 0.18978141E+03</totfact>
</mgrwt>
</event>
<event>
 7    1  0.8165933E-006  0.1243661E+03  0.7546771E-02  0.1286953E+00
         -2   -1    0    0    0  501 -0.00000000000E+00  0.00000000000E+00  0.26010912780E+02  0.26010912780E+02  0.00000000000E+00 0.  1.
          2   -1    0    0  501    0  0.00000000000E+00 -0.00000000000E+00 -0.35086798411E+03  0.35086798411E+03  0.00000000000E+00 0. -1.
         23    2    1    2    0    0  0.18479926239E+02  0.36253481843E+02 -0.29995864444E+03  0.32471852808E+03  0.11752068534E+03 0.  0.
          5    1    3    3  502    0  0.34203987085E+02  0.41493968308E+02 -0.30252286902E+03  0.30730089231E+03  0.47000000000E+01 0. -1.
         -5    1    3    3    0  502 -0.15724060846E+02 -0.52404864656E+01  0.25642245785E+01  0.17417635763E+02  0.47000000000E+01 0.  1.
        -11    1    1    2    0    0 -0.39352934418E+01 -0.26647104860E+02 -0.21352365078E+02  0.34372637756E+02  0.00000000000E+00 0.  1.
         11    1    1    2    0    0 -0.14544632797E+02 -0.96063769826E+01 -0.35460618185E+01  0.17787731062E+02  0.00000000000E+00 0. -1.
<mgrwt>
<rscale>  0 0.96900042E+02</rscale>
<asrwt>0</asrwt>
<pdfrwt beam="2">  1        2 0.53979691E-01 0.12436613E+03</pdfrwt>
<pdfrwt beam="1">  1       -2 0.40016788E-02 0.12436613E+03</pdfrwt>
<totfact> 0.23434604E+04</totfact>
</mgrwt>
</event>
<event>
 7    1  0.8165933E-006  0.1300146E+03  0.7546771E-02  0.1241990E+00
          1   -1    0    0  501    0  0.00000000000E+00  0.00000000000E+00  0.24032045938E+03  0.24032045938E+03  0.00000000000E+00 0. -1.
         -1   -1    0    0    0  501 -0.00000000000E+00 -0.00000000000E+00 -0.56578877544E+02  0.56578877544E+02  0.00000000000E+00 0.  1.
         23    2    1    2    0    0  0.31513985463E+02 -0.16915591613E+02  0.13968545431E+03  0.19082929286E+03  0.12499809738E+03 0.  0.
          5    1    3    3  502    0  0.65377021564E+01 -0.13919302047E+02 -0.21933632725E+02  0.27196741781E+02  0.47000000000E+01 0.  1.
         -5    1    3    3    0  502  0.24976283306E+02 -0.29962895663E+01  0.16161908703E+03  0.16363255108E+03  0.47000000000E+01 0.  1.
        -11    1    1    2    0    0 -0.79701905405E+00  0.30415191302E+02 -0.18124219412E+02  0.35414777009E+02  0.00000000000E+00 0.  1.
         11    1    1    2    0    0 -0.30716966409E+02 -0.13499599688E+02  0.62180346935E+02  0.70655267051E+02  0.00000000000E+00 0. -1.
<mgrwt>
<rscale>  0 0.12067360E+03</rscale>
<asrwt>0</asrwt>
<pdfrwt beam="1">  1        1 0.36972378E-01 0.13001459E+03</pdfrwt>
<pdfrwt beam="2">  1       -1 0.87044428E-02 0.13001459E+03</pdfrwt>
<totfact> 0.82896586E+03</totfact>
</mgrwt>
</event>
<event>
 7    1  0.8165933E-006  0.1267645E+03  0.7546771E-02  0.1246450E+00
          1   -1    0    0  501    0  0.00000000000E+00  0.00000000000E+00  0.22390932700E+03  0.22390932700E+03  0.00000000000E+00 0.  1.
         -1   -1    0    0    0  501 -0.00000000000E+00 -0.00000000000E+00 -0.55492144319E+02  0.55492144319E+02  0.00000000000E+00 0. -1.
         23    2    1    2    0    0 -0.17902746554E+02  0.11097551441E+02  0.10934564028E+03  0.16740879404E+03  0.12500228515E+03 0.  0.
          5    1    3    3  502    0 -0.30393765339E+02  0.10153552531E+02 -0.19543281308E+02  0.37827310832E+02  0.47000000000E+01 0.  1.
         -5    1    3    3    0  502  0.12491018785E+02  0.94399891009E+00  0.12888892158E+03  0.12958148321E+03  0.47000000000E+01 0.  1.
        -11    1    1    2    0    0  0.30825581678E+02 -0.11865333731E+02  0.80468778463E+02  0.86984061400E+02  0.00000000000E+00 0.  1.
         11    1    1    2    0    0 -0.12922835124E+02  0.76778229021E+00 -0.21397236056E+02  0.25008615878E+02  0.00000000000E+00 0. -1.
<mgrwt>
<rscale>  0 0.11799042E+03</rscale>
<asrwt>0</asrwt>
<pdfrwt beam="1">  1        1 0.34447588E-01 0.12676449E+03</pdfrwt>
<pdfrwt beam="2">  1       -1 0.85372531E-02 0.12676449E+03</pdfrwt>
<totfact> 0.92980241E+03</totfact>
</mgrwt>
</event>
<event>
 7    1  0.8165933E-006  0.1560127E+03  0.7546771E-02  0.1201300E+00
         -2   -1    0    0    0  501 -0.00000000000E+00  0.00000000000E+00  0.25254505269E+02  0.25254505269E+02  0.00000000000E+00 0. -1.
          2   -1    0    0  501    0  0.00000000000E+00 -0.00000000000E+00 -0.93673131722E+03  0.93673131722E+03  0.00000000000E+00 0.  1.
         23    2    1    2    0    0  0.90898954120E+02  0.21333761531E+02 -0.66307722780E+03  0.68118379882E+03  0.12498883353E+03 0.  0.
          5    1    3    3  502    0  0.11241501071E+03  0.45772425369E+01 -0.36879618421E+03  0.38560446220E+03  0.47000000000E+01 0. -1.
         -5    1    3    3    0  502 -0.21516056587E+02  0.16756518994E+02 -0.29428104359E+03  0.29557933662E+03  0.47000000000E+01 0. -1.
        -11    1    1    2    0    0 -0.61080391858E+02 -0.47050237380E+02 -0.21746321193E+03  0.23072665136E+03  0.00000000000E+00 0.  1.
         11    1    1    2    0    0 -0.29818562262E+02  0.25716475849E+02 -0.30936372226E+02  0.50075372310E+02  0.00000000000E+00 0. -1.
<mgrwt>
<rscale>  0 0.14932922E+03</rscale>
<asrwt>0</asrwt>
<pdfrwt beam="2">  1        2 0.14411250E+00 0.15601268E+03</pdfrwt>
<pdfrwt beam="1">  1       -2 0.38853087E-02 0.15601268E+03</pdfrwt>
<totfact> 0.80438437E+03</totfact>
</mgrwt>
</event>
<event>
 7    1  0.8165933E-006  0.1484879E+03  0.7546771E-02  0.1211721E+00
          1   -1    0    0  501    0  0.00000000000E+00  0.00000000000E+00  0.40899519138E+03  0.40899519138E+03  0.00000000000E+00 0. -1.
         -1   -1    0    0    0  501 -0.00000000000E+00 -0.00000000000E+00 -0.44885624347E+02  0.44885624347E+02  0.00000000000E+00 0.  1.
         23    2    1    2    0    0  0.79820134555E+02  0.74044909246E+01  0.18005184716E+03  0.23338237018E+03  0.12499033035E+03 0.  0.
          5    1    3    3  502    0 -0.27606839926E+01 -0.21150887070E+02 -0.10098772983E+02  0.24063595236E+02  0.47000000000E+01 0.  1.
         -5    1    3    3    0  502  0.82580818547E+02  0.28555377994E+02  0.19015062014E+03  0.20931877494E+03  0.47000000000E+01 0.  1.
        -11    1    1    2    0    0  0.11192104894E+01 -0.31246835209E+02  0.23479896103E+02  0.39101443244E+02  0.00000000000E+00 0.  1.
         11    1    1    2    0    0 -0.80939345044E+02  0.23842344285E+02  0.16057782378E+03  0.18139700231E+03  0.00000000000E+00 0. -1.
<mgrwt>
<rscale>  0 0.14120142E+03</rscale>
<asrwt>0</asrwt>
<pdfrwt beam="1">  1        1 0.62922335E-01 0.14848792E+03</pdfrwt>
<pdfrwt beam="2">  1       -1 0.69054810E-02 0.14848792E+03</pdfrwt>
<totfact> 0.61165500E+03</totfact>
</mgrwt>
</event>
<event>
 7    1  0.8165933E-006  0.1585251E+03  0.7546771E-02  0.1197636E+00
         -2   -1    0    0    0  501 -0.00000000000E+00  0.00000000000E+00  0.27232612402E+02  0.27232612402E+02  0.00000000000E+00 0.  1.
          2   -1    0    0  501    0  0.00000000000E+00 -0.00000000000E+00 -0.79293514772E+03  0.79293514772E+03  0.00000000000E+00 0. -1.
         23    2    1    2    0    0  0.67167440969E+02 -0.70671291872E+02 -0.42848679477E+03  0.45687103693E+03  0.12499725789E+03 0.  0.
          5    1    3    3  502    0  0.50229174466E+02 -0.18237384473E+02 -0.37863534737E+03  0.38241651172E+03  0.47000000000E+01 0. -1.
         -5    1    3    3    0  502  0.16938266503E+02 -0.52433907399E+02 -0.49851447400E+02  0.74454525216E+02  0.47000000000E+01 0. -1.
        -11    1    1    2    0    0 -0.60614994100E+02 -0.20555304936E+01 -0.18017969797E+03  0.19011345633E+03  0.00000000000E+00 0.  1.
         11    1    1    2    0    0 -0.65524468697E+01  0.72726822365E+02 -0.15703604258E+03  0.17318326686E+03  0.00000000000E+00 0. -1.
<mgrwt>
<rscale>  0 0.15233196E+03</rscale>
<asrwt>0</asrwt>
<pdfrwt beam="2">  1        2 0.12199003E+00 0.15852511E+03</pdfrwt>
<pdfrwt beam="1">  1       -2 0.41896326E-02 0.15852511E+03</pdfrwt>
<totfact> 0.89210459E+03</totfact>
</mgrwt>
</event>
<event>
 7    1  0.8165933E-006  0.1380689E+03  0.7546771E-02  0.1227489E+00
         -1   -1    0    0    0  501 -0.00000000000E+00  0.00000000000E+00  0.28535895612E+02  0.28535895612E+02  0.00000000000E+00 0.  1.
          1   -1    0    0  501    0  0.00000000000E+00 -0.00000000000E+00 -0.53535602373E+03  0.53535602373E+03  0.00000000000E+00 0. -1.
         23    2    1    2    0    0 -0.22713241346E+02  0.54067435757E+02 -0.30462295259E+03  0.33445205343E+03  0.12499541536E+03 0.  0.
          5    1    3    3  502    0  0.44443008075E+02  0.10034918822E+01 -0.16197305254E+03  0.16802841341E+03  0.47000000000E+01 0. -1.
         -5    1    3    3    0  502 -0.67156249421E+02  0.53063943875E+02 -0.14264990005E+03  0.16642364002E+03  0.47000000000E+01 0. -1.
        -11    1    1    2    0    0 -0.27281446983E+02 -0.48037388736E+02 -0.13158263041E+03  0.14270899303E+03  0.00000000000E+00 0. -1.
         11    1    1    2    0    0  0.49994688329E+02 -0.60300470213E+01 -0.70614545128E+02  0.86730872888E+02  0.00000000000E+00 0.  1.
<mgrwt>
<rscale>  0 0.12997747E+03</rscale>
<asrwt>0</asrwt>
<pdfrwt beam="2">  1        1 0.82362462E-01 0.13806894E+03</pdfrwt>
<pdfrwt beam="1">  1       -1 0.43901379E-02 0.13806894E+03</pdfrwt>
<totfact> 0.84328092E+03</totfact>
</mgrwt>
</event>
<event>
 7    1  0.8165933E-006  0.1384328E+03  0.7546771E-02  0.1227032E+00
         -2   -1    0    0    0  501 -0.00000000000E+00  0.00000000000E+00  0.55836650081E+02  0.55836650081E+02  0.00000000000E+00 0.  1.
          2   -1    0    0  501    0  0.00000000000E+00 -0.00000000000E+00 -0.27762771250E+03  0.27762771250E+03  0.00000000000E+00 0. -1.
         23    2    1    2    0    0  0.41800546417E+02 -0.42448648441E+02 -0.14485100228E+03  0.20036331526E+03  0.12495788013E+03 0.  0.
          5    1    3    3  502    0 -0.25249442661E+01 -0.78097651533E+02 -0.62515315251E+02  0.10017920522E+03  0.47000000000E+01 0.  1.
         -5    1    3    3    0  502  0.44325490683E+02  0.35649003092E+02 -0.82335687028E+02  0.10018411004E+03  0.47000000000E+01 0.  1.
        -11    1    1    2    0    0 -0.41469531942E+02 -0.12508560287E+01 -0.79128601797E+02  0.89345522231E+02  0.00000000000E+00 0. -1.
         11    1    1    2    0    0 -0.33101447472E+00  0.43699504470E+02  0.21885416533E+01  0.43755525092E+02  0.00000000000E+00 0.  1.
<mgrwt>
<rscale>  0 0.13028568E+03</rscale>
<asrwt>0</asrwt>
<pdfrwt beam="2">  1        2 0.42711955E-01 0.13843282E+03</pdfrwt>
<pdfrwt beam="1">  1       -2 0.85902540E-02 0.13843282E+03</pdfrwt>
<totfact> 0.95285061E+03</totfact>
</mgrwt>
</event>
<event>
 7    1  0.8165933E-006  0.1293977E+03  0.7546771E-02  0.1246515E+00
         -2   -1    0    0    0  501 -0.00000000000E+00  0.00000000000E+00  0.62859559550E+02  0.62859559550E+02  0.00000000000E+00 0. -1.
          2   -1    0    0  501    0  0.00000000000E+00 -0.00000000000E+00 -0.19250872273E+03  0.19250872273E+03  0.00000000000E+00 0.  1.
         23    2    1    2    0    0 -0.90397054782E+01  0.32203107811E+02 -0.90053575907E+02  0.15764967283E+03  0.12500006553E+03 0.  0.
          5    1    3    3  502    0 -0.51622890373E+02 -0.24048682602E+02 -0.28281265123E+02  0.63758779022E+02  0.47000000000E+01 0. -1.
         -5    1    3    3    0  502  0.42583184895E+02  0.56251790413E+02 -0.61772310783E+02  0.93890893808E+02  0.47000000000E+01 0. -1.
        -11    1    1    2    0    0  0.30057082454E+02 -0.49195393754E+02 -0.11601207282E+02  0.58806487590E+02  0.00000000000E+00 0. -1.
         11    1    1    2    0    0 -0.21017376975E+02  0.16992285944E+02 -0.27994379987E+02  0.38912121856E+02  0.00000000000E+00 0.  1.
<mgrwt>
<rscale>  0 0.11795136E+03</rscale>
<asrwt>0</asrwt>
<pdfrwt beam="2">  1        2 0.29616727E-01 0.12939773E+03</pdfrwt>
<pdfrwt beam="1">  1       -2 0.96707015E-02 0.12939773E+03</pdfrwt>
<totfact> 0.11660157E+04</totfact>
</mgrwt>
</event>
<event>
 7    1  0.8165933E-006  0.1282497E+03  0.7546771E-02  0.1243889E+00
         -1   -1    0    0    0  501 -0.00000000000E+00  0.00000000000E+00  0.19432495547E+03  0.19432495547E+03  0.00000000000E+00 0.  1.
          1   -1    0    0  501    0  0.00000000000E+00 -0.00000000000E+00 -0.65994415976E+02  0.65994415976E+02  0.00000000000E+00 0. -1.
         23    2    1    2    0    0 -0.27450823008E+02  0.83710074119E+01  0.58231062454E+02  0.14085038580E+03  0.12499741236E+03 0.  0.
          5    1    3    3  502    0  0.34963380160E+02 -0.12383209180E+02  0.64560561455E+02  0.74605213740E+02  0.47000000000E+01 0.  1.
         -5    1    3    3    0  502 -0.62414203168E+02  0.20754216592E+02 -0.63294990012E+01  0.66245172058E+02  0.47000000000E+01 0.  1.
        -11    1    1    2    0    0 -0.28326179743E+02 -0.66991716357E+01 -0.95327816068E+00  0.29123188333E+02  0.00000000000E+00 0. -1.
         11    1    1    2    0    0  0.55777002750E+02 -0.16718357762E+01  0.71052755198E+02  0.90345797312E+02  0.00000000000E+00 0.  1.
<mgrwt>
<rscale>  0 0.11952129E+03</rscale>
<asrwt>0</asrwt>
<pdfrwt beam="2">  1        1 0.10152987E-01 0.12824966E+03</pdfrwt>
<pdfrwt beam="1">  1       -1 0.29896147E-01 0.12824966E+03</pdfrwt>
<totfact> 0.61103380E+03</totfact>
</mgrwt>
</event>
<event>
 7    1  0.8165933E-006  0.2296342E+03  0.7546771E-02  0.1129757E+00
          2   -1    0    0  501    0  0.00000000000E+00  0.00000000000E+00  0.41045656591E+03  0.41045656591E+03  0.00000000000E+00 0. -1.
         -2   -1    0    0    0  501 -0.00000000000E+00 -0.00000000000E+00 -0.12178825706E+03  0.12178825706E+03  0.00000000000E+00 0.  1.
         23    2    1    2    0    0 -0.12202720661E+03  0.14904900830E+03  0.18260721393E+03  0.29338926900E+03  0.12500249020E+03 0.  0.
          5    1    3    3  502    0 -0.80317997734E+02  0.94532615847E+02  0.32581918934E+02  0.12833965740E+03  0.47000000000E+01 0. -1.
         -5    1    3    3    0  502 -0.41709208871E+02  0.54516392457E+02  0.15002529500E+03  0.16504961160E+03  0.47000000000E+01 0. -1.
        -11    1    1    2    0    0  0.18234690566E+02 -0.12464970768E+02 -0.16884075923E+02  0.27802004533E+02  0.00000000000E+00 0.  1.
         11    1    1    2    0    0  0.10379251604E+03 -0.13658403754E+03  0.12294517084E+03  0.21105354943E+03  0.00000000000E+00 0. -1.
<mgrwt>
<rscale>  0 0.22562603E+03</rscale>
<asrwt>0</asrwt>
<pdfrwt beam="1">  1        2 0.63147164E-01 0.22963421E+03</pdfrwt>
<pdfrwt beam="2">  1       -2 0.18736655E-01 0.22963421E+03</pdfrwt>
<totfact> 0.18155798E+03</totfact>
</mgrwt>
</event>
<event>
 7    1  0.8165933E-006  0.2124711E+03  0.7546771E-02  0.1144212E+00
          1   -1    0    0  501    0  0.00000000000E+00  0.00000000000E+00  0.11982153637E+04  0.11982153637E+04  0.00000000000E+00 0. -1.
         -1   -1    0    0    0  501 -0.00000000000E+00 -0.00000000000E+00 -0.33846464102E+02  0.33846464102E+02  0.00000000000E+00 0.  1.
         23    2    1    2    0    0 -0.16430980543E+03  0.50234875396E+02  0.61941640346E+03  0.65484398642E+03  0.12499084288E+03 0.  0.
          5    1    3    3  502    0 -0.22872714940E+02  0.29265996633E+02  0.32879269484E+03  0.33091749097E+03  0.47000000000E+01 0.  1.
         -5    1    3    3    0  502 -0.14143709049E+03  0.20968878764E+02  0.29062370862E+03  0.32392649546E+03  0.47000000000E+01 0.  1.
        -11    1    1    2    0    0  0.18296200828E+02 -0.35046431840E+02  0.73766873942E+02  0.83693219801E+02  0.00000000000E+00 0.  1.
         11    1    1    2    0    0  0.14601360460E+03 -0.15188443556E+02  0.47118562220E+03  0.49352462159E+03  0.00000000000E+00 0. -1.
<mgrwt>
<rscale>  0 0.20669229E+03</rscale>
<asrwt>0</asrwt>
<pdfrwt beam="1">  1        1 0.18434079E+00 0.21247109E+03</pdfrwt>
<pdfrwt beam="2">  1       -1 0.52071492E-02 0.21247109E+03</pdfrwt>
<totfact> 0.18995963E+03</totfact>
</mgrwt>
</event>
<event>
 7    1  0.9022857E-006  0.1787178E+03  0.7546771E-02  0.1178268E+00
          1   -1    0    0  501    0  0.00000000000E+00  0.00000000000E+00  0.18049827245E+04  0.18049827245E+04  0.00000000000E+00 0. -1.
         -1   -1    0    0    0  501 -0.00000000000E+00 -0.00000000000E+00 -0.14890342947E+02  0.14890342947E+02  0.00000000000E+00 0.  1.
         23    2    1    2    0    0 -0.36384584387E+02  0.12243529322E+03  0.11309710414E+04  0.11450046008E+04  0.12500320093E+03 0.  0.
          5    1    3    3  502    0 -0.45981212616E+02  0.84667592024E+02  0.35004836908E+03  0.36309616322E+03  0.47000000000E+01 0. -1.
         -5    1    3    3    0  502  0.95966282290E+01  0.37767701192E+02  0.78092267234E+03  0.78190843754E+03  0.47000000000E+01 0. -1.
        -11    1    1    2    0    0 -0.92770869908E+01 -0.78200046396E+02  0.42687662059E+03  0.43407944067E+03  0.00000000000E+00 0.  1.
         11    1    1    2    0    0  0.45661671377E+02 -0.44235246820E+02  0.23224471952E+03  0.24078902599E+03  0.00000000000E+00 0. -1.
<mgrwt>
<rscale>  0 0.16959772E+03</rscale>
<asrwt>0</asrwt>
<pdfrwt beam="1">  1        1 0.27768948E+00 0.17871776E+03</pdfrwt>
<pdfrwt beam="2">  1       -1 0.22908234E-02 0.17871776E+03</pdfrwt>
<totfact> 0.25344554E+03</totfact>
</mgrwt>
</event>
<event>
 7    1  0.8165933E-006  0.2029505E+03  0.7546771E-02  0.1152797E+00
          2   -1    0    0  501    0  0.00000000000E+00  0.00000000000E+00  0.18815323887E+04  0.18815323887E+04  0.00000000000E+00 0. -1.
         -2   -1    0    0    0  501 -0.00000000000E+00 -0.00000000000E+00 -0.24309102206E+02  0.24309102206E+02  0.00000000000E+00 0.  1.
         23    2    1    2    0    0  0.11865273534E+03  0.10716676164E+03  0.14091137633E+04  0.14236539251E+04  0.12500285597E+03 0.  0.
          5    1    3    3  502    0  0.52716791287E+02  0.26274440965E+01  0.81925785818E+03  0.82096984825E+03  0.47000000000E+01 0. -1.
         -5    1    3    3    0  502  0.65935944049E+02  0.10453931754E+03  0.58985590515E+03  0.60268407683E+03  0.47000000000E+01 0. -1.
        -11    1    1    2    0    0 -0.75804769765E+02 -0.16561074718E+02  0.20785009133E+03  0.22186097625E+03  0.00000000000E+00 0.  1.
         11    1    1    2    0    0 -0.42847965571E+02 -0.90605686919E+02  0.24025943185E+03  0.26032658959E+03  0.00000000000E+00 0. -1.
<mgrwt>
<rscale>  0 0.19641724E+03</rscale>
<asrwt>0</asrwt>
<pdfrwt beam="1">  1        2 0.28946641E+00 0.20295049E+03</pdfrwt>
<pdfrwt beam="2">  1       -2 0.37398634E-02 0.20295049E+03</pdfrwt>
<totfact> 0.26127887E+03</totfact>
</mgrwt>
</event>
<event>
 7    1  0.8165933E-006  0.1686388E+03  0.7546771E-02  0.1186068E+00
          2   -1    0    0  501    0  0.00000000000E+00  0.00000000000E+00  0.12659854669E+04  0.12659854669E+04  0.00000000000E+00 0. -1.
         -2   -1    0    0    0  501 -0.00000000000E+00 -0.00000000000E+00 -0.35643724990E+02  0.35643724990E+02  0.00000000000E+00 0.  1.
         23    2    1    2    0    0  0.10130550543E+03  0.50509208966E+02  0.10791307959E+04  0.10922281405E+04  0.12500020229E+03 0.  0.
          5    1    3    3  502    0  0.84476900103E+02  0.95785062433E+01  0.97847294216E+03  0.98217080132E+03  0.47000000000E+01 0.  1.
         -5    1    3    3    0  502  0.16828605324E+02  0.40930702722E+02  0.10065785375E+03  0.11005733917E+03  0.47000000000E+01 0.  1.
        -11    1    1    2    0    0 -0.44058301455E+02 -0.69069508199E+02  0.10682300206E+03  0.13462126377E+03  0.00000000000E+00 0. -1.
         11    1    1    2    0    0 -0.57247203972E+02  0.18560299233E+02  0.44387943926E+02  0.74779787618E+02  0.00000000000E+00 0.  1.
<mgrwt>
<rscale>  0 0.16235073E+03</rscale>
<asrwt>0</asrwt>
<pdfrwt beam="1">  1        2 0.19476696E+00 0.16863877E+03</pdfrwt>
<pdfrwt beam="2">  1       -2 0.54836510E-02 0.16863877E+03</pdfrwt>
<totfact> 0.30968603E+03</totfact>
</mgrwt>
</event>
<event>
 7    1  0.8165933E-006  0.1425780E+03  0.7546771E-02  0.1219911E+00
         -2   -1    0    0    0  501 -0.00000000000E+00  0.00000000000E+00  0.12732214794E+03  0.12732214794E+03  0.00000000000E+00 0.  1.
          2   -1    0    0  501    0  0.00000000000E+00 -0.00000000000E+00 -0.13076665935E+03  0.13076665935E+03  0.00000000000E+00 0. -1.
         23    2    1    2    0    0 -0.31769057268E+02 -0.60811165311E+02 -0.61871840906E+01  0.14271220707E+03  0.12498488699E+03 0.  0.
          5    1    3    3  502    0  0.99274549840E+01 -0.62951637261E+02 -0.50648018418E+02  0.81540019413E+02  0.47000000000E+01 0. -1.
         -5    1    3    3    0  502 -0.41696512252E+02  0.21404719495E+01  0.44460834327E+02  0.61172187661E+02  0.47000000000E+01 0. -1.
        -11    1    1    2    0    0  0.48268773762E+02  0.56454378068E+02 -0.28678327586E+02  0.79620460918E+02  0.00000000000E+00 0. -1.
         11    1    1    2    0    0 -0.16499716494E+02  0.43567872429E+01  0.31421000271E+02  0.35756139298E+02  0.00000000000E+00 0.  1.
<mgrwt>
<rscale>  0 0.13521915E+03</rscale>
<asrwt>0</asrwt>
<pdfrwt beam="2">  1        2 0.20117947E-01 0.14257802E+03</pdfrwt>
<pdfrwt beam="1">  1       -2 0.19588023E-01 0.14257802E+03</pdfrwt>
<totfact> 0.57353127E+03</totfact>
</mgrwt>
</event>
<event>
 7    1  0.8165933E-006  0.1646775E+03  0.7546771E-02  0.1190571E+00
          2   -1    0    0  501    0  0.00000000000E+00  0.00000000000E+00  0.62630936910E+03  0.62630936910E+03  0.00000000000E+00 0. -1.
         -2   -1    0    0    0  501 -0.00000000000E+00 -0.00000000000E+00 -0.66778490607E+02  0.66778490607E+02  0.00000000000E+00 0.  1.
         23    2    1    2    0    0  0.26385198438E+02  0.10391045380E+03  0.52202553294E+03  0.54738409466E+03  0.12500051576E+03 0.  0.
          5    1    3    3  502    0  0.76676582524E+02  0.56197950172E+02  0.30517477182E+03  0.31967364494E+03  0.47000000000E+01 0. -1.
         -5    1    3    3    0  502 -0.50291384086E+02  0.47712503628E+02  0.21685076112E+03  0.22771044972E+03  0.47000000000E+01 0. -1.
        -11    1    1    2    0    0  0.10955263653E+02 -0.61200378778E+02  0.58348461796E+02  0.85264571530E+02  0.00000000000E+00 0. -1.
         11    1    1    2    0    0 -0.37340462091E+02 -0.42710075023E+02 -0.20843116246E+02  0.60439193513E+02  0.00000000000E+00 0.  1.
<mgrwt>
<rscale>  0 0.15835135E+03</rscale>
<asrwt>0</asrwt>
<pdfrwt beam="1">  1        2 0.96355283E-01 0.16467753E+03</pdfrwt>
<pdfrwt beam="2">  1       -2 0.10273614E-01 0.16467753E+03</pdfrwt>
<totfact> 0.29972827E+03</totfact>
</mgrwt>
</event>
<event>
 7    1  0.8165933E-006  0.1394786E+03  0.7546771E-02  0.1225186E+00
         -2   -1    0    0    0  501 -0.00000000000E+00  0.00000000000E+00  0.67667314027E+03  0.67667314027E+03  0.00000000000E+00 0.  1.
          2   -1    0    0  501    0  0.00000000000E+00 -0.00000000000E+00 -0.31285639316E+02  0.31285639316E+02  0.00000000000E+00 0. -1.
         23    2    1    2    0    0 -0.56765365484E+02  0.24630400920E+02  0.16981147379E+03  0.21975038019E+03  0.12500131837E+03 0.  0.
          5    1    3    3  502    0 -0.58772069957E+02  0.47826493249E+02  0.17888162864E+03  0.19432513149E+03  0.47000000000E+01 0.  1.
         -5    1    3    3    0  502  0.20067044734E+01 -0.23196092329E+02 -0.90701548540E+01  0.25425248696E+02  0.47000000000E+01 0.  1.
        -11    1    1    2    0    0  0.27331933655E+02 -0.57863996718E+02  0.23429779650E+03  0.24288008185E+03  0.00000000000E+00 0. -1.
         11    1    1    2    0    0  0.29433431829E+02  0.33233595798E+02  0.24127823066E+03  0.24532831754E+03  0.00000000000E+00 0.  1.
<mgrwt>
<rscale>  0 0.13154184E+03</rscale>
<asrwt>0</asrwt>
<pdfrwt beam="2">  1        2 0.48131758E-02 0.13947865E+03</pdfrwt>
<pdfrwt beam="1">  1       -2 0.10410355E+00 0.13947865E+03</pdfrwt>
<totfact> 0.12501078E+03</totfact>
</mgrwt>
</event>
<event>
 7    1  0.8165933E-006  0.1685740E+03  0.7546771E-02  0.1185777E+00
          2   -1    0    0  501    0  0.00000000000E+00  0.00000000000E+00  0.22630554957E+03  0.22630554957E+03  0.00000000000E+00 0. -1.
         -2   -1    0    0    0  501 -0.00000000000E+00 -0.00000000000E+00 -0.11206396362E+03  0.11206396362E+03  0.00000000000E+00 0.  1.
         23    2    1    2    0    0  0.11308591490E+03  0.18328038655E+01  0.87653696800E+02  0.19000097881E+03  0.12500167226E+03 0.  0.
          5    1    3    3  502    0  0.12736399658E+03  0.31402203559E+02  0.85722252650E+02  0.15677397938E+03  0.47000000000E+01 0.  1.
         -5    1    3    3    0  502 -0.14278081673E+02 -0.29569399693E+02  0.19314441500E+01  0.33226999428E+02  0.47000000000E+01 0.  1.
        -11    1    1    2    0    0 -0.30916793590E+02  0.34328127288E+02  0.35345306927E+02  0.58168369160E+02  0.00000000000E+00 0. -1.
         11    1    1    2    0    0 -0.82169121313E+02 -0.36160931154E+02 -0.87574177770E+01  0.90200165218E+02  0.00000000000E+00 0.  1.
<mgrwt>
<rscale>  0 0.16261347E+03</rscale>
<asrwt>0</asrwt>
<pdfrwt beam="1">  1        2 0.34816238E-01 0.16857402E+03</pdfrwt>
<pdfrwt beam="2">  1       -2 0.17240610E-01 0.16857402E+03</pdfrwt>
<totfact> 0.39203559E+03</totfact>
</mgrwt>
</event>
<event>
 7    1  0.8165933E-006  0.1332314E+03  0.7546771E-02  0.1235844E+00
         -2   -1    0    0    0  501 -0.00000000000E+00  0.00000000000E+00  0.24887894791E+02  0.24887894791E+02  0.00000000000E+00 0. -1.
          2   -1    0    0  501    0  0.00000000000E+00 -0.00000000000E+00 -0.55420695340E+03  0.55420695340E+03  0.00000000000E+00 0.  1.
         23    2    1    2    0    0  0.72670796981E+01 -0.45533422258E+02 -0.29460770598E+03  0.32333313699E+03  0.12499805625E+03 0.  0.
          5    1    3    3  502    0  0.38642892829E+01  0.11019708875E+02 -0.25193550830E+03  0.25224979100E+03  0.47000000000E+01 0. -1.
         -5    1    3    3    0  502  0.34027904152E+01 -0.56553131134E+02 -0.42672197677E+02  0.71083345998E+02  0.47000000000E+01 0. -1.
        -11    1    1    2    0    0  0.27857822474E+02  0.56485709519E+02 -0.12367573365E+03  0.13878897920E+03  0.00000000000E+00 0.  1.
         11    1    1    2    0    0 -0.35124902172E+02 -0.10952287261E+02 -0.11103561898E+03  0.11697273200E+03  0.00000000000E+00 0. -1.
<mgrwt>
<rscale>  0 0.12450574E+03</rscale>
<asrwt>0</asrwt>
<pdfrwt beam="2">  1        2 0.85262610E-01 0.13323144E+03</pdfrwt>
<pdfrwt beam="1">  1       -2 0.38289068E-02 0.13323144E+03</pdfrwt>
<totfact> 0.15359725E+04</totfact>
</mgrwt>
</event>
<event>
 7    1  0.8165933E-006  0.1762186E+03  0.7546771E-02  0.1177686E+00
          2   -1    0    0  501    0  0.00000000000E+00  0.00000000000E+00  0.27744197974E+03  0.27744197974E+03  0.00000000000E+00 0. -1.
         -2   -1    0    0    0  501 -0.00000000000E+00 -0.00000000000E+00 -0.98297674079E+02  0.98297674079E+02  0.00000000000E+00 0.  1.
         23    2    1    2    0    0  0.76587086361E+02  0.97788664392E+02  0.10944337199E+03  0.20743874479E+03  0.12499910594E+03 0.  0.
          5    1    3    3  502    0 -0.66904161225E+01  0.89512421657E+02  0.39131811639E+02  0.98033789996E+02  0.47000000000E+01 0. -1.
         -5    1    3    3    0  502  0.83277502483E+02  0.82762427350E+01  0.70311560349E+02  0.10940495479E+03  0.47000000000E+01 0. -1.
        -11    1    1    2    0    0 -0.82920698805E+02 -0.11073847632E+03  0.59259185521E+02  0.15050084218E+03  0.00000000000E+00 0. -1.
         11    1    1    2    0    0  0.63336124441E+01  0.12949811929E+02  0.10441748154E+02  0.17800066856E+02  0.00000000000E+00 0.  1.
<mgrwt>
<rscale>  0 0.17015546E+03</rscale>
<asrwt>0</asrwt>
<pdfrwt beam="1">  1        2 0.42683381E-01 0.17621856E+03</pdfrwt>
<pdfrwt beam="2">  1       -2 0.15122719E-01 0.17621856E+03</pdfrwt>
<totfact> 0.39226860E+03</totfact>
</mgrwt>
</event>
<event>
 7    1  0.8165933E-006  0.1277848E+03  0.7546771E-02  0.1246283E+00
          1   -1    0    0  501    0  0.00000000000E+00  0.00000000000E+00  0.25614874427E+03  0.25614874427E+03  0.00000000000E+00 0. -1.
         -1   -1    0    0    0  501 -0.00000000000E+00 -0.00000000000E+00 -0.48164586112E+02  0.48164586112E+02  0.00000000000E+00 0.  1.
         23    2    1    2    0    0  0.71670375643E+01 -0.25633299709E+02  0.13547244777E+03  0.18623036486E+03  0.12498212756E+03 0.  0.
          5    1    3    3  502    0  0.24566295607E+02  0.37491117269E+02  0.10417203499E+03  0.11350325822E+03  0.47000000000E+01 0.  1.
         -5    1    3    3    0  502 -0.17399258043E+02 -0.63124416978E+02  0.31300412781E+02  0.72727106635E+02  0.47000000000E+01 0.  1.
        -11    1    1    2    0    0  0.27433981975E+02  0.34206075474E+02  0.82810935719E+01  0.44623485712E+02  0.00000000000E+00 0.  1.
         11    1    1    2    0    0 -0.34601019540E+02 -0.85727757646E+01  0.64230616822E+02  0.73459479816E+02  0.00000000000E+00 0. -1.
<mgrwt>
<rscale>  0 0.11808907E+03</rscale>
<asrwt>0</asrwt>
<pdfrwt beam="1">  1        1 0.39407498E-01 0.12778484E+03</pdfrwt>
<pdfrwt beam="2">  1       -1 0.74099365E-02 0.12778484E+03</pdfrwt>
<totfact> 0.97524937E+03</totfact>
</mgrwt>
</event>
<event>
 7    1  0.8165933E-006  0.1323031E+03  0.7546771E-02  0.1236013E+00
         -2   -1    0    0    0  501 -0.00000000000E+00  0.00000000000E+00  0.49609283441E+02  0.49609283441E+02  0.00000000000E+00 0.  1.
          2   -1    0    0  501    0  0.00000000000E+00 -0.00000000000E+00 -0.60212056294E+03  0.60212056294E+03  0.00000000000E+00 0. -1.
         23    2    1    2    0    0 -0.17024799472E+02 -0.42775457108E+02 -0.52952075847E+03  0.54579881966E+03  0.12403440801E+03 0.  0.
          5    1    3    3  502    0 -0.53492650104E+02 -0.52081098101E+02 -0.46481403502E+03  0.47079515880E+03  0.47000000000E+01 0. -1.
         -5    1    3    3    0  502  0.36467850631E+02  0.93056409933E+01 -0.64706723444E+02  0.75003660863E+02  0.47000000000E+01 0.  1.
        -11    1    1    2    0    0  0.51229252183E+02  0.34023198290E+02  0.37931981253E+01  0.61614954785E+02  0.00000000000E+00 0.  1.
         11    1    1    2    0    0 -0.34204452711E+02  0.87522588176E+01 -0.26783719156E+02  0.44316071932E+02  0.00000000000E+00 0. -1.
<mgrwt>
<rscale>  0 0.12439820E+03</rscale>
<asrwt>0</asrwt>
<pdfrwt beam="2">  1        2 0.92633934E-01 0.13230313E+03</pdfrwt>
<pdfrwt beam="1">  1       -2 0.76321974E-02 0.13230313E+03</pdfrwt>
<totfact> 0.49415247E+03</totfact>
</mgrwt>
</event>
<event>
 7    1  0.1007712E-005  0.2249844E+03  0.7546771E-02  0.1133336E+00
         -2   -1    0    0    0  501 -0.00000000000E+00  0.00000000000E+00  0.21997706805E+02  0.21997706805E+02  0.00000000000E+00 0.  1.
          2   -1    0    0  501    0  0.00000000000E+00 -0.00000000000E+00 -0.23275557677E+04  0.23275557677E+04  0.00000000000E+00 0. -1.
         23    2    1    2    0    0  0.16400291702E+03  0.89977787455E+02 -0.15306131753E+04  0.15470600128E+04  0.12500012737E+03 0.  0.
          5    1    3    3  502    0  0.23552639647E+02  0.80391916474E+02 -0.53822393999E+03  0.54472441349E+03  0.47000000000E+01 0. -1.
         -5    1    3    3    0  502  0.14045027737E+03  0.95858709808E+01 -0.99238923531E+03  0.10023355993E+04  0.47000000000E+01 0. -1.
        -11    1    1    2    0    0 -0.88604207111E+02 -0.94323800885E+02 -0.41496693039E+03  0.43467831582E+03  0.00000000000E+00 0. -1.
         11    1    1    2    0    0 -0.75398709910E+02  0.43460134297E+01 -0.35997795518E+03  0.36781514584E+03  0.00000000000E+00 0.  1.
<mgrwt>
<rscale>  0 0.22073479E+03</rscale>
<asrwt>0</asrwt>
<pdfrwt beam="2">  1        2 0.35808532E+00 0.22498442E+03</pdfrwt>
<pdfrwt beam="1">  1       -2 0.33842643E-02 0.22498442E+03</pdfrwt>
<totfact> 0.17666294E+03</totfact>
</mgrwt>
</event>
<event>
 7    1  0.8165933E-006  0.1563616E+03  0.7546771E-02  0.1200291E+00
          1   -1    0    0  501    0  0.00000000000E+00  0.00000000000E+00  0.84124693874E+02  0.84124693874E+02  0.00000000000E+00 0. -1.
         -1   -1    0    0    0  501 -0.00000000000E+00 -0.00000000000E+00 -0.38336065939E+03  0.38336065939E+03  0.00000000000E+00 0.  1.
         23    2    1    2    0    0  0.69024959843E+02 -0.63712147819E+02 -0.19256684887E+02  0.15754288472E+03  0.12500103100E+03 0.  0.
          5    1    3    3  502    0 -0.11443708667E+02 -0.65908299225E+02  0.16924254929E+02  0.69162003872E+02  0.47000000000E+01 0.  1.
         -5    1    3    3    0  502  0.80468668510E+02  0.21961514056E+01 -0.36180939816E+02  0.88380880844E+02  0.47000000000E+01 0.  1.
        -11    1    1    2    0    0  0.20357209912E+02  0.29486843979E+02 -0.97696970776E+02  0.10406050193E+03  0.00000000000E+00 0. -1.
         11    1    1    2    0    0 -0.89382169755E+02  0.34225303840E+02 -0.18228230986E+03  0.20588196662E+03  0.00000000000E+00 0.  1.
<mgrwt>
<rscale>  0 0.15014827E+03</rscale>
<asrwt>0</asrwt>
<pdfrwt beam="1">  1        1 0.12942261E-01 0.15636157E+03</pdfrwt>
<pdfrwt beam="2">  1       -1 0.58978562E-01 0.15636157E+03</pdfrwt>
<totfact> 0.13421641E+03</totfact>
</mgrwt>
</event>
<event>
 7    1  0.9264828E-006  0.1269585E+03  0.7546771E-02  0.1246276E+00
         -1   -1    0    0    0  501 -0.00000000000E+00  0.00000000000E+00  0.11576467908E+03  0.11576467908E+03  0.00000000000E+00 0.  1.
          1   -1    0    0  501    0  0.00000000000E+00 -0.00000000000E+00 -0.11779231855E+03  0.11779231855E+03  0.00000000000E+00 0. -1.
         23    2    1    2    0    0 -0.18579277834E+02  0.12179281416E+02 -0.37070281039E+02  0.13225980091E+03  0.12499969895E+03 0.  0.
          5    1    3    3  502    0  0.51344692415E+02  0.20493538614E+02 -0.85331598344E+01  0.56135259694E+02  0.47000000000E+01 0.  1.
         -5    1    3    3    0  502 -0.69923970249E+02 -0.83142571983E+01 -0.28537121205E+02  0.76124541212E+02  0.47000000000E+01 0.  1.
        -11    1    1    2    0    0  0.38491170497E+02  0.25922374579E+01 -0.18131812628E+02  0.42626899142E+02  0.00000000000E+00 0. -1.
         11    1    1    2    0    0 -0.19911892663E+02 -0.14771518874E+02  0.53174454201E+02  0.58670297586E+02  0.00000000000E+00 0.  1.
<mgrwt>
<rscale>  0 0.11809351E+03</rscale>
<asrwt>0</asrwt>
<pdfrwt beam="2">  1        1 0.18121895E-01 0.12695845E+03</pdfrwt>
<pdfrwt beam="1">  1       -1 0.17809951E-01 0.12695845E+03</pdfrwt>
<totfact> 0.66808393E+03</totfact>
</mgrwt>
</event>
<event>
 7    1  0.8165933E-006  0.1355700E+03  0.7546771E-02  0.1230818E+00
         -2   -1    0    0    0  501 -0.00000000000E+00  0.00000000000E+00  0.77102924773E+02  0.77102924773E+02  0.00000000000E+00 0. -1.
          2   -1    0    0  501    0  0.00000000000E+00 -0.00000000000E+00 -0.19521713596E+03  0.19521713596E+03  0.00000000000E+00 0.  1.
         23    2    1    2    0    0 -0.84040724979E+01 -0.51805537288E+02 -0.86510032394E+02  0.16082044909E+03  0.12499915605E+03 0.  0.
          5    1    3    3  502    0 -0.43642945570E+02 -0.73586110997E+02 -0.30401271184E+02  0.90917268543E+02  0.47000000000E+01 0.  1.
         -5    1    3    3    0  502  0.35238873072E+02  0.21780573709E+02 -0.56108761210E+02  0.69903180550E+02  0.47000000000E+01 0.  1.
        -11    1    1    2    0    0 -0.31433752842E+02 -0.55241910048E+01  0.55839265550E+01  0.32400273761E+02  0.00000000000E+00 0. -1.
         11    1    1    2    0    0  0.39837825340E+02  0.57329728293E+02 -0.37188105352E+02  0.79099337884E+02  0.00000000000E+00 0.  1.
<mgrwt>
<rscale>  0 0.12775985E+03</rscale>
<asrwt>0</asrwt>
<pdfrwt beam="2">  1        2 0.30033405E-01 0.13557002E+03</pdfrwt>
<pdfrwt beam="1">  1       -2 0.11861988E-01 0.13557002E+03</pdfrwt>
<totfact> 0.83485074E+03</totfact>
</mgrwt>
</event>
<event>
 7    1  0.8165933E-006  0.1338807E+03  0.7546771E-02  0.1234417E+00
         -2   -1    0    0    0  501 -0.00000000000E+00  0.00000000000E+00  0.11953723127E+02  0.11953723127E+02  0.00000000000E+00 0.  1.
          2   -1    0    0  501    0  0.00000000000E+00 -0.00000000000E+00 -0.15669327128E+04  0.15669327128E+04  0.00000000000E+00 0. -1.
         23    2    1    2    0    0  0.39038712747E+02  0.27840896253E+02 -0.12456842432E+04  0.12528580404E+04  0.12499959626E+03 0.  0.
          5    1    3    3  502    0 -0.33745902566E+02  0.46656151634E+02 -0.47455389554E+03  0.47805760343E+03  0.47000000000E+01 0.  1.
         -5    1    3    3    0  502  0.72784615313E+02 -0.18815255381E+02 -0.77113034763E+03  0.77480043695E+03  0.47000000000E+01 0.  1.
        -11    1    1    2    0    0 -0.42974164048E+02  0.22769673801E+02 -0.10823654918E+03  0.11866080818E+03  0.00000000000E+00 0.  1.
         11    1    1    2    0    0  0.39354513010E+01 -0.50610570054E+02 -0.20105819733E+03  0.20736758737E+03  0.00000000000E+00 0. -1.
<mgrwt>
<rscale>  0 0.12541850E+03</rscale>
<asrwt>0</asrwt>
<pdfrwt beam="2">  1        2 0.24106655E+00 0.13388068E+03</pdfrwt>
<pdfrwt beam="1">  1       -2 0.18390345E-02 0.13388068E+03</pdfrwt>
<totfact> 0.10711678E+04</totfact>
</mgrwt>
</event>
<event>
 7    1  0.8165933E-006  0.1704897E+03  0.7546771E-02  0.1183902E+00
          2   -1    0    0  501    0  0.00000000000E+00  0.00000000000E+00  0.19574270819E+04  0.19574270819E+04  0.00000000000E+00 0. -1.
         -2   -1    0    0    0  501 -0.00000000000E+00 -0.00000000000E+00 -0.13692665925E+02  0.13692665925E+02  0.00000000000E+00 0.  1.
         23    2    1    2    0    0 -0.11001555653E+03 -0.36741787323E+02  0.12780200675E+04  0.12893417032E+04  0.12495340334E+03 0.  0.
          5    1    3    3  502    0 -0.10961954162E+03 -0.44881696826E+02  0.61869519291E+03  0.62994971414E+03  0.47000000000E+01 0. -1.
         -5    1    3    3    0  502 -0.39601490782E+00  0.81399095026E+01  0.65932487458E+03  0.65939198903E+03  0.47000000000E+01 0. -1.
        -11    1    1    2    0    0  0.14863756996E+01  0.29330620654E+02  0.65458241307E+02  0.71744518785E+02  0.00000000000E+00 0.  1.
         11    1    1    2    0    0  0.10852918083E+03  0.74111666689E+01  0.60025610715E+03  0.61003352585E+03  0.00000000000E+00 0. -1.
<mgrwt>
<rscale>  0 0.16432176E+03</rscale>
<asrwt>0</asrwt>
<pdfrwt beam="1">  1        2 0.30114241E+00 0.17048969E+03</pdfrwt>
<pdfrwt beam="2">  1       -2 0.21065655E-02 0.17048969E+03</pdfrwt>
<totfact> 0.55724806E+03</totfact>
</mgrwt>
</event>
<event>
 7    1  0.8165933E-006  0.1661919E+03  0.7546771E-02  0.1188361E+00
         -1   -1    0    0    0  501 -0.00000000000E+00  0.00000000000E+00  0.12914246661E+03  0.12914246661E+03  0.00000000000E+00 0.  1.
          1   -1    0    0  501    0  0.00000000000E+00 -0.00000000000E+00 -0.19685546288E+03  0.19685546288E+03  0.00000000000E+00 0. -1.
         23    2    1    2    0    0  0.85500232455E+02 -0.68445788787E+02 -0.74216157056E+02  0.18201043296E+03  0.12499857594E+03 0.  0.
          5    1    3    3  502    0  0.43488723492E+02 -0.97528509995E+02 -0.22644524496E+02  0.10926089796E+03  0.47000000000E+01 0.  1.
         -5    1    3    3    0  502  0.42011508963E+02  0.29082721208E+02 -0.51571632561E+02  0.72749535003E+02  0.47000000000E+01 0.  1.
        -11    1    1    2    0    0 -0.29632471877E+02  0.61094903131E+02 -0.32677135789E+02  0.75355595555E+02  0.00000000000E+00 0. -1.
         11    1    1    2    0    0 -0.55867760578E+02  0.73508856561E+01  0.39180296568E+02  0.68631900972E+02  0.00000000000E+00 0.  1.
<mgrwt>
<rscale>  0 0.16029789E+03</rscale>
<asrwt>0</asrwt>
<pdfrwt beam="2">  1        1 0.30285456E-01 0.16619194E+03</pdfrwt>
<pdfrwt beam="1">  1       -1 0.19868072E-01 0.16619194E+03</pdfrwt>
<totfact> 0.29786285E+03</totfact>
</mgrwt>
</event>
<event>
 7    1  0.8165933E-006  0.1252465E+03  0.7546771E-02  0.1242191E+00
          2   -1    0    0  501    0  0.00000000000E+00  0.00000000000E+00  0.31957626753E+03  0.31957626753E+03  0.00000000000E+00 0. -1.
         -2   -1    0    0    0  501 -0.00000000000E+00 -0.00000000000E+00 -0.43679411029E+02  0.43679411029E+02  0.00000000000E+00 0.  1.
         23    2    1    2    0    0 -0.58087584629E+02 -0.34811613773E+01  0.17945269112E+03  0.21883773638E+03  0.11090717083E+03 0.  0.
          5    1    3    3  502    0 -0.15323150995E+02 -0.50131650002E+02  0.12344724572E+03  0.13419871000E+03  0.47000000000E+01 0. -1.
         -5    1    3    3    0  502 -0.42764433634E+02  0.46650488624E+02  0.56005445402E+02  0.84639026386E+02  0.47000000000E+01 0.  1.
        -11    1    1    2    0    0  0.54393622371E+02  0.41087548174E+02  0.73335414088E+02  0.10012460102E+03  0.00000000000E+00 0.  1.
         11    1    1    2    0    0  0.36939622581E+01 -0.37606386796E+02  0.23108751293E+02  0.44293341163E+02  0.00000000000E+00 0. -1.
<mgrwt>
<rscale>  0 0.12055098E+03</rscale>
<asrwt>0</asrwt>
<pdfrwt beam="1">  1        2 0.49165578E-01 0.12524650E+03</pdfrwt>
<pdfrwt beam="2">  1       -2 0.67199096E-02 0.12524650E+03</pdfrwt>
<totfact> 0.11884564E+04</totfact>
</mgrwt>
</event>
<event>
 6    1  0.8165933E-006  0.1382113E+03  0.7546771E-02  0.1237287E+00
          1   -1    0    0  501    0  0.00000000000E+00  0.00000000000E+00  0.49287362202E+03  0.49287362202E+03  0.00000000000E+00 0. -1.
         -1   -1    0    0    0  501 -0.00000000000E+00 -0.00000000000E+00 -0.26240905505E+02  0.26240905505E+02  0.00000000000E+00 0.  1.
          5    1    1    2  502    0 -0.58979862930E+02 -0.40714916967E+02  0.10827945242E+03  0.12993405447E+03  0.47000000000E+01 0. -1.
         -5    1    1    2    0  502  0.51845825014E+02  0.23591006354E+02  0.19804062111E+03  0.20612302822E+03  0.47000000000E+01 0.  1.
        -11    1    1    2    0    0  0.16956873027E+02  0.50659455618E+02  0.95791403277E+02  0.10968094150E+03  0.00000000000E+00 0.  1.
         11    1    1    2    0    0 -0.98228351113E+01 -0.33535545005E+02  0.64521239712E+02  0.73376503340E+02  0.00000000000E+00 0. -1.
<mgrwt>
<rscale>  0 0.12359143E+03</rscale>
<asrwt>0</asrwt>
<pdfrwt beam="1">  1        1 0.75826704E-01 0.13821134E+03</pdfrwt>
<pdfrwt beam="2">  1       -1 0.40370628E-02 0.13821134E+03</pdfrwt>
<totfact> 0.10633874E+04</totfact>
</mgrwt>
</event>
<event>
 7    1  0.8165933E-006  0.1528121E+03  0.7546771E-02  0.1205863E+00
          2   -1    0    0  501    0  0.00000000000E+00  0.00000000000E+00  0.11599053253E+03  0.11599053253E+03  0.00000000000E+00 0. -1.
         -2   -1    0    0    0  501 -0.00000000000E+00 -0.00000000000E+00 -0.16795450580E+03  0.16795450580E+03  0.00000000000E+00 0.  1.
         23    2    1    2    0    0 -0.87613440143E+02  0.71609989925E+01 -0.25504079097E+02  0.15492574060E+03  0.12499652895E+03 0.  0.
          5    1    3    3  502    0 -0.10369658945E+03  0.66416952803E+01  0.20452555237E+02  0.10600703654E+03  0.47000000000E+01 0. -1.
         -5    1    3    3    0  502  0.16083149305E+02  0.51930371224E+00 -0.45956634333E+02  0.48918704063E+02  0.47000000000E+01 0. -1.
        -11    1    1    2    0    0  0.59199397791E+02 -0.33503373009E+02  0.17683436440E+02  0.70283345297E+02  0.00000000000E+00 0. -1.
         11    1    1    2    0    0  0.28414042352E+02  0.26342374016E+02 -0.44143330614E+02  0.58735952442E+02  0.00000000000E+00 0.  1.
<mgrwt>
<rscale>  0 0.14569653E+03</rscale>
<asrwt>0</asrwt>
<pdfrwt beam="1">  1        2 0.17844697E-01 0.15281206E+03</pdfrwt>
<pdfrwt beam="2">  1       -2 0.25839155E-01 0.15281206E+03</pdfrwt>
<totfact> 0.40976537E+03</totfact>
</mgrwt>
</event>
<event>
 7    1  0.8165933E-006  0.2016533E+03  0.7546771E-02  0.1152697E+00
         -2   -1    0    0    0  501 -0.00000000000E+00  0.00000000000E+00  0.26423199284E+02  0.26423199284E+02  0.00000000000E+00 0. -1.
          2   -1    0    0  501    0  0.00000000000E+00 -0.00000000000E+00 -0.14776218641E+04  0.14776218641E+04  0.00000000000E+00 0.  1.
         23    2    1    2    0    0  0.15701427187E+03 -0.19659189788E+02 -0.94133052717E+03  0.96268749182E+03  0.12499632081E+03 0.  0.
          5    1    3    3  502    0  0.76840759474E+02 -0.65155484862E+02 -0.35167289598E+03  0.36584922481E+03  0.47000000000E+01 0.  1.
         -5    1    3    3    0  502  0.80173512396E+02  0.45496295073E+02 -0.58965763119E+03  0.59683826701E+03  0.47000000000E+01 0.  1.
        -11    1    1    2    0    0 -0.67614009640E+02 -0.50005006162E+01 -0.35027077537E+03  0.35677202159E+03  0.00000000000E+00 0.  1.
         11    1    1    2    0    0 -0.89400262230E+02  0.24659690404E+02 -0.15959736232E+03  0.18458555002E+03  0.00000000000E+00 0. -1.
<mgrwt>
<rscale>  0 0.19653349E+03</rscale>
<asrwt>0</asrwt>
<pdfrwt beam="2">  1        2 0.22732654E+00 0.20165328E+03</pdfrwt>
<pdfrwt beam="1">  1       -2 0.40651059E-02 0.20165328E+03</pdfrwt>
<totfact> 0.37499954E+03</totfact>
</mgrwt>
</event>
<event>
 7    1  0.8165933E-006  0.1331326E+03  0.7546771E-02  0.1235953E+00
          1   -1    0    0  501    0  0.00000000000E+00  0.00000000000E+00  0.35769398700E+03  0.35769398700E+03  0.00000000000E+00 0. -1.
         -1   -1    0    0    0  501 -0.00000000000E+00 -0.00000000000E+00 -0.39933474825E+02  0.39933474825E+02  0.00000000000E+00 0.  1.
         23    2    1    2    0    0  0.58927187750E+01 -0.45413007082E+02  0.21662780064E+03  0.25426737435E+03  0.12500891290E+03 0.  0.
          5    1    3    3  502    0 -0.51538692978E+02  0.53857587623E+01  0.12022538001E+03  0.13100181399E+03  0.47000000000E+01 0. -1.
         -5    1    3    3    0  502  0.57431411753E+02 -0.50798765845E+02  0.96402420632E+02  0.12326556036E+03  0.47000000000E+01 0. -1.
        -11    1    1    2    0    0 -0.39192066356E+02  0.20202520237E+02  0.89867097294E+02  0.10010122409E+03  0.00000000000E+00 0. -1.
         11    1    1    2    0    0  0.33299347581E+02  0.25210486845E+02  0.11265614238E+02  0.43258863374E+02  0.00000000000E+00 0.  1.
<mgrwt>
<rscale>  0 0.12443595E+03</rscale>
<asrwt>0</asrwt>
<pdfrwt beam="1">  1        1 0.55029842E-01 0.13313262E+03</pdfrwt>
<pdfrwt beam="2">  1       -1 0.61436118E-02 0.13313262E+03</pdfrwt>
<totfact> 0.85632794E+03</totfact>
</mgrwt>
</event>
<event>
 7    1  0.8165933E-006  0.1507012E+03  0.7546771E-02  0.1207933E+00
         -1   -1    0    0    0  501 -0.00000000000E+00  0.00000000000E+00  0.34793066143E+02  0.34793066143E+02  0.00000000000E+00 0.  1.
          1   -1    0    0  501    0  0.00000000000E+00 -0.00000000000E+00 -0.94628007276E+03  0.94628007276E+03  0.00000000000E+00 0. -1.
         23    2    1    2    0    0  0.26606692583E+02  0.79856469214E+02 -0.79620059296E+03  0.81033710887E+03  0.12500349604E+03 0.  0.
          5    1    3    3  502    0  0.22732611532E+02  0.59075633665E+01 -0.21794903004E+02  0.32384853388E+02  0.47000000000E+01 0. -1.
         -5    1    3    3    0  502  0.38740810508E+01  0.73948905847E+02 -0.77440568995E+03  0.77795225548E+03  0.47000000000E+01 0. -1.
        -11    1    1    2    0    0 -0.36449657105E+02  0.78600356025E+01 -0.28309700120E+02  0.46816629349E+02  0.00000000000E+00 0. -1.
         11    1    1    2    0    0  0.98429645219E+01 -0.87716504816E+02 -0.86976713541E+02  0.12391940069E+03  0.00000000000E+00 0.  1.
<mgrwt>
<rscale>  0 0.14408701E+03</rscale>
<asrwt>0</asrwt>
<pdfrwt beam="2">  1        1 0.14558155E+00 0.15070118E+03</pdfrwt>
<pdfrwt beam="1">  1       -1 0.53527794E-02 0.15070118E+03</pdfrwt>
<totfact> 0.27562775E+03</totfact>
</mgrwt>
</event>
<event>
 7    1  0.8165933E-006  0.1349436E+03  0.7546771E-02  0.1232007E+00
         -2   -1    0    0    0  501 -0.00000000000E+00  0.00000000000E+00  0.20405516840E+02  0.20405516840E+02  0.00000000000E+00 0.  1.
          2   -1    0    0  501    0  0.00000000000E+00 -0.00000000000E+00 -0.79434341839E+03  0.79434341839E+03  0.00000000000E+00 0. -1.
         23    2    1    2    0    0 -0.10034331550E+02 -0.49837586147E+02 -0.56065764488E+03  0.57666869228E+03  0.12500125234E+03 0.  0.
          5    1    3    3  502    0 -0.27813397521E+02  0.35651054895E+02 -0.24188368771E+03  0.24611865264E+03  0.47000000000E+01 0. -1.
         -5    1    3    3    0  502  0.17779065971E+02 -0.85488641042E+02 -0.31877395717E+03  0.33055003963E+03  0.47000000000E+01 0. -1.
        -11    1    1    2    0    0  0.39229645887E+02  0.57240328042E+02 -0.10633478468E+03  0.12697443327E+03  0.00000000000E+00 0. -1.
         11    1    1    2    0    0 -0.29195314337E+02 -0.74027418950E+01 -0.10694547199E+03  0.11110580969E+03  0.00000000000E+00 0.  1.
<mgrwt>
<rscale>  0 0.12698025E+03</rscale>
<asrwt>0</asrwt>
<pdfrwt beam="2">  1        2 0.12220670E+00 0.13494364E+03</pdfrwt>
<pdfrwt beam="1">  1       -2 0.31393099E-02 0.13494364E+03</pdfrwt>
<totfact> 0.13522284E+04</totfact>
</mgrwt>
</event>
<event>
 7    1  0.2192732E-005  0.3464853E+03  0.7546771E-02  0.1065198E+00
          1   -1    0    0  501    0  0.00000000000E+00  0.00000000000E+00  0.11399106957E+04  0.11399106957E+04  0.00000000000E+00 0. -1.
         -1   -1    0    0    0  501 -0.00000000000E+00 -0.00000000000E+00 -0.11346257016E+03  0.11346257016E+03  0.00000000000E+00 0.  1.
         23    2    1    2    0    0 -0.12377742936E+03 -0.29850961605E+03  0.71884985260E+03  0.79799571473E+03  0.12499282880E+03 0.  0.
          5    1    3    3  502    0 -0.48017998664E+02 -0.13064042129E+03  0.17417056164E+03  0.22300251660E+03  0.47000000000E+01 0.  1.
         -5    1    3    3    0  502 -0.75759430693E+02 -0.16786919476E+03  0.54467929096E+03  0.57499319813E+03  0.47000000000E+01 0.  1.
        -11    1    1    2    0    0  0.54478880583E+02  0.46927433114E+02  0.92770493450E+02  0.11737332262E+03  0.00000000000E+00 0. -1.
         11    1    1    2    0    0  0.69298548775E+02  0.25158218294E+03  0.21482777945E+03  0.33800422846E+03  0.00000000000E+00 0.  1.
<mgrwt>
<rscale>  0 0.34377883E+03</rscale>
<asrwt>0</asrwt>
<pdfrwt beam="1">  1        1 0.17537087E+00 0.34648528E+03</pdfrwt>
<pdfrwt beam="2">  1       -1 0.17455781E-01 0.34648528E+03</pdfrwt>
<totfact> 0.31695532E+02</totfact>
</mgrwt>
</event>
<event>
 7    1  0.8165933E-006  0.1185293E+03  0.7546771E-02  0.1255178E+00
         -2   -1    0    0    0  501 -0.00000000000E+00  0.00000000000E+00  0.10202141116E+03  0.10202141116E+03  0.00000000000E+00 0.  1.
          2   -1    0    0  501    0  0.00000000000E+00 -0.00000000000E+00 -0.18559144934E+03  0.18559144934E+03  0.00000000000E+00 0. -1.
         23    2    1    2    0    0  0.25980120121E+02 -0.30411549075E+02 -0.13290854946E+03  0.17808392287E+03  0.11157675433E+03 0.  0.
          5    1    3    3  502    0  0.50409847351E+02  0.54503945003E+01 -0.12328823829E+03  0.13339017659E+03  0.47000000000E+01 0. -1.
         -5    1    3    3    0  502 -0.24429727230E+02 -0.35861943575E+02 -0.96203111652E+01  0.44693746279E+02  0.47000000000E+01 0.  1.
        -11    1    1    2    0    0 -0.39818898300E+02  0.49047046417E+02  0.10155533083E+02  0.63986657018E+02  0.00000000000E+00 0.  1.
         11    1    1    2    0    0  0.13838778179E+02 -0.18635497342E+02  0.39182978197E+02  0.45542280609E+02  0.00000000000E+00 0. -1.
<mgrwt>
<rscale>  0 0.11296389E+03</rscale>
<asrwt>0</asrwt>
<pdfrwt beam="2">  1        2 0.28552531E-01 0.11852933E+03</pdfrwt>
<pdfrwt beam="1">  1       -2 0.15695602E-01 0.11852933E+03</pdfrwt>
<totfact> 0.55567905E+03</totfact>
</mgrwt>
</event>
<event>
 7    1  0.8165933E-006  0.1168427E+03  0.7546771E-02  0.1258328E+00
         -1   -1    0    0    0  501 -0.00000000000E+00  0.00000000000E+00  0.94864984709E+01  0.94864984709E+01  0.00000000000E+00 0.  1.
          1   -1    0    0  501    0  0.00000000000E+00 -0.00000000000E+00 -0.16038983484E+04  0.16038983484E+04  0.00000000000E+00 0. -1.
         23    2    1    2    0    0 -0.31032357135E+02  0.23595229304E+02 -0.12623600993E+04  0.12677559891E+04  0.11014756236E+03 0.  0.
          5    1    3    3  502    0  0.31695003087E+02 -0.19647353777E+02 -0.29415892380E+03  0.29655042435E+03  0.47000000000E+01 0. -1.
         -5    1    3    3    0  502 -0.62727360223E+02  0.43242583081E+02 -0.96820117549E+03  0.97120556472E+03  0.47000000000E+01 0.  1.
        -11    1    1    2    0    0 -0.15128928511E+02  0.24270012152E+02 -0.12176427853E+03  0.12507780576E+03  0.00000000000E+00 0.  1.
         11    1    1    2    0    0  0.46161285646E+02 -0.47865241456E+02 -0.21028747207E+03  0.22055105201E+03  0.00000000000E+00 0. -1.
<mgrwt>
<rscale>  0 0.11121935E+03</rscale>
<asrwt>0</asrwt>
<pdfrwt beam="2">  1        1 0.24675307E+00 0.11684275E+03</pdfrwt>
<pdfrwt beam="1">  1       -1 0.14594644E-02 0.11684275E+03</pdfrwt>
<totfact> 0.64737331E+03</totfact>
</mgrwt>
</event>
<event>
 7    1  0.8165933E-006  0.1729389E+03  0.7546771E-02  0.1181067E+00
         -2   -1    0    0    0  501 -0.00000000000E+00  0.00000000000E+00  0.43270379721E+03  0.43270379721E+03  0.00000000000E+00 0.  1.
          2   -1    0    0  501    0  0.00000000000E+00 -0.00000000000E+00 -0.61570023941E+02  0.61570023941E+02  0.00000000000E+00 0. -1.
         23    2    1    2    0    0  0.70660658488E+02 -0.96376864724E+02  0.23336887926E+03  0.29046325770E+03  0.12500576609E+03 0.  0.
          5    1    3    3  502    0  0.10409949542E+03 -0.50214297301E+02  0.16004458453E+03  0.19747035129E+03  0.47000000000E+01 0. -1.
         -5    1    3    3    0  502 -0.33438836928E+02 -0.46162567423E+02  0.73324294724E+02  0.92992906412E+02  0.47000000000E+01 0. -1.
        -11    1    1    2    0    0 -0.19188119848E+02  0.27430268336E+02  0.10751664696E+03  0.11260742843E+03  0.00000000000E+00 0. -1.
         11    1    1    2    0    0 -0.51472538640E+02  0.68946596388E+02  0.30248247051E+02  0.91203135019E+02  0.00000000000E+00 0.  1.
<mgrwt>
<rscale>  0 0.16694981E+03</rscale>
<asrwt>0</asrwt>
<pdfrwt beam="2">  1        2 0.94723116E-02 0.17293892E+03</pdfrwt>
<pdfrwt beam="1">  1       -2 0.66569813E-01 0.17293892E+03</pdfrwt>
<totfact> 0.14299192E+03</totfact>
</mgrwt>
</event>
<event>
 7    1  0.8165933E-006  0.4096950E+03  0.7546771E-02  0.1041211E+00
          1   -1    0    0  501    0  0.00000000000E+00  0.00000000000E+00  0.21513911509E+04  0.21513911509E+04  0.00000000000E+00 0. -1.
         -1   -1    0    0    0  501 -0.00000000000E+00 -0.00000000000E+00 -0.76818903502E+02  0.76818903502E+02  0.00000000000E+00 0.  1.
         23    2    1    2    0    0 -0.38378272743E+03  0.70272566735E+02  0.11330122575E+04  0.12048098607E+04  0.12499043697E+03 0.  0.
          5    1    3    3  502    0 -0.12975557127E+03 -0.31724617226E+02  0.43313546424E+03  0.45328951014E+03  0.47000000000E+01 0.  1.
         -5    1    3    3    0  502 -0.25402715616E+03  0.10199718396E+03  0.69987679324E+03  0.75152035057E+03  0.47000000000E+01 0.  1.
        -11    1    1    2    0    0  0.19928548831E+03 -0.15936623390E+02  0.37313948535E+03  0.42332228543E+03  0.00000000000E+00 0. -1.
         11    1    1    2    0    0  0.18449723912E+03 -0.54335943345E+02  0.56842050461E+03  0.60007790831E+03  0.00000000000E+00 0.  1.
<mgrwt>
<rscale>  0 0.40750748E+03</rscale>
<asrwt>0</asrwt>
<pdfrwt beam="1">  1        1 0.33098321E+00 0.40969504E+03</pdfrwt>
<pdfrwt beam="2">  1       -1 0.11818294E-01 0.40969504E+03</pdfrwt>
<totfact> 0.12280994E+02</totfact>
</mgrwt>
</event>
<event>
 7    1  0.8165933E-006  0.1302524E+03  0.7546771E-02  0.1241008E+00
          2   -1    0    0  501    0  0.00000000000E+00  0.00000000000E+00  0.99077148420E+03  0.99077148420E+03  0.00000000000E+00 0.  1.
         -2   -1    0    0    0  501 -0.00000000000E+00 -0.00000000000E+00 -0.14705611270E+02  0.14705611270E+02  0.00000000000E+00 0. -1.
         23    2    1    2    0    0 -0.36744478801E+02 -0.19316227107E+01  0.71277291668E+03  0.72457636344E+03  0.12494714009E+03 0.  0.
          5    1    3    3  502    0  0.14729916247E+02 -0.44419614156E+02  0.13533855929E+03  0.14327835909E+03  0.47000000000E+01 0. -1.
         -5    1    3    3    0  502 -0.51474395048E+02  0.42487991445E+02  0.57743435739E+03  0.58129800435E+03  0.47000000000E+01 0. -1.
        -11    1    1    2    0    0 -0.27492286273E+02  0.60826455645E+01  0.12819681159E+03  0.13125260715E+03  0.00000000000E+00 0. -1.
         11    1    1    2    0    0  0.64236765075E+02 -0.41510228538E+01  0.13509614466E+03  0.14964812488E+03  0.00000000000E+00 0.  1.
<mgrwt>
<rscale>  0 0.12127504E+03</rscale>
<asrwt>0</asrwt>
<pdfrwt beam="1">  1        2 0.15242633E+00 0.13025235E+03</pdfrwt>
<pdfrwt beam="2">  1       -2 0.22624025E-02 0.13025235E+03</pdfrwt>
<totfact> 0.16349142E+04</totfact>
</mgrwt>
</event>
<event>
 7    1  0.8165933E-006  0.2065700E+03  0.7546771E-02  0.1148281E+00
         -1   -1    0    0    0  501 -0.00000000000E+00  0.00000000000E+00  0.42326256544E+03  0.42326256544E+03  0.00000000000E+00 0.  1.
          1   -1    0    0  501    0  0.00000000000E+00 -0.00000000000E+00 -0.91997949652E+02  0.91997949652E+02  0.00000000000E+00 0. -1.
         23    2    1    2    0    0 -0.20469505283E-01  0.16445698831E+03  0.18129860453E+03  0.27484605215E+03  0.12500026783E+03 0.  0.
          5    1    3    3  502    0 -0.51819068471E+02  0.10932505545E+03  0.68981329080E+02  0.13934739814E+03  0.47000000000E+01 0.  1.
         -5    1    3    3    0  502  0.51798598965E+02  0.55131932862E+02  0.11231727545E+03  0.13549865402E+03  0.47000000000E+01 0.  1.
        -11    1    1    2    0    0  0.44998258459E+02 -0.91820100156E+02  0.75903231418E+02  0.12734627830E+03  0.00000000000E+00 0. -1.
         11    1    1    2    0    0 -0.44977788954E+02 -0.72636888153E+02  0.74062779837E+02  0.11306818464E+03  0.00000000000E+00 0.  1.
<mgrwt>
<rscale>  0 0.20173749E+03</rscale>
<asrwt>0</asrwt>
<pdfrwt beam="2">  1        1 0.14153531E-01 0.20657001E+03</pdfrwt>
<pdfrwt beam="1">  1       -1 0.65117317E-01 0.20657001E+03</pdfrwt>
<totfact> 0.99232410E+02</totfact>
</mgrwt>
</event>
<event>
 7    1  0.8165933E-006  0.1342372E+03  0.7546771E-02  0.1234699E+00
         -1   -1    0    0    0  501 -0.00000000000E+00  0.00000000000E+00  0.77398859556E+02  0.77398859556E+02  0.00000000000E+00 0.  1.
          1   -1    0    0  501    0  0.00000000000E+00 -0.00000000000E+00 -0.18041108349E+03  0.18041108349E+03  0.00000000000E+00 0. -1.
         23    2    1    2    0    0  0.35060284222E+02 -0.34135107524E+02 -0.66009683862E+02  0.14958914969E+03  0.12500082498E+03 0.  0.
          5    1    3    3  502    0  0.44389087032E+02  0.39470248136E+02 -0.34428140488E+02  0.68816265468E+02  0.47000000000E+01 0.  1.
         -5    1    3    3    0  502 -0.93288028100E+01 -0.73605355661E+02 -0.31581543374E+02  0.80772884223E+02  0.47000000000E+01 0.  1.
        -11    1    1    2    0    0  0.51820489013E+01  0.29108376922E+02  0.21839010889E+02  0.36757225609E+02  0.00000000000E+00 0.  1.
         11    1    1    2    0    0 -0.40242333123E+02  0.50267306023E+01 -0.58841550963E+02  0.71463567749E+02  0.00000000000E+00 0. -1.
<mgrwt>
<rscale>  0 0.12523716E+03</rscale>
<asrwt>0</asrwt>
<pdfrwt beam="2">  1        1 0.27755551E-01 0.13423724E+03</pdfrwt>
<pdfrwt beam="1">  1       -1 0.11907517E-01 0.13423724E+03</pdfrwt>
<totfact> 0.73491354E+03</totfact>
</mgrwt>
</event>
<event>
 7    1  0.8165933E-006  0.1614319E+03  0.7546771E-02  0.1194505E+00
         -3   -1    0    0    0  501 -0.00000000000E+00  0.00000000000E+00  0.71602271154E+02  0.71602271154E+02  0.00000000000E+00 0.  1.
          3   -1    0    0  501    0  0.00000000000E+00 -0.00000000000E+00 -0.35670704884E+03  0.35670704884E+03  0.00000000000E+00 0. -1.
         23    2    1    2    0    0  0.88290199901E+02 -0.51372917992E+02 -0.22905409364E+03  0.28022495878E+03  0.12500365437E+03 0.  0.
          5    1    3    3  502    0 -0.13517860926E+02  0.99099373090E+01  0.46371778493E+01  0.18014795027E+02  0.47000000000E+01 0. -1.
         -5    1    3    3    0  502  0.10180806083E+03 -0.61282855301E+02 -0.23369127149E+03  0.26221016375E+03  0.47000000000E+01 0. -1.
        -11    1    1    2    0    0 -0.42218835954E+01  0.29040401574E+02  0.17504249898E+02  0.34169694016E+02  0.00000000000E+00 0.  1.
         11    1    1    2    0    0 -0.84068316305E+02  0.22332516418E+02 -0.73554933939E+02  0.11391466720E+03  0.00000000000E+00 0. -1.
<mgrwt>
<rscale>  0 0.15496193E+03</rscale>
<asrwt>0</asrwt>
<pdfrwt beam="2">  1        3 0.54878006E-01 0.16143187E+03</pdfrwt>
<pdfrwt beam="1">  1       -3 0.11015734E-01 0.16143187E+03</pdfrwt>
<totfact> 0.49362219E+02</totfact>
</mgrwt>
</event>
<event>
 7    1  0.8165933E-006  0.1474267E+03  0.7546771E-02  0.1221437E+00
          3   -1    0    0  501    0  0.00000000000E+00  0.00000000000E+00  0.13408774199E+03  0.13408774199E+03  0.00000000000E+00 0. -1.
         -3   -1    0    0    0  501 -0.00000000000E+00 -0.00000000000E+00 -0.12967981884E+03  0.12967981884E+03  0.00000000000E+00 0.  1.
         23    2    1    2    0    0  0.56065188815E+01  0.77966427534E+02  0.46086076631E+02  0.15446216396E+03  0.12499774702E+03 0.  0.
          5    1    3    3  502    0 -0.20075509407E+02  0.65913195823E+02  0.82803375003E+02  0.10782422907E+03  0.47000000000E+01 0.  1.
         -5    1    3    3    0  502  0.25682028289E+02  0.12053231711E+02 -0.36717298371E+02  0.46637934896E+02  0.47000000000E+01 0.  1.
        -11    1    1    2    0    0 -0.13101670887E+02 -0.55535154213E+02 -0.57376713048E+02  0.80919060386E+02  0.00000000000E+00 0.  1.
         11    1    1    2    0    0  0.74951520055E+01 -0.22431273321E+02  0.15698559562E+02  0.28386336479E+02  0.00000000000E+00 0. -1.
<mgrwt>
<rscale>  0 0.13414162E+03</rscale>
<asrwt>0</asrwt>
<pdfrwt beam="1">  1        3 0.20628883E-01 0.14742671E+03</pdfrwt>
<pdfrwt beam="2">  1       -3 0.19950741E-01 0.14742671E+03</pdfrwt>
<totfact> 0.11173193E+03</totfact>
</mgrwt>
</event>
<event>
 7    1  0.8165933E-006  0.1363474E+03  0.7546771E-02  0.1233095E+00
          2   -1    0    0  501    0  0.00000000000E+00  0.00000000000E+00  0.20973287136E+03  0.20973287136E+03  0.00000000000E+00 0. -1.
         -2   -1    0    0    0  501 -0.00000000000E+00 -0.00000000000E+00 -0.19295172770E+03  0.19295172770E+03  0.00000000000E+00 0.  1.
         23    2    1    2    0    0  0.57492595374E+01  0.58711542254E+02  0.17101011516E+03  0.21871229101E+03  0.12292480455E+03 0.  0.
          5    1    3    3  502    0 -0.13919548502E+02  0.41730286493E+02  0.18402801004E+03  0.18927115238E+03  0.47000000000E+01 0. -1.
         -5    1    3    3    0  502  0.19668808039E+02  0.16981255760E+02 -0.13017894887E+02  0.29441138635E+02  0.47000000000E+01 0.  1.
        -11    1    1    2    0    0 -0.38014899219E+01  0.17924436339E+02 -0.10608070730E+02  0.21172338282E+02  0.00000000000E+00 0. -1.
         11    1    1    2    0    0 -0.19477696155E+01 -0.76635978592E+02 -0.14362090076E+03  0.16279996977E+03  0.00000000000E+00 0.  1.
<mgrwt>
<rscale>  0 0.12627161E+03</rscale>
<asrwt>0</asrwt>
<pdfrwt beam="1">  1        2 0.32266596E-01 0.13634738E+03</pdfrwt>
<pdfrwt beam="2">  1       -2 0.29684881E-01 0.13634738E+03</pdfrwt>
<totfact> 0.16495460E+03</totfact>
</mgrwt>
</event>
<event>
 7    1  0.8165933E-006  0.1790492E+03  0.7546771E-02  0.1174444E+00
         -2   -1    0    0    0  501 -0.00000000000E+00  0.00000000000E+00  0.61838349027E+02  0.61838349027E+02  0.00000000000E+00 0.  1.
          2   -1    0    0  501    0  0.00000000000E+00 -0.00000000000E+00 -0.49813877297E+03  0.49813877297E+03  0.00000000000E+00 0. -1.
         23    2    1    2    0    0  0.57241084375E+02 -0.11470708046E+03 -0.31151244984E+03  0.35930296195E+03  0.12499742403E+03 0.  0.
          5    1    3    3  502    0  0.57538116732E+02 -0.10154307141E+03 -0.12064947173E+03  0.16792860166E+03  0.47000000000E+01 0.  1.
         -5    1    3    3    0  502 -0.29703235698E+00 -0.13164009049E+02 -0.19086297811E+03  0.19137436028E+03  0.47000000000E+01 0.  1.
        -11    1    1    2    0    0 -0.13600373154E+02  0.56834706333E+02 -0.24678493521E+01  0.58491403422E+02  0.00000000000E+00 0.  1.
         11    1    1    2    0    0 -0.43640711220E+02  0.57872374124E+02 -0.12232012475E+03  0.14218275663E+03  0.00000000000E+00 0. -1.
<mgrwt>
<rscale>  0 0.17330543E+03</rscale>
<asrwt>0</asrwt>
<pdfrwt beam="2">  1        2 0.76636733E-01 0.17904919E+03</pdfrwt>
<pdfrwt beam="1">  1       -2 0.95135923E-02 0.17904919E+03</pdfrwt>
<totfact> 0.43982060E+03</totfact>
</mgrwt>
</event>
<event>
 7    1  0.1107215E-005  0.1259436E+03  0.7546771E-02  0.1248732E+00
          1   -1    0    0  501    0  0.00000000000E+00  0.00000000000E+00  0.25216108150E+03  0.25216108150E+03  0.00000000000E+00 0. -1.
         -1   -1    0    0    0  501 -0.00000000000E+00 -0.00000000000E+00 -0.57957001503E+02  0.57957001503E+02  0.00000000000E+00 0.  1.
         23    2    1    2    0    0 -0.52169705891E+01 -0.14502872613E+02  0.17477398243E+03  0.21542452933E+03  0.12499693119E+03 0.  0.
          5    1    3    3  502    0 -0.17817842049E+02  0.76653335022E+01 -0.14318241955E+02  0.24562876169E+02  0.47000000000E+01 0. -1.
         -5    1    3    3    0  502  0.12600871460E+02 -0.22168206116E+02  0.18909222438E+03  0.19086165316E+03  0.47000000000E+01 0. -1.
        -11    1    1    2    0    0  0.17558212526E+02 -0.76600390805E+01 -0.32029602217E+02  0.37321072385E+02  0.00000000000E+00 0.  1.
         11    1    1    2    0    0 -0.12341241937E+02  0.22162911694E+02  0.51459699783E+02  0.57372481287E+02  0.00000000000E+00 0. -1.
<mgrwt>
<rscale>  0 0.11664791E+03</rscale>
<asrwt>0</asrwt>
<pdfrwt beam="1">  1        1 0.38794012E-01 0.12594357E+03</pdfrwt>
<pdfrwt beam="2">  1       -1 0.89164619E-02 0.12594357E+03</pdfrwt>
<totfact> 0.75147532E+03</totfact>
</mgrwt>
</event>
<event>
 7    1  0.8165933E-006  0.2092830E+03  0.7546771E-02  0.1145926E+00
         -2   -1    0    0    0  501 -0.00000000000E+00  0.00000000000E+00  0.75864272141E+02  0.75864272141E+02  0.00000000000E+00 0.  1.
          2   -1    0    0  501    0  0.00000000000E+00 -0.00000000000E+00 -0.52836882283E+03  0.52836882283E+03  0.00000000000E+00 0. -1.
         23    2    1    2    0    0 -0.99032700385E+02  0.13555852042E+03 -0.23928101978E+03  0.31789112241E+03  0.12496307886E+03 0.  0.
          5    1    3    3  502    0  0.23495722887E+02  0.31456857323E+02 -0.90589751808E+02  0.98844200635E+02  0.47000000000E+01 0. -1.
         -5    1    3    3    0  502 -0.12252842327E+03  0.10410166309E+03 -0.14869126797E+03  0.21904692178E+03  0.47000000000E+01 0. -1.
        -11    1    1    2    0    0  0.89094628704E+02 -0.82664229065E+02 -0.88024368710E+02  0.15006504296E+03  0.00000000000E+00 0.  1.
         11    1    1    2    0    0  0.99380716810E+01 -0.52894291353E+02 -0.12519916220E+03  0.13627692960E+03  0.00000000000E+00 0. -1.
<mgrwt>
<rscale>  0 0.20458690E+03</rscale>
<asrwt>0</asrwt>
<pdfrwt beam="2">  1        2 0.81287510E-01 0.20928296E+03</pdfrwt>
<pdfrwt beam="1">  1       -2 0.11671427E-01 0.20928296E+03</pdfrwt>
<totfact> 0.29912912E+03</totfact>
</mgrwt>
</event>
<event>
 7    1  0.8165933E-006  0.1499964E+03  0.7546771E-02  0.1209743E+00
          2   -1    0    0  501    0  0.00000000000E+00  0.00000000000E+00  0.12968376246E+03  0.12968376246E+03  0.00000000000E+00 0. -1.
         -2   -1    0    0    0  501 -0.00000000000E+00 -0.00000000000E+00 -0.14359361228E+03  0.14359361228E+03  0.00000000000E+00 0.  1.
         23    2    1    2    0    0 -0.74331257260E+02  0.36711600070E+02 -0.48313110998E+01  0.15007415689E+03  0.12500413439E+03 0.  0.
          5    1    3    3  502    0 -0.90145097121E+01 -0.40864762491E+02  0.18359106183E+02  0.45938404181E+02  0.47000000000E+01 0. -1.
         -5    1    3    3    0  502 -0.65316747548E+02  0.77576362561E+02 -0.23190417283E+02  0.10413575271E+03  0.47000000000E+01 0. -1.
        -11    1    1    2    0    0  0.85846708214E+01  0.10122306658E+02  0.30527881838E+02  0.33288274733E+02  0.00000000000E+00 0. -1.
         11    1    1    2    0    0  0.65746586438E+02 -0.46833906728E+02 -0.39606420560E+02  0.89914943125E+02  0.00000000000E+00 0.  1.
<mgrwt>
<rscale>  0 0.14269886E+03</rscale>
<asrwt>0</asrwt>
<pdfrwt beam="1">  1        2 0.19951348E-01 0.14999637E+03</pdfrwt>
<pdfrwt beam="2">  1       -2 0.22091325E-01 0.14999637E+03</pdfrwt>
<totfact> 0.47319208E+03</totfact>
</mgrwt>
</event>
<event>
 7    1  0.8165933E-006  0.1418058E+03  0.7546771E-02  0.1219980E+00
          1   -1    0    0  501    0  0.00000000000E+00  0.00000000000E+00  0.26815004748E+02  0.26815004748E+02  0.00000000000E+00 0. -1.
         -1   -1    0    0    0  501 -0.00000000000E+00 -0.00000000000E+00 -0.66305337137E+03  0.66305337137E+03  0.00000000000E+00 0.  1.
         23    2    1    2    0    0 -0.66922836609E+02 -0.28592877335E+01 -0.42925986712E+03  0.45207624202E+03  0.12498821342E+03 0.  0.
          5    1    3    3  502    0 -0.82308811321E+02 -0.36299026267E+02 -0.37925727120E+03  0.38980832147E+03  0.47000000000E+01 0. -1.
         -5    1    3    3    0  502  0.15385974712E+02  0.33439738534E+02 -0.50002595911E+02  0.62267920544E+02  0.47000000000E+01 0. -1.
        -11    1    1    2    0    0  0.87375750151E+02 -0.14745877880E+02 -0.17325508729E+03  0.19460032862E+03  0.00000000000E+00 0.  1.
         11    1    1    2    0    0 -0.20452913542E+02  0.17605165614E+02 -0.33723412215E+02  0.43191805474E+02  0.00000000000E+00 0. -1.
<mgrwt>
<rscale>  0 0.13517004E+03</rscale>
<asrwt>0</asrwt>
<pdfrwt beam="1">  1        1 0.41253853E-02 0.14180584E+03</pdfrwt>
<pdfrwt beam="2">  1       -1 0.10200821E+00 0.14180584E+03</pdfrwt>
<totfact> 0.20412066E+03</totfact>
</mgrwt>
</event>
<event>
 7    1  0.8165933E-006  0.1791298E+03  0.7546771E-02  0.1174324E+00
         -4   -1    0    0    0  501 -0.00000000000E+00  0.00000000000E+00  0.51038330377E+03  0.51038330377E+03  0.00000000000E+00 0.  1.
          4   -1    0    0  501    0  0.00000000000E+00 -0.00000000000E+00 -0.60501142362E+02  0.60501142362E+02  0.00000000000E+00 0. -1.
         23    2    1    2    0    0 -0.11072447655E+03  0.64830591762E+02  0.15607529481E+03  0.23758577126E+03  0.12499834286E+03 0.  0.
          5    1    3    3  502    0 -0.24697283229E+02  0.27075531337E+02  0.13662264800E+03  0.14153048486E+03  0.47000000000E+01 0. -1.
         -5    1    3    3    0  502 -0.86027193317E+02  0.37755060426E+02  0.19452646810E+02  0.96055286401E+02  0.47000000000E+01 0. -1.
        -11    1    1    2    0    0  0.16048977501E+02 -0.33686973942E+02  0.20915554150E+02  0.42776655989E+02  0.00000000000E+00 0. -1.
         11    1    1    2    0    0  0.94675499044E+02 -0.31143617820E+02  0.27289131244E+03  0.29052201889E+03  0.00000000000E+00 0.  1.
<mgrwt>
<rscale>  0 0.17342309E+03</rscale>
<asrwt>0</asrwt>
<pdfrwt beam="2">  1        4 0.93078684E-02 0.17912984E+03</pdfrwt>
<pdfrwt beam="1">  1       -4 0.78520505E-01 0.17912984E+03</pdfrwt>
<totfact> 0.22193588E+02</totfact>
</mgrwt>
</event>
<event>
 7    1  0.8165933E-006  0.1403935E+03  0.7546771E-02  0.1224846E+00
          2   -1    0    0  501    0  0.00000000000E+00  0.00000000000E+00  0.76144592029E+03  0.76144592029E+03  0.00000000000E+00 0. -1.
         -2   -1    0    0    0  501 -0.00000000000E+00 -0.00000000000E+00 -0.22900441223E+02  0.22900441223E+02  0.00000000000E+00 0.  1.
         23    2    1    2    0    0  0.58378510663E+02 -0.12461537276E+01  0.53904130801E+03  0.55702412832E+03  0.12767436854E+03 0.  0.
          5    1    3    3  502    0  0.58252002339E+02  0.50278300803E+02  0.42304770717E+03  0.43001471585E+03  0.47000000000E+01 0. -1.
         -5    1    3    3    0  502  0.12650832352E+00 -0.51524454531E+02  0.11599360085E+03  0.12700941247E+03  0.47000000000E+01 0.  1.
        -11    1    1    2    0    0 -0.83620286255E+02  0.13213314913E+01  0.15712029804E+03  0.17799125329E+03  0.00000000000E+00 0.  1.
         11    1    1    2    0    0  0.25241775592E+02 -0.75177763745E-01  0.42383873013E+02  0.49330979904E+02  0.00000000000E+00 0. -1.
<mgrwt>
<rscale>  0 0.13177488E+03</rscale>
<asrwt>0</asrwt>
<pdfrwt beam="1">  1        2 0.11714551E+00 0.14039355E+03</pdfrwt>
<pdfrwt beam="2">  1       -2 0.35231454E-02 0.14039355E+03</pdfrwt>
<totfact> 0.12046986E+04</totfact>
</mgrwt>
</event>
<event>
 7    1  0.8165933E-006  0.1360750E+03  0.7546771E-02  0.1231011E+00
          4   -1    0    0  501    0  0.00000000000E+00  0.00000000000E+00  0.45260960007E+03  0.45260960007E+03  0.00000000000E+00 0. -1.
         -4   -1    0    0    0  501 -0.00000000000E+00 -0.00000000000E+00 -0.34896899666E+02  0.34896899666E+02  0.00000000000E+00 0.  1.
         23    2    1    2    0    0 -0.39121259361E+02  0.36882305493E+02  0.30081845561E+03  0.33016383503E+03  0.12500254930E+03 0.  0.
          5    1    3    3  502    0 -0.70975388099E+02 -0.15923233941E+02  0.18549143629E+03  0.19929931769E+03  0.47000000000E+01 0.  1.
         -5    1    3    3    0  502  0.31854128738E+02  0.52805539434E+02  0.11532701932E+03  0.13086451733E+03  0.47000000000E+01 0.  1.
        -11    1    1    2    0    0  0.47147903015E+02  0.15901456221E+02  0.72361012196E+02  0.87817408039E+02  0.00000000000E+00 0.  1.
         11    1    1    2    0    0 -0.80266436546E+01 -0.52783761714E+02  0.44533232595E+02  0.69525256665E+02  0.00000000000E+00 0. -1.
<mgrwt>
<rscale>  0 0.12763279E+03</rscale>
<asrwt>0</asrwt>
<pdfrwt beam="1">  1        4 0.69632242E-01 0.13607503E+03</pdfrwt>
<pdfrwt beam="2">  1       -4 0.53687541E-02 0.13607503E+03</pdfrwt>
<totfact> 0.68052698E+02</totfact>
</mgrwt>
</event>
<event>
 7    1  0.8165933E-006  0.1363742E+03  0.7546771E-02  0.1220010E+00
         -1   -1    0    0    0  501 -0.00000000000E+00  0.00000000000E+00  0.12537164635E+03  0.12537164635E+03  0.00000000000E+00 0.  1.
          1   -1    0    0  501    0  0.00000000000E+00 -0.00000000000E+00 -0.16228536684E+03  0.16228536684E+03  0.00000000000E+00 0. -1.
         23    2    1    2    0    0  0.32936312419E+02  0.43459558824E+02 -0.68160454124E+02  0.15245907248E+03  0.12499754937E+03 0.  0.
          5    1    3    3  502    0  0.29781071366E+01 -0.38453310378E+02 -0.49869617387E+02  0.63218628105E+02  0.47000000000E+01 0. -1.
         -5    1    3    3    0  502  0.29958205283E+02  0.81912869202E+02 -0.18290836737E+02  0.89240444380E+02  0.47000000000E+01 0. -1.
        -11    1    1    2    0    0 -0.68697191617E+02  0.58386948257E+01  0.27346749170E+02  0.74170338974E+02  0.00000000000E+00 0.  1.
         11    1    1    2    0    0  0.35760879198E+02 -0.49298253649E+02  0.38999844696E+01  0.61027601729E+02  0.00000000000E+00 0. -1.
<mgrwt>
<rscale>  0 0.13514861E+03</rscale>
<asrwt>0</asrwt>
<pdfrwt beam="2">  1        1 0.24966980E-01 0.13637420E+03</pdfrwt>
<pdfrwt beam="1">  1       -1 0.19287946E-01 0.13637420E+03</pdfrwt>
<totfact> 0.39405452E+03</totfact>
</mgrwt>
</event>
<event>
 7    1  0.8165933E-006  0.1336451E+03  0.7546771E-02  0.1234461E+00
          1   -1    0    0  501    0  0.00000000000E+00  0.00000000000E+00  0.28452671978E+03  0.28452671978E+03  0.00000000000E+00 0. -1.
         -1   -1    0    0    0  501 -0.00000000000E+00 -0.00000000000E+00 -0.58185739057E+02  0.58185739057E+02  0.00000000000E+00 0.  1.
         23    2    1    2    0    0  0.47186072214E+02 -0.30361187911E+01  0.19134997963E+03  0.23340059767E+03  0.12500112344E+03 0.  0.
          5    1    3    3  502    0 -0.41239609294E+02  0.12272169409E+02  0.71889766414E+02  0.83913884619E+02  0.47000000000E+01 0. -1.
         -5    1    3    3    0  502  0.88425681508E+02 -0.15308288200E+02  0.11946021322E+03  0.14948671306E+03  0.47000000000E+01 0. -1.
        -11    1    1    2    0    0  0.24312388834E+02 -0.32146313478E+01 -0.78219941199E+01  0.25741206218E+02  0.00000000000E+00 0.  1.
         11    1    1    2    0    0 -0.71498461048E+02  0.62507501390E+01  0.42812995213E+02  0.83570654950E+02  0.00000000000E+00 0. -1.
<mgrwt>
<rscale>  0 0.12539006E+03</rscale>
<asrwt>0</asrwt>
<pdfrwt beam="1">  1        1 0.43773341E-01 0.13364514E+03</pdfrwt>
<pdfrwt beam="2">  1       -1 0.89516524E-02 0.13364514E+03</pdfrwt>
<totfact> 0.64623621E+03</totfact>
</mgrwt>
</event>
<event>
 7    1  0.8165933E-006  0.1394955E+03  0.7546771E-02  0.1225022E+00
         -2   -1    0    0    0  501 -0.00000000000E+00  0.00000000000E+00  0.33813427182E+03  0.33813427182E+03  0.00000000000E+00 0. -1.
          2   -1    0    0  501    0  0.00000000000E+00 -0.00000000000E+00 -0.49529171806E+02  0.49529171806E+02  0.00000000000E+00 0.  1.
         23    2    1    2    0    0  0.20006654428E+02  0.58587148599E+02  0.11044529713E+03  0.17792460767E+03  0.12500512851E+03 0.  0.
          5    1    3    3  502    0 -0.47269701718E+02  0.15177295678E+02  0.12651339417E+02  0.51448239947E+02  0.47000000000E+01 0.  1.
         -5    1    3    3    0  502  0.67276356146E+02  0.43409852921E+02  0.97793957710E+02  0.12647636772E+03  0.47000000000E+01 0.  1.
        -11    1    1    2    0    0 -0.52585446414E+02 -0.12581206924E+02  0.80405846073E+02  0.96894870994E+02  0.00000000000E+00 0.  1.
         11    1    1    2    0    0  0.32578791986E+02 -0.46005941674E+02  0.97753956817E+02  0.11284396497E+03  0.00000000000E+00 0. -1.
<mgrwt>
<rscale>  0 0.13165424E+03</rscale>
<asrwt>0</asrwt>
<pdfrwt beam="2">  1        2 0.76198728E-02 0.13949553E+03</pdfrwt>
<pdfrwt beam="1">  1       -2 0.52020656E-01 0.13949553E+03</pdfrwt>
<totfact> 0.30796376E+03</totfact>
</mgrwt>
</event>
<event>
 7    1  0.8165933E-006  0.1503970E+03  0.7546771E-02  0.1209255E+00
         -1   -1    0    0    0  501 -0.00000000000E+00  0.00000000000E+00  0.12358168000E+03  0.12358168000E+03  0.00000000000E+00 0.  1.
          1   -1    0    0  501    0  0.00000000000E+00 -0.00000000000E+00 -0.16937414137E+03  0.16937414137E+03  0.00000000000E+00 0. -1.
         23    2    1    2    0    0  0.72395182265E+02  0.41864038038E+02 -0.72450571332E+02  0.16693812816E+03  0.12500237298E+03 0.  0.
          5    1    3    3  502    0  0.69475702384E+02 -0.46661416575E+01 -0.92580593547E+02  0.11593921856E+03  0.47000000000E+01 0. -1.
         -5    1    3    3    0  502  0.29194798810E+01  0.46530179696E+02  0.20130022215E+02  0.50998909593E+02  0.47000000000E+01 0. -1.
        -11    1    1    2    0    0 -0.69182814283E+02  0.93175389853E+01  0.26688967283E+02  0.74735395225E+02  0.00000000000E+00 0.  1.
         11    1    1    2    0    0 -0.32123679819E+01 -0.51181577023E+02 -0.30857319172E-01  0.51282297987E+02  0.00000000000E+00 0. -1.
<mgrwt>
<rscale>  0 0.14307108E+03</rscale>
<asrwt>0</asrwt>
<pdfrwt beam="2">  1        1 0.26057560E-01 0.15039699E+03</pdfrwt>
<pdfrwt beam="1">  1       -1 0.19012566E-01 0.15039699E+03</pdfrwt>
<totfact> 0.38415404E+03</totfact>
</mgrwt>
</event>
<event>
 7    1  0.8165933E-006  0.1588795E+03  0.7546771E-02  0.1196326E+00
          1   -1    0    0  501    0  0.00000000000E+00  0.00000000000E+00  0.25291059824E+03  0.25291059824E+03  0.00000000000E+00 0. -1.
         -1   -1    0    0    0  501 -0.00000000000E+00 -0.00000000000E+00 -0.87243158093E+02  0.87243158093E+02  0.00000000000E+00 0.  1.
         23    2    1    2    0    0  0.31652714108E+02 -0.92838220618E+02  0.85682936995E+02  0.18051107500E+03  0.12498741132E+03 0.  0.
          5    1    3    3  502    0  0.58618348624E+02 -0.29607324685E+02  0.89957788852E+02  0.11147734409E+03  0.47000000000E+01 0. -1.
         -5    1    3    3    0  502 -0.26965634516E+02 -0.63230895933E+02 -0.42748518573E+01  0.69033730913E+02  0.47000000000E+01 0. -1.
        -11    1    1    2    0    0 -0.57390120896E+02  0.24750383743E+02  0.20933271168E+02  0.65912133281E+02  0.00000000000E+00 0.  1.
         11    1    1    2    0    0  0.25737406788E+02  0.68087836875E+02  0.59051231984E+02  0.93730548048E+02  0.00000000000E+00 0. -1.
<mgrwt>
<rscale>  0 0.15342517E+03</rscale>
<asrwt>0</asrwt>
<pdfrwt beam="1">  1        1 0.38909322E-01 0.15887946E+03</pdfrwt>
<pdfrwt beam="2">  1       -1 0.13422024E-01 0.15887946E+03</pdfrwt>
<totfact> 0.40510072E+03</totfact>
</mgrwt>
</event>
<event>
 7    1  0.8165933E-006  0.1583748E+03  0.7546771E-02  0.1199029E+00
         -2   -1    0    0    0  501 -0.00000000000E+00  0.00000000000E+00  0.56806245981E+02  0.56806245981E+02  0.00000000000E+00 0.  1.
          2   -1    0    0  501    0  0.00000000000E+00 -0.00000000000E+00 -0.44097345023E+03  0.44097345023E+03  0.00000000000E+00 0. -1.
         23    2    1    2    0    0 -0.96971428897E+02 -0.75587929158E+01 -0.30664609116E+03  0.34512954557E+03  0.12498793792E+03 0.  0.
          5    1    3    3  502    0 -0.57683527048E+02 -0.65592360924E+02 -0.15428357819E+03  0.17735630691E+03  0.47000000000E+01 0.  1.
         -5    1    3    3    0  502 -0.39287901848E+02  0.58033568008E+02 -0.15236251298E+03  0.16777323865E+03  0.47000000000E+01 0.  1.
        -11    1    1    2    0    0  0.11232280720E+03  0.85699695217E+01 -0.54956298299E+02  0.12533974676E+03  0.00000000000E+00 0. -1.
         11    1    1    2    0    0 -0.15351378303E+02 -0.10111766059E+01 -0.22564814784E+02  0.27310403881E+02  0.00000000000E+00 0.  1.
<mgrwt>
<rscale>  0 0.15118090E+03</rscale>
<asrwt>0</asrwt>
<pdfrwt beam="2">  1        2 0.67842069E-01 0.15837480E+03</pdfrwt>
<pdfrwt beam="1">  1       -2 0.87394224E-02 0.15837480E+03</pdfrwt>
<totfact> 0.57091752E+03</totfact>
</mgrwt>
</event>
<event>
 7    1  0.8165933E-006  0.1670578E+03  0.7546771E-02  0.1188653E+00
         -2   -1    0    0    0  501 -0.00000000000E+00  0.00000000000E+00  0.78584622737E+03  0.78584622737E+03  0.00000000000E+00 0.  1.
          2   -1    0    0  501    0  0.00000000000E+00 -0.00000000000E+00 -0.30498766183E+02  0.30498766183E+02  0.00000000000E+00 0. -1.
         23    2    1    2    0    0 -0.10867750879E+03 -0.21771370900E+02  0.36502739081E+03  0.40143905835E+03  0.12499411195E+03 0.  0.
          5    1    3    3  502    0  0.35262962811E+01 -0.32300948822E+02  0.20001695046E+02  0.38444035493E+02  0.47000000000E+01 0.  1.
         -5    1    3    3    0  502 -0.11220380507E+03  0.10529577923E+02  0.34502569576E+03  0.36299502286E+03  0.47000000000E+01 0.  1.
        -11    1    1    2    0    0  0.93715060427E+02 -0.17856738436E+02  0.30628465056E+03  0.32079847697E+03  0.00000000000E+00 0.  1.
         11    1    1    2    0    0  0.14962448364E+02  0.39628109336E+02  0.84035419824E+02  0.94107458236E+02  0.00000000000E+00 0. -1.
<mgrwt>
<rscale>  0 0.16003890E+03</rscale>
<asrwt>0</asrwt>
<pdfrwt beam="2">  1        2 0.46921185E-02 0.16705784E+03</pdfrwt>
<pdfrwt beam="1">  1       -2 0.12089940E+00 0.16705784E+03</pdfrwt>
<totfact> 0.91496960E+02</totfact>
</mgrwt>
</event>
<event>
 7    1  0.8165933E-006  0.1262984E+03  0.7546771E-02  0.1248309E+00
         -1   -1    0    0    0  501 -0.00000000000E+00  0.00000000000E+00  0.46670202430E+03  0.46670202430E+03  0.00000000000E+00 0.  1.
          1   -1    0    0  501    0  0.00000000000E+00 -0.00000000000E+00 -0.26300255071E+02  0.26300255071E+02  0.00000000000E+00 0. -1.
         23    2    1    2    0    0  0.95970862270E+01 -0.15257754676E+02  0.21600023384E+03  0.25021469833E+03  0.12500556427E+03 0.  0.
          5    1    3    3  502    0 -0.23981011484E+02 -0.21156544596E+02  0.21325494494E+03  0.21569063455E+03  0.47000000000E+01 0.  1.
         -5    1    3    3    0  502  0.33578097711E+02  0.58987899200E+01  0.27452888975E+01  0.34524063775E+02  0.47000000000E+01 0.  1.
        -11    1    1    2    0    0  0.54434473965E+01  0.52066116308E+02  0.11404661356E+03  0.12548761553E+03  0.00000000000E+00 0. -1.
         11    1    1    2    0    0 -0.15040533623E+02 -0.36808361632E+02  0.11035492183E+03  0.11729996552E+03  0.00000000000E+00 0.  1.
<mgrwt>
<rscale>  0 0.11689505E+03</rscale>
<asrwt>0</asrwt>
<pdfrwt beam="2">  1        1 0.40461934E-02 0.12629843E+03</pdfrwt>
<pdfrwt beam="1">  1       -1 0.71800306E-01 0.12629843E+03</pdfrwt>
<totfact> 0.43403069E+03</totfact>
</mgrwt>
</event>
<event>
 6    1  0.8165933E-006  0.1544724E+03  0.7546771E-02  0.1218621E+00
          1   -1    0    0  501    0  0.00000000000E+00  0.00000000000E+00  0.21570510399E+04  0.21570510399E+04  0.00000000000E+00 0. -1.
         -1   -1    0    0    0  501 -0.00000000000E+00 -0.00000000000E+00 -0.20735545511E+03  0.20735545511E+03  0.00000000000E+00 0.  1.
          5    1    1    2  502    0 -0.37866345774E+02  0.20292835018E+02  0.20795542221E+04  0.20800032481E+04  0.47000000000E+01 0. -1.
         -5    1    1    2    0  502  0.14931344037E+02 -0.20884188023E+02  0.64104899524E+02  0.69214322846E+02  0.47000000000E+01 0.  1.
        -11    1    1    2    0    0  0.44393018407E+02  0.29209990669E+02 -0.14589568408E+03  0.15527238735E+03  0.00000000000E+00 0.  1.
         11    1    1    2    0    0 -0.21458016670E+02 -0.28618637664E+02 -0.48067852789E+02  0.59916536723E+02  0.00000000000E+00 0. -1.
<mgrwt>
<rscale>  0 0.13613847E+03</rscale>
<asrwt>0</asrwt>
<pdfrwt beam="1">  1        1 0.33185399E+00 0.15447245E+03</pdfrwt>
<pdfrwt beam="2">  1       -1 0.31900841E-01 0.15447245E+03</pdfrwt>
<totfact> 0.26396903E+01</totfact>
</mgrwt>
</event>
<event>
 7    1  0.8165933E-006  0.1605515E+03  0.7546771E-02  0.1195879E+00
         -1   -1    0    0    0  501 -0.00000000000E+00  0.00000000000E+00  0.31920873123E+03  0.31920873123E+03  0.00000000000E+00 0.  1.
          1   -1    0    0  501    0  0.00000000000E+00 -0.00000000000E+00 -0.77041816407E+02  0.77041816407E+02  0.00000000000E+00 0. -1.
         23    2    1    2    0    0  0.99747591548E+02  0.14234313336E+02  0.64578923862E+02  0.17305270131E+03  0.12499840930E+03 0.  0.
          5    1    3    3  502    0  0.10128072079E+03  0.52048382364E+02  0.71149978346E+02  0.13435485823E+03  0.47000000000E+01 0.  1.
         -5    1    3    3    0  502 -0.15331292466E+01 -0.37814069029E+02 -0.65710544839E+01  0.38697843077E+02  0.47000000000E+01 0.  1.
        -11    1    1    2    0    0 -0.11122754896E+03 -0.35734846077E+01  0.17489964762E+03  0.20730225319E+03  0.00000000000E+00 0.  1.
         11    1    1    2    0    0  0.11479957409E+02 -0.10660828728E+02  0.26883433338E+01  0.15895593136E+02  0.00000000000E+00 0. -1.
<mgrwt>
<rscale>  0 0.15380033E+03</rscale>
<asrwt>0</asrwt>
<pdfrwt beam="2">  1        1 0.11852587E-01 0.16055155E+03</pdfrwt>
<pdfrwt beam="1">  1       -1 0.49109035E-01 0.16055155E+03</pdfrwt>
<totfact> 0.21206087E+03</totfact>
</mgrwt>
</event>
<event>
 7    1  0.8165933E-006  0.1270989E+03  0.7546771E-02  0.1247054E+00
          4   -1    0    0  501    0  0.00000000000E+00  0.00000000000E+00  0.12097463409E+03  0.12097463409E+03  0.00000000000E+00 0. -1.
         -4   -1    0    0    0  501 -0.00000000000E+00 -0.00000000000E+00 -0.10216029064E+03  0.10216029064E+03  0.00000000000E+00 0.  1.
         23    2    1    2    0    0  0.13562131441E+02 -0.18579486479E+02  0.25519926116E+02  0.12963558846E+03  0.12499996176E+03 0.  0.
          5    1    3    3  502    0  0.62033738735E+02 -0.31746701997E+02 -0.60806523543E+01  0.70107789598E+02  0.47000000000E+01 0. -1.
         -5    1    3    3    0  502 -0.48471607294E+02  0.13167215518E+02  0.31600578470E+02  0.59527798866E+02  0.47000000000E+01 0. -1.
        -11    1    1    2    0    0 -0.16455328406E+02  0.52196190307E+02 -0.18477684784E+02  0.57763699245E+02  0.00000000000E+00 0.  1.
         11    1    1    2    0    0  0.28931969651E+01 -0.33616703827E+02  0.11772102114E+02  0.35735637018E+02  0.00000000000E+00 0. -1.
<mgrwt>
<rscale>  0 0.11763280E+03</rscale>
<asrwt>0</asrwt>
<pdfrwt beam="1">  1        4 0.18611482E-01 0.12709886E+03</pdfrwt>
<pdfrwt beam="2">  1       -4 0.15716968E-01 0.12709886E+03</pdfrwt>
<totfact> 0.14471372E+03</totfact>
</mgrwt>
</event>
<event>
 7    1  0.8165933E-006  0.1409226E+03  0.7546771E-02  0.1224265E+00
         -2   -1    0    0    0  501 -0.00000000000E+00  0.00000000000E+00  0.15862870603E+03  0.15862870603E+03  0.00000000000E+00 0.  1.
          2   -1    0    0  501    0  0.00000000000E+00 -0.00000000000E+00 -0.99975534758E+02  0.99975534758E+02  0.00000000000E+00 0. -1.
         23    2    1    2    0    0 -0.64276152028E+02  0.10197290950E+02  0.17334502721E+02  0.14198476997E+03  0.12499512573E+03 0.  0.
          5    1    3    3  502    0 -0.99155551822E+02  0.16678804234E+02  0.28291224786E+02  0.10455854517E+03  0.47000000000E+01 0.  1.
         -5    1    3    3    0  502  0.34879399795E+02 -0.64815132848E+01 -0.10956722064E+02  0.37426224801E+02  0.47000000000E+01 0.  1.
        -11    1    1    2    0    0  0.45468652434E+02  0.24388870537E+02 -0.93673207831E+01  0.52440080653E+02  0.00000000000E+00 0. -1.
         11    1    1    2    0    0  0.18807499593E+02 -0.34586161487E+02  0.50685989333E+02  0.64179390165E+02  0.00000000000E+00 0.  1.
<mgrwt>
<rscale>  0 0.13217411E+03</rscale>
<asrwt>0</asrwt>
<pdfrwt beam="2">  1        2 0.15380851E-01 0.14092264E+03</pdfrwt>
<pdfrwt beam="1">  1       -2 0.24404416E-01 0.14092264E+03</pdfrwt>
<totfact> 0.53527659E+03</totfact>
</mgrwt>
</event>
<event>
 7    1  0.8165933E-006  0.1268108E+03  0.7546771E-02  0.1248008E+00
          1   -1    0    0  501    0  0.00000000000E+00  0.00000000000E+00  0.29214506811E+03  0.29214506811E+03  0.00000000000E+00 0. -1.
         -1   -1    0    0    0  501 -0.00000000000E+00 -0.00000000000E+00 -0.49613138507E+02  0.49613138507E+02  0.00000000000E+00 0.  1.
         23    2    1    2    0    0  0.61244076200E+01  0.20456341624E+02  0.20754980732E+03  0.24322399839E+03  0.12500008236E+03 0.  0.
          5    1    3    3  502    0  0.35737652043E+01 -0.40040161425E+02  0.16287936239E+03  0.16783254457E+03  0.47000000000E+01 0.  1.
         -5    1    3    3    0  502  0.25506424158E+01  0.60496503049E+02  0.44670444933E+02  0.75391453816E+02  0.47000000000E+01 0.  1.
        -11    1    1    2    0    0 -0.37896050779E+02 -0.85612010896E+01 -0.11929134083E+02  0.40641223760E+02  0.00000000000E+00 0.  1.
         11    1    1    2    0    0  0.31771643159E+02 -0.11895140535E+02  0.46911256365E+02  0.57892984472E+02  0.00000000000E+00 0. -1.
<mgrwt>
<rscale>  0 0.11707127E+03</rscale>
<asrwt>0</asrwt>
<pdfrwt beam="1">  1        1 0.44945394E-01 0.12681085E+03</pdfrwt>
<pdfrwt beam="2">  1       -1 0.76327907E-02 0.12681085E+03</pdfrwt>
<totfact> 0.79272522E+03</totfact>
</mgrwt>
</event>
<event>
 7    1  0.8165933E-006  0.1638112E+03  0.7546771E-02  0.1191730E+00
          1   -1    0    0  501    0  0.00000000000E+00  0.00000000000E+00  0.46017873258E+03  0.46017873258E+03  0.00000000000E+00 0. -1.
         -1   -1    0    0    0  501 -0.00000000000E+00 -0.00000000000E+00 -0.58046357018E+02  0.58046357018E+02  0.00000000000E+00 0.  1.
         23    2    1    2    0    0  0.65439290911E+02 -0.83215807139E+02  0.31144242956E+03  0.35189557970E+03  0.12500776268E+03 0.  0.
          5    1    3    3  502    0  0.57653781014E+02  0.16121253379E+02  0.15643786999E+03  0.16756715204E+03  0.47000000000E+01 0.  1.
         -5    1    3    3    0  502  0.77855098973E+01 -0.99337060518E+02  0.15500455957E+03  0.18432842766E+03  0.47000000000E+01 0.  1.
        -11    1    1    2    0    0 -0.70631813762E+02  0.47622950860E+02  0.20743049194E+02  0.87675952540E+02  0.00000000000E+00 0.  1.
         11    1    1    2    0    0  0.51925228512E+01  0.35592856279E+02  0.69946896805E+02  0.78653557353E+02  0.00000000000E+00 0. -1.
<mgrwt>
<rscale>  0 0.15734288E+03</rscale>
<asrwt>0</asrwt>
<pdfrwt beam="1">  1        1 0.70796726E-01 0.16381121E+03</pdfrwt>
<pdfrwt beam="2">  1       -1 0.89302091E-02 0.16381121E+03</pdfrwt>
<totfact> 0.35822861E+03</totfact>
</mgrwt>
</event>
<event>
 7    1  0.8165933E-006  0.1386316E+03  0.7546771E-02  0.1224670E+00
          1   -1    0    0  501    0  0.00000000000E+00  0.00000000000E+00  0.52633827114E+03  0.52633827114E+03  0.00000000000E+00 0. -1.
         -1   -1    0    0    0  501 -0.00000000000E+00 -0.00000000000E+00 -0.51167463570E+02  0.51167463570E+02  0.00000000000E+00 0.  1.
         23    2    1    2    0    0 -0.19415256332E+02  0.60068043814E+02  0.43575257245E+03  0.45727346490E+03  0.12342445153E+03 0.  0.
          5    1    3    3  502    0 -0.68477434299E+02  0.12670161788E+02  0.20161101149E+03  0.21335131113E+03  0.47000000000E+01 0. -1.
         -5    1    3    3    0  502  0.49062177968E+02  0.47397882025E+02  0.23414156097E+03  0.24392215377E+03  0.47000000000E+01 0.  1.
        -11    1    1    2    0    0 -0.36466018360E+02 -0.18878440723E+02  0.14096690850E+01  0.41087141371E+02  0.00000000000E+00 0. -1.
         11    1    1    2    0    0  0.55881274692E+02 -0.41189603091E+02  0.38008566029E+02  0.79145128438E+02  0.00000000000E+00 0.  1.
<mgrwt>
<rscale>  0 0.13189514E+03</rscale>
<asrwt>0</asrwt>
<pdfrwt beam="1">  1        1 0.80975115E-01 0.13863159E+03</pdfrwt>
<pdfrwt beam="2">  1       -1 0.78719178E-02 0.13863159E+03</pdfrwt>
<totfact> 0.36143700E+03</totfact>
</mgrwt>
</event>
<event>
 7    1  0.8165933E-006  0.2089000E+03  0.7546771E-02  0.1146353E+00
          2   -1    0    0  501    0  0.00000000000E+00  0.00000000000E+00  0.13574021886E+04  0.13574021886E+04  0.00000000000E+00 0. -1.
         -2   -1    0    0    0  501 -0.00000000000E+00 -0.00000000000E+00 -0.29684250461E+02  0.29684250461E+02  0.00000000000E+00 0.  1.
         23    2    1    2    0    0  0.11311796532E+02 -0.16700258195E+03  0.76922231525E+03  0.79708355961E+03  0.12498564555E+03 0.  0.
          5    1    3    3  502    0  0.61472129850E+02 -0.13368967888E+03  0.50338668280E+03  0.52447306452E+03  0.47000000000E+01 0. -1.
         -5    1    3    3    0  502 -0.50160333318E+02 -0.33312903071E+02  0.26583563246E+03  0.27261049509E+03  0.47000000000E+01 0. -1.
        -11    1    1    2    0    0 -0.71060717001E+01  0.15515713592E+03  0.55586989222E+03  0.57716164994E+03  0.00000000000E+00 0. -1.
         11    1    1    2    0    0 -0.42057248322E+01  0.11845446032E+02  0.26257306225E+01  0.12841229473E+02  0.00000000000E+00 0.  1.
<mgrwt>
<rscale>  0 0.20406642E+03</rscale>
<asrwt>0</asrwt>
<pdfrwt beam="1">  1        2 0.20883106E+00 0.20890005E+03</pdfrwt>
<pdfrwt beam="2">  1       -2 0.45668088E-02 0.20890005E+03</pdfrwt>
<totfact> 0.36528702E+03</totfact>
</mgrwt>
</event>
<event>
 7    1  0.8165933E-006  0.1767843E+03  0.7546771E-02  0.1177064E+00
         -1   -1    0    0    0  501 -0.00000000000E+00  0.00000000000E+00  0.31423365877E+03  0.31423365877E+03  0.00000000000E+00 0.  1.
          1   -1    0    0  501    0  0.00000000000E+00 -0.00000000000E+00 -0.14073285241E+03  0.14073285241E+03  0.00000000000E+00 0. -1.
         23    2    1    2    0    0 -0.10992903543E+03 -0.59477851045E+02 -0.49911326223E+02  0.18369490656E+03  0.12502268040E+03 0.  0.
          5    1    3    3  502    0 -0.88013128198E+02 -0.97485712207E+02 -0.46624604247E+02  0.13944790619E+03  0.47000000000E+01 0.  1.
         -5    1    3    3    0  502 -0.21915907236E+02  0.38007861162E+02 -0.32867219763E+01  0.44247000367E+02  0.47000000000E+01 0.  1.
        -11    1    1    2    0    0  0.75209711956E+02  0.11140723788E+02  0.58446530335E+02  0.95898975006E+02  0.00000000000E+00 0. -1.
         11    1    1    2    0    0  0.34719323478E+02  0.48337127257E+02  0.16496560224E+03  0.17537262961E+03  0.00000000000E+00 0.  1.
<mgrwt>
<rscale>  0 0.17075352E+03</rscale>
<asrwt>0</asrwt>
<pdfrwt beam="2">  1        1 0.21651208E-01 0.17678427E+03</pdfrwt>
<pdfrwt beam="1">  1       -1 0.48343639E-01 0.17678427E+03</pdfrwt>
<totfact> 0.10016190E+03</totfact>
</mgrwt>
</event>
<event>
 7    1  0.8165933E-006  0.1336804E+03  0.7546771E-02  0.1233379E+00
          2   -1    0    0  501    0  0.00000000000E+00  0.00000000000E+00  0.65005798998E+03  0.65005798998E+03  0.00000000000E+00 0. -1.
         -2   -1    0    0    0  501 -0.00000000000E+00 -0.00000000000E+00 -0.22236090730E+02  0.22236090730E+02  0.00000000000E+00 0.  1.
         23    2    1    2    0    0  0.32857448602E+01  0.47272349308E+02  0.38020896367E+03  0.40302520231E+03  0.12499994606E+03 0.  0.
          5    1    3    3  502    0 -0.11093793315E+02  0.22390125342E+02  0.40568440830E+01  0.25747581379E+02  0.47000000000E+01 0. -1.
         -5    1    3    3    0  502  0.14379538175E+02  0.24882223966E+02  0.37615211959E+03  0.37727762094E+03  0.47000000000E+01 0. -1.
        -11    1    1    2    0    0  0.40194330879E+02  0.13738354270E+01  0.10503544017E+03  0.11247184248E+03  0.00000000000E+00 0. -1.
         11    1    1    2    0    0 -0.43480075739E+02 -0.48646184735E+02  0.14257749541E+03  0.15679703592E+03  0.00000000000E+00 0.  1.
<mgrwt>
<rscale>  0 0.12608747E+03</rscale>
<asrwt>0</asrwt>
<pdfrwt beam="1">  1        2 0.10000891E+00 0.13368043E+03</pdfrwt>
<pdfrwt beam="2">  1       -2 0.34209375E-02 0.13368043E+03</pdfrwt>
<totfact> 0.15137260E+04</totfact>
</mgrwt>
</event>
<event>
 7    1  0.8165933E-006  0.1387891E+03  0.7546771E-02  0.1226423E+00
         -1   -1    0    0    0  501 -0.00000000000E+00  0.00000000000E+00  0.49944934300E+02  0.49944934300E+02  0.00000000000E+00 0.  1.
          1   -1    0    0  501    0  0.00000000000E+00 -0.00000000000E+00 -0.41226686477E+03  0.41226686477E+03  0.00000000000E+00 0. -1.
         23    2    1    2    0    0 -0.57594220610E+02 -0.17897471989E+02 -0.31309284920E+03  0.34247561309E+03  0.12499999838E+03 0.  0.
          5    1    3    3  502    0 -0.10306121042E+02  0.45117857521E+02 -0.19474996209E+03  0.20022855673E+03  0.47000000000E+01 0. -1.
         -5    1    3    3    0  502 -0.47288099569E+02 -0.63015329511E+02 -0.11834288711E+03  0.14224705636E+03  0.47000000000E+01 0. -1.
        -11    1    1    2    0    0  0.79240485868E+01 -0.94433026978E+01 -0.60657958600E+02  0.61897935777E+02  0.00000000000E+00 0. -1.
         11    1    1    2    0    0  0.49670172024E+02  0.27340774687E+02  0.11428877326E+02  0.57838250201E+02  0.00000000000E+00 0.  1.
<mgrwt>
<rscale>  0 0.13069841E+03</rscale>
<asrwt>0</asrwt>
<pdfrwt beam="2">  1        1 0.63425673E-01 0.13878910E+03</pdfrwt>
<pdfrwt beam="1">  1       -1 0.76838358E-02 0.13878910E+03</pdfrwt>
<totfact> 0.51370800E+03</totfact>
</mgrwt>
</event>
<event>
 7    1  0.8165933E-006  0.1319407E+03  0.7546771E-02  0.1238258E+00
         -1   -1    0    0    0  501 -0.00000000000E+00  0.00000000000E+00  0.19082797667E+02  0.19082797667E+02  0.00000000000E+00 0. -1.
          1   -1    0    0  501    0  0.00000000000E+00 -0.00000000000E+00 -0.93057950559E+03  0.93057950559E+03  0.00000000000E+00 0.  1.
         23    2    1    2    0    0 -0.28777226177E+02  0.30983945842E+02 -0.73723993012E+03  0.74895331033E+03  0.12498084991E+03 0.  0.
          5    1    3    3  502    0  0.32533066082E+02  0.14396760880E+01 -0.52476125938E+03  0.52579172911E+03  0.47000000000E+01 0. -1.
         -5    1    3    3    0  502 -0.61310292259E+02  0.29544269754E+02 -0.21247867074E+03  0.22316158122E+03  0.47000000000E+01 0. -1.
        -11    1    1    2    0    0 -0.71675820465E+01 -0.48574739168E+02 -0.13884953768E+03  0.14727550248E+03  0.00000000000E+00 0. -1.
         11    1    1    2    0    0  0.35944808223E+02  0.17590793326E+02 -0.35407240124E+02  0.53433490446E+02  0.00000000000E+00 0.  1.
<mgrwt>
<rscale>  0 0.12298178E+03</rscale>
<asrwt>0</asrwt>
<pdfrwt beam="2">  1        1 0.14316608E+00 0.13194069E+03</pdfrwt>
<pdfrwt beam="1">  1       -1 0.29358150E-02 0.13194069E+03</pdfrwt>
<totfact> 0.68146020E+03</totfact>
</mgrwt>
</event>
<event>
 7    1  0.8165933E-006  0.1231988E+03  0.7546771E-02  0.1253376E+00
         -2   -1    0    0    0  501 -0.00000000000E+00  0.00000000000E+00  0.12716075454E+03  0.12716075454E+03  0.00000000000E+00 0.  1.
          2   -1    0    0  501    0  0.00000000000E+00 -0.00000000000E+00 -0.14141941198E+03  0.14141941198E+03  0.00000000000E+00 0. -1.
         23    2    1    2    0    0 -0.51160810814E+01 -0.18461608164E+02 -0.88520189597E+02  0.15170289761E+03  0.12170020508E+03 0.  0.
          5    1    3    3  502    0 -0.42523290070E+02  0.35161772765E+02 -0.55119694341E+02  0.78133546998E+02  0.47000000000E+01 0. -1.
         -5    1    3    3    0  502  0.37407208988E+02 -0.53623380928E+02 -0.33400495257E+02  0.73569350615E+02  0.47000000000E+01 0.  1.
        -11    1    1    2    0    0 -0.31142463877E+02  0.32867767527E+02  0.18706124777E+02  0.48990430725E+02  0.00000000000E+00 0.  1.
         11    1    1    2    0    0  0.36258544958E+02 -0.14406159363E+02  0.55555407380E+02  0.67886838188E+02  0.00000000000E+00 0. -1.
<mgrwt>
<rscale>  0 0.11397766E+03</rscale>
<asrwt>0</asrwt>
<pdfrwt beam="2">  1        2 0.21756833E-01 0.12319880E+03</pdfrwt>
<pdfrwt beam="1">  1       -2 0.19563193E-01 0.12319880E+03</pdfrwt>
<totfact> 0.52123689E+03</totfact>
</mgrwt>
</event>
<event>
 7    1  0.8165933E-006  0.1281172E+03  0.7546771E-02  0.1237505E+00
          1   -1    0    0  501    0  0.00000000000E+00  0.00000000000E+00  0.73536061387E+02  0.73536061387E+02  0.00000000000E+00 0. -1.
         -1   -1    0    0    0  501 -0.00000000000E+00 -0.00000000000E+00 -0.20356527147E+03  0.20356527147E+03  0.00000000000E+00 0.  1.
         23    2    1    2    0    0  0.22340550169E+02 -0.17081802717E+02 -0.38867913093E+02  0.13388322912E+03  0.12499246459E+03 0.  0.
          5    1    3    3  502    0  0.98225898373E+01 -0.64435175879E+02  0.81140589527E+01  0.65850612104E+02  0.47000000000E+01 0. -1.
         -5    1    3    3    0  502  0.12517960332E+02  0.47353373163E+02 -0.46981972046E+02  0.68032617016E+02  0.47000000000E+01 0. -1.
        -11    1    1    2    0    0 -0.18574071229E+02  0.53279478042E+02 -0.14348506610E+02  0.58220087121E+02  0.00000000000E+00 0. -1.
         11    1    1    2    0    0 -0.37664789402E+01 -0.36197675325E+02 -0.76812790375E+02  0.84998016611E+02  0.00000000000E+00 0.  1.
<mgrwt>
<rscale>  0 0.12345397E+03</rscale>
<asrwt>0</asrwt>
<pdfrwt beam="1">  1        1 0.11313240E-01 0.12811715E+03</pdfrwt>
<pdfrwt beam="2">  1       -1 0.31317734E-01 0.12811715E+03</pdfrwt>
<totfact> 0.48994253E+03</totfact>
</mgrwt>
</event>
<event>
 7    1  0.8165933E-006  0.1445414E+03  0.7546771E-02  0.1213506E+00
         -2   -1    0    0    0  501 -0.00000000000E+00  0.00000000000E+00  0.51534006532E+03  0.51534006532E+03  0.00000000000E+00 0.  1.
          2   -1    0    0  501    0  0.00000000000E+00 -0.00000000000E+00 -0.39771041582E+02  0.39771041582E+02  0.00000000000E+00 0. -1.
         23    2    1    2    0    0 -0.65514510325E+02  0.31219216558E+02  0.16317264140E+03  0.21798517013E+03  0.12500173179E+03 0.  0.
          5    1    3    3  502    0 -0.54059492154E+02  0.35457015614E+02  0.11602211003E+02  0.65850815851E+02  0.47000000000E+01 0.  1.
         -5    1    3    3    0  502 -0.11455018171E+02 -0.42377990553E+01  0.15157043039E+03  0.15213435428E+03  0.47000000000E+01 0.  1.
        -11    1    1    2    0    0  0.49021590305E+02  0.22421416281E+02  0.70179270540E+02  0.88492746808E+02  0.00000000000E+00 0.  1.
         11    1    1    2    0    0  0.16492920020E+02 -0.53640632840E+02  0.24221711180E+03  0.24863318996E+03  0.00000000000E+00 0. -1.
<mgrwt>
<rscale>  0 0.13986870E+03</rscale>
<asrwt>0</asrwt>
<pdfrwt beam="2">  1        2 0.61186221E-02 0.14454142E+03</pdfrwt>
<pdfrwt beam="1">  1       -2 0.79283082E-01 0.14454142E+03</pdfrwt>
<totfact> 0.16939806E+03</totfact>
</mgrwt>
</event>
<event>
 7    1  0.8165933E-006  0.1233244E+03  0.7546771E-02  0.1247079E+00
          1   -1    0    0  501    0  0.00000000000E+00  0.00000000000E+00  0.21430135518E+03  0.21430135518E+03  0.00000000000E+00 0. -1.
         -1   -1    0    0    0  501 -0.00000000000E+00 -0.00000000000E+00 -0.21286290688E+03  0.21286290688E+03  0.00000000000E+00 0.  1.
         23    2    1    2    0    0 -0.78863778896E+01  0.44587937259E+02  0.18195261520E+03  0.21980825145E+03  0.11471108981E+03 0.  0.
          5    1    3    3  502    0 -0.46202552393E+02  0.44169808205E+02  0.16616899482E+03  0.17810073735E+03  0.47000000000E+01 0. -1.
         -5    1    3    3    0  502  0.38316174503E+02  0.41812905361E+00  0.15783620374E+02  0.41707514102E+02  0.47000000000E+01 0.  1.
        -11    1    1    2    0    0 -0.32425337170E+02 -0.49441343066E+02 -0.84715887230E+02  0.10330842388E+03  0.00000000000E+00 0.  1.
         11    1    1    2    0    0  0.40311715060E+02  0.48534058076E+01 -0.95798279661E+02  0.10404758673E+03  0.00000000000E+00 0. -1.
<mgrwt>
<rscale>  0 0.11761810E+03</rscale>
<asrwt>0</asrwt>
<pdfrwt beam="1">  1        1 0.32969439E-01 0.12332442E+03</pdfrwt>
<pdfrwt beam="2">  1       -1 0.32748140E-01 0.12332442E+03</pdfrwt>
<totfact> 0.11628933E+03</totfact>
</mgrwt>
</event>
<event>
 7    1  0.8165933E-006  0.1419330E+03  0.7546771E-02  0.1221521E+00
         -2   -1    0    0    0  501 -0.00000000000E+00  0.00000000000E+00  0.93613667483E+02  0.93613667483E+02  0.00000000000E+00 0.  1.
          2   -1    0    0  501    0  0.00000000000E+00 -0.00000000000E+00 -0.17382740882E+03  0.17382740882E+03  0.00000000000E+00 0. -1.
         23    2    1    2    0    0 -0.41695272915E+02  0.52728413935E+02 -0.49262653413E+02  0.15023906278E+03  0.12500474209E+03 0.  0.
          5    1    3    3  502    0  0.10442255358E+00  0.86741712629E+02 -0.21751989132E+02  0.89550961162E+02  0.47000000000E+01 0. -1.
         -5    1    3    3    0  502 -0.41799695468E+02 -0.34013298694E+02 -0.27510664281E+02  0.60688101622E+02  0.47000000000E+01 0. -1.
        -11    1    1    2    0    0  0.16385406918E+01  0.16094328877E+02 -0.33851108992E+02  0.37518126521E+02  0.00000000000E+00 0. -1.
         11    1    1    2    0    0  0.40056732223E+02 -0.68822742813E+02  0.29000210692E+01  0.79683886996E+02  0.00000000000E+00 0.  1.
<mgrwt>
<rscale>  0 0.13408240E+03</rscale>
<asrwt>0</asrwt>
<pdfrwt beam="2">  1        2 0.26742678E-01 0.14193297E+03</pdfrwt>
<pdfrwt beam="1">  1       -2 0.14402103E-01 0.14193297E+03</pdfrwt>
<totfact> 0.69523100E+03</totfact>
</mgrwt>
</event>
<event>
 7    1  0.8165933E-006  0.1665017E+03  0.7546771E-02  0.1190799E+00
         -2   -1    0    0    0  501 -0.00000000000E+00  0.00000000000E+00  0.18914176343E+03  0.18914176343E+03  0.00000000000E+00 0.  1.
          2   -1    0    0  501    0  0.00000000000E+00 -0.00000000000E+00 -0.13320594410E+03  0.13320594410E+03  0.00000000000E+00 0. -1.
         23    2    1    2    0    0 -0.50371391123E+01  0.52165163997E+02 -0.24017947720E+02  0.13764413331E+03  0.12498987365E+03 0.  0.
          5    1    3    3  502    0 -0.16581806138E+02  0.57250382630E+02 -0.68644417280E+02  0.91031360694E+02  0.47000000000E+01 0. -1.
         -5    1    3    3    0  502  0.11544667026E+02 -0.50852186332E+01  0.44626469560E+02  0.46612772613E+02  0.47000000000E+01 0. -1.
        -11    1    1    2    0    0  0.47644798273E+02 -0.52779643017E+02 -0.21814123909E+02  0.74374548882E+02  0.00000000000E+00 0. -1.
         11    1    1    2    0    0 -0.42607659161E+02  0.61447901998E+00  0.10176789095E+03  0.11032902534E+03  0.00000000000E+00 0.  1.
<mgrwt>
<rscale>  0 0.15815203E+03</rscale>
<asrwt>0</asrwt>
<pdfrwt beam="2">  1        2 0.20493222E-01 0.16650167E+03</pdfrwt>
<pdfrwt beam="1">  1       -2 0.29098733E-01 0.16650167E+03</pdfrwt>
<totfact> 0.28452544E+03</totfact>
</mgrwt>
</event>
<event>
 7    1  0.8165933E-006  0.1429898E+03  0.7546771E-02  0.1222448E+00
          2   -1    0    0  501    0  0.00000000000E+00  0.00000000000E+00  0.16719292184E+03  0.16719292184E+03  0.00000000000E+00 0. -1.
         -2   -1    0    0    0  501 -0.00000000000E+00 -0.00000000000E+00 -0.10153971851E+03  0.10153971851E+03  0.00000000000E+00 0.  1.
         23    2    1    2    0    0 -0.17380243291E+01 -0.69407897290E+02  0.72048459490E+02  0.16011580390E+03  0.12500245281E+03 0.  0.
          5    1    3    3  502    0  0.20899715953E+02 -0.99676192907E+02  0.37308787227E+02  0.10856416151E+03  0.47000000000E+01 0.  1.
         -5    1    3    3    0  502 -0.22637740283E+02  0.30268295617E+02  0.34739672263E+02  0.51551642395E+02  0.47000000000E+01 0.  1.
        -11    1    1    2    0    0 -0.56952766986E+01  0.84713177847E+02  0.93713652456E+01  0.85420027887E+02  0.00000000000E+00 0.  1.
         11    1    1    2    0    0  0.74333010276E+01 -0.15305280557E+02 -0.15766621398E+02  0.23196808561E+02  0.00000000000E+00 0. -1.
<mgrwt>
<rscale>  0 0.13343342E+03</rscale>
<asrwt>0</asrwt>
<pdfrwt beam="1">  1        2 0.25721988E-01 0.14298983E+03</pdfrwt>
<pdfrwt beam="2">  1       -2 0.15621495E-01 0.14298983E+03</pdfrwt>
<totfact> 0.63560703E+03</totfact>
</mgrwt>
</event>
<event>
 7    1  0.8165933E-006  0.1257762E+03  0.7546771E-02  0.1249727E+00
          2   -1    0    0  501    0  0.00000000000E+00  0.00000000000E+00  0.14977651474E+04  0.14977651474E+04  0.00000000000E+00 0. -1.
         -2   -1    0    0    0  501 -0.00000000000E+00 -0.00000000000E+00 -0.97571373834E+01  0.97571373834E+01  0.00000000000E+00 0.  1.
         23    2    1    2    0    0 -0.10826255988E+02  0.86781942916E+01  0.11684755394E+04  0.11752253964E+04  0.12500850846E+03 0.  0.
          5    1    3    3  502    0  0.47818497110E+02 -0.14285423242E+02  0.78367661974E+03  0.78527817767E+03  0.47000000000E+01 0. -1.
         -5    1    3    3    0  502 -0.58644753098E+02  0.22963617533E+02  0.38479891970E+03  0.38994721874E+03  0.47000000000E+01 0. -1.
        -11    1    1    2    0    0 -0.52825883124E+00  0.37747374218E+02  0.20058518185E+03  0.20410673309E+03  0.00000000000E+00 0.  1.
         11    1    1    2    0    0  0.11354514819E+02 -0.46425568510E+02  0.11894728872E+03  0.12819015529E+03  0.00000000000E+00 0. -1.
<mgrwt>
<rscale>  0 0.11606884E+03</rscale>
<asrwt>0</asrwt>
<pdfrwt beam="1">  1        2 0.23042522E+00 0.12577617E+03</pdfrwt>
<pdfrwt beam="2">  1       -2 0.15010992E-02 0.12577617E+03</pdfrwt>
<totfact> 0.15546459E+04</totfact>
</mgrwt>
</event>
<event>
 7    1  0.8165933E-006  0.2267016E+03  0.7546771E-02  0.1132026E+00
         -2   -1    0    0    0  501 -0.00000000000E+00  0.00000000000E+00  0.23993235276E+02  0.23993235276E+02  0.00000000000E+00 0.  1.
          2   -1    0    0  501    0  0.00000000000E+00 -0.00000000000E+00 -0.24292275924E+04  0.24292275924E+04  0.00000000000E+00 0. -1.
         23    2    1    2    0    0 -0.22952719259E+02  0.18773025192E+03 -0.17602745749E+04  0.17748127251E+04  0.12499662099E+03 0.  0.
          5    1    3    3  502    0  0.47694573819E+02  0.11505870460E+03 -0.90571455232E+03  0.91425063203E+03  0.47000000000E+01 0.  1.
         -5    1    3    3    0  502 -0.70647293078E+02  0.72671547322E+02 -0.85456002261E+03  0.86056209308E+03  0.47000000000E+01 0.  1.
        -11    1    1    2    0    0  0.46654644626E+02 -0.10673155204E+03 -0.26977407850E+03  0.29384746638E+03  0.00000000000E+00 0. -1.
         11    1    1    2    0    0 -0.23701925367E+02 -0.80998699885E+02 -0.37518570367E+03  0.38456063616E+03  0.00000000000E+00 0.  1.
<mgrwt>
<rscale>  0 0.22250914E+03</rscale>
<asrwt>0</asrwt>
<pdfrwt beam="2">  1        2 0.37372720E+00 0.22670163E+03</pdfrwt>
<pdfrwt beam="1">  1       -2 0.36912682E-02 0.22670163E+03</pdfrwt>
<totfact> 0.13677024E+03</totfact>
</mgrwt>
</event>
<event>
 7    1  0.8165933E-006  0.1681735E+03  0.7546771E-02  0.1187151E+00
         -1   -1    0    0    0  501 -0.00000000000E+00  0.00000000000E+00  0.15000943214E+02  0.15000943214E+02  0.00000000000E+00 0.  1.
          1   -1    0    0  501    0  0.00000000000E+00 -0.00000000000E+00 -0.19017041674E+04  0.19017041674E+04  0.00000000000E+00 0. -1.
         23    2    1    2    0    0 -0.35400327868E+02 -0.10680428061E+03 -0.13836845490E+04  0.13938670113E+04  0.12498790530E+03 0.  0.
          5    1    3    3  502    0 -0.78653356232E+01 -0.11833326860E+03 -0.12895638002E+04  0.12950140968E+04  0.47000000000E+01 0.  1.
         -5    1    3    3    0  502 -0.27534992245E+02  0.11528987993E+02 -0.94120748785E+02  0.98852914544E+02  0.47000000000E+01 0.  1.
        -11    1    1    2    0    0  0.60974488088E+02  0.75433427380E+02 -0.28388581681E+03  0.29999874525E+03  0.00000000000E+00 0.  1.
         11    1    1    2    0    0 -0.25574160220E+02  0.31370853225E+02 -0.21913285839E+03  0.22283935409E+03  0.00000000000E+00 0. -1.
<mgrwt>
<rscale>  0 0.16137651E+03</rscale>
<asrwt>0</asrwt>
<pdfrwt beam="2">  1        1 0.29257004E+00 0.16817346E+03</pdfrwt>
<pdfrwt beam="1">  1       -1 0.23078361E-02 0.16817346E+03</pdfrwt>
<totfact> 0.21735828E+03</totfact>
</mgrwt>
</event>
<event>
 6    1  0.8165933E-006  0.1386156E+03  0.7546771E-02  0.1228315E+00
         -1   -1    0    0    0  501 -0.00000000000E+00  0.00000000000E+00  0.72500071335E+03  0.72500071335E+03  0.00000000000E+00 0.  1.
          1   -1    0    0  501    0  0.00000000000E+00 -0.00000000000E+00 -0.25540885611E+02  0.25540885611E+02  0.00000000000E+00 0. -1.
          5    1    1    2  502    0 -0.25796195660E+02  0.28273302091E+02  0.18703844726E+02  0.42857287936E+02  0.47000000000E+01 0. -1.
         -5    1    1    2    0  502  0.75802896935E+02 -0.27753033078E+02  0.20425643371E+03  0.21967951825E+03  0.47000000000E+01 0.  1.
        -11    1    1    2    0    0 -0.71106989161E+02 -0.18330906060E+02  0.39976712143E+03  0.40645538181E+03  0.00000000000E+00 0.  1.
         11    1    1    2    0    0  0.21100287886E+02  0.17810637047E+02  0.76732427868E+02  0.81549410957E+02  0.00000000000E+00 0. -1.
<mgrwt>
<rscale>  0 0.12942230E+03</rscale>
<asrwt>0</asrwt>
<pdfrwt beam="2">  1        1 0.39293676E-02 0.13861562E+03</pdfrwt>
<pdfrwt beam="1">  1       -1 0.11153856E+00 0.13861562E+03</pdfrwt>
<totfact> 0.17831564E+03</totfact>
</mgrwt>
</event>
<event>
 7    1  0.8165933E-006  0.1386524E+03  0.7546771E-02  0.1225979E+00
          2   -1    0    0  501    0  0.00000000000E+00  0.00000000000E+00  0.35406885984E+03  0.35406885984E+03  0.00000000000E+00 0. -1.
         -2   -1    0    0    0  501 -0.00000000000E+00 -0.00000000000E+00 -0.44790121197E+02  0.44790121197E+02  0.00000000000E+00 0.  1.
         23    2    1    2    0    0  0.34409255815E+02 -0.49140739536E+02  0.20082309790E+03  0.24403771398E+03  0.12500272007E+03 0.  0.
          5    1    3    3  502    0  0.51360746368E+02 -0.70807253119E+02  0.19734457940E+03  0.21591333072E+03  0.47000000000E+01 0.  1.
         -5    1    3    3    0  502 -0.16951490553E+02  0.21666513583E+02  0.34785184996E+01  0.28124383260E+02  0.47000000000E+01 0.  1.
        -11    1    1    2    0    0 -0.66125241707E+02  0.37387479333E+02  0.66745050626E+02  0.10112009189E+03  0.00000000000E+00 0. -1.
         11    1    1    2    0    0  0.31715985892E+02  0.11753260203E+02  0.41710590113E+02  0.53701175165E+02  0.00000000000E+00 0.  1.
<mgrwt>
<rscale>  0 0.13100011E+03</rscale>
<asrwt>0</asrwt>
<pdfrwt beam="1">  1        2 0.54472130E-01 0.13865240E+03</pdfrwt>
<pdfrwt beam="2">  1       -2 0.68907881E-02 0.13865240E+03</pdfrwt>
<totfact> 0.10340617E+04</totfact>
</mgrwt>
</event>
<event>
 7    1  0.8165933E-006  0.1210877E+03  0.7546771E-02  0.1255300E+00
         -1   -1    0    0    0  501 -0.00000000000E+00  0.00000000000E+00  0.55933834193E+02  0.55933834193E+02  0.00000000000E+00 0.  1.
          1   -1    0    0  501    0  0.00000000000E+00 -0.00000000000E+00 -0.44060037543E+03  0.44060037543E+03  0.00000000000E+00 0. -1.
         23    2    1    2    0    0 -0.42472736353E+01 -0.48528708115E+01 -0.38649447413E+03  0.40501877892E+03  0.12091585115E+03 0.  0.
          5    1    3    3  502    0 -0.30459117915E+02 -0.43219542793E+02 -0.31619575939E+03  0.32062054675E+03  0.47000000000E+01 0. -1.
         -5    1    3    3    0  502  0.26211844280E+02  0.38366671982E+02 -0.70298714744E+02  0.84398232174E+02  0.47000000000E+01 0.  1.
        -11    1    1    2    0    0  0.37570289927E+02 -0.26268455448E+02  0.25565867856E+01  0.45913991036E+02  0.00000000000E+00 0. -1.
         11    1    1    2    0    0 -0.33323016292E+02  0.31121326259E+02 -0.72865389196E+00  0.45601439664E+02  0.00000000000E+00 0.  1.
<mgrwt>
<rscale>  0 0.11289559E+03</rscale>
<asrwt>0</asrwt>
<pdfrwt beam="2">  1        1 0.67784672E-01 0.12108771E+03</pdfrwt>
<pdfrwt beam="1">  1       -1 0.86052054E-02 0.12108771E+03</pdfrwt>
<totfact> 0.39521091E+03</totfact>
</mgrwt>
</event>
<event>
 7    1  0.8165933E-006  0.2242629E+03  0.7546771E-02  0.1134212E+00
         -2   -1    0    0    0  501 -0.00000000000E+00  0.00000000000E+00  0.29428736366E+03  0.29428736366E+03  0.00000000000E+00 0.  1.
          2   -1    0    0  501    0  0.00000000000E+00 -0.00000000000E+00 -0.22381110332E+03  0.22381110332E+03  0.00000000000E+00 0. -1.
         23    2    1    2    0    0  0.18571456910E+03 -0.13641123462E+02 -0.10485187488E+03  0.24756363862E+03  0.12497142904E+03 0.  0.
          5    1    3    3  502    0  0.18902117650E+03 -0.41189586987E+02 -0.10334793558E+03  0.21938202532E+03  0.47000000000E+01 0. -1.
         -5    1    3    3    0  502 -0.33066074037E+01  0.27548463525E+02 -0.15039392978E+01  0.28181613306E+02  0.47000000000E+01 0. -1.
        -11    1    1    2    0    0 -0.11618801292E+03  0.47820356374E+01  0.16163823202E+03  0.19912167200E+03  0.00000000000E+00 0.  1.
         11    1    1    2    0    0 -0.69526556175E+02  0.88590878246E+01  0.13689903203E+02  0.71413156353E+02  0.00000000000E+00 0. -1.
<mgrwt>
<rscale>  0 0.21955921E+03</rscale>
<asrwt>0</asrwt>
<pdfrwt beam="2">  1        2 0.34432477E-01 0.22426288E+03</pdfrwt>
<pdfrwt beam="1">  1       -2 0.45274979E-01 0.22426288E+03</pdfrwt>
<totfact> 0.70525508E+02</totfact>
</mgrwt>
</event>
<event>
 7    1  0.8165933E-006  0.1351364E+03  0.7546771E-02  0.1231555E+00
          3   -1    0    0  501    0  0.00000000000E+00  0.00000000000E+00  0.54486670188E+02  0.54486670188E+02  0.00000000000E+00 0. -1.
         -3   -1    0    0    0  501 -0.00000000000E+00 -0.00000000000E+00 -0.30848609762E+03  0.30848609762E+03  0.00000000000E+00 0.  1.
         23    2    1    2    0    0 -0.35759925079E+02 -0.36906970464E+02 -0.74419593706E+02  0.15427285716E+03  0.12498376622E+03 0.  0.
          5    1    3    3  502    0 -0.37998771562E+01 -0.53075148279E+02 -0.97662764660E+02  0.11131718660E+03  0.47000000000E+01 0. -1.
         -5    1    3    3    0  502 -0.31960047922E+02  0.16168177815E+02  0.23243170954E+02  0.42955670558E+02  0.47000000000E+01 0. -1.
        -11    1    1    2    0    0  0.38777730478E+02 -0.22525301753E+02 -0.57791154887E+02  0.73149977329E+02  0.00000000000E+00 0.  1.
         11    1    1    2    0    0 -0.30178053991E+01  0.59432272217E+02 -0.12178867884E+03  0.13554993332E+03  0.00000000000E+00 0. -1.
<mgrwt>
<rscale>  0 0.12727595E+03</rscale>
<asrwt>0</asrwt>
<pdfrwt beam="1">  1        3 0.83825648E-02 0.13513637E+03</pdfrwt>
<pdfrwt beam="2">  1       -3 0.47459399E-01 0.13513637E+03</pdfrwt>
<totfact> 0.10098778E+03</totfact>
</mgrwt>
</event>
<event>
 7    1  0.8165933E-006  0.1544976E+03  0.7546771E-02  0.1203567E+00
          1   -1    0    0  501    0  0.00000000000E+00  0.00000000000E+00  0.87065694144E+03  0.87065694144E+03  0.00000000000E+00 0. -1.
         -1   -1    0    0    0  501 -0.00000000000E+00 -0.00000000000E+00 -0.25356400750E+02  0.25356400750E+02  0.00000000000E+00 0.  1.
         23    2    1    2    0    0  0.65618052875E+02 -0.62762618056E+02  0.59468652931E+03  0.61442785363E+03  0.12499857635E+03 0.  0.
          5    1    3    3  502    0  0.44020476093E+02  0.30865876961E+02  0.28778671671E+03  0.29280332817E+03  0.47000000000E+01 0. -1.
         -5    1    3    3    0  502  0.21597576782E+02 -0.93628495017E+02  0.30689981260E+03  0.32162452546E+03  0.47000000000E+01 0. -1.
        -11    1    1    2    0    0 -0.31363388631E+02 -0.21032005872E+02  0.78858367398E+02  0.87433686449E+02  0.00000000000E+00 0.  1.
         11    1    1    2    0    0 -0.34254664244E+02  0.83794623929E+02  0.17175564398E+03  0.19415180211E+03  0.00000000000E+00 0. -1.
<mgrwt>
<rscale>  0 0.14750982E+03</rscale>
<asrwt>0</asrwt>
<pdfrwt beam="1">  1        1 0.13394720E+00 0.15449763E+03</pdfrwt>
<pdfrwt beam="2">  1       -1 0.39009854E-02 0.15449763E+03</pdfrwt>
<totfact> 0.50355984E+03</totfact>
</mgrwt>
</event>
<event>
 6    1  0.8165933E-006  0.3023199E+03  0.7546771E-02  0.1084087E+00
         -2   -1    0    0    0  501 -0.00000000000E+00  0.00000000000E+00  0.73523542206E+02  0.73523542206E+02  0.00000000000E+00 0.  1.
          2   -1    0    0  501    0  0.00000000000E+00 -0.00000000000E+00 -0.31077563409E+03  0.31077563409E+03  0.00000000000E+00 0. -1.
          5    1    1    2  502    0  0.34445294514E+02  0.10202058109E+03 -0.15408529169E+03  0.18804000743E+03  0.47000000000E+01 0. -1.
         -5    1    1    2    0  502 -0.24242837106E+02 -0.15071698883E+02  0.15153470660E+02  0.32658673139E+02  0.47000000000E+01 0.  1.
        -11    1    1    2    0    0  0.20235225966E+02 -0.49839752741E+02  0.44307016509E+00  0.53792765632E+02  0.00000000000E+00 0.  1.
         11    1    1    2    0    0 -0.30437683375E+02 -0.37109129463E+02 -0.98763341014E+02  0.10980773009E+03  0.00000000000E+00 0. -1.
<mgrwt>
<rscale>  0 0.30231987E+03</rscale>
<asrwt>0</asrwt>
<pdfrwt beam="2">  1        2 0.47811637E-01 0.30231987E+03</pdfrwt>
<pdfrwt beam="1">  1       -2 0.11311314E-01 0.30231987E+03</pdfrwt>
<totfact> 0.57121398E+03</totfact>
</mgrwt>
</event>
<event>
 7    1  0.8165933E-006  0.1396680E+03  0.7546771E-02  0.1224513E+00
          2   -1    0    0  501    0  0.00000000000E+00  0.00000000000E+00  0.15360914540E+04  0.15360914540E+04  0.00000000000E+00 0. -1.
         -2   -1    0    0    0  501 -0.00000000000E+00 -0.00000000000E+00 -0.12689703568E+02  0.12689703568E+02  0.00000000000E+00 0.  1.
         23    2    1    2    0    0 -0.61849138619E+02 -0.69887374797E+01  0.11678836871E+04  0.11762055350E+04  0.12503197799E+03 0.  0.
          5    1    3    3  502    0 -0.10027678759E+03 -0.80798256675E+00  0.85678164566E+03  0.86264301151E+03  0.47000000000E+01 0. -1.
         -5    1    3    3    0  502  0.38427648967E+02 -0.61807549130E+01  0.31110204146E+03  0.31356252349E+03  0.47000000000E+01 0. -1.
        -11    1    1    2    0    0 -0.14749832351E+02 -0.22053217409E+02  0.54576814188E+02  0.60683857816E+02  0.00000000000E+00 0.  1.
         11    1    1    2    0    0  0.76598970970E+02  0.29041954888E+02  0.30094124914E+03  0.31189176477E+03  0.00000000000E+00 0. -1.
<mgrwt>
<rscale>  0 0.13200359E+03</rscale>
<asrwt>0</asrwt>
<pdfrwt beam="1">  1        2 0.23632161E+00 0.13966801E+03</pdfrwt>
<pdfrwt beam="2">  1       -2 0.19522633E-02 0.13966801E+03</pdfrwt>
<totfact> 0.10209091E+04</totfact>
</mgrwt>
</event>
<event>
 7    1  0.8165933E-006  0.1309634E+03  0.7546771E-02  0.1239086E+00
          2   -1    0    0  501    0  0.00000000000E+00  0.00000000000E+00  0.20709736074E+03  0.20709736074E+03  0.00000000000E+00 0. -1.
         -2   -1    0    0    0  501 -0.00000000000E+00 -0.00000000000E+00 -0.65638810668E+02  0.65638810668E+02  0.00000000000E+00 0.  1.
         23    2    1    2    0    0 -0.14366847796E+02  0.36317853701E+02  0.98030087796E+02  0.16358887646E+03  0.12500411823E+03 0.  0.
          5    1    3    3  502    0 -0.43208134090E+02  0.56976487607E+02  0.10500625525E+03  0.12712854374E+03  0.47000000000E+01 0.  1.
         -5    1    3    3    0  502  0.28841286293E+02 -0.20658633906E+02 -0.69761674514E+01  0.36460332722E+02  0.47000000000E+01 0.  1.
        -11    1    1    2    0    0 -0.86737649672E-01 -0.51350553368E+02 -0.95330032659E+01  0.52228009782E+02  0.00000000000E+00 0.  1.
         11    1    1    2    0    0  0.14453585446E+02  0.15032699666E+02  0.52961465546E+02  0.56919285170E+02  0.00000000000E+00 0. -1.
<mgrwt>
<rscale>  0 0.12246429E+03</rscale>
<asrwt>0</asrwt>
<pdfrwt beam="1">  1        2 0.31861132E-01 0.13096344E+03</pdfrwt>
<pdfrwt beam="2">  1       -2 0.10098279E-01 0.13096344E+03</pdfrwt>
<totfact> 0.10079115E+04</totfact>
</mgrwt>
</event>
<event>
 7    1  0.8165933E-006  0.1399473E+03  0.7546771E-02  0.1224223E+00
         -2   -1    0    0    0  501 -0.00000000000E+00  0.00000000000E+00  0.19523586219E+02  0.19523586219E+02  0.00000000000E+00 0.  1.
          2   -1    0    0  501    0  0.00000000000E+00 -0.00000000000E+00 -0.83308882878E+03  0.83308882878E+03  0.00000000000E+00 0. -1.
         23    2    1    2    0    0  0.53191787558E+02 -0.33630720936E+02 -0.52321952923E+03  0.54161233659E+03  0.12499942288E+03 0.  0.
          5    1    3    3  502    0  0.89189216402E+02 -0.10809576009E+01 -0.37863980492E+03  0.38903223088E+03  0.47000000000E+01 0. -1.
         -5    1    3    3    0  502 -0.35997428844E+02 -0.32549763336E+02 -0.14457972431E+03  0.15258010571E+03  0.47000000000E+01 0. -1.
        -11    1    1    2    0    0 -0.19614571727E+02 -0.29878181635E+02 -0.61365891264E+02  0.71015560073E+02  0.00000000000E+00 0.  1.
         11    1    1    2    0    0 -0.33577215832E+02  0.63508902572E+02 -0.22897982206E+03  0.23998451834E+03  0.00000000000E+00 0. -1.
<mgrwt>
<rscale>  0 0.13220273E+03</rscale>
<asrwt>0</asrwt>
<pdfrwt beam="2">  1        2 0.12816754E+00 0.13994730E+03</pdfrwt>
<pdfrwt beam="1">  1       -2 0.30036280E-02 0.13994730E+03</pdfrwt>
<totfact> 0.13628093E+04</totfact>
</mgrwt>
</event>
<event>
 7    1  0.8165933E-006  0.2773486E+03  0.7546771E-02  0.1099108E+00
          3   -1    0    0  501    0  0.00000000000E+00  0.00000000000E+00  0.32309329165E+03  0.32309329165E+03  0.00000000000E+00 0. -1.
         -3   -1    0    0    0  501 -0.00000000000E+00 -0.00000000000E+00 -0.22701552858E+03  0.22701552858E+03  0.00000000000E+00 0.  1.
         23    2    1    2    0    0 -0.20668494489E+02  0.24672309089E+03  0.63925966496E+02  0.28462044542E+03  0.12499119375E+03 0.  0.
          5    1    3    3  502    0 -0.42840456348E+02  0.89408156108E+02 -0.25193657817E+02  0.10240084703E+03  0.47000000000E+01 0. -1.
         -5    1    3    3    0  502  0.22171961860E+02  0.15731493478E+03  0.89119624313E+02  0.18221959839E+03  0.47000000000E+01 0. -1.
        -11    1    1    2    0    0 -0.17276216206E+02 -0.17621822650E+03  0.48893523851E+02  0.18368970486E+03  0.00000000000E+00 0. -1.
         11    1    1    2    0    0  0.37944710695E+02 -0.70504864387E+02 -0.16741727276E+02  0.81798669941E+02  0.00000000000E+00 0.  1.
<mgrwt>
<rscale>  0 0.27382861E+03</rscale>
<asrwt>0</asrwt>
<pdfrwt beam="1">  1        3 0.49706660E-01 0.27734864E+03</pdfrwt>
<pdfrwt beam="2">  1       -3 0.34925466E-01 0.27734864E+03</pdfrwt>
<totfact> 0.81707876E+01</totfact>
</mgrwt>
</event>
<event>
 6    1  0.8165933E-006  0.1370568E+03  0.7546771E-02  0.1236231E+00
         -2   -1    0    0    0  501 -0.00000000000E+00  0.00000000000E+00  0.17060247084E+02  0.17060247084E+02  0.00000000000E+00 0.  1.
          2   -1    0    0  501    0  0.00000000000E+00 -0.00000000000E+00 -0.10124610809E+04  0.10124610809E+04  0.00000000000E+00 0. -1.
          5    1    1    2  502    0  0.24451047556E+02  0.59969397487E+02 -0.23753035114E+03  0.24624569047E+03  0.47000000000E+01 0. -1.
         -5    1    1    2    0  502 -0.15161829295E+02 -0.53615095874E+02 -0.58050149267E+03  0.58318824797E+03  0.47000000000E+01 0.  1.
        -11    1    1    2    0    0  0.39646878753E+02 -0.11106237985E+02 -0.59316491654E+02  0.72205745611E+02  0.00000000000E+00 0. -1.
         11    1    1    2    0    0 -0.48936097014E+02  0.47519363719E+01 -0.11805249837E+03  0.12788164396E+03  0.00000000000E+00 0.  1.
<mgrwt>
<rscale>  0 0.12425989E+03</rscale>
<asrwt>0</asrwt>
<pdfrwt beam="2">  1        2 0.15576324E+00 0.13705678E+03</pdfrwt>
<pdfrwt beam="1">  1       -2 0.26246535E-02 0.13705678E+03</pdfrwt>
<totfact> 0.12819209E+04</totfact>
</mgrwt>
</event>
<event>
 7    1  0.8165933E-006  0.1304643E+03  0.7546771E-02  0.1240456E+00
         -1   -1    0    0    0  501 -0.00000000000E+00  0.00000000000E+00  0.30187761230E+02  0.30187761230E+02  0.00000000000E+00 0.  1.
          1   -1    0    0  501    0  0.00000000000E+00 -0.00000000000E+00 -0.44666697460E+03  0.44666697460E+03  0.00000000000E+00 0. -1.
         23    2    1    2    0    0 -0.73903548823E+01 -0.36635099790E+02 -0.27596502305E+03  0.30525009430E+03  0.12499671292E+03 0.  0.
          5    1    3    3  502    0  0.10959340751E+02 -0.80647873528E+02 -0.15481062599E+03  0.17496458663E+03  0.47000000000E+01 0.  1.
         -5    1    3    3    0  502 -0.18349695633E+02  0.44012773738E+02 -0.12115439706E+03  0.13028550767E+03  0.47000000000E+01 0.  1.
        -11    1    1    2    0    0  0.35495034714E+02  0.14425386380E+01 -0.15561751362E+02  0.38783327765E+02  0.00000000000E+00 0.  1.
         11    1    1    2    0    0 -0.28104679832E+02  0.35192561152E+02 -0.12495243896E+03  0.13282131376E+03  0.00000000000E+00 0. -1.
<mgrwt>
<rscale>  0 0.12161498E+03</rscale>
<asrwt>0</asrwt>
<pdfrwt beam="2">  1        1 0.68717990E-01 0.13046427E+03</pdfrwt>
<pdfrwt beam="1">  1       -1 0.46442714E-02 0.13046427E+03</pdfrwt>
<totfact> 0.97825853E+03</totfact>
</mgrwt>
</event>
<event>
 7    1  0.8165933E-006  0.1330708E+03  0.7546771E-02  0.1235881E+00
         -2   -1    0    0    0  501 -0.00000000000E+00  0.00000000000E+00  0.71933811451E+02  0.71933811451E+02  0.00000000000E+00 0.  1.
          2   -1    0    0  501    0  0.00000000000E+00 -0.00000000000E+00 -0.21840819878E+03  0.21840819878E+03  0.00000000000E+00 0. -1.
         23    2    1    2    0    0 -0.30420688612E+02  0.33987165913E+02 -0.13196960772E+03  0.18741348616E+03  0.12500916643E+03 0.  0.
          5    1    3    3  502    0  0.26352855807E+02  0.63498993439E+02 -0.68842381208E+02  0.97406152923E+02  0.47000000000E+01 0. -1.
         -5    1    3    3    0  502 -0.56773544419E+02 -0.29511827526E+02 -0.63127226511E+02  0.90007333239E+02  0.47000000000E+01 0. -1.
        -11    1    1    2    0    0 -0.10271430448E+00 -0.34294795903E+02 -0.47105865460E+02  0.58267539308E+02  0.00000000000E+00 0. -1.
         11    1    1    2    0    0  0.30523402916E+02  0.30762999022E+00  0.32601085846E+02  0.44660984765E+02  0.00000000000E+00 0.  1.
<mgrwt>
<rscale>  0 0.12448215E+03</rscale>
<asrwt>0</asrwt>
<pdfrwt beam="2">  1        2 0.33601261E-01 0.13307080E+03</pdfrwt>
<pdfrwt beam="1">  1       -2 0.11066740E-01 0.13307080E+03</pdfrwt>
<totfact> 0.82487051E+03</totfact>
</mgrwt>
</event>
<event>
 7    1  0.8165933E-006  0.2086728E+03  0.7546771E-02  0.1146554E+00
         -2   -1    0    0    0  501 -0.00000000000E+00  0.00000000000E+00  0.24797981902E+02  0.24797981902E+02  0.00000000000E+00 0.  1.
          2   -1    0    0  501    0  0.00000000000E+00 -0.00000000000E+00 -0.16191230409E+04  0.16191230409E+04  0.00000000000E+00 0. -1.
         23    2    1    2    0    0 -0.13275817696E+03  0.10145975823E+03 -0.91904787050E+03  0.94244008733E+03  0.12500205533E+03 0.  0.
          5    1    3    3  502    0 -0.41130725857E+02  0.83156075187E+02 -0.24659989302E+03  0.26351521149E+03  0.47000000000E+01 0. -1.
         -5    1    3    3    0  502 -0.91627451107E+02  0.18303683043E+02 -0.67244797748E+03  0.67892487583E+03  0.47000000000E+01 0. -1.
        -11    1    1    2    0    0  0.65545586303E+01 -0.45885030139E+02 -0.25442132660E+03  0.25860898991E+03  0.00000000000E+00 0.  1.
         11    1    1    2    0    0  0.12620361833E+03 -0.55574728091E+02 -0.42085586190E+03  0.44287194558E+03  0.00000000000E+00 0. -1.
<mgrwt>
<rscale>  0 0.20382243E+03</rscale>
<asrwt>0</asrwt>
<pdfrwt beam="2">  1        2 0.24909587E+00 0.20867278E+03</pdfrwt>
<pdfrwt beam="1">  1       -2 0.38150738E-02 0.20867278E+03</pdfrwt>
<totfact> 0.34742935E+03</totfact>
</mgrwt>
</event>
<event>
 7    1  0.8165933E-006  0.1393344E+03  0.7546771E-02  0.1225534E+00
          2   -1    0    0  501    0  0.00000000000E+00  0.00000000000E+00  0.37828239764E+03  0.37828239764E+03  0.00000000000E+00 0. -1.
         -2   -1    0    0    0  501 -0.00000000000E+00 -0.00000000000E+00 -0.41087995930E+02  0.41087995930E+02  0.00000000000E+00 0.  1.
         23    2    1    2    0    0  0.61145033763E+02 -0.47714470401E+01  0.18191825207E+03  0.22914692996E+03  0.12511028420E+03 0.  0.
          5    1    3    3  502    0  0.82417582546E+02 -0.44489520506E+02  0.12906978272E+03  0.15954019606E+03  0.47000000000E+01 0.  1.
         -5    1    3    3    0  502 -0.21272548783E+02  0.39718073466E+02  0.52848469348E+02  0.69606733898E+02  0.47000000000E+01 0.  1.
        -11    1    1    2    0    0 -0.77017245142E+01 -0.39075225575E+02  0.45223093222E+02  0.60260417978E+02  0.00000000000E+00 0. -1.
         11    1    1    2    0    0 -0.53443309249E+02  0.43846672615E+02  0.11005305642E+03  0.12996304563E+03  0.00000000000E+00 0.  1.
<mgrwt>
<rscale>  0 0.13130351E+03</rscale>
<asrwt>0</asrwt>
<pdfrwt beam="1">  1        2 0.58197289E-01 0.13933436E+03</pdfrwt>
<pdfrwt beam="2">  1       -2 0.63212304E-02 0.13933436E+03</pdfrwt>
<totfact> 0.10997048E+04</totfact>
</mgrwt>
</event>
<event>
 7    1  0.8165933E-006  0.1493928E+03  0.7546771E-02  0.1210684E+00
          2   -1    0    0  501    0  0.00000000000E+00  0.00000000000E+00  0.21779365357E+03  0.21779365357E+03  0.00000000000E+00 0. -1.
         -2   -1    0    0    0  501 -0.00000000000E+00 -0.00000000000E+00 -0.84849036093E+02  0.84849036093E+02  0.00000000000E+00 0.  1.
         23    2    1    2    0    0  0.40893844399E+02 -0.70861215076E+02  0.63211293210E+02  0.16221553992E+03  0.12499838195E+03 0.  0.
          5    1    3    3  502    0  0.67134989718E+02 -0.91554435020E+02  0.37052854727E+02  0.11951705092E+03  0.47000000000E+01 0. -1.
         -5    1    3    3    0  502 -0.26241145320E+02  0.20693219944E+02  0.26158438483E+02  0.42698489004E+02  0.47000000000E+01 0. -1.
        -11    1    1    2    0    0 -0.25071883405E+02 -0.18393061002E+02  0.20877204715E+02  0.37453460551E+02  0.00000000000E+00 0. -1.
         11    1    1    2    0    0 -0.15821960994E+02  0.89254276078E+02  0.48856119550E+02  0.10297368919E+03  0.00000000000E+00 0.  1.
<mgrwt>
<rscale>  0 0.14198382E+03</rscale>
<asrwt>0</asrwt>
<pdfrwt beam="1">  1        2 0.33506716E-01 0.14939282E+03</pdfrwt>
<pdfrwt beam="2">  1       -2 0.13053698E-01 0.14939282E+03</pdfrwt>
<totfact> 0.64042524E+03</totfact>
</mgrwt>
</event>
<event>
 7    1  0.8165933E-006  0.1187706E+03  0.7546771E-02  0.1253088E+00
         -1   -1    0    0    0  501 -0.00000000000E+00  0.00000000000E+00  0.28174543777E+03  0.28174543777E+03  0.00000000000E+00 0.  1.
          1   -1    0    0  501    0  0.00000000000E+00 -0.00000000000E+00 -0.62730266530E+02  0.62730266530E+02  0.00000000000E+00 0. -1.
         23    2    1    2    0    0 -0.79698405961E+01  0.41206997489E+02  0.19018088801E+02  0.12028363203E+03  0.11110773795E+03 0.  0.
          5    1    3    3  502    0 -0.58195041658E+02  0.12028656113E+02  0.22900114514E+01  0.59654719796E+02  0.47000000000E+01 0. -1.
         -5    1    3    3    0  502  0.50225201062E+02  0.29178341375E+02  0.16728077350E+02  0.60628912237E+02  0.47000000000E+01 0.  1.
        -11    1    1    2    0    0  0.33825174848E+02 -0.54911265337E+02  0.17199864745E+03  0.18369247192E+03  0.00000000000E+00 0.  1.
         11    1    1    2    0    0 -0.25855334252E+02  0.13704267849E+02  0.27998434985E+02  0.40499600346E+02  0.00000000000E+00 0. -1.
<mgrwt>
<rscale>  0 0.11414120E+03</rscale>
<asrwt>0</asrwt>
<pdfrwt beam="2">  1        1 0.96508104E-02 0.11877064E+03</pdfrwt>
<pdfrwt beam="1">  1       -1 0.43345451E-01 0.11877064E+03</pdfrwt>
<totfact> 0.34307403E+03</totfact>
</mgrwt>
</event>
<event>
 7    1  0.8165933E-006  0.1453216E+03  0.7546771E-02  0.1216215E+00
         -2   -1    0    0    0  501 -0.00000000000E+00  0.00000000000E+00  0.46945797756E+02  0.46945797756E+02  0.00000000000E+00 0.  1.
          2   -1    0    0  501    0  0.00000000000E+00 -0.00000000000E+00 -0.36863594199E+03  0.36863594199E+03  0.00000000000E+00 0. -1.
         23    2    1    2    0    0 -0.64772566790E+02  0.35996900493E+02 -0.18081659995E+03  0.23197631303E+03  0.12500841864E+03 0.  0.
          5    1    3    3  502    0 -0.16226632551E+02  0.61912519399E+02 -0.16096451105E+03  0.17328625877E+03  0.47000000000E+01 0. -1.
         -5    1    3    3    0  502 -0.48545934239E+02 -0.25915618906E+02 -0.19852088908E+02  0.58690054255E+02  0.47000000000E+01 0. -1.
        -11    1    1    2    0    0  0.40527135116E+02 -0.22502658770E+02 -0.69932311150E+01  0.46879884960E+02  0.00000000000E+00 0.  1.
         11    1    1    2    0    0  0.24245431674E+02 -0.13494241723E+02 -0.13388031317E+03  0.13672554176E+03  0.00000000000E+00 0. -1.
<mgrwt>
<rscale>  0 0.13787640E+03</rscale>
<asrwt>0</asrwt>
<pdfrwt beam="2">  1        2 0.56713224E-01 0.14532160E+03</pdfrwt>
<pdfrwt beam="1">  1       -2 0.72224302E-02 0.14532160E+03</pdfrwt>
<totfact> 0.92476644E+03</totfact>
</mgrwt>
</event>
<event>
 7    1  0.8165933E-006  0.1919090E+03  0.7546771E-02  0.1161462E+00
         -1   -1    0    0    0  501 -0.00000000000E+00  0.00000000000E+00  0.57117934363E+02  0.57117934363E+02  0.00000000000E+00 0.  1.
          1   -1    0    0  501    0  0.00000000000E+00 -0.00000000000E+00 -0.67002202605E+03  0.67002202605E+03  0.00000000000E+00 0. -1.
         23    2    1    2    0    0  0.14557177841E+03  0.38537813613E+01 -0.45449013182E+03  0.49334607965E+03  0.12499232010E+03 0.  0.
          5    1    3    3  502    0  0.94964301576E+02 -0.50791121866E+02 -0.34001822682E+03  0.35669656741E+03  0.47000000000E+01 0. -1.
         -5    1    3    3    0  502  0.50607476833E+02  0.54644903227E+02 -0.11447190500E+03  0.13664951224E+03  0.47000000000E+01 0. -1.
        -11    1    1    2    0    0 -0.10992444631E+03  0.64944420877E+01 -0.16266547554E+03  0.19643222396E+03  0.00000000000E+00 0. -1.
         11    1    1    2    0    0 -0.35647332098E+02 -0.10348223449E+02  0.42515156717E+01  0.37361656812E+02  0.00000000000E+00 0.  1.
<mgrwt>
<rscale>  0 0.18671020E+03</rscale>
<asrwt>0</asrwt>
<pdfrwt beam="2">  1        1 0.10308031E+00 0.19190903E+03</pdfrwt>
<pdfrwt beam="1">  1       -1 0.87873743E-02 0.19190903E+03</pdfrwt>
<totfact> 0.22208181E+03</totfact>
</mgrwt>
</event>
<event>
 7    1  0.8165933E-006  0.1955330E+03  0.7546771E-02  0.1157978E+00
          1   -1    0    0  501    0  0.00000000000E+00  0.00000000000E+00  0.18914774829E+04  0.18914774829E+04  0.00000000000E+00 0. -1.
         -1   -1    0    0    0  501 -0.00000000000E+00 -0.00000000000E+00 -0.21910028987E+02  0.21910028987E+02  0.00000000000E+00 0.  1.
         23    2    1    2    0    0  0.14969134133E+03  0.14117259134E+02  0.13643873846E+04  0.13783272788E+04  0.12500542977E+03 0.  0.
          5    1    3    3  502    0 -0.79446039233E+01  0.27584020560E+02  0.10234522674E+03  0.10639845092E+03  0.47000000000E+01 0.  1.
         -5    1    3    3    0  502  0.15763594526E+03 -0.13466761426E+02  0.12620421579E+04  0.12719288279E+04  0.47000000000E+01 0.  1.
        -11    1    1    2    0    0 -0.43040944368E+02 -0.12972740605E+02  0.48659810208E+02  0.66246449115E+02  0.00000000000E+00 0.  1.
         11    1    1    2    0    0 -0.10665039697E+03 -0.11445185286E+01  0.45652025905E+03  0.46881378394E+03  0.00000000000E+00 0. -1.
<mgrwt>
<rscale>  0 0.19053713E+03</rscale>
<asrwt>0</asrwt>
<pdfrwt beam="1">  1        1 0.29099641E+00 0.19553300E+03</pdfrwt>
<pdfrwt beam="2">  1       -1 0.33707752E-02 0.19553300E+03</pdfrwt>
<totfact> 0.12656419E+03</totfact>
</mgrwt>
</event>
<event>
 7    1  0.8165933E-006  0.1272634E+03  0.7546771E-02  0.1242480E+00
          1   -1    0    0  501    0  0.00000000000E+00  0.00000000000E+00  0.29338356910E+02  0.29338356910E+02  0.00000000000E+00 0. -1.
         -1   -1    0    0    0  501 -0.00000000000E+00 -0.00000000000E+00 -0.44999005663E+03  0.44999005663E+03  0.00000000000E+00 0.  1.
         23    2    1    2    0    0 -0.22567402027E+02 -0.78376380772E+01 -0.25166954396E+03  0.28201689523E+03  0.12500101453E+03 0.  0.
          5    1    3    3  502    0  0.26188389833E+02  0.28241590460E+02 -0.19517831851E+03  0.19899770152E+03  0.47000000000E+01 0.  1.
         -5    1    3    3    0  502 -0.48755791859E+02 -0.36079228537E+02 -0.56491225447E+02  0.83019193709E+02  0.47000000000E+01 0.  1.
        -11    1    1    2    0    0 -0.83776630410E+01 -0.36473422593E+02 -0.29271569836E+02  0.47511268078E+02  0.00000000000E+00 0.  1.
         11    1    1    2    0    0  0.30945065068E+02  0.44311060670E+02 -0.13971058592E+03  0.14980025023E+03  0.00000000000E+00 0. -1.
<mgrwt>
<rscale>  0 0.12037489E+03</rscale>
<asrwt>0</asrwt>
<pdfrwt beam="1">  1        1 0.45135937E-02 0.12726339E+03</pdfrwt>
<pdfrwt beam="2">  1       -1 0.69229235E-01 0.12726339E+03</pdfrwt>
<totfact> 0.40171266E+03</totfact>
</mgrwt>
</event>
<event>
 7    1  0.8165933E-006  0.1842569E+03  0.7546771E-02  0.1168310E+00
         -2   -1    0    0    0  501 -0.00000000000E+00  0.00000000000E+00  0.35553061651E+03  0.35553061651E+03  0.00000000000E+00 0.  1.
          2   -1    0    0  501    0  0.00000000000E+00 -0.00000000000E+00 -0.90380138537E+02  0.90380138537E+02  0.00000000000E+00 0. -1.
         23    2    1    2    0    0  0.10154352804E+03  0.89543436809E+02  0.91330976335E+02  0.20565004623E+03  0.12498591566E+03 0.  0.
          5    1    3    3  502    0  0.97518120070E+02  0.11554885801E+03  0.55909955204E+02  0.16127410028E+03  0.47000000000E+01 0.  1.
         -5    1    3    3    0  502  0.40254079696E+01 -0.26005421201E+02  0.35421021131E+02  0.44375945951E+02  0.47000000000E+01 0.  1.
        -11    1    1    2    0    0 -0.11568606929E+02 -0.61833232443E+02  0.10936290053E+03  0.12616427906E+03  0.00000000000E+00 0.  1.
         11    1    1    2    0    0 -0.89974921111E+02 -0.27710204365E+02  0.64456601110E+02  0.11409642975E+03  0.00000000000E+00 0. -1.
<mgrwt>
<rscale>  0 0.17947668E+03</rscale>
<asrwt>0</asrwt>
<pdfrwt beam="2">  1        2 0.13904637E-01 0.18425687E+03</pdfrwt>
<pdfrwt beam="1">  1       -2 0.54697017E-01 0.18425687E+03</pdfrwt>
<totfact> 0.13482195E+03</totfact>
</mgrwt>
</event>
<event>
 7    1  0.8165933E-006  0.1565023E+03  0.7546771E-02  0.1200108E+00
          1   -1    0    0  501    0  0.00000000000E+00  0.00000000000E+00  0.96412935364E+02  0.96412935364E+02  0.00000000000E+00 0. -1.
         -1   -1    0    0    0  501 -0.00000000000E+00 -0.00000000000E+00 -0.21761335216E+03  0.21761335216E+03  0.00000000000E+00 0.  1.
         23    2    1    2    0    0 -0.92252308269E+02 -0.19158896477E+02 -0.69005409659E+02  0.17104011652E+03  0.12496168693E+03 0.  0.
          5    1    3    3  502    0 -0.58390033313E+02  0.26192447109E+02  0.18444792777E+02  0.66766313785E+02  0.47000000000E+01 0.  1.
         -5    1    3    3    0  502 -0.33862274956E+02 -0.45351343586E+02 -0.87450202435E+02  0.10427380273E+03  0.47000000000E+01 0.  1.
        -11    1    1    2    0    0  0.59411883344E+02  0.31985310864E+02 -0.75086919746E+02  0.10094987623E+03  0.00000000000E+00 0.  1.
         11    1    1    2    0    0  0.32840424925E+02 -0.12826414387E+02  0.22891912614E+02  0.42036294774E+02  0.00000000000E+00 0. -1.
<mgrwt>
<rscale>  0 0.15029716E+03</rscale>
<asrwt>0</asrwt>
<pdfrwt beam="1">  1        1 0.14832759E-01 0.15650232E+03</pdfrwt>
<pdfrwt beam="2">  1       -1 0.33478977E-01 0.15650232E+03</pdfrwt>
<totfact> 0.31050815E+03</totfact>
</mgrwt>
</event>
<event>
 7    1  0.8165933E-006  0.1318180E+03  0.7546771E-02  0.1237573E+00
         -2   -1    0    0    0  501 -0.00000000000E+00  0.00000000000E+00  0.26821920336E+02  0.26821920336E+02  0.00000000000E+00 0.  1.
          2   -1    0    0  501    0  0.00000000000E+00 -0.00000000000E+00 -0.51940612731E+03  0.51940612731E+03  0.00000000000E+00 0. -1.
         23    2    1    2    0    0  0.31689899280E+02  0.27324678650E+02 -0.32058900333E+03  0.34663135385E+03  0.12500039455E+03 0.  0.
          5    1    3    3  502    0  0.61070181758E+02 -0.28424389998E+02 -0.18786089367E+03  0.19962794999E+03  0.47000000000E+01 0. -1.
         -5    1    3    3    0  502 -0.29380282479E+02  0.55749068649E+02 -0.13272810966E+03  0.14700340387E+03  0.47000000000E+01 0. -1.
        -11    1    1    2    0    0  0.30015860052E+02 -0.75223146007E+00 -0.81749258913E+02  0.87088799738E+02  0.00000000000E+00 0. -1.
         11    1    1    2    0    0 -0.61705759331E+02 -0.26572447190E+02 -0.90245944730E+02  0.11250789405E+03  0.00000000000E+00 0.  1.
<mgrwt>
<rscale>  0 0.12341158E+03</rscale>
<asrwt>0</asrwt>
<pdfrwt beam="2">  1        2 0.79908637E-01 0.13181800E+03</pdfrwt>
<pdfrwt beam="1">  1       -2 0.41264492E-02 0.13181800E+03</pdfrwt>
<totfact> 0.14758361E+04</totfact>
</mgrwt>
</event>
<event>
 7    1  0.8833863E-006  0.1598472E+03  0.7546771E-02  0.1196195E+00
         -3   -1    0    0    0  501 -0.00000000000E+00  0.00000000000E+00  0.11768925168E+03  0.11768925168E+03  0.00000000000E+00 0.  1.
          3   -1    0    0  501    0  0.00000000000E+00 -0.00000000000E+00 -0.18893025184E+03  0.18893025184E+03  0.00000000000E+00 0. -1.
         23    2    1    2    0    0 -0.70317416557E+01 -0.99381318011E+02 -0.57484931478E+02  0.16986947726E+03  0.12500012079E+03 0.  0.
          5    1    3    3  502    0 -0.33476796522E+02 -0.14099088505E+02 -0.70566201453E+02  0.79505716710E+02  0.47000000000E+01 0. -1.
         -5    1    3    3    0  502  0.26445054866E+02 -0.85282229506E+02  0.13081269975E+02  0.90363760549E+02  0.47000000000E+01 0. -1.
        -11    1    1    2    0    0 -0.26194852795E+02  0.98625017188E+02 -0.16630706103E+02  0.10339073805E+03  0.00000000000E+00 0.  1.
         11    1    1    2    0    0  0.33226594450E+02  0.75630082247E+00  0.28746374268E+01  0.33359288212E+02  0.00000000000E+00 0. -1.
<mgrwt>
<rscale>  0 0.15353538E+03</rscale>
<asrwt>0</asrwt>
<pdfrwt beam="2">  1        3 0.29066193E-01 0.15984718E+03</pdfrwt>
<pdfrwt beam="1">  1       -3 0.18106039E-01 0.15984718E+03</pdfrwt>
<totfact> 0.72161351E+02</totfact>
</mgrwt>
</event>
<event>
 7    1  0.8165933E-006  0.1299102E+03  0.7546771E-02  0.1238769E+00
          1   -1    0    0  501    0  0.00000000000E+00  0.00000000000E+00  0.10688479720E+03  0.10688479720E+03  0.00000000000E+00 0. -1.
         -1   -1    0    0    0  501 -0.00000000000E+00 -0.00000000000E+00 -0.13797156576E+03  0.13797156576E+03  0.00000000000E+00 0.  1.
         23    2    1    2    0    0 -0.25141783609E+02  0.51462292628E+02  0.16883602422E+02  0.13100273649E+03  0.11660267618E+03 0.  0.
          5    1    3    3  502    0 -0.54401585317E+02  0.10796638265E+02  0.46575494847E+02  0.72577314659E+02  0.47000000000E+01 0. -1.
         -5    1    3    3    0  502  0.29259801708E+02  0.40665654363E+02 -0.29691892425E+02  0.58425421835E+02  0.47000000000E+01 0.  1.
        -11    1    1    2    0    0 -0.62685783639E+00  0.19598972791E+02  0.65276244261E+01  0.20666943796E+02  0.00000000000E+00 0. -1.
         11    1    1    2    0    0  0.25768641446E+02 -0.71061265420E+02 -0.54497995409E+02  0.93186682678E+02  0.00000000000E+00 0.  1.
<mgrwt>
<rscale>  0 0.12266190E+03</rscale>
<asrwt>0</asrwt>
<pdfrwt beam="1">  1        1 0.16443815E-01 0.12991020E+03</pdfrwt>
<pdfrwt beam="2">  1       -1 0.21226395E-01 0.12991020E+03</pdfrwt>
<totfact> 0.57243219E+03</totfact>
</mgrwt>
</event>
<event>
 7    1  0.8165933E-006  0.2218378E+03  0.7546771E-02  0.1135880E+00
          2   -1    0    0  501    0  0.00000000000E+00  0.00000000000E+00  0.96740095220E+03  0.96740095220E+03  0.00000000000E+00 0. -1.
         -2   -1    0    0    0  501 -0.00000000000E+00 -0.00000000000E+00 -0.54993527196E+02  0.54993527196E+02  0.00000000000E+00 0.  1.
         23    2    1    2    0    0  0.13545443865E+03  0.12344482857E+03  0.66750889231E+03  0.70340610119E+03  0.12500196491E+03 0.  0.
          5    1    3    3  502    0  0.13686201685E+03  0.47691450165E+02  0.40693965179E+03  0.43200423178E+03  0.47000000000E+01 0. -1.
         -5    1    3    3    0  502 -0.14075782032E+01  0.75753378407E+02  0.26056924052E+03  0.27140186941E+03  0.47000000000E+01 0. -1.
        -11    1    1    2    0    0 -0.11596829597E+03 -0.46496903439E+02  0.15403288702E+03  0.19833491367E+03  0.00000000000E+00 0.  1.
         11    1    1    2    0    0 -0.19486142682E+02 -0.76947925133E+02  0.90865645682E+02  0.12065346453E+03  0.00000000000E+00 0. -1.
<mgrwt>
<rscale>  0 0.21734294E+03</rscale>
<asrwt>0</asrwt>
<pdfrwt beam="1">  1        2 0.14883090E+00 0.22183783E+03</pdfrwt>
<pdfrwt beam="2">  1       -2 0.84605434E-02 0.22183783E+03</pdfrwt>
<totfact> 0.23733734E+03</totfact>
</mgrwt>
</event>
<event>
 7    1  0.8165933E-006  0.1251691E+03  0.7546771E-02  0.1248827E+00
         -1   -1    0    0    0  501 -0.00000000000E+00  0.00000000000E+00  0.11510110570E+02  0.11510110570E+02  0.00000000000E+00 0.  1.
          1   -1    0    0  501    0  0.00000000000E+00 -0.00000000000E+00 -0.11769187583E+04  0.11769187583E+04  0.00000000000E+00 0. -1.
         23    2    1    2    0    0 -0.38936695988E+01  0.51309676952E+01 -0.85249305682E+03  0.86163317441E+03  0.12500331129E+03 0.  0.
          5    1    3    3  502    0  0.20173782650E+02 -0.16045842513E+02 -0.36148455190E+02  0.44645843938E+02  0.47000000000E+01 0. -1.
         -5    1    3    3    0  502 -0.24067452248E+02  0.21176810208E+02 -0.81634460163E+03  0.81698733048E+03  0.47000000000E+01 0. -1.
        -11    1    1    2    0    0 -0.57381224907E+01 -0.48720190856E+02 -0.18107141379E+03  0.18759914696E+03  0.00000000000E+00 0. -1.
         11    1    1    2    0    0  0.96317920895E+01  0.43589223161E+02 -0.13184417709E+03  0.13919654747E+03  0.00000000000E+00 0.  1.
<mgrwt>
<rscale>  0 0.11659235E+03</rscale>
<asrwt>0</asrwt>
<pdfrwt beam="2">  1        1 0.18106434E+00 0.12516915E+03</pdfrwt>
<pdfrwt beam="1">  1       -1 0.17707871E-02 0.12516915E+03</pdfrwt>
<totfact> 0.93949087E+03</totfact>
</mgrwt>
</event>
<event>
 7    1  0.8165933E-006  0.1270709E+03  0.7546771E-02  0.1246274E+00
         -1   -1    0    0    0  501 -0.00000000000E+00  0.00000000000E+00  0.38562162491E+02  0.38562162491E+02  0.00000000000E+00 0.  1.
          1   -1    0    0  501    0  0.00000000000E+00 -0.00000000000E+00 -0.31924750401E+03  0.31924750401E+03  0.00000000000E+00 0. -1.
         23    2    1    2    0    0 -0.92060233620E+01  0.20906550356E+02 -0.15726073961E+03  0.20218297422E+03  0.12500072051E+03 0.  0.
          5    1    3    3  502    0  0.50579915202E+02  0.71008392845E+01 -0.26652524258E+02  0.57803086334E+02  0.47000000000E+01 0.  1.
         -5    1    3    3    0  502 -0.59785938564E+02  0.13805711071E+02 -0.13060821536E+03  0.14437988789E+03  0.47000000000E+01 0.  1.
        -11    1    1    2    0    0 -0.26483838377E+02 -0.28030963184E+02 -0.11045082680E+03  0.11698937445E+03  0.00000000000E+00 0. -1.
         11    1    1    2    0    0  0.35689861739E+02  0.71244128288E+01 -0.12973775107E+02  0.38637317837E+02  0.00000000000E+00 0.  1.
<mgrwt>
<rscale>  0 0.11809475E+03</rscale>
<asrwt>0</asrwt>
<pdfrwt beam="2">  1        1 0.49115000E-01 0.12707090E+03</pdfrwt>
<pdfrwt beam="1">  1       -1 0.59326404E-02 0.12707090E+03</pdfrwt>
<totfact> 0.10353598E+04</totfact>
</mgrwt>
</event>
<event>
 7    1  0.8165933E-006  0.1698717E+03  0.7546771E-02  0.1184797E+00
          1   -1    0    0  501    0  0.00000000000E+00  0.00000000000E+00  0.10890380273E+04  0.10890380273E+04  0.00000000000E+00 0. -1.
         -1   -1    0    0    0  501 -0.00000000000E+00 -0.00000000000E+00 -0.25635034311E+02  0.25635034311E+02  0.00000000000E+00 0.  1.
         23    2    1    2    0    0  0.82680916603E+02  0.79987368884E+02  0.75029953109E+03  0.76928913300E+03  0.12498908207E+03 0.  0.
          5    1    3    3  502    0  0.11693691102E+02  0.79773826029E+02  0.56603377561E+03  0.57176650030E+03  0.47000000000E+01 0. -1.
         -5    1    3    3    0  502  0.70987225500E+02  0.21354285549E+00  0.18426575548E+03  0.19752263270E+03  0.47000000000E+01 0. -1.
        -11    1    1    2    0    0 -0.68856493968E+02 -0.42511898120E+02  0.28571050157E+03  0.29694943838E+03  0.00000000000E+00 0.  1.
         11    1    1    2    0    0 -0.13824422635E+02 -0.37475470765E+02  0.27392960344E+02  0.48434490259E+02  0.00000000000E+00 0. -1.
<mgrwt>
<rscale>  0 0.16350334E+03</rscale>
<asrwt>0</asrwt>
<pdfrwt beam="1">  1        1 0.16754428E+00 0.16987167E+03</pdfrwt>
<pdfrwt beam="2">  1       -1 0.39438523E-02 0.16987167E+03</pdfrwt>
<totfact> 0.34165803E+03</totfact>
</mgrwt>
</event>
<event>
 7    1  0.8165933E-006  0.1286369E+03  0.7546771E-02  0.1243060E+00
          1   -1    0    0  501    0  0.00000000000E+00  0.00000000000E+00  0.51028174183E+02  0.51028174183E+02  0.00000000000E+00 0. -1.
         -1   -1    0    0    0  501 -0.00000000000E+00 -0.00000000000E+00 -0.25766942676E+03  0.25766942676E+03  0.00000000000E+00 0.  1.
         23    2    1    2    0    0 -0.20265227310E+02 -0.22624056473E+02 -0.91668228196E+02  0.15795735764E+03  0.12499974161E+03 0.  0.
          5    1    3    3  502    0  0.29505648841E+02 -0.32732598163E+02 -0.97030248104E+02  0.10667223323E+03  0.47000000000E+01 0. -1.
         -5    1    3    3    0  502 -0.49770876151E+02  0.10108541690E+02  0.53620199075E+01  0.51285124406E+02  0.47000000000E+01 0. -1.
        -11    1    1    2    0    0  0.53313819663E+02 -0.46081657378E+01 -0.52232449648E+02  0.74778522015E+02  0.00000000000E+00 0. -1.
         11    1    1    2    0    0 -0.33048592353E+02  0.27232222211E+02 -0.62740574731E+02  0.75961721285E+02  0.00000000000E+00 0.  1.
<mgrwt>
<rscale>  0 0.12002220E+03</rscale>
<asrwt>0</asrwt>
<pdfrwt beam="1">  1        1 0.78504884E-02 0.12863694E+03</pdfrwt>
<pdfrwt beam="2">  1       -1 0.39641450E-01 0.12863694E+03</pdfrwt>
<totfact> 0.53127858E+03</totfact>
</mgrwt>
</event>
<event>
 7    1  0.8165933E-006  0.1331178E+03  0.7546771E-02  0.1236001E+00
         -1   -1    0    0    0  501 -0.00000000000E+00  0.00000000000E+00  0.10923788116E+03  0.10923788116E+03  0.00000000000E+00 0.  1.
          1   -1    0    0  501    0  0.00000000000E+00 -0.00000000000E+00 -0.13837258298E+03  0.13837258298E+03  0.00000000000E+00 0. -1.
         23    2    1    2    0    0  0.45215478757E+02  0.71694085650E+01 -0.53031810248E+02  0.14329246252E+03  0.12499806790E+03 0.  0.
          5    1    3    3  502    0  0.41166163137E+02  0.57581143219E+02 -0.15261859356E+01  0.70955340076E+02  0.47000000000E+01 0.  1.
         -5    1    3    3    0  502  0.40493156202E+01 -0.50411734654E+02 -0.51505624312E+02  0.72337122445E+02  0.47000000000E+01 0.  1.
        -11    1    1    2    0    0 -0.69610710532E+01 -0.45246361238E+02  0.20721549907E+02  0.50250097971E+02  0.00000000000E+00 0.  1.
         11    1    1    2    0    0 -0.38254407704E+02  0.38076952673E+02  0.31755585233E+01  0.54067903654E+02  0.00000000000E+00 0. -1.
<mgrwt>
<rscale>  0 0.12440582E+03</rscale>
<asrwt>0</asrwt>
<pdfrwt beam="2">  1        1 0.21288090E-01 0.13311783E+03</pdfrwt>
<pdfrwt beam="1">  1       -1 0.16805828E-01 0.13311783E+03</pdfrwt>
<totfact> 0.59883881E+03</totfact>
</mgrwt>
</event>
<event>
 7    1  0.8165933E-006  0.1356058E+03  0.7546771E-02  0.1232069E+00
         -1   -1    0    0    0  501 -0.00000000000E+00  0.00000000000E+00  0.11650077972E+03  0.11650077972E+03  0.00000000000E+00 0.  1.
          1   -1    0    0  501    0  0.00000000000E+00 -0.00000000000E+00 -0.34320499477E+03  0.34320499477E+03  0.00000000000E+00 0. -1.
         23    2    1    2    0    0 -0.44324346304E+02 -0.28261305454E+02 -0.30210761312E+03  0.33114639450E+03  0.12500230247E+03 0.  0.
          5    1    3    3  502    0  0.39104566060E+02 -0.16913660188E+02 -0.53068421583E+02  0.68217199862E+02  0.47000000000E+01 0.  1.
         -5    1    3    3    0  502 -0.83428912364E+02 -0.11347645266E+02 -0.24903919154E+03  0.26292919464E+03  0.47000000000E+01 0.  1.
        -11    1    1    2    0    0  0.48228904454E+02 -0.37219865760E+01  0.82435891810E+02  0.95580106023E+02  0.00000000000E+00 0.  1.
         11    1    1    2    0    0 -0.39045581499E+01  0.31983292030E+02 -0.70324937425E+01  0.32979273971E+02  0.00000000000E+00 0. -1.
<mgrwt>
<rscale>  0 0.12693942E+03</rscale>
<asrwt>0</asrwt>
<pdfrwt beam="2">  1        1 0.52800767E-01 0.13560577E+03</pdfrwt>
<pdfrwt beam="1">  1       -1 0.17923197E-01 0.13560577E+03</pdfrwt>
<totfact> 0.17477276E+03</totfact>
</mgrwt>
</event>
<event>
 7    1  0.8165933E-006  0.1654483E+03  0.7546771E-02  0.1189823E+00
          1   -1    0    0  501    0  0.00000000000E+00  0.00000000000E+00  0.11259721770E+03  0.11259721770E+03  0.00000000000E+00 0. -1.
         -1   -1    0    0    0  501 -0.00000000000E+00 -0.00000000000E+00 -0.21481737476E+03  0.21481737476E+03  0.00000000000E+00 0.  1.
         23    2    1    2    0    0 -0.84025161232E+01  0.10805950225E+03 -0.27527630740E+02  0.16772276357E+03  0.12500278663E+03 0.  0.
          5    1    3    3  502    0  0.20824382422E+02  0.57020609446E+02 -0.71666030187E+02  0.94037836468E+02  0.47000000000E+01 0.  1.
         -5    1    3    3    0  502 -0.29226898546E+02  0.51038892800E+02  0.44138399447E+02  0.73684927106E+02  0.47000000000E+01 0.  1.
        -11    1    1    2    0    0  0.12655098030E+02 -0.46277420119E+02 -0.84326069601E+02  0.97018746299E+02  0.00000000000E+00 0.  1.
         11    1    1    2    0    0 -0.42525819063E+01 -0.61782082126E+02  0.96335432795E+01  0.62673082586E+02  0.00000000000E+00 0. -1.
<mgrwt>
<rscale>  0 0.15900648E+03</rscale>
<asrwt>0</asrwt>
<pdfrwt beam="1">  1        1 0.17322649E-01 0.16544835E+03</pdfrwt>
<pdfrwt beam="2">  1       -1 0.33048827E-01 0.16544835E+03</pdfrwt>
<totfact> 0.26030444E+03</totfact>
</mgrwt>
</event>
<event>
 7    1  0.8165933E-006  0.1362166E+03  0.7546771E-02  0.1232181E+00
         -2   -1    0    0    0  501 -0.00000000000E+00  0.00000000000E+00  0.27829321911E+03  0.27829321911E+03  0.00000000000E+00 0.  1.
          2   -1    0    0  501    0  0.00000000000E+00 -0.00000000000E+00 -0.60584915891E+02  0.60584915891E+02  0.00000000000E+00 0. -1.
         23    2    1    2    0    0  0.23426581962E+02  0.48666905404E+02  0.55686316600E+02  0.14715948957E+03  0.12505069808E+03 0.  0.
          5    1    3    3  502    0  0.54697764420E+02  0.63742342451E+02  0.69878416847E+02  0.10936185256E+03  0.47000000000E+01 0. -1.
         -5    1    3    3    0  502 -0.31271182459E+02 -0.15075437048E+02 -0.14192100247E+02  0.37797637015E+02  0.47000000000E+01 0. -1.
        -11    1    1    2    0    0  0.13720557201E+02  0.16823418423E+02  0.14537250896E+02  0.26126858995E+02  0.00000000000E+00 0. -1.
         11    1    1    2    0    0 -0.37147139163E+02 -0.65490323827E+02  0.14748473572E+03  0.16559178643E+03  0.00000000000E+00 0.  1.
<mgrwt>
<rscale>  0 0.12686636E+03</rscale>
<asrwt>0</asrwt>
<pdfrwt beam="2">  1        2 0.93207564E-02 0.13621655E+03</pdfrwt>
<pdfrwt beam="1">  1       -2 0.42814341E-01 0.13621655E+03</pdfrwt>
<totfact> 0.34989830E+03</totfact>
</mgrwt>
</event>
<event>
 7    1  0.8165933E-006  0.2039457E+03  0.7546771E-02  0.1150499E+00
          2   -1    0    0  501    0  0.00000000000E+00  0.00000000000E+00  0.14089033122E+03  0.14089033122E+03  0.00000000000E+00 0. -1.
         -2   -1    0    0    0  501 -0.00000000000E+00 -0.00000000000E+00 -0.27022032290E+03  0.27022032290E+03  0.00000000000E+00 0.  1.
         23    2    1    2    0    0 -0.16029375280E+03  0.16561520053E+02 -0.82741577162E+02  0.22009093403E+03  0.12500191805E+03 0.  0.
          5    1    3    3  502    0  0.10049881158E+01 -0.34274339272E+02 -0.17270600528E+02  0.38679503309E+02  0.47000000000E+01 0. -1.
         -5    1    3    3    0  502 -0.16129874092E+03  0.50835859325E+02 -0.65470976634E+02  0.18141143072E+03  0.47000000000E+01 0. -1.
        -11    1    1    2    0    0  0.12816683024E+03  0.25338927228E+02 -0.20921473106E+02  0.13231215229E+03  0.00000000000E+00 0.  1.
         11    1    1    2    0    0  0.32126922562E+02 -0.41900447281E+02 -0.25666941410E+02  0.58707567800E+02  0.00000000000E+00 0. -1.
<mgrwt>
<rscale>  0 0.19910229E+03</rscale>
<asrwt>0</asrwt>
<pdfrwt beam="1">  1        2 0.21675436E-01 0.20394571E+03</pdfrwt>
<pdfrwt beam="2">  1       -2 0.41572357E-01 0.20394571E+03</pdfrwt>
<totfact> 0.13872842E+03</totfact>
</mgrwt>
</event>
<event>
 7    1  0.8165933E-006  0.1369577E+03  0.7546771E-02  0.1229140E+00
          2   -1    0    0  501    0  0.00000000000E+00  0.00000000000E+00  0.96232403314E+03  0.96232403314E+03  0.00000000000E+00 0. -1.
         -2   -1    0    0    0  501 -0.00000000000E+00 -0.00000000000E+00 -0.22733577307E+02  0.22733577307E+02  0.00000000000E+00 0.  1.
         23    2    1    2    0    0  0.40165057754E+02 -0.38938824478E+02  0.78489643472E+03  0.79675581242E+03  0.12501178933E+03 0.  0.
          5    1    3    3  502    0 -0.15271291421E+02 -0.48126600322E+02  0.62781858387E+03  0.62986319646E+03  0.47000000000E+01 0. -1.
         -5    1    3    3    0  502  0.55436349175E+02  0.91877758438E+01  0.15707785085E+03  0.16689261596E+03  0.47000000000E+01 0. -1.
        -11    1    1    2    0    0 -0.96817793232E+01  0.62378180170E+02  0.64485054049E+02  0.90239106866E+02  0.00000000000E+00 0.  1.
         11    1    1    2    0    0 -0.30483278431E+02 -0.23439355691E+02  0.90208967056E+02  0.98062691155E+02  0.00000000000E+00 0. -1.
<mgrwt>
<rscale>  0 0.12887121E+03</rscale>
<asrwt>0</asrwt>
<pdfrwt beam="1">  1        2 0.14804982E+00 0.13695770E+03</pdfrwt>
<pdfrwt beam="2">  1       -2 0.34974742E-02 0.13695770E+03</pdfrwt>
<totfact> 0.90079048E+03</totfact>
</mgrwt>
</event>
<event>
 7    1  0.8165933E-006  0.1802699E+03  0.7546771E-02  0.1171573E+00
         -1   -1    0    0    0  501 -0.00000000000E+00  0.00000000000E+00  0.20667338766E+02  0.20667338766E+02  0.00000000000E+00 0.  1.
          1   -1    0    0  501    0  0.00000000000E+00 -0.00000000000E+00 -0.15061009951E+04  0.15061009951E+04  0.00000000000E+00 0. -1.
         23    2    1    2    0    0 -0.10273247717E+03 -0.79492232395E+02 -0.93888466747E+03  0.95603433285E+03  0.12499699956E+03 0.  0.
          5    1    3    3  502    0 -0.67693388845E+02  0.17350431439E+02 -0.51768397049E+03  0.52240043613E+03  0.47000000000E+01 0. -1.
         -5    1    3    3    0  502 -0.35039088324E+02 -0.96842663834E+02 -0.42120069698E+03  0.43363389672E+03  0.47000000000E+01 0. -1.
        -11    1    1    2    0    0  0.91437402499E+02  0.10158174383E+03 -0.41686493493E+03  0.43869810033E+03  0.00000000000E+00 0.  1.
         11    1    1    2    0    0  0.11295074670E+02 -0.22089511431E+02 -0.12968405396E+03  0.13203590072E+03  0.00000000000E+00 0. -1.
<mgrwt>
<rscale>  0 0.17615949E+03</rscale>
<asrwt>0</asrwt>
<pdfrwt beam="2">  1        1 0.23170779E+00 0.18026987E+03</pdfrwt>
<pdfrwt beam="1">  1       -1 0.31795913E-02 0.18026987E+03</pdfrwt>
<totfact> 0.24489372E+03</totfact>
</mgrwt>
</event>
<event>
 7    1  0.8165933E-006  0.1341060E+03  0.7546771E-02  0.1234285E+00
          1   -1    0    0  501    0  0.00000000000E+00  0.00000000000E+00  0.55840107360E+02  0.55840107360E+02  0.00000000000E+00 0.  1.
         -1   -1    0    0    0  501 -0.00000000000E+00 -0.00000000000E+00 -0.26239111047E+03  0.26239111047E+03  0.00000000000E+00 0. -1.
         23    2    1    2    0    0 -0.28898201788E+02  0.39042253225E+02 -0.84048423633E+02  0.15826739672E+03  0.12500011098E+03 0.  0.
          5    1    3    3  502    0 -0.64524902094E+02  0.53319789512E+02 -0.24638437570E+02  0.87381952083E+02  0.47000000000E+01 0.  1.
         -5    1    3    3    0  502  0.35626700306E+02 -0.14277536287E+02 -0.59409986063E+02  0.70885444635E+02  0.47000000000E+01 0.  1.
        -11    1    1    2    0    0  0.16315243770E+02  0.28939829944E+02 -0.32533364514E+02  0.46498610120E+02  0.00000000000E+00 0.  1.
         11    1    1    2    0    0  0.12582958018E+02 -0.67982083169E+02 -0.89969214962E+02  0.11346521099E+03  0.00000000000E+00 0. -1.
<mgrwt>
<rscale>  0 0.12550323E+03</rscale>
<asrwt>0</asrwt>
<pdfrwt beam="1">  1        1 0.85907861E-02 0.13410605E+03</pdfrwt>
<pdfrwt beam="2">  1       -1 0.40367861E-01 0.13410605E+03</pdfrwt>
<totfact> 0.45747776E+03</totfact>
</mgrwt>
</event>
<event>
 7    1  0.8165933E-006  0.1317800E+03  0.7546771E-02  0.1239039E+00
          1   -1    0    0  501    0  0.00000000000E+00  0.00000000000E+00  0.23241856826E+03  0.23241856826E+03  0.00000000000E+00 0. -1.
         -1   -1    0    0    0  501 -0.00000000000E+00 -0.00000000000E+00 -0.58517225416E+02  0.58517225416E+02  0.00000000000E+00 0.  1.
         23    2    1    2    0    0  0.39848944505E+02 -0.12314713282E+02  0.12256881262E+03  0.17996965537E+03  0.12500548981E+03 0.  0.
          5    1    3    3  502    0  0.72602124164E+02  0.25029543440E+02  0.97292098015E+02  0.12403785234E+03  0.47000000000E+01 0. -1.
         -5    1    3    3    0  502 -0.32753179659E+02 -0.37344256722E+02  0.25276714608E+02  0.55931803022E+02  0.47000000000E+01 0. -1.
        -11    1    1    2    0    0 -0.62477823881E+02 -0.29912047599E+01  0.55138989858E+02  0.83383055745E+02  0.00000000000E+00 0. -1.
         11    1    1    2    0    0  0.22628879376E+02  0.15305918042E+02 -0.38064596352E+01  0.27583082567E+02  0.00000000000E+00 0.  1.
<mgrwt>
<rscale>  0 0.12249344E+03</rscale>
<asrwt>0</asrwt>
<pdfrwt beam="1">  1        1 0.35756702E-01 0.13177998E+03</pdfrwt>
<pdfrwt beam="2">  1       -1 0.90026502E-02 0.13177998E+03</pdfrwt>
<totfact> 0.82179627E+03</totfact>
</mgrwt>
</event>
<event>
 7    1  0.8165933E-006  0.1726206E+03  0.7546771E-02  0.1181487E+00
          1   -1    0    0  501    0  0.00000000000E+00  0.00000000000E+00  0.34749683512E+02  0.34749683512E+02  0.00000000000E+00 0. -1.
         -1   -1    0    0    0  501 -0.00000000000E+00 -0.00000000000E+00 -0.80918835035E+03  0.80918835035E+03  0.00000000000E+00 0.  1.
         23    2    1    2    0    0 -0.79375210032E+02 -0.88763776000E+02 -0.29606011038E+03  0.34270899533E+03  0.12497373575E+03 0.  0.
          5    1    3    3  502    0 -0.52417300034E+02 -0.84388667200E+02 -0.29874747312E+03  0.31486689758E+03  0.47000000000E+01 0. -1.
         -5    1    3    3    0  502 -0.26957909998E+02 -0.43751087996E+01  0.26873627474E+01  0.27842097748E+02  0.47000000000E+01 0. -1.
        -11    1    1    2    0    0 -0.19898831622E+02  0.23563284506E+02 -0.97425422091E+02  0.10219053159E+03  0.00000000000E+00 0.  1.
         11    1    1    2    0    0  0.99274041654E+02  0.65200491494E+02 -0.38095313438E+03  0.39903850695E+03  0.00000000000E+00 0. -1.
<mgrwt>
<rscale>  0 0.16655700E+03</rscale>
<asrwt>0</asrwt>
<pdfrwt beam="1">  1        1 0.53461049E-02 0.17262059E+03</pdfrwt>
<pdfrwt beam="2">  1       -1 0.12449052E+00 0.17262059E+03</pdfrwt>
<totfact> 0.90946143E+02</totfact>
</mgrwt>
</event>
<event>
 7    1  0.8165933E-006  0.1194627E+03  0.7546771E-02  0.1257494E+00
          2   -1    0    0  501    0  0.00000000000E+00  0.00000000000E+00  0.12593418989E+03  0.12593418989E+03  0.00000000000E+00 0. -1.
         -2   -1    0    0    0  501 -0.00000000000E+00 -0.00000000000E+00 -0.99533078876E+02  0.99533078876E+02  0.00000000000E+00 0.  1.
         23    2    1    2    0    0 -0.29782844725E+01  0.35970279502E+01  0.52618867319E+02  0.13053769947E+03  0.11937142453E+03 0.  0.
          5    1    3    3  502    0 -0.18895441804E+02 -0.19917326508E+02  0.83678804962E+02  0.88192800251E+02  0.47000000000E+01 0. -1.
         -5    1    3    3    0  502  0.15917157331E+02  0.23514354458E+02 -0.31059937643E+02  0.42344899215E+02  0.47000000000E+01 0.  1.
        -11    1    1    2    0    0 -0.37742560230E+02  0.21044727240E+02 -0.78959185549E+01  0.43928657243E+02  0.00000000000E+00 0. -1.
         11    1    1    2    0    0  0.40720844703E+02 -0.24641755191E+02 -0.18321837750E+02  0.51000912058E+02  0.00000000000E+00 0.  1.
<mgrwt>
<rscale>  0 0.11167797E+03</rscale>
<asrwt>0</asrwt>
<pdfrwt beam="1">  1        2 0.19374491E-01 0.11946274E+03</pdfrwt>
<pdfrwt beam="2">  1       -2 0.15312781E-01 0.11946274E+03</pdfrwt>
<totfact> 0.88899750E+03</totfact>
</mgrwt>
</event>
<event>
 7    1  0.8165933E-006  0.1369037E+03  0.7546771E-02  0.1229385E+00
          2   -1    0    0  501    0  0.00000000000E+00  0.00000000000E+00  0.92735327613E+03  0.92735327613E+03  0.00000000000E+00 0.  1.
         -2   -1    0    0    0  501 -0.00000000000E+00 -0.00000000000E+00 -0.16338956322E+02  0.16338956322E+02  0.00000000000E+00 0. -1.
         23    2    1    2    0    0 -0.18850907678E+02  0.52548300240E+02  0.57472059742E+03  0.59080148109E+03  0.12500377746E+03 0.  0.
          5    1    3    3  502    0 -0.33347654755E+02  0.37172275718E+02  0.72758111816E+02  0.88372376876E+02  0.47000000000E+01 0.  1.
         -5    1    3    3    0  502  0.14496747077E+02  0.15376024522E+02  0.50196248561E+03  0.50242910422E+03  0.47000000000E+01 0.  1.
        -11    1    1    2    0    0  0.37006260227E+00  0.24278262928E+02  0.45757139113E+02  0.51800451513E+02  0.00000000000E+00 0.  1.
         11    1    1    2    0    0  0.18480845076E+02 -0.76826563168E+02  0.29053658327E+03  0.30109029984E+03  0.00000000000E+00 0. -1.
<mgrwt>
<rscale>  0 0.12870847E+03</rscale>
<asrwt>0</asrwt>
<pdfrwt beam="1">  1        2 0.14266969E+00 0.13690371E+03</pdfrwt>
<pdfrwt beam="2">  1       -2 0.25136863E-02 0.13690371E+03</pdfrwt>
<totfact> 0.15378596E+04</totfact>
</mgrwt>
</event>
<event>
 7    1  0.8165933E-006  0.1772990E+03  0.7546771E-02  0.1176248E+00
          2   -1    0    0  501    0  0.00000000000E+00  0.00000000000E+00  0.42063004228E+03  0.42063004228E+03  0.00000000000E+00 0.  1.
         -2   -1    0    0    0  501 -0.00000000000E+00 -0.00000000000E+00 -0.65991554475E+02  0.65991554475E+02  0.00000000000E+00 0. -1.
         23    2    1    2    0    0  0.47094009863E+02 -0.11659090819E+03  0.17511419473E+03  0.24919853088E+03  0.12499456372E+03 0.  0.
          5    1    3    3  502    0  0.83901276585E+02 -0.45272803500E+02  0.11079450343E+03  0.14624145425E+03  0.47000000000E+01 0. -1.
         -5    1    3    3    0  502 -0.36807266722E+02 -0.71318104694E+02  0.64319691297E+02  0.10295707663E+03  0.47000000000E+01 0. -1.
        -11    1    1    2    0    0  0.63261692202E+01  0.66966728738E+02  0.13798655217E+03  0.15350847454E+03  0.00000000000E+00 0.  1.
         11    1    1    2    0    0 -0.53420179083E+02  0.49624179456E+02  0.41537740911E+02  0.83914591341E+02  0.00000000000E+00 0. -1.
<mgrwt>
<rscale>  0 0.17154319E+03</rscale>
<asrwt>0</asrwt>
<pdfrwt beam="1">  1        2 0.64712312E-01 0.17729898E+03</pdfrwt>
<pdfrwt beam="2">  1       -2 0.10152547E-01 0.17729898E+03</pdfrwt>
<totfact> 0.47747062E+03</totfact>
</mgrwt>
</event>
<event>
 7    1  0.8165933E-006  0.1260360E+03  0.7546771E-02  0.1248194E+00
         -1   -1    0    0    0  501 -0.00000000000E+00  0.00000000000E+00  0.38535441376E+02  0.38535441376E+02  0.00000000000E+00 0.  1.
          1   -1    0    0  501    0  0.00000000000E+00 -0.00000000000E+00 -0.31470952919E+03  0.31470952919E+03  0.00000000000E+00 0. -1.
         23    2    1    2    0    0  0.60359383667E+01 -0.15028709887E+02 -0.17271461694E+03  0.21381160844E+03  0.12499108099E+03 0.  0.
          5    1    3    3  502    0  0.36459321631E+02  0.43546492785E+02 -0.57562370417E+02  0.81000590465E+02  0.47000000000E+01 0.  1.
         -5    1    3    3    0  502 -0.30423383265E+02 -0.58575202671E+02 -0.11515224652E+03  0.13281101798E+03  0.47000000000E+01 0.  1.
        -11    1    1    2    0    0 -0.27703905151E+02  0.27377251088E+02 -0.67119319959E+01  0.39523034662E+02  0.00000000000E+00 0.  1.
         11    1    1    2    0    0  0.21667966785E+02 -0.12348541201E+02 -0.96747538875E+02  0.99910327458E+02  0.00000000000E+00 0. -1.
<mgrwt>
<rscale>  0 0.11696236E+03</rscale>
<asrwt>0</asrwt>
<pdfrwt beam="2">  1        1 0.48416849E-01 0.12603597E+03</pdfrwt>
<pdfrwt beam="1">  1       -1 0.59285296E-02 0.12603597E+03</pdfrwt>
<totfact> 0.10542735E+04</totfact>
</mgrwt>
</event>
<event>
 7    1  0.8165933E-006  0.1264023E+03  0.7546771E-02  0.1246903E+00
          2   -1    0    0  501    0  0.00000000000E+00  0.00000000000E+00  0.24541942372E+03  0.24541942372E+03  0.00000000000E+00 0. -1.
         -2   -1    0    0    0  501 -0.00000000000E+00 -0.00000000000E+00 -0.51822761442E+02  0.51822761442E+02  0.00000000000E+00 0.  1.
         23    2    1    2    0    0 -0.15777199800E+02 -0.10215697162E+02  0.13776553322E+03  0.18696761846E+03  0.12499707080E+03 0.  0.
          5    1    3    3  502    0 -0.62742250816E+02 -0.34875672389E+02  0.91737396625E+02  0.11657933994E+03  0.47000000000E+01 0. -1.
         -5    1    3    3    0  502  0.46965051015E+02  0.24659975227E+02  0.46028136592E+02  0.70388278521E+02  0.47000000000E+01 0. -1.
        -11    1    1    2    0    0 -0.25772539383E+01  0.50587682578E+02  0.27307415794E+02  0.57545206784E+02  0.00000000000E+00 0.  1.
         11    1    1    2    0    0  0.18354453739E+02 -0.40371985416E+02  0.28523713269E+02  0.52729359916E+02  0.00000000000E+00 0. -1.
<mgrwt>
<rscale>  0 0.11772198E+03</rscale>
<asrwt>0</asrwt>
<pdfrwt beam="1">  1        2 0.37756834E-01 0.12640233E+03</pdfrwt>
<pdfrwt beam="2">  1       -2 0.79727327E-02 0.12640233E+03</pdfrwt>
<totfact> 0.12104052E+04</totfact>
</mgrwt>
</event>
<event>
 6    1  0.8165933E-006  0.2879476E+03  0.7546771E-02  0.1091426E+00
         -2   -1    0    0    0  501 -0.00000000000E+00  0.00000000000E+00  0.24427547674E+02  0.24427547674E+02  0.00000000000E+00 0.  1.
          2   -1    0    0  501    0  0.00000000000E+00 -0.00000000000E+00 -0.84856854573E+03  0.84856854573E+03  0.00000000000E+00 0. -1.
          5    1    1    2  502    0  0.47047835379E+02  0.20722850014E+02 -0.46493575405E+03  0.46779298917E+03  0.47000000000E+01 0. -1.
         -5    1    1    2    0  502  0.10646822438E+02  0.24216765588E+02 -0.49278511423E+01  0.27316300637E+02  0.47000000000E+01 0.  1.
        -11    1    1    2    0    0 -0.55174165888E+02  0.71905760522E+01 -0.28901356060E+03  0.29432079637E+03  0.00000000000E+00 0.  1.
         11    1    1    2    0    0 -0.25204919286E+01 -0.52130191655E+02 -0.65263832266E+02  0.83566007225E+02  0.00000000000E+00 0. -1.
<mgrwt>
<rscale>  0 0.28794755E+03</rscale>
<asrwt>0</asrwt>
<pdfrwt beam="2">  1        2 0.13054902E+00 0.28794755E+03</pdfrwt>
<pdfrwt beam="1">  1       -2 0.37580840E-02 0.28794755E+03</pdfrwt>
<totfact> 0.99119843E+03</totfact>
</mgrwt>
</event>
<event>
 7    1  0.8165933E-006  0.1253778E+03  0.7546771E-02  0.1244645E+00
         -4   -1    0    0    0  501 -0.00000000000E+00  0.00000000000E+00  0.79081202153E+02  0.79081202153E+02  0.00000000000E+00 0. -1.
          4   -1    0    0  501    0  0.00000000000E+00 -0.00000000000E+00 -0.18392252917E+03  0.18392252917E+03  0.00000000000E+00 0.  1.
         23    2    1    2    0    0  0.83632689886E+01  0.49702379726E+01 -0.10092597122E+03  0.16095229286E+03  0.12499976550E+03 0.  0.
          5    1    3    3  502    0  0.40443950555E+02  0.53157497549E+02 -0.48129779601E+02  0.82462102608E+02  0.47000000000E+01 0. -1.
         -5    1    3    3    0  502 -0.32080681566E+02 -0.48187259576E+02 -0.52796191623E+02  0.78490190247E+02  0.47000000000E+01 0. -1.
        -11    1    1    2    0    0  0.23796510574E+01 -0.14384048505E+02  0.46979675993E+02  0.49189974050E+02  0.00000000000E+00 0. -1.
         11    1    1    2    0    0 -0.10742920046E+02  0.94138105324E+01 -0.50895031785E+02  0.52861464416E+02  0.00000000000E+00 0.  1.
<mgrwt>
<rscale>  0 0.11906668E+03</rscale>
<asrwt>0</asrwt>
<pdfrwt beam="2">  1        4 0.28295774E-01 0.12537778E+03</pdfrwt>
<pdfrwt beam="1">  1       -4 0.12166339E-01 0.12537778E+03</pdfrwt>
<totfact> 0.10458617E+03</totfact>
</mgrwt>
</event>
<event>
 7    1  0.8165933E-006  0.1357421E+03  0.7546771E-02  0.1231452E+00
         -2   -1    0    0    0  501 -0.00000000000E+00  0.00000000000E+00  0.42938308421E+02  0.42938308421E+02  0.00000000000E+00 0.  1.
          2   -1    0    0  501    0  0.00000000000E+00 -0.00000000000E+00 -0.33892281148E+03  0.33892281148E+03  0.00000000000E+00 0. -1.
         23    2    1    2    0    0  0.51879492288E+02 -0.10469476723E+02 -0.17749020691E+03  0.22344726925E+03  0.12499926769E+03 0.  0.
          5    1    3    3  502    0 -0.35642960690E+01 -0.40571178735E+02 -0.14813812669E+03  0.15370660145E+03  0.47000000000E+01 0. -1.
         -5    1    3    3    0  502  0.55443788357E+02  0.30101702011E+02 -0.29352080219E+02  0.69740667795E+02  0.47000000000E+01 0. -1.
        -11    1    1    2    0    0 -0.18649828139E+02  0.28518723177E+02 -0.45767417478E-01  0.34075442124E+02  0.00000000000E+00 0.  1.
         11    1    1    2    0    0 -0.33229664148E+02 -0.18049246454E+02 -0.11844852873E+03  0.12433840853E+03  0.00000000000E+00 0. -1.
<mgrwt>
<rscale>  0 0.12734328E+03</rscale>
<asrwt>0</asrwt>
<pdfrwt beam="2">  1        2 0.52141973E-01 0.13574207E+03</pdfrwt>
<pdfrwt beam="1">  1       -2 0.66058934E-02 0.13574207E+03</pdfrwt>
<totfact> 0.11535774E+04</totfact>
</mgrwt>
</event>
<event>
 7    1  0.8165933E-006  0.1850333E+03  0.7546771E-02  0.1167692E+00
         -1   -1    0    0    0  501 -0.00000000000E+00  0.00000000000E+00  0.51465490713E+02  0.51465490713E+02  0.00000000000E+00 0.  1.
          1   -1    0    0  501    0  0.00000000000E+00 -0.00000000000E+00 -0.91752395399E+03  0.91752395399E+03  0.00000000000E+00 0. -1.
         23    2    1    2    0    0  0.13303211630E+03 -0.30266869625E+02 -0.73342821812E+03  0.75640879702E+03  0.12499475872E+03 0.  0.
          5    1    3    3  502    0  0.42940562567E+01 -0.53469546648E+02 -0.23347391681E+03  0.23960298656E+03  0.47000000000E+01 0. -1.
         -5    1    3    3    0  502  0.12873806005E+03  0.23202677024E+02 -0.49995430131E+03  0.51680581046E+03  0.47000000000E+01 0. -1.
        -11    1    1    2    0    0  0.13561983943E+02  0.24391931076E+01 -0.25188555073E+02  0.28711328395E+02  0.00000000000E+00 0.  1.
         11    1    1    2    0    0 -0.14659410025E+03  0.27827676517E+02 -0.10744169008E+03  0.18386931928E+03  0.00000000000E+00 0. -1.
<mgrwt>
<rscale>  0 0.18011527E+03</rscale>
<asrwt>0</asrwt>
<pdfrwt beam="2">  1        1 0.14115752E+00 0.18503329E+03</pdfrwt>
<pdfrwt beam="1">  1       -1 0.79177683E-02 0.18503329E+03</pdfrwt>
<totfact> 0.16148528E+03</totfact>
</mgrwt>
</event>
<event>
 7    1  0.8165933E-006  0.1663160E+03  0.7546771E-02  0.1188297E+00
         -2   -1    0    0    0  501 -0.00000000000E+00  0.00000000000E+00  0.40460820188E+03  0.40460820188E+03  0.00000000000E+00 0.  1.
          2   -1    0    0  501    0  0.00000000000E+00 -0.00000000000E+00 -0.61886311404E+02  0.61886311404E+02  0.00000000000E+00 0. -1.
         23    2    1    2    0    0 -0.45721050968E+02 -0.99731424489E+02  0.13665042576E+03  0.21525418699E+03  0.12499701845E+03 0.  0.
          5    1    3    3  502    0 -0.85247164038E+02 -0.73339282063E+02  0.12037785195E+03  0.16479880615E+03  0.47000000000E+01 0.  1.
         -5    1    3    3    0  502  0.39526113070E+02 -0.26392142427E+02  0.16272573811E+02  0.50455380830E+02  0.47000000000E+01 0.  1.
        -11    1    1    2    0    0  0.59171769465E+02  0.22393083273E+02  0.11280385203E+03  0.12933467251E+03  0.00000000000E+00 0.  1.
         11    1    1    2    0    0 -0.13450718497E+02  0.77338341216E+02  0.93267612687E+02  0.12190565379E+03  0.00000000000E+00 0. -1.
<mgrwt>
<rscale>  0 0.16035483E+03</rscale>
<asrwt>0</asrwt>
<pdfrwt beam="2">  1        2 0.95209713E-02 0.16631604E+03</pdfrwt>
<pdfrwt beam="1">  1       -2 0.62247414E-01 0.16631604E+03</pdfrwt>
<totfact> 0.16325498E+03</totfact>
</mgrwt>
</event>
<event>
 7    1  0.8165933E-006  0.1452119E+03  0.7546771E-02  0.1216927E+00
         -2   -1    0    0    0  501 -0.00000000000E+00  0.00000000000E+00  0.17405994028E+03  0.17405994028E+03  0.00000000000E+00 0.  1.
          2   -1    0    0  501    0  0.00000000000E+00 -0.00000000000E+00 -0.10992264623E+03  0.10992264623E+03  0.00000000000E+00 0. -1.
         23    2    1    2    0    0 -0.73192786287E+02  0.10204735814E+02 -0.10885612200E+02  0.14561938480E+03  0.12500075232E+03 0.  0.
          5    1    3    3  502    0 -0.10378117651E+03  0.30088040779E+02 -0.42427703262E+01  0.10824007527E+03  0.47000000000E+01 0.  1.
         -5    1    3    3    0  502  0.30588390220E+02 -0.19883304965E+02 -0.66428418736E+01  0.37379309528E+02  0.47000000000E+01 0.  1.
        -11    1    1    2    0    0  0.20430514920E+02 -0.44339301557E+02  0.14045264113E+02  0.50800089040E+02  0.00000000000E+00 0. -1.
         11    1    1    2    0    0  0.52762271367E+02  0.34134565743E+02  0.60977642137E+02  0.87563112661E+02  0.00000000000E+00 0.  1.
<mgrwt>
<rscale>  0 0.13735913E+03</rscale>
<asrwt>0</asrwt>
<pdfrwt beam="2">  1        2 0.16911176E-01 0.14521194E+03</pdfrwt>
<pdfrwt beam="1">  1       -2 0.26778452E-01 0.14521194E+03</pdfrwt>
<totfact> 0.40812627E+03</totfact>
</mgrwt>
</event>
<event>
 7    1  0.8165933E-006  0.1695125E+03  0.7546771E-02  0.1184868E+00
          2   -1    0    0  501    0  0.00000000000E+00  0.00000000000E+00  0.73821959850E+03  0.73821959850E+03  0.00000000000E+00 0. -1.
         -2   -1    0    0    0  501 -0.00000000000E+00 -0.00000000000E+00 -0.43261638921E+02  0.43261638921E+02  0.00000000000E+00 0.  1.
         23    2    1    2    0    0 -0.96548197586E+02  0.61543835267E+02  0.54945364304E+03  0.57500764140E+03  0.12500113480E+03 0.  0.
          5    1    3    3  502    0 -0.54821809760E+02 -0.31868732613E+02  0.26975849696E+03  0.27715119272E+03  0.47000000000E+01 0. -1.
         -5    1    3    3    0  502 -0.41726387826E+02  0.93412567880E+02  0.27969514608E+03  0.29785644868E+03  0.47000000000E+01 0. -1.
        -11    1    1    2    0    0  0.10339612882E+03 -0.33796086126E+02  0.80072860231E+02  0.13507256508E+03  0.00000000000E+00 0.  1.
         11    1    1    2    0    0 -0.68479312361E+01 -0.27747749141E+02  0.65431456303E+02  0.71401030935E+02  0.00000000000E+00 0. -1.
<mgrwt>
<rscale>  0 0.16343858E+03</rscale>
<asrwt>0</asrwt>
<pdfrwt beam="1">  1        2 0.11357224E+00 0.16951248E+03</pdfrwt>
<pdfrwt beam="2">  1       -2 0.66556373E-02 0.16951248E+03</pdfrwt>
<totfact> 0.48512866E+03</totfact>
</mgrwt>
</event>
<event>
 7    1  0.8165933E-006  0.1597212E+03  0.7546771E-02  0.1197689E+00
         -1   -1    0    0    0  501 -0.00000000000E+00  0.00000000000E+00  0.55309332700E+02  0.55309332700E+02  0.00000000000E+00 0.  1.
          1   -1    0    0  501    0  0.00000000000E+00 -0.00000000000E+00 -0.42828138981E+03  0.42828138981E+03  0.00000000000E+00 0. -1.
         23    2    1    2    0    0 -0.99254976947E+02 -0.58209468986E+01 -0.27925196150E+03  0.32170254610E+03  0.12500174517E+03 0.  0.
          5    1    3    3  502    0 -0.77869173403E+02 -0.32178578573E+02 -0.27441451454E+03  0.28709664728E+03  0.47000000000E+01 0. -1.
         -5    1    3    3    0  502 -0.21385803544E+02  0.26357631674E+02 -0.48374469606E+01  0.34605898829E+02  0.47000000000E+01 0. -1.
        -11    1    1    2    0    0  0.25569511918E+02  0.37319165760E+02 -0.59518276693E+02  0.74759249148E+02  0.00000000000E+00 0.  1.
         11    1    1    2    0    0  0.73685465029E+02 -0.31498218861E+02 -0.34201818914E+02  0.87128927257E+02  0.00000000000E+00 0. -1.
<mgrwt>
<rscale>  0 0.15228828E+03</rscale>
<asrwt>0</asrwt>
<pdfrwt beam="2">  1        1 0.65889443E-01 0.15972123E+03</pdfrwt>
<pdfrwt beam="1">  1       -1 0.85091283E-02 0.15972123E+03</pdfrwt>
<totfact> 0.42239739E+03</totfact>
</mgrwt>
</event>
<event>
 7    1  0.8165933E-006  0.1622379E+03  0.7546771E-02  0.1193062E+00
         -1   -1    0    0    0  501 -0.00000000000E+00  0.00000000000E+00  0.15104811482E+03  0.15104811482E+03  0.00000000000E+00 0.  1.
          1   -1    0    0  501    0  0.00000000000E+00 -0.00000000000E+00 -0.15321370194E+03  0.15321370194E+03  0.00000000000E+00 0. -1.
         23    2    1    2    0    0 -0.63694454788E+02  0.81466977319E+02 -0.21094755775E+02  0.16360351502E+03  0.12500907744E+03 0.  0.
          5    1    3    3  502    0  0.27769266371E+02  0.48187725159E+02 -0.33929714239E+02  0.65318485279E+02  0.47000000000E+01 0. -1.
         -5    1    3    3    0  502 -0.91463721159E+02  0.33279252160E+02  0.12834958465E+02  0.98285029741E+02  0.47000000000E+01 0. -1.
        -11    1    1    2    0    0  0.81863731669E+02 -0.35721349733E+02  0.19550748502E+02  0.91432582576E+02  0.00000000000E+00 0.  1.
         11    1    1    2    0    0 -0.18169276881E+02 -0.45745627586E+02 -0.62157984245E+00  0.49225719163E+02  0.00000000000E+00 0. -1.
<mgrwt>
<rscale>  0 0.15619363E+03</rscale>
<asrwt>0</asrwt>
<pdfrwt beam="2">  1        1 0.23571339E-01 0.16223785E+03</pdfrwt>
<pdfrwt beam="1">  1       -1 0.23238172E-01 0.16223785E+03</pdfrwt>
<totfact> 0.31617425E+03</totfact>
</mgrwt>
</event>
<event>
 7    1  0.8165933E-006  0.1634218E+03  0.7546771E-02  0.1191882E+00
          1   -1    0    0  501    0  0.00000000000E+00  0.00000000000E+00  0.29387409542E+03  0.29387409542E+03  0.00000000000E+00 0. -1.
         -1   -1    0    0    0  501 -0.00000000000E+00 -0.00000000000E+00 -0.97862418346E+02  0.97862418346E+02  0.00000000000E+00 0.  1.
         23    2    1    2    0    0 -0.65912278548E+02  0.82084945065E+02  0.19143726745E+03  0.25170404650E+03  0.12499733192E+03 0.  0.
          5    1    3    3  502    0  0.29585222225E+02 -0.20799766755E+01  0.67966505664E+02  0.74304424964E+02  0.47000000000E+01 0.  1.
         -5    1    3    3    0  502 -0.95497500773E+02  0.84164921740E+02  0.12347076179E+03  0.17739962154E+03  0.47000000000E+01 0.  1.
        -11    1    1    2    0    0  0.39607764352E+02  0.87455603701E+01  0.18263819781E+02  0.44484007645E+02  0.00000000000E+00 0.  1.
         11    1    1    2    0    0  0.26304514196E+02 -0.90830505435E+02 -0.13689410161E+02  0.95548459617E+02  0.00000000000E+00 0. -1.
<mgrwt>
<rscale>  0 0.15721059E+03</rscale>
<asrwt>0</asrwt>
<pdfrwt beam="1">  1        1 0.45211399E-01 0.16342185E+03</pdfrwt>
<pdfrwt beam="2">  1       -1 0.15055757E-01 0.16342185E+03</pdfrwt>
<totfact> 0.28112119E+03</totfact>
</mgrwt>
</event>
<event>
 7    1  0.8165933E-006  0.1263675E+03  0.7546771E-02  0.1248375E+00
          2   -1    0    0  501    0  0.00000000000E+00  0.00000000000E+00  0.93029086065E+03  0.93029086065E+03  0.00000000000E+00 0. -1.
         -2   -1    0    0    0  501 -0.00000000000E+00 -0.00000000000E+00 -0.13481625788E+02  0.13481625788E+02  0.00000000000E+00 0.  1.
         23    2    1    2    0    0  0.25174331559E+01 -0.18392817332E+02  0.62627520535E+03  0.63889699847E+03  0.12499643441E+03 0.  0.
          5    1    3    3  502    0 -0.36152571791E+02  0.36705417528E+02  0.17118732008E+03  0.17883367881E+03  0.47000000000E+01 0. -1.
         -5    1    3    3    0  502  0.38670004947E+02 -0.55098234860E+02  0.45508788528E+03  0.46006331966E+03  0.47000000000E+01 0. -1.
        -11    1    1    2    0    0  0.35679706903E+02 -0.16700197089E+02  0.10222573982E+03  0.10955382216E+03  0.00000000000E+00 0. -1.
         11    1    1    2    0    0 -0.38197140059E+02  0.35093014421E+02  0.18830828969E+03  0.19532166581E+03  0.00000000000E+00 0.  1.
<mgrwt>
<rscale>  0 0.11685644E+03</rscale>
<asrwt>0</asrwt>
<pdfrwt beam="1">  1        2 0.14312162E+00 0.12636749E+03</pdfrwt>
<pdfrwt beam="2">  1       -2 0.20740970E-02 0.12636749E+03</pdfrwt>
<totfact> 0.20143212E+04</totfact>
</mgrwt>
</event>
<event>
 7    1  0.8165933E-006  0.1420568E+03  0.7546771E-02  0.1223074E+00
          2   -1    0    0  501    0  0.00000000000E+00  0.00000000000E+00  0.13300933121E+03  0.13300933121E+03  0.00000000000E+00 0. -1.
         -2   -1    0    0    0  501 -0.00000000000E+00 -0.00000000000E+00 -0.12528743145E+03  0.12528743145E+03  0.00000000000E+00 0.  1.
         23    2    1    2    0    0 -0.12042853350E+02 -0.66411021956E+02  0.33926057842E+02  0.14605170910E+03  0.12499868070E+03 0.  0.
          5    1    3    3  502    0  0.40260597838E+02 -0.77120997854E+01 -0.24499166906E+02  0.47986366819E+02  0.47000000000E+01 0.  1.
         -5    1    3    3    0  502 -0.52303451188E+02 -0.58698922171E+02  0.58425224749E+02  0.98065342283E+02  0.47000000000E+01 0.  1.
        -11    1    1    2    0    0 -0.18571584163E+02  0.17473705377E+02 -0.44842957189E+02  0.51586092383E+02  0.00000000000E+00 0.  1.
         11    1    1    2    0    0  0.30614437512E+02  0.48937316579E+02  0.18638799114E+02  0.60658961173E+02  0.00000000000E+00 0. -1.
<mgrwt>
<rscale>  0 0.13299823E+03</rscale>
<asrwt>0</asrwt>
<pdfrwt beam="1">  1        2 0.20462974E-01 0.14205676E+03</pdfrwt>
<pdfrwt beam="2">  1       -2 0.19274989E-01 0.14205676E+03</pdfrwt>
<totfact> 0.57798167E+03</totfact>
</mgrwt>
</event>
<event>
 7    1  0.8165933E-006  0.1601415E+03  0.7546771E-02  0.1196409E+00
         -2   -1    0    0    0  501 -0.00000000000E+00  0.00000000000E+00  0.30263127544E+02  0.30263127544E+02  0.00000000000E+00 0.  1.
          2   -1    0    0  501    0  0.00000000000E+00 -0.00000000000E+00 -0.82090444430E+03  0.82090444430E+03  0.00000000000E+00 0. -1.
         23    2    1    2    0    0  0.52652560070E+02 -0.85159044828E+02 -0.27500564048E+03  0.31823481008E+03  0.12498374715E+03 0.  0.
          5    1    3    3  502    0 -0.31306804283E+02  0.77788308698E+00 -0.23393520195E+02  0.39370901483E+02  0.47000000000E+01 0. -1.
         -5    1    3    3    0  502  0.83959364353E+02 -0.85936927915E+02 -0.25161212029E+03  0.27886390859E+03  0.47000000000E+01 0. -1.
        -11    1    1    2    0    0  0.15623172591E+02  0.52120936438E+02 -0.15133154341E+03  0.16081639086E+03  0.00000000000E+00 0.  1.
         11    1    1    2    0    0 -0.68275732660E+02  0.33038108390E+02 -0.36430413287E+03  0.37211637091E+03  0.00000000000E+00 0. -1.
<mgrwt>
<rscale>  0 0.15335540E+03</rscale>
<asrwt>0</asrwt>
<pdfrwt beam="2">  1        2 0.12629299E+00 0.16014148E+03</pdfrwt>
<pdfrwt beam="1">  1       -2 0.46558659E-02 0.16014148E+03</pdfrwt>
<totfact> 0.72954914E+03</totfact>
</mgrwt>
</event>
<event>
 7    1  0.8165933E-006  0.1369073E+03  0.7546771E-02  0.1229235E+00
         -2   -1    0    0    0  501 -0.00000000000E+00  0.00000000000E+00  0.97465906865E+02  0.97465906865E+02  0.00000000000E+00 0.  1.
          2   -1    0    0  501    0  0.00000000000E+00 -0.00000000000E+00 -0.16415538006E+03  0.16415538006E+03  0.00000000000E+00 0. -1.
         23    2    1    2    0    0  0.95579089927E+00  0.55844592805E+02 -0.71077249427E+02  0.15425819369E+03  0.12499633136E+03 0.  0.
          5    1    3    3  502    0  0.21460877756E+02 -0.50612138519E+01  0.28075488032E+02  0.36007057474E+02  0.47000000000E+01 0. -1.
         -5    1    3    3    0  502 -0.20505086857E+02  0.60905806657E+02 -0.99152737459E+02  0.11825113622E+03  0.47000000000E+01 0. -1.
        -11    1    1    2    0    0  0.19593532429E+02 -0.83030219075E+01  0.39446455746E+02  0.44820414509E+02  0.00000000000E+00 0.  1.
         11    1    1    2    0    0 -0.20549323328E+02 -0.47541570898E+02 -0.35058679516E+02  0.62542678725E+02  0.00000000000E+00 0. -1.
<mgrwt>
<rscale>  0 0.12880805E+03</rscale>
<asrwt>0</asrwt>
<pdfrwt beam="2">  1        2 0.25254674E-01 0.13690732E+03</pdfrwt>
<pdfrwt beam="1">  1       -2 0.14994755E-01 0.13690732E+03</pdfrwt>
<totfact> 0.69156122E+03</totfact>
</mgrwt>
</event>
<event>
 7    1  0.8165933E-006  0.2373440E+03  0.7546771E-02  0.1124222E+00
         -1   -1    0    0    0  501 -0.00000000000E+00  0.00000000000E+00  0.69613300162E+02  0.69613300162E+02  0.00000000000E+00 0.  1.
          1   -1    0    0  501    0  0.00000000000E+00 -0.00000000000E+00 -0.76521886753E+03  0.76521886753E+03  0.00000000000E+00 0. -1.
         23    2    1    2    0    0  0.18986402397E+03 -0.68253175310E+02 -0.39832304213E+03  0.46367380592E+03  0.12500123547E+03 0.  0.
          5    1    3    3  502    0  0.69136094148E+02 -0.10882811016E+01 -0.40951444401E+02  0.80499035202E+02  0.47000000000E+01 0.  1.
         -5    1    3    3    0  502  0.12072792982E+03 -0.67164894208E+02 -0.35737159773E+03  0.38317477072E+03  0.47000000000E+01 0.  1.
        -11    1    1    2    0    0 -0.92142256163E+02  0.81443410781E+02 -0.15095632828E+03  0.19470756939E+03  0.00000000000E+00 0.  1.
         11    1    1    2    0    0 -0.97721767807E+02 -0.13190235472E+02 -0.14632619696E+03  0.17645079238E+03  0.00000000000E+00 0. -1.
<mgrwt>
<rscale>  0 0.23346905E+03</rscale>
<asrwt>0</asrwt>
<pdfrwt beam="2">  1        1 0.11772598E+00 0.23734395E+03</pdfrwt>
<pdfrwt beam="1">  1       -1 0.10709738E-01 0.23734395E+03</pdfrwt>
<totfact> 0.13511444E+03</totfact>
</mgrwt>
</event>
<event>
 7    1  0.8165933E-006  0.1253907E+03  0.7546771E-02  0.1241651E+00
          3   -1    0    0  501    0  0.00000000000E+00  0.00000000000E+00  0.31494054923E+03  0.31494054923E+03  0.00000000000E+00 0. -1.
         -3   -1    0    0    0  501 -0.00000000000E+00 -0.00000000000E+00 -0.46423217247E+02  0.46423217247E+02  0.00000000000E+00 0.  1.
         23    2    1    2    0    0  0.36060175884E+02 -0.47254704265E+02  0.18979456303E+03  0.22747485406E+03  0.11040602209E+03 0.  0.
          5    1    3    3  502    0  0.74441904655E+02 -0.28425238920E+02  0.14404174270E+03  0.16468061518E+03  0.47000000000E+01 0. -1.
         -5    1    3    3    0  502 -0.38381728770E+02 -0.18829465345E+02  0.45752820336E+02  0.62794238886E+02  0.47000000000E+01 0.  1.
        -11    1    1    2    0    0 -0.60317749310E+02  0.49138349841E+02  0.38318207379E+02  0.86724237233E+02  0.00000000000E+00 0. -1.
         11    1    1    2    0    0  0.24257573425E+02 -0.18836455760E+01  0.40404561573E+02  0.47164675182E+02  0.00000000000E+00 0.  1.
<mgrwt>
<rscale>  0 0.12088058E+03</rscale>
<asrwt>0</asrwt>
<pdfrwt beam="1">  1        3 0.48452391E-01 0.12539072E+03</pdfrwt>
<pdfrwt beam="2">  1       -3 0.71420336E-02 0.12539072E+03</pdfrwt>
<totfact> 0.12419217E+03</totfact>
</mgrwt>
</event>
<event>
 7    1  0.8165933E-006  0.1336490E+03  0.7546771E-02  0.1237511E+00
          1   -1    0    0  501    0  0.00000000000E+00  0.00000000000E+00  0.29038723059E+03  0.29038723059E+03  0.00000000000E+00 0. -1.
         -1   -1    0    0    0  501 -0.00000000000E+00 -0.00000000000E+00 -0.56749555619E+02  0.56749555619E+02  0.00000000000E+00 0.  1.
         23    2    1    2    0    0 -0.47681807231E+02 -0.48797315601E+01  0.20677044148E+03  0.24620329624E+03  0.12475849105E+03 0.  0.
          5    1    3    3  502    0 -0.48414382638E+02 -0.59742795123E+02  0.13856338121E+03  0.15854038800E+03  0.47000000000E+01 0. -1.
         -5    1    3    3    0  502  0.73257540684E+00  0.54863063563E+02  0.68207060270E+02  0.87662908239E+02  0.47000000000E+01 0. -1.
        -11    1    1    2    0    0 -0.21031428381E+02 -0.10558749501E+02  0.18654584048E+02  0.30030012933E+02  0.00000000000E+00 0. -1.
         11    1    1    2    0    0  0.68713235612E+02  0.15438481062E+02  0.82126494522E+01  0.70903477043E+02  0.00000000000E+00 0.  1.
<mgrwt>
<rscale>  0 0.12345066E+03</rscale>
<asrwt>0</asrwt>
<pdfrwt beam="1">  1        1 0.44674958E-01 0.13364897E+03</pdfrwt>
<pdfrwt beam="2">  1       -1 0.87307010E-02 0.13364897E+03</pdfrwt>
<totfact> 0.65448221E+03</totfact>
</mgrwt>
</event>
<event>
 7    1  0.8165933E-006  0.1361973E+03  0.7546771E-02  0.1230472E+00
         -3   -1    0    0    0  501 -0.00000000000E+00  0.00000000000E+00  0.42869495793E+02  0.42869495793E+02  0.00000000000E+00 0.  1.
          3   -1    0    0  501    0  0.00000000000E+00 -0.00000000000E+00 -0.55623830236E+03  0.55623830236E+03  0.00000000000E+00 0. -1.
         23    2    1    2    0    0  0.40781208089E+02 -0.35533476905E+02 -0.46098092721E+03  0.48067985937E+03  0.12499590811E+03 0.  0.
          5    1    3    3  502    0 -0.39612065382E+02 -0.10135937271E+02 -0.25107870571E+03  0.25442967478E+03  0.47000000000E+01 0.  1.
         -5    1    3    3    0  502  0.80393273471E+02 -0.25397539634E+02 -0.20990222149E+03  0.22625018459E+03  0.47000000000E+01 0.  1.
        -11    1    1    2    0    0 -0.66392906599E+01  0.61941089207E+02 -0.37797153766E+02  0.72865654086E+02  0.00000000000E+00 0. -1.
         11    1    1    2    0    0 -0.34141917429E+02 -0.26407612302E+02 -0.14590725595E+02  0.45562284695E+02  0.00000000000E+00 0.  1.
<mgrwt>
<rscale>  0 0.12798774E+03</rscale>
<asrwt>0</asrwt>
<pdfrwt beam="2">  1        3 0.85575121E-01 0.13619733E+03</pdfrwt>
<pdfrwt beam="1">  1       -3 0.65953073E-02 0.13619733E+03</pdfrwt>
<totfact> 0.43705271E+02</totfact>
</mgrwt>
</event>
<event>
 7    1  0.8165933E-006  0.1904559E+03  0.7546771E-02  0.1162817E+00
         -1   -1    0    0    0  501 -0.00000000000E+00  0.00000000000E+00  0.13432136270E+03  0.13432136270E+03  0.00000000000E+00 0.  1.
          1   -1    0    0  501    0  0.00000000000E+00 -0.00000000000E+00 -0.31382912242E+03  0.31382912242E+03  0.00000000000E+00 0. -1.
         23    2    1    2    0    0 -0.46021654430E+02  0.13612812293E+03 -0.20032653333E+03  0.27641301021E+03  0.12499829490E+03 0.  0.
          5    1    3    3  502    0  0.42675789501E+01 -0.22054651857E+02 -0.36730719848E+02  0.43311149595E+02  0.47000000000E+01 0.  1.
         -5    1    3    3    0  502 -0.50289233380E+02  0.15818277479E+03 -0.16359581348E+03  0.23310186062E+03  0.47000000000E+01 0.  1.
        -11    1    1    2    0    0 -0.85333403303E+01 -0.10860927449E+03  0.75121406992E+01  0.10920267698E+03  0.00000000000E+00 0.  1.
         11    1    1    2    0    0  0.54554994760E+02 -0.27518848446E+02  0.13306632915E+02  0.62534797934E+02  0.00000000000E+00 0. -1.
<mgrwt>
<rscale>  0 0.18525005E+03</rscale>
<asrwt>0</asrwt>
<pdfrwt beam="2">  1        1 0.48281403E-01 0.19045585E+03</pdfrwt>
<pdfrwt beam="1">  1       -1 0.20664825E-01 0.19045585E+03</pdfrwt>
<totfact> 0.15684543E+03</totfact>
</mgrwt>
</event>
<event>
 7    1  0.8165933E-006  0.1432039E+03  0.7546771E-02  0.1219414E+00
         -1   -1    0    0    0  501 -0.00000000000E+00  0.00000000000E+00  0.59127148557E+02  0.59127148557E+02  0.00000000000E+00 0. -1.
          1   -1    0    0  501    0  0.00000000000E+00 -0.00000000000E+00 -0.39201349010E+03  0.39201349010E+03  0.00000000000E+00 0.  1.
         23    2    1    2    0    0 -0.76363945683E+01  0.69456334286E+02 -0.29850716801E+03  0.33107988445E+03  0.12499945455E+03 0.  0.
          5    1    3    3  502    0 -0.43481654591E+02  0.73589648677E+02 -0.11153354213E+03  0.14059840575E+03  0.47000000000E+01 0. -1.
         -5    1    3    3    0  502  0.35845260023E+02 -0.41333143908E+01 -0.18697362588E+03  0.19048147870E+03  0.47000000000E+01 0. -1.
        -11    1    1    2    0    0  0.48706011414E+01 -0.25075763280E+02 -0.62451846173E+02  0.67474067240E+02  0.00000000000E+00 0.  1.
         11    1    1    2    0    0  0.27657934269E+01 -0.44380571006E+02  0.28072672646E+02  0.52586686962E+02  0.00000000000E+00 0. -1.
<mgrwt>
<rscale>  0 0.13557264E+03</rscale>
<asrwt>0</asrwt>
<pdfrwt beam="2">  1        1 0.60309767E-01 0.14320391E+03</pdfrwt>
<pdfrwt beam="1">  1       -1 0.90964844E-02 0.14320391E+03</pdfrwt>
<totfact> 0.42475002E+03</totfact>
</mgrwt>
</event>
<event>
 7    1  0.8165933E-006  0.1467656E+03  0.7546771E-02  0.1213897E+00
          2   -1    0    0  501    0  0.00000000000E+00  0.00000000000E+00  0.76761009616E+03  0.76761009616E+03  0.00000000000E+00 0. -1.
         -2   -1    0    0    0  501 -0.00000000000E+00 -0.00000000000E+00 -0.36258429279E+02  0.36258429279E+02  0.00000000000E+00 0.  1.
         23    2    1    2    0    0 -0.30444877578E+02  0.70692312329E+02  0.62963054039E+03  0.64650968523E+03  0.12496344315E+03 0.  0.
          5    1    3    3  502    0  0.39789424335E+02 -0.76967794986E+01  0.15044470561E+03  0.15587860068E+03  0.47000000000E+01 0. -1.
         -5    1    3    3    0  502 -0.70234301913E+02  0.78389091827E+02  0.47918583477E+03  0.49063108455E+03  0.47000000000E+01 0. -1.
        -11    1    1    2    0    0  0.17908435099E+02 -0.39490695929E+02  0.11368043876E+03  0.12166950838E+03  0.00000000000E+00 0. -1.
         11    1    1    2    0    0  0.12536442479E+02 -0.31201616400E+02 -0.11959312267E+02  0.35689331822E+02  0.00000000000E+00 0.  1.
<mgrwt>
<rscale>  0 0.13957856E+03</rscale>
<asrwt>0</asrwt>
<pdfrwt beam="1">  1        2 0.11809385E+00 0.14676565E+03</pdfrwt>
<pdfrwt beam="2">  1       -2 0.55782204E-02 0.14676565E+03</pdfrwt>
<totfact> 0.60150150E+03</totfact>
</mgrwt>
</event>
<event>
 7    1  0.8165933E-006  0.1627790E+03  0.7546771E-02  0.1192941E+00
         -1   -1    0    0    0  501 -0.00000000000E+00  0.00000000000E+00  0.25238684313E+03  0.25238684313E+03  0.00000000000E+00 0.  1.
          1   -1    0    0  501    0  0.00000000000E+00 -0.00000000000E+00 -0.91341539616E+02  0.91341539616E+02  0.00000000000E+00 0. -1.
         23    2    1    2    0    0  0.47176459713E+02 -0.92980631889E+02  0.64896449102E+02  0.17523854246E+03  0.12500392554E+03 0.  0.
          5    1    3    3  502    0  0.36408750258E+02 -0.11048719615E+03  0.10499751203E+02  0.11689889813E+03  0.47000000000E+01 0.  1.
         -5    1    3    3    0  502  0.10767709455E+02  0.17506564259E+02  0.54396697899E+02  0.58339644337E+02  0.47000000000E+01 0.  1.
        -11    1    1    2    0    0 -0.11992937884E+02  0.52313971519E+02 -0.50326039193E+01  0.53906486413E+02  0.00000000000E+00 0. -1.
         11    1    1    2    0    0 -0.35183521829E+02  0.40666660370E+02  0.10118145833E+03  0.11458335387E+03  0.00000000000E+00 0.  1.
<mgrwt>
<rscale>  0 0.15629802E+03</rscale>
<asrwt>0</asrwt>
<pdfrwt beam="2">  1        1 0.14052545E-01 0.16277898E+03</pdfrwt>
<pdfrwt beam="1">  1       -1 0.38828745E-01 0.16277898E+03</pdfrwt>
<totfact> 0.25823933E+03</totfact>
</mgrwt>
</event>
<event>
 7    1  0.8165933E-006  0.1650627E+03  0.7546771E-02  0.1188783E+00
          2   -1    0    0  501    0  0.00000000000E+00  0.00000000000E+00  0.13662400262E+04  0.13662400262E+04  0.00000000000E+00 0. -1.
         -2   -1    0    0    0  501 -0.00000000000E+00 -0.00000000000E+00 -0.17903948581E+02  0.17903948581E+02  0.00000000000E+00 0.  1.
         23    2    1    2    0    0 -0.80237885329E+02  0.71988204109E+02  0.79957041184E+03  0.81643036102E+03  0.12500108452E+03 0.  0.
          5    1    3    3  502    0 -0.31191703755E+01  0.73192138522E+02  0.22463575474E+03  0.23632632243E+03  0.47000000000E+01 0. -1.
         -5    1    3    3    0  502 -0.77118714954E+02 -0.12039344133E+01  0.57493465709E+03  0.58010403858E+03  0.47000000000E+01 0. -1.
        -11    1    1    2    0    0  0.78875202641E+02 -0.14700394145E+02  0.40646648999E+03  0.41430955416E+03  0.00000000000E+00 0. -1.
         11    1    1    2    0    0  0.13626826884E+01 -0.57287809964E+02  0.14229917584E+03  0.15340405966E+03  0.00000000000E+00 0.  1.
<mgrwt>
<rscale>  0 0.15992387E+03</rscale>
<asrwt>0</asrwt>
<pdfrwt beam="1">  1        2 0.21019069E+00 0.16506269E+03</pdfrwt>
<pdfrwt beam="2">  1       -2 0.27544547E-02 0.16506269E+03</pdfrwt>
<totfact> 0.76336832E+03</totfact>
</mgrwt>
</event>
<event>
 7    1  0.8165933E-006  0.1524282E+03  0.7546771E-02  0.1206466E+00
          2   -1    0    0  501    0  0.00000000000E+00  0.00000000000E+00  0.33056598845E+03  0.33056598845E+03  0.00000000000E+00 0. -1.
         -2   -1    0    0    0  501 -0.00000000000E+00 -0.00000000000E+00 -0.69084137322E+02  0.69084137322E+02  0.00000000000E+00 0.  1.
         23    2    1    2    0    0 -0.32816029966E+02  0.80866166165E+02  0.21948060435E+03  0.26721915553E+03  0.12497244794E+03 0.  0.
          5    1    3    3  502    0  0.46850839752E+02  0.43682361673E+02  0.86618439970E+02  0.10783317694E+03  0.47000000000E+01 0.  1.
         -5    1    3    3    0  502 -0.79666869718E+02  0.37183804493E+02  0.13286216438E+03  0.15938597859E+03  0.47000000000E+01 0.  1.
        -11    1    1    2    0    0 -0.15456125036E+02 -0.65286375657E+01 -0.18607163918E+02  0.25054769180E+02  0.00000000000E+00 0.  1.
         11    1    1    2    0    0  0.48272155001E+02 -0.74337528600E+02  0.60608410695E+02  0.10737620106E+03  0.00000000000E+00 0. -1.
<mgrwt>
<rscale>  0 0.14522491E+03</rscale>
<asrwt>0</asrwt>
<pdfrwt beam="1">  1        2 0.50856305E-01 0.15242815E+03</pdfrwt>
<pdfrwt beam="2">  1       -2 0.10628329E-01 0.15242815E+03</pdfrwt>
<totfact> 0.57051121E+03</totfact>
</mgrwt>
</event>
<event>
 7    1  0.8165933E-006  0.1285944E+03  0.7546771E-02  0.1243315E+00
         -2   -1    0    0    0  501 -0.00000000000E+00  0.00000000000E+00  0.38168099434E+03  0.38168099434E+03  0.00000000000E+00 0.  1.
          2   -1    0    0  501    0  0.00000000000E+00 -0.00000000000E+00 -0.35114784422E+02  0.35114784422E+02  0.00000000000E+00 0. -1.
         23    2    1    2    0    0 -0.29689616369E+02  0.53611503815E+01  0.15010946984E+03  0.19765970826E+03  0.12500516822E+03 0.  0.
          5    1    3    3  502    0  0.25457335004E+02  0.50018001900E+02  0.79641907407E+02  0.97543835454E+02  0.47000000000E+01 0. -1.
         -5    1    3    3    0  502 -0.55146951373E+02 -0.44656851519E+02  0.70467562431E+02  0.10011587281E+03  0.47000000000E+01 0. -1.
        -11    1    1    2    0    0 -0.77141652219E+00  0.38853337222E+02  0.51227115919E+02  0.64299255844E+02  0.00000000000E+00 0. -1.
         11    1    1    2    0    0  0.30461032891E+02 -0.44214487603E+02  0.14522962416E+03  0.15483681465E+03  0.00000000000E+00 0.  1.
<mgrwt>
<rscale>  0 0.11986812E+03</rscale>
<asrwt>0</asrwt>
<pdfrwt beam="2">  1        2 0.54022748E-02 0.12859435E+03</pdfrwt>
<pdfrwt beam="1">  1       -2 0.58720150E-01 0.12859435E+03</pdfrwt>
<totfact> 0.37243990E+03</totfact>
</mgrwt>
</event>
<event>
 7    1  0.8165933E-006  0.1324193E+03  0.7546771E-02  0.1237927E+00
         -2   -1    0    0    0  501 -0.00000000000E+00  0.00000000000E+00  0.54441108810E+02  0.54441108810E+02  0.00000000000E+00 0.  1.
          2   -1    0    0  501    0  0.00000000000E+00 -0.00000000000E+00 -0.36162285036E+03  0.36162285036E+03  0.00000000000E+00 0. -1.
         23    2    1    2    0    0 -0.25963124477E+02  0.35143415295E+02 -0.28524737145E+03  0.31448519906E+03  0.12500293611E+03 0.  0.
          5    1    3    3  502    0  0.47979942012E+02 -0.24654621664E+01 -0.12454118440E+03  0.13356927023E+03  0.47000000000E+01 0. -1.
         -5    1    3    3    0  502 -0.73943066490E+02  0.37608877461E+02 -0.16070618705E+03  0.18091592883E+03  0.47000000000E+01 0. -1.
        -11    1    1    2    0    0 -0.10899138966E+02 -0.24891016299E+02  0.27770554789E+02  0.38853026084E+02  0.00000000000E+00 0.  1.
         11    1    1    2    0    0  0.36862263443E+02 -0.10252398995E+02 -0.49704924887E+02  0.62725734028E+02  0.00000000000E+00 0. -1.
<mgrwt>
<rscale>  0 0.12318904E+03</rscale>
<asrwt>0</asrwt>
<pdfrwt beam="2">  1        2 0.55634283E-01 0.13241932E+03</pdfrwt>
<pdfrwt beam="1">  1       -2 0.83755554E-02 0.13241932E+03</pdfrwt>
<totfact> 0.74648502E+03</totfact>
</mgrwt>
</event>
<event>
 7    1  0.8165933E-006  0.1602150E+03  0.7546771E-02  0.1196359E+00
          1   -1    0    0  501    0  0.00000000000E+00  0.00000000000E+00  0.46801975544E+03  0.46801975544E+03  0.00000000000E+00 0. -1.
         -1   -1    0    0    0  501 -0.00000000000E+00 -0.00000000000E+00 -0.68021053796E+02  0.68021053796E+02  0.00000000000E+00 0.  1.
         23    2    1    2    0    0 -0.83875784710E+02  0.54807712221E+02  0.36242517257E+03  0.39625856618E+03  0.12501925044E+03 0.  0.
          5    1    3    3  502    0 -0.52440862548E+02 -0.32003452123E+02  0.20104554555E+03  0.21027521584E+03  0.47000000000E+01 0. -1.
         -5    1    3    3    0  502 -0.31434922162E+02  0.86811164344E+02  0.16137962703E+03  0.18598335034E+03  0.47000000000E+01 0. -1.
        -11    1    1    2    0    0  0.48649684976E+02 -0.45143156140E+02  0.65922770344E+02  0.93544150241E+02  0.00000000000E+00 0. -1.
         11    1    1    2    0    0  0.35226099734E+02 -0.96645560813E+01 -0.28349241268E+02  0.46238092815E+02  0.00000000000E+00 0.  1.
<mgrwt>
<rscale>  0 0.15339777E+03</rscale>
<asrwt>0</asrwt>
<pdfrwt beam="1">  1        1 0.72003037E-01 0.16021500E+03</pdfrwt>
<pdfrwt beam="2">  1       -1 0.10464778E-01 0.16021500E+03</pdfrwt>
<totfact> 0.27473986E+03</totfact>
</mgrwt>
</event>
<event>
 7    1  0.8165933E-006  0.1576357E+03  0.7546771E-02  0.1199233E+00
          1   -1    0    0  501    0  0.00000000000E+00  0.00000000000E+00  0.10022022816E+04  0.10022022816E+04  0.00000000000E+00 0. -1.
         -1   -1    0    0    0  501 -0.00000000000E+00 -0.00000000000E+00 -0.21146171341E+02  0.21146171341E+02  0.00000000000E+00 0.  1.
         23    2    1    2    0    0  0.39763896347E+02  0.87421798660E+02  0.49580782795E+03  0.52026379882E+03  0.12500111908E+03 0.  0.
          5    1    3    3  502    0 -0.27732041715E+02 -0.64568810444E+01  0.20912400250E+03  0.21110588782E+03  0.47000000000E+01 0.  1.
         -5    1    3    3    0  502  0.67495938063E+02  0.93878679704E+02  0.28668382544E+03  0.30915791099E+03  0.47000000000E+01 0.  1.
        -11    1    1    2    0    0 -0.52149983932E+02 -0.18715208727E+02  0.30091918710E+03  0.30597751066E+03  0.00000000000E+00 0. -1.
         11    1    1    2    0    0  0.12386087585E+02 -0.68706589933E+02  0.18432909522E+03  0.19710714348E+03  0.00000000000E+00 0.  1.
<mgrwt>
<rscale>  0 0.15101399E+03</rscale>
<asrwt>0</asrwt>
<pdfrwt beam="1">  1        1 0.15418493E+00 0.15763571E+03</pdfrwt>
<pdfrwt beam="2">  1       -1 0.32532579E-02 0.15763571E+03</pdfrwt>
<totfact> 0.52285436E+03</totfact>
</mgrwt>
</event>
<event>
 7    1  0.8165933E-006  0.1671329E+03  0.7546771E-02  0.1187575E+00
          2   -1    0    0  501    0  0.00000000000E+00  0.00000000000E+00  0.64332953884E+03  0.64332953884E+03  0.00000000000E+00 0. -1.
         -2   -1    0    0    0  501 -0.00000000000E+00 -0.00000000000E+00 -0.45521270673E+02  0.45521270673E+02  0.00000000000E+00 0.  1.
         23    2    1    2    0    0  0.10331829683E+03  0.40424675201E+02  0.46071335805E+03  0.49009204409E+03  0.12499835430E+03 0.  0.
          5    1    3    3  502    0 -0.13030161689E+02 -0.26473887944E+02  0.53133740801E+02  0.60958479870E+02  0.47000000000E+01 0.  1.
         -5    1    3    3    0  502  0.11634845851E+03  0.66898563145E+02  0.40757961724E+03  0.42913356422E+03  0.47000000000E+01 0.  1.
        -11    1    1    2    0    0  0.11551961582E+02 -0.16174600797E+02  0.46162649367E+02  0.50259881853E+02  0.00000000000E+00 0. -1.
         11    1    1    2    0    0 -0.11487025841E+03 -0.24250074404E+02  0.90932260759E+02  0.14849888357E+03  0.00000000000E+00 0.  1.
<mgrwt>
<rscale>  0 0.16099749E+03</rscale>
<asrwt>0</asrwt>
<pdfrwt beam="1">  1        2 0.98973769E-01 0.16713292E+03</pdfrwt>
<pdfrwt beam="2">  1       -2 0.70032729E-02 0.16713292E+03</pdfrwt>
<totfact> 0.52830359E+03</totfact>
</mgrwt>
</event>
<event>
 7    1  0.8165933E-006  0.1290894E+03  0.7546771E-02  0.1242274E+00
         -1   -1    0    0    0  501 -0.00000000000E+00  0.00000000000E+00  0.61972518513E+03  0.61972518513E+03  0.00000000000E+00 0.  1.
          1   -1    0    0  501    0  0.00000000000E+00 -0.00000000000E+00 -0.25260953354E+02  0.25260953354E+02  0.00000000000E+00 0. -1.
         23    2    1    2    0    0 -0.31987642996E+01  0.32074672865E+02  0.19634625778E+03  0.23498069826E+03  0.12500023551E+03 0.  0.
          5    1    3    3  502    0  0.33119687709E+02  0.48095540567E+02  0.33894019673E+02  0.67683006035E+02  0.47000000000E+01 0. -1.
         -5    1    3    3    0  502 -0.36318452009E+02 -0.16020867701E+02  0.16245223811E+03  0.16729769223E+03  0.47000000000E+01 0. -1.
        -11    1    1    2    0    0  0.11070401575E+02  0.31284839825E+02  0.10993747372E+03  0.11483702853E+03  0.00000000000E+00 0. -1.
         11    1    1    2    0    0 -0.78716372756E+01 -0.63359512690E+02  0.28818050028E+03  0.29516841170E+03  0.00000000000E+00 0.  1.
<mgrwt>
<rscale>  0 0.12050050E+03</rscale>
<asrwt>0</asrwt>
<pdfrwt beam="2">  1        1 0.38863010E-02 0.12908941E+03</pdfrwt>
<pdfrwt beam="1">  1       -1 0.95342325E-01 0.12908941E+03</pdfrwt>
<totfact> 0.25568010E+03</totfact>
</mgrwt>
</event>
<event>
 7    1  0.8165933E-006  0.1425177E+03  0.7546771E-02  0.1219974E+00
         -2   -1    0    0    0  501 -0.00000000000E+00  0.00000000000E+00  0.26357444414E+02  0.26357444414E+02  0.00000000000E+00 0.  1.
          2   -1    0    0  501    0  0.00000000000E+00 -0.00000000000E+00 -0.63830255396E+03  0.63830255396E+03  0.00000000000E+00 0. -1.
         23    2    1    2    0    0 -0.36418124028E+02  0.57973364424E+02 -0.30164270914E+03  0.33361596387E+03  0.12499638647E+03 0.  0.
          5    1    3    3  502    0  0.12012703831E+02  0.36037335498E+02 -0.26756843567E+03  0.27029234612E+03  0.47000000000E+01 0.  1.
         -5    1    3    3    0  502 -0.48430827859E+02  0.21936028926E+02 -0.34074273466E+02  0.63323617746E+02  0.47000000000E+01 0.  1.
        -11    1    1    2    0    0  0.44847066518E+02 -0.10041497143E+02 -0.57548040521E+02  0.73646914449E+02  0.00000000000E+00 0.  1.
         11    1    1    2    0    0 -0.84289424892E+01 -0.47931867281E+02 -0.25275435989E+03  0.25739712006E+03  0.00000000000E+00 0. -1.
<mgrwt>
<rscale>  0 0.13517410E+03</rscale>
<asrwt>0</asrwt>
<pdfrwt beam="2">  1        2 0.98200390E-01 0.14251767E+03</pdfrwt>
<pdfrwt beam="1">  1       -2 0.40549916E-02 0.14251767E+03</pdfrwt>
<totfact> 0.12071426E+04</totfact>
</mgrwt>
</event>
<event>
 6    1  0.8165933E-006  0.1666864E+03  0.7546771E-02  0.1205375E+00
         -2   -1    0    0    0  501 -0.00000000000E+00  0.00000000000E+00  0.73235780270E+03  0.73235780270E+03  0.00000000000E+00 0.  1.
          2   -1    0    0  501    0  0.00000000000E+00 -0.00000000000E+00 -0.31113145520E+02  0.31113145520E+02  0.00000000000E+00 0. -1.
          5    1    1    2  502    0  0.39888497078E+01  0.76953703260E+02  0.91073376673E+02  0.11939109391E+03  0.47000000000E+01 0. -1.
         -5    1    1    2    0  502 -0.37469509920E+02 -0.78919515973E+02  0.15113568016E+03  0.17463200735E+03  0.47000000000E+01 0.  1.
        -11    1    1    2    0    0  0.28188483128E+02  0.45986709559E+02  0.25917988590E+03  0.26473303778E+03  0.00000000000E+00 0.  1.
         11    1    1    2    0    0  0.52921770835E+01 -0.44020896846E+02  0.19985571445E+03  0.20471480918E+03  0.00000000000E+00 0. -1.
<mgrwt>
<rscale>  0 0.14607973E+03</rscale>
<asrwt>0</asrwt>
<pdfrwt beam="2">  1        2 0.47866383E-02 0.16668640E+03</pdfrwt>
<pdfrwt beam="1">  1       -2 0.11267042E+00 0.16668640E+03</pdfrwt>
<totfact> 0.10548760E+03</totfact>
</mgrwt>
</event>
<event>
 7    1  0.8165933E-006  0.1296496E+03  0.7546771E-02  0.1242280E+00
         -2   -1    0    0    0  501 -0.00000000000E+00  0.00000000000E+00  0.47262579263E+03  0.47262579263E+03  0.00000000000E+00 0.  1.
          2   -1    0    0  501    0  0.00000000000E+00 -0.00000000000E+00 -0.29298190058E+02  0.29298190058E+02  0.00000000000E+00 0. -1.
         23    2    1    2    0    0  0.19068737093E+02  0.28686172234E+02  0.18356421604E+03  0.22473283751E+03  0.12499005413E+03 0.  0.
          5    1    3    3  502    0 -0.28125421328E+02  0.60134595330E+02  0.64074722479E+02  0.92384354418E+02  0.47000000000E+01 0. -1.
         -5    1    3    3    0  502  0.47194158421E+02 -0.31448423096E+02  0.11948949356E+03  0.13234848309E+03  0.47000000000E+01 0. -1.
        -11    1    1    2    0    0 -0.45457270167E+02 -0.45225054034E+02  0.15085230481E+03  0.16391487666E+03  0.00000000000E+00 0. -1.
         11    1    1    2    0    0  0.26388533075E+02  0.16538881800E+02  0.10891108172E+03  0.11327626852E+03  0.00000000000E+00 0.  1.
<mgrwt>
<rscale>  0 0.12049689E+03</rscale>
<asrwt>0</asrwt>
<pdfrwt beam="2">  1        2 0.45074142E-02 0.12964963E+03</pdfrwt>
<pdfrwt beam="1">  1       -2 0.72711655E-01 0.12964963E+03</pdfrwt>
<totfact> 0.30192704E+03</totfact>
</mgrwt>
</event>
<event>
 7    1  0.8165933E-006  0.1344233E+03  0.7546771E-02  0.1233089E+00
          2   -1    0    0  501    0  0.00000000000E+00  0.00000000000E+00  0.37763302310E+03  0.37763302310E+03  0.00000000000E+00 0. -1.
         -2   -1    0    0    0  501 -0.00000000000E+00 -0.00000000000E+00 -0.45620821274E+02  0.45620821274E+02  0.00000000000E+00 0.  1.
         23    2    1    2    0    0  0.86998748352E+01 -0.48694849963E+02  0.26993637421E+03  0.30155475391E+03  0.12499098866E+03 0.  0.
          5    1    3    3  502    0  0.25875307952E+02 -0.74755447929E+02  0.94629359236E+02  0.12342898438E+03  0.47000000000E+01 0.  1.
         -5    1    3    3    0  502 -0.17175433117E+02  0.26060597966E+02  0.17530701498E+03  0.17812576952E+03  0.47000000000E+01 0.  1.
        -11    1    1    2    0    0 -0.48223061775E+02  0.99534058681E+01  0.31791747631E+02  0.58610998906E+02  0.00000000000E+00 0. -1.
         11    1    1    2    0    0  0.39523186940E+02  0.38741444095E+02  0.30284079988E+02  0.63088091564E+02  0.00000000000E+00 0.  1.
<mgrwt>
<rscale>  0 0.12627537E+03</rscale>
<asrwt>0</asrwt>
<pdfrwt beam="1">  1        2 0.58097386E-01 0.13442330E+03</pdfrwt>
<pdfrwt beam="2">  1       -2 0.70185881E-02 0.13442330E+03</pdfrwt>
<totfact> 0.93669422E+03</totfact>
</mgrwt>
</event>
<event>
 7    1  0.8165933E-006  0.1284803E+03  0.7546771E-02  0.1244571E+00
          2   -1    0    0  501    0  0.00000000000E+00  0.00000000000E+00  0.98975227753E+03  0.98975227753E+03  0.00000000000E+00 0.  1.
         -2   -1    0    0    0  501 -0.00000000000E+00 -0.00000000000E+00 -0.14806790687E+02  0.14806790687E+02  0.00000000000E+00 0. -1.
         23    2    1    2    0    0 -0.48184918695E+01 -0.29304354741E+02  0.74167366597E+03  0.75271973974E+03  0.12500086696E+03 0.  0.
          5    1    3    3  502    0 -0.64382235179E+02 -0.10964364812E+02  0.41262365007E+03  0.41778661551E+03  0.47000000000E+01 0. -1.
         -5    1    3    3    0  502  0.59563743310E+02 -0.18339989930E+02  0.32905001589E+03  0.33493312423E+03  0.47000000000E+01 0. -1.
        -11    1    1    2    0    0 -0.88073313352E+01 -0.31425430269E+02  0.77212739430E+02  0.83826808857E+02  0.00000000000E+00 0.  1.
         11    1    1    2    0    0  0.13625823205E+02  0.60729785011E+02  0.15605908144E+03  0.16801251961E+03  0.00000000000E+00 0. -1.
<mgrwt>
<rscale>  0 0.11911095E+03</rscale>
<asrwt>0</asrwt>
<pdfrwt beam="1">  1        2 0.15226953E+00 0.12848027E+03</pdfrwt>
<pdfrwt beam="2">  1       -2 0.22779686E-02 0.12848027E+03</pdfrwt>
<totfact> 0.16194124E+04</totfact>
</mgrwt>
</event>
<event>
 7    1  0.8165933E-006  0.1731592E+03  0.7546771E-02  0.1180647E+00
          2   -1    0    0  501    0  0.00000000000E+00  0.00000000000E+00  0.11234326240E+04  0.11234326240E+04  0.00000000000E+00 0. -1.
         -2   -1    0    0    0  501 -0.00000000000E+00 -0.00000000000E+00 -0.23728215611E+02  0.23728215611E+02  0.00000000000E+00 0.  1.
         23    2    1    2    0    0 -0.11224668411E+03  0.41950539284E+02  0.51845732417E+03  0.54660965278E+03  0.12499979873E+03 0.  0.
          5    1    3    3  502    0 -0.82992662015E+02 -0.30380284093E+02  0.34812739164E+03  0.35920121717E+03  0.47000000000E+01 0.  1.
         -5    1    3    3    0  502 -0.29254022098E+02  0.72330823377E+02  0.17032993253E+03  0.18740843560E+03  0.47000000000E+01 0.  1.
        -11    1    1    2    0    0  0.45954478190E+02 -0.61572310103E+02  0.22784483661E+03  0.24045006343E+03  0.00000000000E+00 0.  1.
         11    1    1    2    0    0  0.66292205922E+02  0.19621770819E+02  0.35340224766E+03  0.36010112345E+03  0.00000000000E+00 0. -1.
<mgrwt>
<rscale>  0 0.16734330E+03</rscale>
<asrwt>0</asrwt>
<pdfrwt beam="1">  1        2 0.17283575E+00 0.17315922E+03</pdfrwt>
<pdfrwt beam="2">  1       -2 0.36504956E-02 0.17315922E+03</pdfrwt>
<totfact> 0.68643873E+03</totfact>
</mgrwt>
</event>
<event>
 7    1  0.8165933E-006  0.1348699E+03  0.7546771E-02  0.1232369E+00
         -4   -1    0    0    0  501 -0.00000000000E+00  0.00000000000E+00  0.11531725809E+03  0.11531725809E+03  0.00000000000E+00 0.  1.
          4   -1    0    0  501    0  0.00000000000E+00 -0.00000000000E+00 -0.12494222664E+03  0.12494222664E+03  0.00000000000E+00 0. -1.
         23    2    1    2    0    0  0.50606223386E+02  0.21459917900E+01 -0.43159845952E+01  0.13493895847E+03  0.12499719863E+03 0.  0.
          5    1    3    3  502    0  0.16061383421E+02  0.66980670156E+01  0.59449833134E+02  0.62122498331E+02  0.47000000000E+01 0.  1.
         -5    1    3    3    0  502  0.34544839965E+02 -0.45520752256E+01 -0.63765817729E+02  0.72816460143E+02  0.47000000000E+01 0.  1.
        -11    1    1    2    0    0 -0.76903498351E+02 -0.30744020432E+01 -0.12660367949E+02  0.77999262325E+02  0.00000000000E+00 0.  1.
         11    1    1    2    0    0  0.26297274966E+02  0.92841025326E+00  0.73513840009E+01  0.27321263934E+02  0.00000000000E+00 0. -1.
<mgrwt>
<rscale>  0 0.12674372E+03</rscale>
<asrwt>0</asrwt>
<pdfrwt beam="2">  1        4 0.19221881E-01 0.13486992E+03</pdfrwt>
<pdfrwt beam="1">  1       -4 0.17741117E-01 0.13486992E+03</pdfrwt>
<totfact> 0.11177593E+03</totfact>
</mgrwt>
</event>
<event>
 7    1  0.8165933E-006  0.1340023E+03  0.7546771E-02  0.1234879E+00
          2   -1    0    0  501    0  0.00000000000E+00  0.00000000000E+00  0.19845247594E+03  0.19845247594E+03  0.00000000000E+00 0. -1.
         -2   -1    0    0    0  501 -0.00000000000E+00 -0.00000000000E+00 -0.70273044217E+02  0.70273044217E+02  0.00000000000E+00 0.  1.
         23    2    1    2    0    0  0.83434903631E+01 -0.47558562931E+02  0.65819669007E+02  0.14929447983E+03  0.12500072856E+03 0.  0.
          5    1    3    3  502    0  0.20182636951E+02  0.55423487667E+01  0.87834910784E+02  0.90416359231E+02  0.47000000000E+01 0. -1.
         -5    1    3    3    0  502 -0.11839146588E+02 -0.53100911697E+02 -0.22015241777E+02  0.58878120601E+02  0.47000000000E+01 0. -1.
        -11    1    1    2    0    0  0.24856148808E+02 -0.32996976850E+01 -0.81539925247E+01  0.26366716376E+02  0.00000000000E+00 0.  1.
         11    1    1    2    0    0 -0.33199639171E+02  0.50858260616E+02  0.70513755241E+02  0.93064323949E+02  0.00000000000E+00 0. -1.
<mgrwt>
<rscale>  0 0.12512176E+03</rscale>
<asrwt>0</asrwt>
<pdfrwt beam="1">  1        2 0.30531150E-01 0.13400229E+03</pdfrwt>
<pdfrwt beam="2">  1       -2 0.10811238E-01 0.13400229E+03</pdfrwt>
<totfact> 0.94946490E+03</totfact>
</mgrwt>
</event>
<event>
 7    1  0.8165933E-006  0.1281385E+03  0.7546771E-02  0.1243153E+00
         -2   -1    0    0    0  501 -0.00000000000E+00  0.00000000000E+00  0.15566113047E+02  0.15566113047E+02  0.00000000000E+00 0. -1.
          2   -1    0    0  501    0  0.00000000000E+00 -0.00000000000E+00 -0.85108720940E+03  0.85108720940E+03  0.00000000000E+00 0.  1.
         23    2    1    2    0    0 -0.28162495456E+02  0.79078353154E+00 -0.54668015574E+03  0.56149682095E+03  0.12500294302E+03 0.  0.
          5    1    3    3  502    0 -0.76178191334E+02  0.11227502679E+02 -0.28823584878E+03  0.29838091121E+03  0.47000000000E+01 0. -1.
         -5    1    3    3    0  502  0.48015695878E+02 -0.10436719148E+02 -0.25844430696E+03  0.26311590974E+03  0.47000000000E+01 0. -1.
        -11    1    1    2    0    0  0.14426877341E+02  0.44271206371E+02 -0.19059204313E+03  0.19619735321E+03  0.00000000000E+00 0.  1.
         11    1    1    2    0    0  0.13735618115E+02 -0.45061989902E+02 -0.98248897481E+02  0.10895914829E+03  0.00000000000E+00 0. -1.
<mgrwt>
<rscale>  0 0.11996600E+03</rscale>
<asrwt>0</asrwt>
<pdfrwt beam="2">  1        2 0.13093649E+00 0.12813855E+03</pdfrwt>
<pdfrwt beam="1">  1       -2 0.23947866E-02 0.12813855E+03</pdfrwt>
<totfact> 0.18362454E+04</totfact>
</mgrwt>
</event>
<event>
 7    1  0.8165933E-006  0.1628102E+03  0.7546771E-02  0.1192859E+00
          2   -1    0    0  501    0  0.00000000000E+00  0.00000000000E+00  0.12091283233E+04  0.12091283233E+04  0.00000000000E+00 0. -1.
         -2   -1    0    0    0  501 -0.00000000000E+00 -0.00000000000E+00 -0.22314180487E+02  0.22314180487E+02  0.00000000000E+00 0.  1.
         23    2    1    2    0    0 -0.46568559550E+02  0.93324272744E+02  0.87816551948E+03  0.89313036401E+03  0.12501646647E+03 0.  0.
          5    1    3    3  502    0  0.10262323679E+01  0.97318645295E+02  0.74947102493E+03  0.75577832669E+03  0.47000000000E+01 0. -1.
         -5    1    3    3    0  502 -0.47594791918E+02 -0.39943725510E+01  0.12869449455E+03  0.13735203733E+03  0.47000000000E+01 0. -1.
        -11    1    1    2    0    0  0.52033918524E+02 -0.10147503403E+02  0.15009487500E+03  0.15918219751E+03  0.00000000000E+00 0. -1.
         11    1    1    2    0    0 -0.54653589739E+01 -0.83176769340E+02  0.15855374832E+03  0.17912994225E+03  0.00000000000E+00 0.  1.
<mgrwt>
<rscale>  0 0.15636834E+03</rscale>
<asrwt>0</asrwt>
<pdfrwt beam="1">  1        2 0.18601969E+00 0.16281022E+03</pdfrwt>
<pdfrwt beam="2">  1       -2 0.34329518E-02 0.16281022E+03</pdfrwt>
<totfact> 0.67128151E+03</totfact>
</mgrwt>
</event>
<event>
 7    1  0.9055870E-006  0.1687835E+03  0.7546771E-02  0.1185567E+00
         -1   -1    0    0    0  501 -0.00000000000E+00  0.00000000000E+00  0.20064338457E+02  0.20064338457E+02  0.00000000000E+00 0.  1.
          1   -1    0    0  501    0  0.00000000000E+00 -0.00000000000E+00 -0.13142943169E+04  0.13142943169E+04  0.00000000000E+00 0. -1.
         23    2    1    2    0    0 -0.37988247436E+02 -0.10686637795E+03 -0.85392292310E+03  0.87044369501E+03  0.12499735163E+03 0.  0.
          5    1    3    3  502    0 -0.58405025438E+02 -0.42527190631E+02 -0.19414949426E+03  0.20720961623E+03  0.47000000000E+01 0.  1.
         -5    1    3    3    0  502  0.20416778002E+02 -0.64339187318E+02 -0.65977342884E+03  0.66323407878E+03  0.47000000000E+01 0.  1.
        -11    1    1    2    0    0  0.35650367286E+02  0.46598067529E+02 -0.83533720206E+02  0.10207943474E+03  0.00000000000E+00 0.  1.
         11    1    1    2    0    0  0.23378801503E+01  0.60268310420E+02 -0.35677333514E+03  0.36183552561E+03  0.00000000000E+00 0. -1.
<mgrwt>
<rscale>  0 0.16280362E+03</rscale>
<asrwt>0</asrwt>
<pdfrwt beam="2">  1        1 0.20219915E+00 0.16878349E+03</pdfrwt>
<pdfrwt beam="1">  1       -1 0.30868209E-02 0.16878349E+03</pdfrwt>
<totfact> 0.34236061E+03</totfact>
</mgrwt>
</event>
<event>
 7    1  0.8165933E-006  0.1300379E+03  0.7546771E-02  0.1240186E+00
          1   -1    0    0  501    0  0.00000000000E+00  0.00000000000E+00  0.18652283184E+03  0.18652283184E+03  0.00000000000E+00 0. -1.
         -1   -1    0    0    0  501 -0.00000000000E+00 -0.00000000000E+00 -0.70944285505E+02  0.70944285505E+02  0.00000000000E+00 0.  1.
         23    2    1    2    0    0  0.25197357823E+02 -0.26165321538E+02  0.65641525193E+02  0.14566630928E+03  0.12486125475E+03 0.  0.
          5    1    3    3  502    0  0.50718846942E+02 -0.56423110453E+02  0.72702143190E+02  0.10518393629E+03  0.47000000000E+01 0. -1.
         -5    1    3    3    0  502 -0.25521489119E+02  0.30257788914E+02 -0.70606179976E+01  0.40482372996E+02  0.47000000000E+01 0.  1.
        -11    1    1    2    0    0 -0.42341943883E+02 -0.19183866024E+02  0.42048859153E+02  0.62681476399E+02  0.00000000000E+00 0.  1.
         11    1    1    2    0    0  0.17144586061E+02  0.45349187562E+02  0.78881619929E+01  0.49119331667E+02  0.00000000000E+00 0. -1.
<mgrwt>
<rscale>  0 0.12178213E+03</rscale>
<asrwt>0</asrwt>
<pdfrwt beam="1">  1        1 0.28695820E-01 0.13003793E+03</pdfrwt>
<pdfrwt beam="2">  1       -1 0.10914506E-01 0.13003793E+03</pdfrwt>
<totfact> 0.80412669E+03</totfact>
</mgrwt>
</event>
<event>
 7    1  0.8165933E-006  0.1338082E+03  0.7546771E-02  0.1233950E+00
          2   -1    0    0  501    0  0.00000000000E+00  0.00000000000E+00  0.11045409126E+03  0.11045409126E+03  0.00000000000E+00 0.  1.
         -2   -1    0    0    0  501 -0.00000000000E+00 -0.00000000000E+00 -0.13279263549E+03  0.13279263549E+03  0.00000000000E+00 0. -1.
         23    2    1    2    0    0  0.32626045088E+01 -0.47640677494E+02  0.97229050226E+01  0.13416100546E+03  0.12499744703E+03 0.  0.
          5    1    3    3  502    0  0.54068628934E+02  0.98288187351E+01 -0.67423026112E+01  0.55565915425E+02  0.47000000000E+01 0.  1.
         -5    1    3    3    0  502 -0.50806024425E+02 -0.57469496229E+02  0.16465207634E+02  0.78595090032E+02  0.47000000000E+01 0.  1.
        -11    1    1    2    0    0 -0.45883766017E+02  0.19457941923E+02 -0.29521715839E+02  0.57926360095E+02  0.00000000000E+00 0.  1.
         11    1    1    2    0    0  0.42621161508E+02  0.28182735571E+02 -0.25397334060E+01  0.51159361200E+02  0.00000000000E+00 0. -1.
<mgrwt>
<rscale>  0 0.12571861E+03</rscale>
<asrwt>0</asrwt>
<pdfrwt beam="1">  1        2 0.16992937E-01 0.13380822E+03</pdfrwt>
<pdfrwt beam="2">  1       -2 0.20429636E-01 0.13380822E+03</pdfrwt>
<totfact> 0.64489472E+03</totfact>
</mgrwt>
</event>
<event>
 7    1  0.8165933E-006  0.1300447E+03  0.7546771E-02  0.1240872E+00
         -1   -1    0    0    0  501 -0.00000000000E+00  0.00000000000E+00  0.64619659651E+02  0.64619659651E+02  0.00000000000E+00 0.  1.
          1   -1    0    0  501    0  0.00000000000E+00 -0.00000000000E+00 -0.57693020518E+03  0.57693020518E+03  0.00000000000E+00 0. -1.
         23    2    1    2    0    0 -0.16298009546E+02  0.31963159704E+02 -0.52612379929E+03  0.54195744081E+03  0.12499738707E+03 0.  0.
          5    1    3    3  502    0 -0.54174653723E+02 -0.18370716172E+02 -0.15077930355E+03  0.16133463576E+03  0.47000000000E+01 0.  1.
         -5    1    3    3    0  502  0.37876644177E+02  0.50333875876E+02 -0.37534449574E+03  0.38062280505E+03  0.47000000000E+01 0.  1.
        -11    1    1    2    0    0  0.37768259059E+02 -0.27636565857E+02  0.42692618856E+02  0.63347303570E+02  0.00000000000E+00 0. -1.
         11    1    1    2    0    0 -0.21470249513E+02 -0.43265938471E+01 -0.28879365096E+02  0.36245120456E+02  0.00000000000E+00 0.  1.
<mgrwt>
<rscale>  0 0.12135886E+03</rscale>
<asrwt>0</asrwt>
<pdfrwt beam="2">  1        1 0.88758492E-01 0.13004467E+03</pdfrwt>
<pdfrwt beam="1">  1       -1 0.99414862E-02 0.13004467E+03</pdfrwt>
<totfact> 0.22402773E+03</totfact>
</mgrwt>
</event>
<event>
 7    1  0.8165933E-006  0.1442975E+03  0.7546771E-02  0.1211340E+00
         -1   -1    0    0    0  501 -0.00000000000E+00  0.00000000000E+00  0.46561707970E+02  0.46561707970E+02  0.00000000000E+00 0.  1.
          1   -1    0    0  501    0  0.00000000000E+00 -0.00000000000E+00 -0.61113537680E+03  0.61113537680E+03  0.00000000000E+00 0. -1.
         23    2    1    2    0    0 -0.68145036610E+02 -0.23507668750E+02 -0.47647204402E+03  0.49784273225E+03  0.12500168327E+03 0.  0.
          5    1    3    3  502    0 -0.67387251036E+02  0.30493361228E+02 -0.38020564325E+03  0.38736198554E+03  0.47000000000E+01 0. -1.
         -5    1    3    3    0  502 -0.75778557370E+00 -0.54001029978E+02 -0.96266400769E+02  0.11048074672E+03  0.47000000000E+01 0. -1.
        -11    1    1    2    0    0 -0.89282998060E+00 -0.16469101295E+02  0.19732676508E+02  0.25717833599E+02  0.00000000000E+00 0.  1.
         11    1    1    2    0    0  0.69037866590E+02  0.39976770045E+02 -0.10783430132E+03  0.13413651892E+03  0.00000000000E+00 0. -1.
<mgrwt>
<rscale>  0 0.14148839E+03</rscale>
<asrwt>0</asrwt>
<pdfrwt beam="2">  1        1 0.94020820E-01 0.14429753E+03</pdfrwt>
<pdfrwt beam="1">  1       -1 0.71633403E-02 0.14429753E+03</pdfrwt>
<totfact> 0.34136996E+03</totfact>
</mgrwt>
</event>
<event>
 7    1  0.8165933E-006  0.1365530E+03  0.7546771E-02  0.1229544E+00
          1   -1    0    0  501    0  0.00000000000E+00  0.00000000000E+00  0.71337157207E+03  0.71337157207E+03  0.00000000000E+00 0. -1.
         -1   -1    0    0    0  501 -0.00000000000E+00 -0.00000000000E+00 -0.20902597345E+02  0.20902597345E+02  0.00000000000E+00 0.  1.
         23    2    1    2    0    0 -0.31190480292E+02 -0.45262811195E+02  0.40391178090E+03  0.42637008846E+03  0.12500062979E+03 0.  0.
          5    1    3    3  502    0 -0.31379546368E+02 -0.39622463915E+02  0.41218982061E+03  0.41530368864E+03  0.47000000000E+01 0.  1.
         -5    1    3    3    0  502  0.18906607617E+00 -0.56403472806E+01 -0.82780397195E+01  0.11066399822E+02  0.47000000000E+01 0.  1.
        -11    1    1    2    0    0  0.21544611767E+02  0.73639578112E+02  0.22272679452E+03  0.23557203306E+03  0.00000000000E+00 0. -1.
         11    1    1    2    0    0  0.96458685252E+01 -0.28376766917E+02  0.65830399307E+02  0.72332047898E+02  0.00000000000E+00 0.  1.
<mgrwt>
<rscale>  0 0.12860271E+03</rscale>
<asrwt>0</asrwt>
<pdfrwt beam="1">  1        1 0.10974945E+00 0.13655301E+03</pdfrwt>
<pdfrwt beam="2">  1       -1 0.32157848E-02 0.13655301E+03</pdfrwt>
<totfact> 0.89597025E+03</totfact>
</mgrwt>
</event>
<event>
 7    1  0.8165933E-006  0.1180695E+03  0.7546771E-02  0.1256207E+00
         -1   -1    0    0    0  501 -0.00000000000E+00  0.00000000000E+00  0.95697991410E+01  0.95697991410E+01  0.00000000000E+00 0.  1.
          1   -1    0    0  501    0  0.00000000000E+00 -0.00000000000E+00 -0.14843481689E+04  0.14843481689E+04  0.00000000000E+00 0. -1.
         23    2    1    2    0    0  0.55677840261E+01 -0.32520367298E+02 -0.11175759802E+04  0.11237955696E+04  0.11336593990E+03 0.  0.
          5    1    3    3  502    0  0.28947425380E+01 -0.43278629992E+02 -0.11067320220E+04  0.11075916566E+04  0.47000000000E+01 0. -1.
         -5    1    3    3    0  502  0.26730414881E+01  0.10758262694E+02 -0.10843958185E+02  0.16203912988E+02  0.47000000000E+01 0.  1.
        -11    1    1    2    0    0  0.42593722349E+02  0.13920638814E+02 -0.14739416760E+03  0.15405534723E+03  0.00000000000E+00 0.  1.
         11    1    1    2    0    0 -0.48161506375E+02  0.18599728483E+02 -0.20980822196E+03  0.21606705117E+03  0.00000000000E+00 0. -1.
<mgrwt>
<rscale>  0 0.11238989E+03</rscale>
<asrwt>0</asrwt>
<pdfrwt beam="2">  1        1 0.22836113E+00 0.11806952E+03</pdfrwt>
<pdfrwt beam="1">  1       -1 0.14722776E-02 0.11806952E+03</pdfrwt>
<totfact> 0.76323507E+03</totfact>
</mgrwt>
</event>
<event>
 7    1  0.8165933E-006  0.1304319E+03  0.7546771E-02  0.1241611E+00
          2   -1    0    0  501    0  0.00000000000E+00  0.00000000000E+00  0.50758205319E+03  0.50758205319E+03  0.00000000000E+00 0.  1.
         -2   -1    0    0    0  501 -0.00000000000E+00 -0.00000000000E+00 -0.26102580215E+02  0.26102580215E+02  0.00000000000E+00 0. -1.
         23    2    1    2    0    0  0.37243871354E+02 -0.14516396587E+01  0.32158847760E+03  0.34703259368E+03  0.12499303556E+03 0.  0.
          5    1    3    3  502    0  0.15181830456E+01  0.50276080735E+02  0.23231533696E+03  0.23774460027E+03  0.47000000000E+01 0.  1.
         -5    1    3    3    0  502  0.35725688309E+02 -0.51727720393E+02  0.89273140640E+02  0.10928799340E+03  0.47000000000E+01 0.  1.
        -11    1    1    2    0    0 -0.41259718822E+02  0.26074334567E+02  0.36981542542E+02  0.61236180557E+02  0.00000000000E+00 0. -1.
         11    1    1    2    0    0  0.40158474681E+01 -0.24622694908E+02  0.12290945284E+03  0.12541585917E+03  0.00000000000E+00 0.  1.
<mgrwt>
<rscale>  0 0.12090529E+03</rscale>
<asrwt>0</asrwt>
<pdfrwt beam="1">  1        2 0.78089539E-01 0.13043187E+03</pdfrwt>
<pdfrwt beam="2">  1       -2 0.40157820E-02 0.13043187E+03</pdfrwt>
<totfact> 0.15747849E+04</totfact>
</mgrwt>
</event>
<event>
 7    1  0.8165933E-006  0.1484691E+03  0.7546771E-02  0.1225693E+00
          2   -1    0    0  501    0  0.00000000000E+00  0.00000000000E+00  0.26213114194E+03  0.26213114194E+03  0.00000000000E+00 0. -1.
         -2   -1    0    0    0  501 -0.00000000000E+00 -0.00000000000E+00 -0.58051186537E+02  0.58051186537E+02  0.00000000000E+00 0.  1.
         23    2    1    2    0    0  0.74827646404E+02 -0.28612412311E+02  0.16388140416E+03  0.22113388580E+03  0.12500093606E+03 0.  0.
          5    1    3    3  502    0  0.57337457303E+02  0.54561536924E+01  0.54184860176E+01  0.58041395692E+02  0.47000000000E+01 0.  1.
         -5    1    3    3    0  502  0.17490189100E+02 -0.34068566003E+02  0.15846291814E+03  0.16309249011E+03  0.47000000000E+01 0.  1.
        -11    1    1    2    0    0 -0.41178108063E+02 -0.56786304022E+01  0.25674809230E+02  0.48857745096E+02  0.00000000000E+00 0. -1.
         11    1    1    2    0    0 -0.33649538341E+02  0.34291042713E+02  0.14523742007E+02  0.50190697572E+02  0.00000000000E+00 0.  1.
<mgrwt>
<rscale>  0 0.13119538E+03</rscale>
<asrwt>0</asrwt>
<pdfrwt beam="1">  1        2 0.40327867E-01 0.14846912E+03</pdfrwt>
<pdfrwt beam="2">  1       -2 0.89309519E-02 0.14846912E+03</pdfrwt>
<totfact> 0.95818893E+03</totfact>
</mgrwt>
</event>
<event>
 7    1  0.8165933E-006  0.1442442E+03  0.7546771E-02  0.1217458E+00
          1   -1    0    0  501    0  0.00000000000E+00  0.00000000000E+00  0.25559666997E+02  0.25559666997E+02  0.00000000000E+00 0. -1.
         -1   -1    0    0    0  501 -0.00000000000E+00 -0.00000000000E+00 -0.67111922789E+03  0.67111922789E+03  0.00000000000E+00 0.  1.
         23    2    1    2    0    0 -0.17108552110E+01  0.72022336338E+02 -0.33665662199E+03  0.36625685041E+03  0.12496501665E+03 0.  0.
          5    1    3    3  502    0  0.48621993882E+02  0.85551049031E+01 -0.21047798071E+03  0.21624143561E+03  0.47000000000E+01 0. -1.
         -5    1    3    3    0  502 -0.50332849093E+02  0.63467231435E+02 -0.12617864128E+03  0.15001541480E+03  0.47000000000E+01 0. -1.
        -11    1    1    2    0    0 -0.30825916615E+02 -0.15441828414E+02 -0.20384666062E+03  0.20674174287E+03  0.00000000000E+00 0.  1.
         11    1    1    2    0    0  0.32536771826E+02 -0.56580507924E+02 -0.10505627828E+03  0.12368030160E+03  0.00000000000E+00 0. -1.
<mgrwt>
<rscale>  0 0.13697524E+03</rscale>
<asrwt>0</asrwt>
<pdfrwt beam="1">  1        1 0.39322567E-02 0.14424424E+03</pdfrwt>
<pdfrwt beam="2">  1       -1 0.10324911E+00 0.14424424E+03</pdfrwt>
<totfact> 0.21244432E+03</totfact>
</mgrwt>
</event>
<event>
 7    1  0.8165933E-006  0.1453533E+03  0.7546771E-02  0.1214428E+00
          1   -1    0    0  501    0  0.00000000000E+00  0.00000000000E+00  0.43499759488E+02  0.43499759488E+02  0.00000000000E+00 0.  1.
         -1   -1    0    0    0  501 -0.00000000000E+00 -0.00000000000E+00 -0.41574006373E+03  0.41574006373E+03  0.00000000000E+00 0. -1.
         23    2    1    2    0    0 -0.70912689586E+02 -0.21733632913E+02 -0.17879150176E+03  0.23042133747E+03  0.12500652509E+03 0.  0.
          5    1    3    3  502    0  0.33200127797E+02 -0.22891339020E+02 -0.59229320250E+02  0.71808525017E+02  0.47000000000E+01 0. -1.
         -5    1    3    3    0  502 -0.10411281738E+03  0.11577061069E+01 -0.11956218152E+03  0.15861281246E+03  0.47000000000E+01 0. -1.
        -11    1    1    2    0    0 -0.40063515722E+01 -0.30575630062E+02 -0.48632135171E+02  0.57584759945E+02  0.00000000000E+00 0.  1.
         11    1    1    2    0    0  0.74919041158E+02  0.52309262975E+02 -0.14481666730E+03  0.17123372579E+03  0.00000000000E+00 0. -1.
<mgrwt>
<rscale>  0 0.13918617E+03</rscale>
<asrwt>0</asrwt>
<pdfrwt beam="1">  1        1 0.66922709E-02 0.14535333E+03</pdfrwt>
<pdfrwt beam="2">  1       -1 0.63960008E-01 0.14535333E+03</pdfrwt>
<totfact> 0.27622050E+03</totfact>
</mgrwt>
</event>
<event>
 7    1  0.8165933E-006  0.1327726E+03  0.7546771E-02  0.1236825E+00
          1   -1    0    0  501    0  0.00000000000E+00  0.00000000000E+00  0.13113622227E+03  0.13113622227E+03  0.00000000000E+00 0. -1.
         -1   -1    0    0    0  501 -0.00000000000E+00 -0.00000000000E+00 -0.11770688254E+03  0.11770688254E+03  0.00000000000E+00 0.  1.
         23    2    1    2    0    0 -0.41828729461E+02 -0.15967777929E+02  0.49855996403E+02  0.14182446476E+03  0.12499578348E+03 0.  0.
          5    1    3    3  502    0  0.42252281812E+02  0.33523249114E+01  0.11905334383E+01  0.42661467046E+02  0.47000000000E+01 0.  1.
         -5    1    3    3    0  502 -0.84081011273E+02 -0.19320102840E+02  0.48665462965E+02  0.99162997716E+02  0.47000000000E+01 0.  1.
        -11    1    1    2    0    0  0.13126081961E+02 -0.39950153003E+01 -0.62128679714E+02  0.63625678919E+02  0.00000000000E+00 0.  1.
         11    1    1    2    0    0  0.28702647499E+02  0.19962793229E+02  0.25702023041E+02  0.43392961127E+02  0.00000000000E+00 0. -1.
<mgrwt>
<rscale>  0 0.12388294E+03</rscale>
<asrwt>0</asrwt>
<pdfrwt beam="1">  1        1 0.20174803E-01 0.13277258E+03</pdfrwt>
<pdfrwt beam="2">  1       -1 0.18108751E-01 0.13277258E+03</pdfrwt>
<totfact> 0.56938160E+03</totfact>
</mgrwt>
</event>
<event>
 7    1  0.8165933E-006  0.1777065E+03  0.7546771E-02  0.1176163E+00
         -1   -1    0    0    0  501 -0.00000000000E+00  0.00000000000E+00  0.17801425043E+03  0.17801425043E+03  0.00000000000E+00 0.  1.
          1   -1    0    0  501    0  0.00000000000E+00 -0.00000000000E+00 -0.17318594682E+03  0.17318594682E+03  0.00000000000E+00 0. -1.
         23    2    1    2    0    0 -0.12313129649E+03 -0.28133765109E+02 -0.54082091139E+02  0.18575378420E+03  0.12500708319E+03 0.  0.
          5    1    3    3  502    0 -0.51279149066E+02  0.42859936916E+02  0.74104944202E+01  0.67405717480E+02  0.47000000000E+01 0.  1.
         -5    1    3    3    0  502 -0.71852147424E+02 -0.70993702025E+02 -0.61492585559E+02  0.11834806672E+03  0.47000000000E+01 0.  1.
        -11    1    1    2    0    0  0.11586433792E+02 -0.27491088411E+02  0.87790361277E+01  0.31097859498E+02  0.00000000000E+00 0.  1.
         11    1    1    2    0    0  0.11154486270E+03  0.55624853519E+02  0.50131358623E+02  0.13434855355E+03  0.00000000000E+00 0. -1.
<mgrwt>
<rscale>  0 0.17162554E+03</rscale>
<asrwt>0</asrwt>
<pdfrwt beam="2">  1        1 0.26643992E-01 0.17770649E+03</pdfrwt>
<pdfrwt beam="1">  1       -1 0.27386808E-01 0.17770649E+03</pdfrwt>
<totfact> 0.20714811E+03</totfact>
</mgrwt>
</event>
<event>
 7    1  0.8165933E-006  0.1430462E+03  0.7546771E-02  0.1219138E+00
          1   -1    0    0  501    0  0.00000000000E+00  0.00000000000E+00  0.24571649368E+03  0.24571649368E+03  0.00000000000E+00 0. -1.
         -1   -1    0    0    0  501 -0.00000000000E+00 -0.00000000000E+00 -0.71154166601E+02  0.71154166601E+02  0.00000000000E+00 0.  1.
         23    2    1    2    0    0  0.50041315130E+02  0.48271058857E+02  0.12745735661E+03  0.19159223118E+03  0.12501190724E+03 0.  0.
          5    1    3    3  502    0  0.70723851920E+02  0.63126186075E+02  0.13462837066E+03  0.16472300017E+03  0.47000000000E+01 0. -1.
         -5    1    3    3    0  502 -0.20682536790E+02 -0.14855127218E+02 -0.71710140473E+01  0.26869231013E+02  0.47000000000E+01 0. -1.
        -11    1    1    2    0    0  0.59453720708E+01 -0.56443331912E+02  0.37140174235E+02  0.67827647081E+02  0.00000000000E+00 0.  1.
         11    1    1    2    0    0 -0.55986687201E+02  0.81722730550E+01  0.99647962356E+01  0.57450782019E+02  0.00000000000E+00 0. -1.
<mgrwt>
<rscale>  0 0.13576928E+03</rscale>
<asrwt>0</asrwt>
<pdfrwt beam="1">  1        1 0.37802537E-01 0.14304616E+03</pdfrwt>
<pdfrwt beam="2">  1       -1 0.10946795E-01 0.14304616E+03</pdfrwt>
<totfact> 0.57228631E+03</totfact>
</mgrwt>
</event>
<event>
 6    1  0.8165933E-006  0.2313047E+03  0.7546771E-02  0.1129679E+00
          2   -1    0    0  501    0  0.00000000000E+00  0.00000000000E+00  0.25229842027E+03  0.25229842027E+03  0.00000000000E+00 0. -1.
         -2   -1    0    0    0  501 -0.00000000000E+00 -0.00000000000E+00 -0.21896773045E+03  0.21896773045E+03  0.00000000000E+00 0.  1.
          5    1    1    2  502    0  0.19714079913E+02 -0.28148553622E+02  0.40181408895E+02  0.53081273898E+02  0.47000000000E+01 0. -1.
         -5    1    1    2    0  502  0.14178622706E+03  0.12575573096E+03  0.58550205671E+02  0.19841384689E+03  0.47000000000E+01 0.  1.
        -11    1    1    2    0    0 -0.64838981033E+02 -0.91591598124E+02 -0.25848853813E+02  0.11515762047E+03  0.00000000000E+00 0. -1.
         11    1    1    2    0    0 -0.96661325939E+02 -0.60155792124E+01 -0.39552070933E+02  0.10461340947E+03  0.00000000000E+00 0.  1.
<mgrwt>
<rscale>  0 0.22573406E+03</rscale>
<asrwt>0</asrwt>
<pdfrwt beam="1">  1        2 0.38815142E-01 0.23130470E+03</pdfrwt>
<pdfrwt beam="2">  1       -2 0.33687343E-01 0.23130470E+03</pdfrwt>
<totfact> 0.10876267E+03</totfact>
</mgrwt>
</event>
<event>
 7    1  0.8165933E-006  0.1718779E+03  0.7546771E-02  0.1182616E+00
         -2   -1    0    0    0  501 -0.00000000000E+00  0.00000000000E+00  0.19019540281E+03  0.19019540281E+03  0.00000000000E+00 0.  1.
          2   -1    0    0  501    0  0.00000000000E+00 -0.00000000000E+00 -0.13746766729E+03  0.13746766729E+03  0.00000000000E+00 0. -1.
         23    2    1    2    0    0 -0.11746441996E+03  0.10851851465E+02  0.35363862367E+01  0.17191424630E+03  0.12500539755E+03 0.  0.
          5    1    3    3  502    0 -0.11783487907E+03  0.49803702141E+02 -0.14307843914E+02  0.12881099282E+03  0.47000000000E+01 0.  1.
         -5    1    3    3    0  502  0.37045911450E+00 -0.38951850676E+02  0.17844230151E+02  0.43103253481E+02  0.47000000000E+01 0.  1.
        -11    1    1    2    0    0  0.36867105233E+01 -0.15719138989E+02  0.38037274593E+02  0.41322117849E+02  0.00000000000E+00 0.  1.
         11    1    1    2    0    0  0.11377770943E+03  0.48672875240E+01  0.11154074687E+02  0.11442670595E+03  0.00000000000E+00 0. -1.
<mgrwt>
<rscale>  0 0.16550699E+03</rscale>
<asrwt>0</asrwt>
<pdfrwt beam="2">  1        2 0.21148872E-01 0.17187787E+03</pdfrwt>
<pdfrwt beam="1">  1       -2 0.29260831E-01 0.17187787E+03</pdfrwt>
<totfact> 0.27222333E+03</totfact>
</mgrwt>
</event>
<event>
 7    1  0.8165933E-006  0.2908658E+03  0.7546771E-02  0.1091572E+00
          2   -1    0    0  501    0  0.00000000000E+00  0.00000000000E+00  0.11149194904E+04  0.11149194904E+04  0.00000000000E+00 0.  1.
         -2   -1    0    0    0  501 -0.00000000000E+00 -0.00000000000E+00 -0.94994525027E+02  0.94994525027E+02  0.00000000000E+00 0. -1.
         23    2    1    2    0    0  0.13865904087E+03  0.22305902874E+03  0.81201265150E+03  0.86253549960E+03  0.12498512695E+03 0.  0.
          5    1    3    3  502    0  0.30954757051E+02  0.79216606034E+02  0.11743679698E+03  0.14507570072E+03  0.47000000000E+01 0.  1.
         -5    1    3    3    0  502  0.10770428382E+03  0.14384242271E+03  0.69457585452E+03  0.71745979888E+03  0.47000000000E+01 0.  1.
        -11    1    1    2    0    0 -0.11796536948E+02 -0.46658435483E+02  0.85165151209E+02  0.97822650067E+02  0.00000000000E+00 0.  1.
         11    1    1    2    0    0 -0.12686250392E+03 -0.17640059326E+03  0.12274716271E+03  0.24955586580E+03  0.00000000000E+00 0. -1.
<mgrwt>
<rscale>  0 0.28766911E+03</rscale>
<asrwt>0</asrwt>
<pdfrwt beam="1">  1        2 0.17152607E+00 0.29086585E+03</pdfrwt>
<pdfrwt beam="2">  1       -2 0.14614543E-01 0.29086585E+03</pdfrwt>
<totfact> 0.80154929E+02</totfact>
</mgrwt>
</event>
<event>
 7    1  0.8165933E-006  0.1926061E+03  0.7546771E-02  0.1160549E+00
         -2   -1    0    0    0  501 -0.00000000000E+00  0.00000000000E+00  0.25442018173E+03  0.25442018173E+03  0.00000000000E+00 0.  1.
          2   -1    0    0  501    0  0.00000000000E+00 -0.00000000000E+00 -0.14013435609E+03  0.14013435609E+03  0.00000000000E+00 0. -1.
         23    2    1    2    0    0 -0.10244230255E+03  0.10477600810E+03  0.12072363048E+02  0.19298406008E+03  0.12499867307E+03 0.  0.
          5    1    3    3  502    0  0.10577824378E+01  0.61987224591E+02  0.44307459485E+02  0.76346420232E+02  0.47000000000E+01 0. -1.
         -5    1    3    3    0  502 -0.10350008499E+03  0.42788783512E+02 -0.32235096437E+02  0.11663763985E+03  0.47000000000E+01 0. -1.
        -11    1    1    2    0    0  0.27833783586E+02 -0.12424025022E+02  0.73288091956E+02  0.79373927262E+02  0.00000000000E+00 0.  1.
         11    1    1    2    0    0  0.74608518967E+02 -0.92351983081E+02  0.28925370628E+02  0.12219655047E+03  0.00000000000E+00 0. -1.
<mgrwt>
<rscale>  0 0.18770374E+03</rscale>
<asrwt>0</asrwt>
<pdfrwt beam="2">  1        2 0.21559132E-01 0.19260609E+03</pdfrwt>
<pdfrwt beam="1">  1       -2 0.39141567E-01 0.19260609E+03</pdfrwt>
<totfact> 0.15632903E+03</totfact>
</mgrwt>
</event>
<event>
 6    1  0.8165933E-006  0.1704940E+03  0.7546771E-02  0.1198532E+00
         -1   -1    0    0    0  501 -0.00000000000E+00  0.00000000000E+00  0.18302189425E+02  0.18302189425E+02  0.00000000000E+00 0.  1.
          1   -1    0    0  501    0  0.00000000000E+00 -0.00000000000E+00 -0.21175724174E+04  0.21175724174E+04  0.00000000000E+00 0. -1.
          5    1    1    2  502    0 -0.78189250560E+02 -0.72144088515E+02 -0.14096072212E+04  0.14136240436E+04  0.47000000000E+01 0. -1.
         -5    1    1    2    0  502  0.59032003228E+02  0.10594970453E+02 -0.50872442146E+03  0.51226912633E+03  0.47000000000E+01 0.  1.
        -11    1    1    2    0    0  0.46456155351E+02  0.63525337370E+02 -0.12510825743E+03  0.14780297337E+03  0.00000000000E+00 0.  1.
         11    1    1    2    0    0 -0.27298908019E+02 -0.19762193077E+01 -0.55830327806E+02  0.62178463512E+02  0.00000000000E+00 0. -1.
<mgrwt>
<rscale>  0 0.15159077E+03</rscale>
<asrwt>0</asrwt>
<pdfrwt beam="2">  1        1 0.32578034E+00 0.17049402E+03</pdfrwt>
<pdfrwt beam="1">  1       -1 0.28157217E-02 0.17049402E+03</pdfrwt>
<totfact> 0.11826124E+03</totfact>
</mgrwt>
</event>
<event>
 6    1  0.8165933E-006  0.1658666E+03  0.7546771E-02  0.1208019E+00
          2   -1    0    0  501    0  0.00000000000E+00  0.00000000000E+00  0.49029884140E+03  0.49029884140E+03  0.00000000000E+00 0. -1.
         -2   -1    0    0    0  501 -0.00000000000E+00 -0.00000000000E+00 -0.34752348923E+02  0.34752348923E+02  0.00000000000E+00 0.  1.
          5    1    1    2  502    0  0.32069548012E+02 -0.28106008160E+02  0.26489994509E+03  0.26835140118E+03  0.47000000000E+01 0. -1.
         -5    1    1    2    0  502 -0.24400414608E+02  0.40330702418E+02  0.39347797607E+01  0.47534390523E+02  0.47000000000E+01 0.  1.
        -11    1    1    2    0    0 -0.23402798028E+02  0.25880679251E+02  0.26722231169E+02  0.43949723010E+02  0.00000000000E+00 0.  1.
         11    1    1    2    0    0  0.15733664625E+02 -0.38105373509E+02  0.15998953645E+03  0.16521567561E+03  0.00000000000E+00 0. -1.
<mgrwt>
<rscale>  0 0.14402075E+03</rscale>
<asrwt>0</asrwt>
<pdfrwt beam="1">  1        2 0.75430586E-01 0.16586659E+03</pdfrwt>
<pdfrwt beam="2">  1       -2 0.53465156E-02 0.16586659E+03</pdfrwt>
<totfact> 0.10842161E+04</totfact>
</mgrwt>
</event>
<event>
 7    1  0.8165933E-006  0.1436432E+03  0.7546771E-02  0.1219547E+00
         -1   -1    0    0    0  501 -0.00000000000E+00  0.00000000000E+00  0.37506992406E+02  0.37506992406E+02  0.00000000000E+00 0.  1.
          1   -1    0    0  501    0  0.00000000000E+00 -0.00000000000E+00 -0.58679936297E+03  0.58679936297E+03  0.00000000000E+00 0. -1.
         23    2    1    2    0    0 -0.28133897458E+02  0.64940454049E+02 -0.45336130653E+03  0.47557317283E+03  0.12499835877E+03 0.  0.
          5    1    3    3  502    0 -0.59303121657E+02  0.65684661203E+02 -0.18245331420E+03  0.20283647802E+03  0.47000000000E+01 0. -1.
         -5    1    3    3    0  502  0.31169224199E+02 -0.74420715411E+00 -0.27090799234E+03  0.27273669480E+03  0.47000000000E+01 0. -1.
        -11    1    1    2    0    0  0.59608749174E+01  0.22519381350E+02 -0.16781131437E+02  0.28709944941E+02  0.00000000000E+00 0. -1.
         11    1    1    2    0    0  0.22173022541E+02 -0.87459835399E+02 -0.79149932598E+02  0.12002323761E+03  0.00000000000E+00 0.  1.
<mgrwt>
<rscale>  0 0.13547730E+03</rscale>
<asrwt>0</asrwt>
<pdfrwt beam="2">  1        1 0.90276822E-01 0.14364320E+03</pdfrwt>
<pdfrwt beam="1">  1       -1 0.57703067E-02 0.14364320E+03</pdfrwt>
<totfact> 0.49855995E+03</totfact>
</mgrwt>
</event>
<event>
 7    1  0.8165933E-006  0.1610530E+03  0.7546771E-02  0.1196324E+00
         -2   -1    0    0    0  501 -0.00000000000E+00  0.00000000000E+00  0.70724800803E+02  0.70724800803E+02  0.00000000000E+00 0.  1.
          2   -1    0    0  501    0  0.00000000000E+00 -0.00000000000E+00 -0.30838957334E+03  0.30838957334E+03  0.00000000000E+00 0. -1.
         23    2    1    2    0    0 -0.32173081091E+02  0.96326044571E+02 -0.15022578528E+03  0.22024044702E+03  0.12499701569E+03 0.  0.
          5    1    3    3  502    0 -0.15487405511E+02 -0.14397421609E+02  0.10679983675E+02  0.24151553361E+02  0.47000000000E+01 0. -1.
         -5    1    3    3    0  502 -0.16685675580E+02  0.11072346618E+03 -0.16090576896E+03  0.19608889366E+03  0.47000000000E+01 0. -1.
        -11    1    1    2    0    0  0.34501600121E+02 -0.48416464570E+02 -0.35395145297E+00  0.59452836215E+02  0.00000000000E+00 0.  1.
         11    1    1    2    0    0 -0.23285190306E+01 -0.47909580001E+02 -0.87085035802E+02  0.99421090908E+02  0.00000000000E+00 0. -1.
<mgrwt>
<rscale>  0 0.15342684E+03</rscale>
<asrwt>0</asrwt>
<pdfrwt beam="2">  1        2 0.47444550E-01 0.16105300E+03</pdfrwt>
<pdfrwt beam="1">  1       -2 0.10880738E-01 0.16105300E+03</pdfrwt>
<totfact> 0.59374793E+03</totfact>
</mgrwt>
</event>
<event>
 7    1  0.8165933E-006  0.1678603E+03  0.7546771E-02  0.1186788E+00
          1   -1    0    0  501    0  0.00000000000E+00  0.00000000000E+00  0.46562600867E+03  0.46562600867E+03  0.00000000000E+00 0. -1.
         -1   -1    0    0    0  501 -0.00000000000E+00 -0.00000000000E+00 -0.58085659190E+02  0.58085659190E+02  0.00000000000E+00 0.  1.
         23    2    1    2    0    0 -0.18746480763E+02 -0.11040219939E+03  0.29918698250E+03  0.34305965621E+03  0.12504799499E+03 0.  0.
          5    1    3    3  502    0 -0.43520810714E+02 -0.11906471885E+03  0.28691552516E+03  0.31370858582E+03  0.47000000000E+01 0.  1.
         -5    1    3    3    0  502  0.24774329950E+02  0.86625194591E+01  0.12271457338E+02  0.29351070391E+02  0.47000000000E+01 0.  1.
        -11    1    1    2    0    0 -0.22866533110E+02  0.49348130938E+02  0.64338087188E+01  0.54767784858E+02  0.00000000000E+00 0.  1.
         11    1    1    2    0    0  0.41613013874E+02  0.61054068452E+02  0.10191955826E+03  0.12588422679E+03  0.00000000000E+00 0. -1.
<mgrwt>
<rscale>  0 0.16170204E+03</rscale>
<asrwt>0</asrwt>
<pdfrwt beam="1">  1        1 0.71634768E-01 0.16786029E+03</pdfrwt>
<pdfrwt beam="2">  1       -1 0.89362556E-02 0.16786029E+03</pdfrwt>
<totfact> 0.35278637E+03</totfact>
</mgrwt>
</event>
<event>
 6    1  0.8165933E-006  0.1976057E+03  0.7546771E-02  0.1174801E+00
         -2   -1    0    0    0  501 -0.00000000000E+00  0.00000000000E+00  0.26910102298E+03  0.26910102298E+03  0.00000000000E+00 0.  1.
          2   -1    0    0  501    0  0.00000000000E+00 -0.00000000000E+00 -0.64286949218E+03  0.64286949218E+03  0.00000000000E+00 0. -1.
          5    1    1    2  502    0  0.10977807220E+03 -0.21443621306E+02 -0.52663623858E+03  0.53840400427E+03  0.47000000000E+01 0. -1.
         -5    1    1    2    0  502 -0.54140511881E+02 -0.27985120608E+02 -0.87471026384E+02  0.10671285049E+03  0.47000000000E+01 0.  1.
        -11    1    1    2    0    0 -0.51048209061E+02 -0.32205650423E+01  0.17761622686E+03  0.18483456314E+03  0.00000000000E+00 0.  1.
         11    1    1    2    0    0 -0.45893512628E+01  0.52649306956E+02  0.62722568894E+02  0.82019097268E+02  0.00000000000E+00 0. -1.
<mgrwt>
<rscale>  0 0.17295472E+03</rscale>
<asrwt>0</asrwt>
<pdfrwt beam="2">  1        2 0.98902998E-01 0.19760573E+03</pdfrwt>
<pdfrwt beam="1">  1       -2 0.41400158E-01 0.19760573E+03</pdfrwt>
<totfact> 0.26346453E+02</totfact>
</mgrwt>
</event>
<event>
 7    1  0.8165933E-006  0.1438140E+03  0.7546771E-02  0.1219257E+00
          2   -1    0    0  501    0  0.00000000000E+00  0.00000000000E+00  0.11872991506E+03  0.11872991506E+03  0.00000000000E+00 0. -1.
         -2   -1    0    0    0  501 -0.00000000000E+00 -0.00000000000E+00 -0.15655391706E+03  0.15655391706E+03  0.00000000000E+00 0.  1.
         23    2    1    2    0    0 -0.52692217238E+02 -0.47761527377E+02  0.23750573201E+02  0.14576195010E+03  0.12499929246E+03 0.  0.
          5    1    3    3  502    0 -0.56798054285E+02  0.27199750232E+02  0.30707574664E+02  0.70220299949E+02  0.47000000000E+01 0.  1.
         -5    1    3    3    0  502  0.41058370470E+01 -0.74961277608E+02 -0.69570014630E+01  0.75541650153E+02  0.47000000000E+01 0.  1.
        -11    1    1    2    0    0  0.55724707610E+02 -0.90453492078E+01 -0.23991501674E+02  0.61340472227E+02  0.00000000000E+00 0. -1.
         11    1    1    2    0    0 -0.30324903716E+01  0.56806876585E+02 -0.37583073530E+02  0.68181409791E+02  0.00000000000E+00 0.  1.
<mgrwt>
<rscale>  0 0.13568408E+03</rscale>
<asrwt>0</asrwt>
<pdfrwt beam="1">  1        2 0.18266141E-01 0.14381396E+03</pdfrwt>
<pdfrwt beam="2">  1       -2 0.24085218E-01 0.14381396E+03</pdfrwt>
<totfact> 0.44948201E+03</totfact>
</mgrwt>
</event>
<event>
 7    1  0.8165933E-006  0.1457862E+03  0.7546771E-02  0.1215841E+00
          2   -1    0    0  501    0  0.00000000000E+00  0.00000000000E+00  0.12429061237E+04  0.12429061237E+04  0.00000000000E+00 0. -1.
         -2   -1    0    0    0  501 -0.00000000000E+00 -0.00000000000E+00 -0.13999417004E+02  0.13999417004E+02  0.00000000000E+00 0.  1.
         23    2    1    2    0    0  0.46465342586E+02  0.58990683670E+02  0.71759256285E+03  0.73225179732E+03  0.12495871157E+03 0.  0.
          5    1    3    3  502    0  0.76704377678E+02  0.73122582804E+02  0.43933131724E+03  0.45195638061E+03  0.47000000000E+01 0.  1.
         -5    1    3    3    0  502 -0.30239035093E+02 -0.14131899134E+02  0.27826124561E+03  0.28029541671E+03  0.47000000000E+01 0.  1.
        -11    1    1    2    0    0  0.19896840443E+02  0.27081134185E+01  0.40564189611E+02  0.45262253774E+02  0.00000000000E+00 0.  1.
         11    1    1    2    0    0 -0.66362183029E+02 -0.61698797089E+02  0.47074995421E+03  0.47939148958E+03  0.00000000000E+00 0. -1.
<mgrwt>
<rscale>  0 0.13814920E+03</rscale>
<asrwt>0</asrwt>
<pdfrwt beam="1">  1        2 0.19121624E+00 0.14578617E+03</pdfrwt>
<pdfrwt beam="2">  1       -2 0.21537574E-02 0.14578617E+03</pdfrwt>
<totfact> 0.12697284E+04</totfact>
</mgrwt>
</event>
<event>
 7    1  0.8165933E-006  0.1401233E+03  0.7546771E-02  0.1215465E+00
          2   -1    0    0  501    0  0.00000000000E+00  0.00000000000E+00  0.62773121919E+03  0.62773121919E+03  0.00000000000E+00 0. -1.
         -2   -1    0    0    0  501 -0.00000000000E+00 -0.00000000000E+00 -0.31657344341E+02  0.31657344341E+02  0.00000000000E+00 0.  1.
         23    2    1    2    0    0 -0.39443112710E+02  0.49476027072E+02  0.38456744370E+03  0.40930021470E+03  0.12502364018E+03 0.  0.
          5    1    3    3  502    0  0.28593464163E+02  0.30951100652E+02  0.27937144657E+03  0.28257043721E+03  0.47000000000E+01 0. -1.
         -5    1    3    3    0  502 -0.68036576873E+02  0.18524926421E+02  0.10519599713E+03  0.12672977749E+03  0.47000000000E+01 0. -1.
        -11    1    1    2    0    0  0.57061254460E+02  0.63910290249E+01  0.16677794011E+03  0.17638512783E+03  0.00000000000E+00 0. -1.
         11    1    1    2    0    0 -0.17618141750E+02 -0.55867056097E+02  0.44728491052E+02  0.73703221012E+02  0.00000000000E+00 0.  1.
<mgrwt>
<rscale>  0 0.13842465E+03</rscale>
<asrwt>0</asrwt>
<pdfrwt beam="1">  1        2 0.96574025E-01 0.14012333E+03</pdfrwt>
<pdfrwt beam="2">  1       -2 0.48703611E-02 0.14012333E+03</pdfrwt>
<totfact> 0.93482133E+03</totfact>
</mgrwt>
</event>
<event>
 7    1  0.8165933E-006  0.1366552E+03  0.7546771E-02  0.1229502E+00
          2   -1    0    0  501    0  0.00000000000E+00  0.00000000000E+00  0.12995656973E+04  0.12995656973E+04  0.00000000000E+00 0. -1.
         -2   -1    0    0    0  501 -0.00000000000E+00 -0.00000000000E+00 -0.11834758328E+02  0.11834758328E+02  0.00000000000E+00 0.  1.
         23    2    1    2    0    0 -0.38910999531E+02 -0.39227054954E+02  0.83679495338E+03  0.84787997149E+03  0.12498729671E+03 0.  0.
          5    1    3    3  502    0 -0.17504486841E+02 -0.22931925137E+02  0.34914229128E+02  0.45534312838E+02  0.47000000000E+01 0. -1.
         -5    1    3    3    0  502 -0.21406512691E+02 -0.16295129817E+02  0.80188072425E+03  0.80234565866E+03  0.47000000000E+01 0. -1.
        -11    1    1    2    0    0  0.31846299593E+02 -0.24269203391E+02  0.12090175762E+03  0.12735939709E+03  0.00000000000E+00 0.  1.
         11    1    1    2    0    0  0.70646999381E+01  0.63496258346E+02  0.33003422794E+03  0.33616108701E+03  0.00000000000E+00 0. -1.
<mgrwt>
<rscale>  0 0.12863068E+03</rscale>
<asrwt>0</asrwt>
<pdfrwt beam="1">  1        2 0.19993307E+00 0.13665523E+03</pdfrwt>
<pdfrwt beam="2">  1       -2 0.18207331E-02 0.13665523E+03</pdfrwt>
<totfact> 0.15042975E+04</totfact>
</mgrwt>
</event>
<event>
 7    1  0.8165933E-006  0.1257942E+03  0.7546771E-02  0.1248541E+00
          1   -1    0    0  501    0  0.00000000000E+00  0.00000000000E+00  0.17259707484E+03  0.17259707484E+03  0.00000000000E+00 0. -1.
         -1   -1    0    0    0  501 -0.00000000000E+00 -0.00000000000E+00 -0.98664133841E+02  0.98664133841E+02  0.00000000000E+00 0.  1.
         23    2    1    2    0    0  0.13129278990E+02  0.51761323744E+01  0.11390300746E+03  0.16969998198E+03  0.12500007385E+03 0.  0.
          5    1    3    3  502    0 -0.10345164246E+02  0.36012967228E+02  0.12379544236E+03  0.12942703651E+03  0.47000000000E+01 0. -1.
         -5    1    3    3    0  502  0.23474443236E+02 -0.30836834854E+02 -0.98924348936E+01  0.40272945474E+02  0.47000000000E+01 0. -1.
        -11    1    1    2    0    0  0.15780836106E+02 -0.25017851526E+02 -0.55749296568E+02  0.63110314141E+02  0.00000000000E+00 0.  1.
         11    1    1    2    0    0 -0.28910115096E+02  0.19841719152E+02  0.15779230105E+02  0.38450912557E+02  0.00000000000E+00 0. -1.
<mgrwt>
<rscale>  0 0.11675941E+03</rscale>
<asrwt>0</asrwt>
<pdfrwt beam="1">  1        1 0.26553396E-01 0.12579423E+03</pdfrwt>
<pdfrwt beam="2">  1       -1 0.15179098E-01 0.12579423E+03</pdfrwt>
<totfact> 0.53035035E+03</totfact>
</mgrwt>
</event>
<event>
 7    1  0.8165933E-006  0.1921182E+03  0.7546771E-02  0.1161372E+00
         -1   -1    0    0    0  501 -0.00000000000E+00  0.00000000000E+00  0.76276347679E+02  0.76276347679E+02  0.00000000000E+00 0.  1.
          1   -1    0    0  501    0  0.00000000000E+00 -0.00000000000E+00 -0.44151974970E+03  0.44151974970E+03  0.00000000000E+00 0. -1.
         23    2    1    2    0    0  0.10365842161E+03  0.10262665406E+03 -0.22656911265E+03  0.29705719152E+03  0.12502845169E+03 0.  0.
          5    1    3    3  502    0  0.19588822145E+02  0.96097271392E+02 -0.75023011524E+02  0.12356759195E+03  0.47000000000E+01 0. -1.
         -5    1    3    3    0  502  0.84069599466E+02  0.65293826673E+01 -0.15154610113E+03  0.17348959957E+03  0.47000000000E+01 0. -1.
        -11    1    1    2    0    0 -0.92937060329E+02 -0.59576041938E+02 -0.49181978068E+02  0.12085308818E+03  0.00000000000E+00 0.  1.
         11    1    1    2    0    0 -0.10721361282E+02 -0.43050612121E+02 -0.89492311305E+02  0.99885817684E+02  0.00000000000E+00 0. -1.
<mgrwt>
<rscale>  0 0.18680787E+03</rscale>
<asrwt>0</asrwt>
<pdfrwt beam="2">  1        1 0.67926117E-01 0.19211822E+03</pdfrwt>
<pdfrwt beam="1">  1       -1 0.11734822E-01 0.19211822E+03</pdfrwt>
<totfact> 0.24964533E+03</totfact>
</mgrwt>
</event>
<event>
 6    1  0.8165933E-006  0.2072931E+03  0.7546771E-02  0.1149913E+00
         -3   -1    0    0    0  501 -0.00000000000E+00  0.00000000000E+00  0.22480499070E+03  0.22480499070E+03  0.00000000000E+00 0.  1.
          3   -1    0    0  501    0  0.00000000000E+00 -0.00000000000E+00 -0.29090045547E+03  0.29090045547E+03  0.00000000000E+00 0. -1.
          5    1    1    2  502    0 -0.16482177884E+02  0.16552265376E+03 -0.19379464456E+03  0.25543661710E+03  0.47000000000E+01 0. -1.
         -5    1    1    2    0  502  0.31624436960E+02 -0.10208466415E+02 -0.94396093547E+01  0.34864222698E+02  0.47000000000E+01 0.  1.
        -11    1    1    2    0    0 -0.49268596142E+02 -0.11318068685E+03  0.10706811152E+03  0.16340392574E+03  0.00000000000E+00 0.  1.
         11    1    1    2    0    0  0.34126337066E+02 -0.42133500495E+02  0.30070677623E+02  0.62000680627E+02  0.00000000000E+00 0. -1.
<mgrwt>
<rscale>  0 0.19979410E+03</rscale>
<asrwt>0</asrwt>
<pdfrwt beam="2">  1        3 0.44753917E-01 0.20729307E+03</pdfrwt>
<pdfrwt beam="1">  1       -3 0.34585383E-01 0.20729307E+03</pdfrwt>
<totfact> 0.10032056E+02</totfact>
</mgrwt>
</event>
<event>
 7    1  0.8165933E-006  0.1587948E+03  0.7546771E-02  0.1197814E+00
          1   -1    0    0  501    0  0.00000000000E+00  0.00000000000E+00  0.96435859819E+02  0.96435859819E+02  0.00000000000E+00 0. -1.
         -1   -1    0    0    0  501 -0.00000000000E+00 -0.00000000000E+00 -0.22673277006E+03  0.22673277006E+03  0.00000000000E+00 0.  1.
         23    2    1    2    0    0  0.84339067959E+02 -0.49773203640E+02 -0.93378731706E+02  0.18421559970E+03  0.12500139780E+03 0.  0.
          5    1    3    3  502    0  0.11975902604E+02  0.16232560811E+01 -0.94440602111E+02  0.95326672713E+02  0.47000000000E+01 0. -1.
         -5    1    3    3    0  502  0.72363165355E+02 -0.51396459722E+02  0.10618704046E+01  0.88888926987E+02  0.47000000000E+01 0. -1.
        -11    1    1    2    0    0 -0.77419035346E+02  0.80273411731E+01  0.67743740339E+01  0.78128339185E+02  0.00000000000E+00 0. -1.
         11    1    1    2    0    0 -0.69200326126E+01  0.41745862467E+02 -0.43692552568E+02  0.60824690993E+02  0.00000000000E+00 0.  1.
<mgrwt>
<rscale>  0 0.15218442E+03</rscale>
<asrwt>0</asrwt>
<pdfrwt beam="1">  1        1 0.14836286E-01 0.15879484E+03</pdfrwt>
<pdfrwt beam="2">  1       -1 0.34881965E-01 0.15879484E+03</pdfrwt>
<totfact> 0.28949907E+03</totfact>
</mgrwt>
</event>
<event>
 7    1  0.8165933E-006  0.1258972E+03  0.7546771E-02  0.1248714E+00
         -3   -1    0    0    0  501 -0.00000000000E+00  0.00000000000E+00  0.39723835302E+03  0.39723835302E+03  0.00000000000E+00 0.  1.
          3   -1    0    0  501    0  0.00000000000E+00 -0.00000000000E+00 -0.30375675674E+02  0.30375675674E+02  0.00000000000E+00 0. -1.
         23    2    1    2    0    0  0.14261281811E+02 -0.47989336187E+01  0.23089760750E+03  0.26299013745E+03  0.12499477319E+03 0.  0.
          5    1    3    3  502    0 -0.19137945539E+02 -0.30471972077E+02  0.21448945705E+03  0.21753762715E+03  0.47000000000E+01 0.  1.
         -5    1    3    3    0  502  0.33399227350E+02  0.25673038459E+02  0.16408150452E+02  0.45452510299E+02  0.47000000000E+01 0.  1.
        -11    1    1    2    0    0 -0.68050296886E+01 -0.21208561174E+02 -0.35104849338E+01  0.22548503290E+02  0.00000000000E+00 0. -1.
         11    1    1    2    0    0 -0.74562521224E+01  0.26007494793E+02  0.13947555478E+03  0.14207538796E+03  0.00000000000E+00 0.  1.
<mgrwt>
<rscale>  0 0.11665839E+03</rscale>
<asrwt>0</asrwt>
<pdfrwt beam="2">  1        3 0.46731811E-02 0.12589721E+03</pdfrwt>
<pdfrwt beam="1">  1       -3 0.61113589E-01 0.12589721E+03</pdfrwt>
<totfact> 0.15263062E+03</totfact>
</mgrwt>
</event>
<event>
 7    1  0.8165933E-006  0.1374745E+03  0.7546771E-02  0.1230015E+00
          2   -1    0    0  501    0  0.00000000000E+00  0.00000000000E+00  0.79458676903E+02  0.79458676903E+02  0.00000000000E+00 0. -1.
         -2   -1    0    0    0  501 -0.00000000000E+00 -0.00000000000E+00 -0.18451196332E+03  0.18451196332E+03  0.00000000000E+00 0.  1.
         23    2    1    2    0    0 -0.33106475730E+01 -0.57100003951E+02 -0.67533807598E+02  0.15316677803E+03  0.12501150301E+03 0.  0.
          5    1    3    3  502    0 -0.51277314514E+01 -0.86955486607E+02 -0.81899053679E+02  0.11965406501E+03  0.47000000000E+01 0.  1.
         -5    1    3    3    0  502  0.18170838784E+01  0.29855482656E+02  0.14365246082E+02  0.33512713012E+02  0.47000000000E+01 0.  1.
        -11    1    1    2    0    0 -0.33316083220E+01  0.30791978847E+02 -0.65113526233E+02  0.72104208434E+02  0.00000000000E+00 0.  1.
         11    1    1    2    0    0  0.66422558951E+01  0.26308025104E+02  0.27594047417E+02  0.38699653759E+02  0.00000000000E+00 0. -1.
<mgrwt>
<rscale>  0 0.12829044E+03</rscale>
<asrwt>0</asrwt>
<pdfrwt beam="1">  1        2 0.12224412E-01 0.13747453E+03</pdfrwt>
<pdfrwt beam="2">  1       -2 0.28386455E-01 0.13747453E+03</pdfrwt>
<totfact> 0.53747019E+03</totfact>
</mgrwt>
</event>
<event>
 7    1  0.8165933E-006  0.1685230E+03  0.7546771E-02  0.1185918E+00
         -1   -1    0    0    0  501 -0.00000000000E+00  0.00000000000E+00  0.14337230599E+03  0.14337230599E+03  0.00000000000E+00 0.  1.
          1   -1    0    0  501    0  0.00000000000E+00 -0.00000000000E+00 -0.17495786369E+03  0.17495786369E+03  0.00000000000E+00 0. -1.
         23    2    1    2    0    0  0.45242750882E+02 -0.10357767880E+03 -0.37200652828E+02  0.17258012719E+03  0.12499907871E+03 0.  0.
          5    1    3    3  502    0  0.27065774631E+02 -0.76715799797E+02  0.38475139727E+02  0.90112687630E+02  0.47000000000E+01 0.  1.
         -5    1    3    3    0  502  0.18176976251E+02 -0.26861879002E+02 -0.75675792555E+02  0.82467439563E+02  0.47000000000E+01 0.  1.
        -11    1    1    2    0    0  0.36472921977E+01  0.95414055782E+02 -0.25357742439E+01  0.95517406436E+02  0.00000000000E+00 0.  1.
         11    1    1    2    0    0 -0.48890043080E+02  0.81636230169E+01  0.81508693677E+01  0.50232636050E+02  0.00000000000E+00 0. -1.
<mgrwt>
<rscale>  0 0.16248601E+03</rscale>
<asrwt>0</asrwt>
<pdfrwt beam="2">  1        1 0.26916595E-01 0.16852303E+03</pdfrwt>
<pdfrwt beam="1">  1       -1 0.22057278E-01 0.16852303E+03</pdfrwt>
<totfact> 0.29167887E+03</totfact>
</mgrwt>
</event>
<event>
 7    1  0.8165933E-006  0.1372896E+03  0.7546771E-02  0.1228875E+00
         -3   -1    0    0    0  501 -0.00000000000E+00  0.00000000000E+00  0.10230561008E+03  0.10230561008E+03  0.00000000000E+00 0.  1.
          3   -1    0    0  501    0  0.00000000000E+00 -0.00000000000E+00 -0.15766440539E+03  0.15766440539E+03  0.00000000000E+00 0. -1.
         23    2    1    2    0    0 -0.56694847438E+02 -0.29538846549E+01 -0.65881721738E+02  0.15227879305E+03  0.12500159356E+03 0.  0.
          5    1    3    3  502    0 -0.57265926649E+02  0.46065635982E+02 -0.71583636017E+02  0.10270217193E+03  0.47000000000E+01 0.  1.
         -5    1    3    3    0  502  0.57107921078E+00 -0.49019520637E+02  0.57019142785E+01  0.49576621117E+02  0.47000000000E+01 0.  1.
        -11    1    1    2    0    0  0.23964060586E+02 -0.41784125000E+02 -0.88422790563E+01  0.48973209010E+02  0.00000000000E+00 0. -1.
         11    1    1    2    0    0  0.32730786852E+02  0.44738009655E+02  0.19365205492E+02  0.58718013416E+02  0.00000000000E+00 0.  1.
<mgrwt>
<rscale>  0 0.12904835E+03</rscale>
<asrwt>0</asrwt>
<pdfrwt beam="2">  1        3 0.24256062E-01 0.13728958E+03</pdfrwt>
<pdfrwt beam="1">  1       -3 0.15739325E-01 0.13728958E+03</pdfrwt>
<totfact> 0.12501514E+03</totfact>
</mgrwt>
</event>
<event>
 7    1  0.8165933E-006  0.1271927E+03  0.7546771E-02  0.1248412E+00
          2   -1    0    0  501    0  0.00000000000E+00  0.00000000000E+00  0.42908676907E+03  0.42908676907E+03  0.00000000000E+00 0. -1.
         -2   -1    0    0    0  501 -0.00000000000E+00 -0.00000000000E+00 -0.28151840735E+02  0.28151840735E+02  0.00000000000E+00 0.  1.
         23    2    1    2    0    0 -0.88269532673E+01 -0.21857221863E+02  0.26441893381E+03  0.29342011024E+03  0.12498934067E+03 0.  0.
          5    1    3    3  502    0  0.37734704188E+02 -0.10136421437E+02  0.19734412785E+02  0.44024901904E+02  0.47000000000E+01 0.  1.
         -5    1    3    3    0  502 -0.46561657456E+02 -0.11720800426E+02  0.24468452103E+03  0.24939520833E+03  0.47000000000E+01 0.  1.
        -11    1    1    2    0    0  0.14590080554E+02  0.40011002872E+02  0.22391986369E+02  0.48116024929E+02  0.00000000000E+00 0.  1.
         11    1    1    2    0    0 -0.57631272864E+01 -0.18153781009E+02  0.11412400815E+03  0.11570247464E+03  0.00000000000E+00 0. -1.
<mgrwt>
<rscale>  0 0.11683492E+03</rscale>
<asrwt>0</asrwt>
<pdfrwt beam="1">  1        2 0.66013345E-01 0.12719272E+03</pdfrwt>
<pdfrwt beam="2">  1       -2 0.43310527E-02 0.12719272E+03</pdfrwt>
<totfact> 0.16852948E+04</totfact>
</mgrwt>
</event>
<event>
 7    1  0.1878354E-005  0.1508434E+03  0.7546771E-02  0.1211726E+00
         -1   -1    0    0    0  501 -0.00000000000E+00  0.00000000000E+00  0.44406816318E+02  0.44406816318E+02  0.00000000000E+00 0.  1.
          1   -1    0    0  501    0  0.00000000000E+00 -0.00000000000E+00 -0.40058645884E+03  0.40058645884E+03  0.00000000000E+00 0. -1.
         23    2    1    2    0    0  0.57415967896E+02 -0.61905834791E+02 -0.20747440717E+03  0.25651387952E+03  0.12499926002E+03 0.  0.
          5    1    3    3  502    0  0.66578741334E+02 -0.15589942326E+02 -0.33698486362E+02  0.76377045520E+02  0.47000000000E+01 0. -1.
         -5    1    3    3    0  502 -0.91627734383E+01 -0.46315892465E+02 -0.17377592080E+03  0.18013683400E+03  0.47000000000E+01 0. -1.
        -11    1    1    2    0    0 -0.20158252111E+02  0.49088077820E+02 -0.25017113741E+02  0.58667286389E+02  0.00000000000E+00 0.  1.
         11    1    1    2    0    0 -0.37257715784E+02  0.12817756971E+02 -0.12368812162E+03  0.12981210925E+03  0.00000000000E+00 0. -1.
<mgrwt>
<rscale>  0 0.14119795E+03</rscale>
<asrwt>0</asrwt>
<pdfrwt beam="2">  1        1 0.61628687E-01 0.15084343E+03</pdfrwt>
<pdfrwt beam="1">  1       -1 0.68318178E-02 0.15084343E+03</pdfrwt>
<totfact> 0.63874637E+03</totfact>
</mgrwt>
</event>
<event>
 7    1  0.8165933E-006  0.1545702E+03  0.7546771E-02  0.1203278E+00
         -2   -1    0    0    0  501 -0.00000000000E+00  0.00000000000E+00  0.27862248448E+03  0.27862248448E+03  0.00000000000E+00 0.  1.
          2   -1    0    0  501    0  0.00000000000E+00 -0.00000000000E+00 -0.91632043570E+02  0.91632043570E+02  0.00000000000E+00 0. -1.
         23    2    1    2    0    0  0.27597434006E+02  0.86646218820E+02  0.15055592496E+02  0.15530165383E+03  0.12499098855E+03 0.  0.
          5    1    3    3  502    0 -0.56808797416E+01  0.97365441610E+02 -0.26123620009E+02  0.10107836137E+03  0.47000000000E+01 0. -1.
         -5    1    3    3    0  502  0.33278313747E+02 -0.10719222790E+02  0.41179212505E+02  0.54223292464E+02  0.47000000000E+01 0. -1.
        -11    1    1    2    0    0 -0.28792436461E+02 -0.72600502308E+02  0.18172016488E+03  0.19779296159E+03  0.00000000000E+00 0.  1.
         11    1    1    2    0    0  0.11950024549E+01 -0.14045716512E+02 -0.97853164590E+01  0.17159912628E+02  0.00000000000E+00 0. -1.
<mgrwt>
<rscale>  0 0.14774019E+03</rscale>
<asrwt>0</asrwt>
<pdfrwt beam="2">  1        2 0.14097238E-01 0.15457016E+03</pdfrwt>
<pdfrwt beam="1">  1       -2 0.42864997E-01 0.15457016E+03</pdfrwt>
<totfact> 0.21304485E+03</totfact>
</mgrwt>
</event>
<event>
 7    1  0.8165933E-006  0.1350449E+03  0.7546771E-02  0.1232107E+00
         -1   -1    0    0    0  501 -0.00000000000E+00  0.00000000000E+00  0.37317139476E+02  0.37317139476E+02  0.00000000000E+00 0.  1.
          1   -1    0    0  501    0  0.00000000000E+00 -0.00000000000E+00 -0.42128405362E+03  0.42128405362E+03  0.00000000000E+00 0. -1.
         23    2    1    2    0    0  0.18044380372E+02  0.47881229237E+02 -0.27860644218E+03  0.30961052855E+03  0.12497566958E+03 0.  0.
          5    1    3    3  502    0  0.66301356676E+02  0.54248654714E+02 -0.18794224061E+03  0.20659903736E+03  0.47000000000E+01 0.  1.
         -5    1    3    3    0  502 -0.48256976304E+02 -0.63674254772E+01 -0.90664201576E+02  0.10301149119E+03  0.47000000000E+01 0.  1.
        -11    1    1    2    0    0  0.15546864814E+02 -0.14149971034E+02  0.10669640507E+02  0.23574730419E+02  0.00000000000E+00 0.  1.
         11    1    1    2    0    0 -0.33591245186E+02 -0.33731258203E+02 -0.11603011247E+03  0.12541593413E+03  0.00000000000E+00 0. -1.
<mgrwt>
<rscale>  0 0.12691451E+03</rscale>
<asrwt>0</asrwt>
<pdfrwt beam="2">  1        1 0.64812933E-01 0.13504492E+03</pdfrwt>
<pdfrwt beam="1">  1       -1 0.57410983E-02 0.13504492E+03</pdfrwt>
<totfact> 0.77182907E+03</totfact>
</mgrwt>
</event>
<event>
 7    1  0.8165933E-006  0.1333132E+03  0.7546771E-02  0.1235291E+00
         -1   -1    0    0    0  501 -0.00000000000E+00  0.00000000000E+00  0.52364540158E+02  0.52364540158E+02  0.00000000000E+00 0.  1.
          1   -1    0    0  501    0  0.00000000000E+00 -0.00000000000E+00 -0.31800453290E+03  0.31800453290E+03  0.00000000000E+00 0. -1.
         23    2    1    2    0    0  0.28809577177E+02 -0.36307299634E+02 -0.22187477380E+03  0.25884517177E+03  0.12499678379E+03 0.  0.
          5    1    3    3  502    0 -0.33450066620E+02 -0.52476816102E+02 -0.14892205038E+03  0.16147009096E+03  0.47000000000E+01 0. -1.
         -5    1    3    3    0  502  0.62259643797E+02  0.16169516469E+02 -0.72952723418E+02  0.97375080809E+02  0.47000000000E+01 0. -1.
        -11    1    1    2    0    0 -0.21706084688E+02 -0.28077200968E+02 -0.27061488118E+02  0.44629670241E+02  0.00000000000E+00 0.  1.
         11    1    1    2    0    0 -0.71034924895E+01  0.64384500602E+02 -0.16703730820E+02  0.66894231041E+02  0.00000000000E+00 0. -1.
<mgrwt>
<rscale>  0 0.12485850E+03</rscale>
<asrwt>0</asrwt>
<pdfrwt beam="2">  1        1 0.48923774E-01 0.13331319E+03</pdfrwt>
<pdfrwt beam="1">  1       -1 0.80560831E-02 0.13331319E+03</pdfrwt>
<totfact> 0.66034951E+03</totfact>
</mgrwt>
</event>
<event>
 6    1  0.8165933E-006  0.1606976E+03  0.7546771E-02  0.1213724E+00
          1   -1    0    0  501    0  0.00000000000E+00  0.00000000000E+00  0.32133911272E+03  0.32133911272E+03  0.00000000000E+00 0. -1.
         -1   -1    0    0    0  501 -0.00000000000E+00 -0.00000000000E+00 -0.62006042479E+02  0.62006042479E+02  0.00000000000E+00 0.  1.
          5    1    1    2  502    0 -0.74909732587E+02 -0.22045243068E+02  0.16464638045E+03  0.18228543928E+03  0.47000000000E+01 0. -1.
         -5    1    1    2    0  502  0.73285279452E+02  0.17609606202E+02  0.76462938651E+02  0.10746860659E+03  0.47000000000E+01 0.  1.
        -11    1    1    2    0    0  0.37038329867E+02 -0.20713192104E+02 -0.75232168250E+01  0.43098410619E+02  0.00000000000E+00 0.  1.
         11    1    1    2    0    0 -0.35413876731E+02  0.25148828970E+02  0.25746967963E+02  0.50492698710E+02  0.00000000000E+00 0. -1.
<mgrwt>
<rscale>  0 0.13970672E+03</rscale>
<asrwt>0</asrwt>
<pdfrwt beam="1">  1        1 0.49436786E-01 0.16069755E+03</pdfrwt>
<pdfrwt beam="2">  1       -1 0.95393913E-02 0.16069755E+03</pdfrwt>
<totfact> 0.50989182E+03</totfact>
</mgrwt>
</event>
<event>
 7    1  0.8165933E-006  0.2141949E+03  0.7546771E-02  0.1142365E+00
          1   -1    0    0  501    0  0.00000000000E+00  0.00000000000E+00  0.10225684648E+03  0.10225684648E+03  0.00000000000E+00 0.  1.
         -1   -1    0    0    0  501 -0.00000000000E+00 -0.00000000000E+00 -0.42764803423E+03  0.42764803423E+03  0.00000000000E+00 0. -1.
         23    2    1    2    0    0 -0.10463833491E+03 -0.13897091057E+03 -0.11306256681E+03  0.24220361497E+03  0.12496940415E+03 0.  0.
          5    1    3    3  502    0 -0.38505074168E+02 -0.91964210551E+01 -0.84877237257E+02  0.93773398687E+02  0.47000000000E+01 0.  1.
         -5    1    3    3    0  502 -0.66133260740E+02 -0.12977448951E+03 -0.28185329557E+02  0.14843021629E+03  0.47000000000E+01 0.  1.
        -11    1    1    2    0    0  0.72162644858E+02  0.48640074401E+02 -0.14947556314E+03  0.17296314095E+03  0.00000000000E+00 0. -1.
         11    1    1    2    0    0  0.32475690050E+02  0.90330836166E+02 -0.62853057792E+02  0.11473812479E+03  0.00000000000E+00 0.  1.
<mgrwt>
<rscale>  0 0.20899362E+03</rscale>
<asrwt>0</asrwt>
<pdfrwt beam="1">  1        1 0.15731823E-01 0.21419488E+03</pdfrwt>
<pdfrwt beam="2">  1       -1 0.65792005E-01 0.21419488E+03</pdfrwt>
<totfact> 0.84709266E+02</totfact>
</mgrwt>
</event>
<event>
 7    1  0.8165933E-006  0.1344408E+03  0.7546771E-02  0.1233291E+00
         -2   -1    0    0    0  501 -0.00000000000E+00  0.00000000000E+00  0.66600235706E+02  0.66600235706E+02  0.00000000000E+00 0.  1.
          2   -1    0    0  501    0  0.00000000000E+00 -0.00000000000E+00 -0.21760564718E+03  0.21760564718E+03  0.00000000000E+00 0. -1.
         23    2    1    2    0    0 -0.55878820365E+01  0.49176737928E+02 -0.10359437738E+03  0.16972364461E+03  0.12499897814E+03 0.  0.
          5    1    3    3  502    0 -0.53281433317E+02  0.64038412263E+02 -0.73637526222E+02  0.11128524003E+03  0.47000000000E+01 0.  1.
         -5    1    3    3    0  502  0.47693551280E+02 -0.14861674334E+02 -0.29956851161E+02  0.58438404574E+02  0.47000000000E+01 0.  1.
        -11    1    1    2    0    0 -0.43852534018E+00 -0.29146354786E+02  0.25438760857E+02  0.38688924200E+02  0.00000000000E+00 0.  1.
         11    1    1    2    0    0  0.60264073767E+01 -0.20030383142E+02 -0.72849794952E+02  0.75793314080E+02  0.00000000000E+00 0. -1.
<mgrwt>
<rscale>  0 0.12614466E+03</rscale>
<asrwt>0</asrwt>
<pdfrwt beam="2">  1        2 0.33477792E-01 0.13444077E+03</pdfrwt>
<pdfrwt beam="1">  1       -2 0.10246190E-01 0.13444077E+03</pdfrwt>
<totfact> 0.93595610E+03</totfact>
</mgrwt>
</event>
<event>
 7    1  0.8165933E-006  0.1633693E+03  0.7546771E-02  0.1192200E+00
          2   -1    0    0  501    0  0.00000000000E+00  0.00000000000E+00  0.12527225309E+03  0.12527225309E+03  0.00000000000E+00 0. -1.
         -2   -1    0    0    0  501 -0.00000000000E+00 -0.00000000000E+00 -0.18308027467E+03  0.18308027467E+03  0.00000000000E+00 0.  1.
         23    2    1    2    0    0  0.38890045935E+02  0.97739297492E+02 -0.23326216207E+02  0.16502618229E+03  0.12499649008E+03 0.  0.
          5    1    3    3  502    0  0.68607342864E+02  0.10512315205E+03  0.10239454082E+01  0.12562238279E+03  0.47000000000E+01 0.  1.
         -5    1    3    3    0  502 -0.29717296929E+02 -0.73838545612E+01 -0.24350161615E+02  0.39403799508E+02  0.47000000000E+01 0.  1.
        -11    1    1    2    0    0 -0.67215796599E+02 -0.75656890598E+02 -0.35902080402E+02  0.10738197141E+03  0.00000000000E+00 0.  1.
         11    1    1    2    0    0  0.28325750664E+02 -0.22082406894E+02  0.14202750210E+01  0.35944374053E+02  0.00000000000E+00 0. -1.
<mgrwt>
<rscale>  0 0.15693602E+03</rscale>
<asrwt>0</asrwt>
<pdfrwt beam="1">  1        2 0.19272654E-01 0.16336930E+03</pdfrwt>
<pdfrwt beam="2">  1       -2 0.28166196E-01 0.16336930E+03</pdfrwt>
<totfact> 0.32315762E+03</totfact>
</mgrwt>
</event>
<event>
 6    1  0.8165933E-006  0.1479626E+03  0.7546771E-02  0.1219227E+00
          2   -1    0    0  501    0  0.00000000000E+00  0.00000000000E+00  0.32959146195E+03  0.32959146195E+03  0.00000000000E+00 0. -1.
         -2   -1    0    0    0  501 -0.00000000000E+00 -0.00000000000E+00 -0.62365573981E+02  0.62365573981E+02  0.00000000000E+00 0.  1.
          5    1    1    2  502    0  0.61814153211E+02 -0.15175385889E+02  0.25237281897E+03  0.26031790494E+03  0.47000000000E+01 0. -1.
         -5    1    1    2    0  502 -0.17699001762E+02 -0.12683333893E+02 -0.93870429968E+01  0.24172881464E+02  0.47000000000E+01 0.  1.
        -11    1    1    2    0    0 -0.66803439513E+02  0.35898616692E+02  0.38761112175E+01  0.75937042670E+02  0.00000000000E+00 0.  1.
         11    1    1    2    0    0  0.22688288065E+02 -0.80398969096E+01  0.20364000773E+02  0.31529206858E+02  0.00000000000E+00 0. -1.
<mgrwt>
<rscale>  0 0.13570542E+03</rscale>
<asrwt>0</asrwt>
<pdfrwt beam="1">  1        2 0.50706378E-01 0.14796256E+03</pdfrwt>
<pdfrwt beam="2">  1       -2 0.95947039E-02 0.14796256E+03</pdfrwt>
<totfact> 0.67127430E+03</totfact>
</mgrwt>
</event>
<event>
 7    1  0.8165933E-006  0.1722316E+03  0.7546771E-02  0.1182332E+00
         -1   -1    0    0    0  501 -0.00000000000E+00  0.00000000000E+00  0.26951230936E+03  0.26951230936E+03  0.00000000000E+00 0.  1.
          1   -1    0    0  501    0  0.00000000000E+00 -0.00000000000E+00 -0.95010520762E+02  0.95010520762E+02  0.00000000000E+00 0. -1.
         23    2    1    2    0    0 -0.45138030274E+02  0.10954910332E+03  0.92801669115E+02  0.19564219679E+03  0.12500108623E+03 0.  0.
          5    1    3    3  502    0 -0.36712824266E+02  0.12335710548E+03  0.11158969068E+03  0.17040879087E+03  0.47000000000E+01 0.  1.
         -5    1    3    3    0  502 -0.84252060078E+01 -0.13808002164E+02 -0.18788021567E+02  0.25233405922E+02  0.47000000000E+01 0.  1.
        -11    1    1    2    0    0  0.32377669634E+01 -0.64908545047E+02  0.85666082134E+02  0.10752804278E+03  0.00000000000E+00 0.  1.
         11    1    1    2    0    0  0.41900263311E+02 -0.44640558271E+02 -0.39659626507E+01  0.61352590557E+02  0.00000000000E+00 0. -1.
<mgrwt>
<rscale>  0 0.16576983E+03</rscale>
<asrwt>0</asrwt>
<pdfrwt beam="2">  1        1 0.14617003E-01 0.17223159E+03</pdfrwt>
<pdfrwt beam="1">  1       -1 0.41463432E-01 0.17223159E+03</pdfrwt>
<totfact> 0.21898226E+03</totfact>
</mgrwt>
</event>
<event>
 7    1  0.8165933E-006  0.1272166E+03  0.7546771E-02  0.1247959E+00
         -1   -1    0    0    0  501 -0.00000000000E+00  0.00000000000E+00  0.30817781707E+02  0.30817781707E+02  0.00000000000E+00 0.  1.
          1   -1    0    0  501    0  0.00000000000E+00 -0.00000000000E+00 -0.39454874366E+03  0.39454874366E+03  0.00000000000E+00 0. -1.
         23    2    1    2    0    0 -0.23189515601E+02 -0.44922708515E+01 -0.23934967195E+03  0.27105780913E+03  0.12500454509E+03 0.  0.
          5    1    3    3  502    0 -0.29137386840E+02 -0.16811377106E+02 -0.25050121805E+03  0.25279351249E+03  0.47000000000E+01 0. -1.
         -5    1    3    3    0  502  0.59478712387E+01  0.12319106255E+02  0.11151546100E+02  0.18264296636E+02  0.47000000000E+01 0. -1.
        -11    1    1    2    0    0  0.44229871026E+01  0.42341951484E+02 -0.33794725948E+02  0.54355194529E+02  0.00000000000E+00 0.  1.
         11    1    1    2    0    0  0.18766528499E+02 -0.37849680632E+02 -0.90586564054E+02  0.99953521714E+02  0.00000000000E+00 0. -1.
<mgrwt>
<rscale>  0 0.11709996E+03</rscale>
<asrwt>0</asrwt>
<pdfrwt beam="2">  1        1 0.60699804E-01 0.12721663E+03</pdfrwt>
<pdfrwt beam="1">  1       -1 0.47411974E-02 0.12721663E+03</pdfrwt>
<totfact> 0.11081940E+04</totfact>
</mgrwt>
</event>
<event>
 7    1  0.8165933E-006  0.1380404E+03  0.7546771E-02  0.1220701E+00
          2   -1    0    0  501    0  0.00000000000E+00  0.00000000000E+00  0.11897150712E+03  0.11897150712E+03  0.00000000000E+00 0. -1.
         -2   -1    0    0    0  501 -0.00000000000E+00 -0.00000000000E+00 -0.16738515424E+03  0.16738515424E+03  0.00000000000E+00 0.  1.
         23    2    1    2    0    0  0.12240681087E+02  0.57192427080E+02  0.26587820079E+02  0.14057757122E+03  0.12503732789E+03 0.  0.
          5    1    3    3  502    0 -0.35276662972E+02  0.25440719008E+02  0.59966595501E+02  0.74227728715E+02  0.47000000000E+01 0. -1.
         -5    1    3    3    0  502  0.47517344059E+02  0.31751708072E+02 -0.33378775422E+02  0.66349842506E+02  0.47000000000E+01 0. -1.
        -11    1    1    2    0    0  0.31584929108E+02 -0.57369825300E+02 -0.83641925778E+01  0.66021695822E+02  0.00000000000E+00 0. -1.
         11    1    1    2    0    0 -0.43825610194E+02  0.17739822010E+00 -0.66637274618E+02  0.79757394313E+02  0.00000000000E+00 0.  1.
<mgrwt>
<rscale>  0 0.13465940E+03</rscale>
<asrwt>0</asrwt>
<pdfrwt beam="1">  1        2 0.18303309E-01 0.13804036E+03</pdfrwt>
<pdfrwt beam="2">  1       -2 0.25751562E-01 0.13804036E+03</pdfrwt>
<totfact> 0.39801002E+03</totfact>
</mgrwt>
</event>
<event>
 7    1  0.8165933E-006  0.1288454E+03  0.7546771E-02  0.1242733E+00
         -1   -1    0    0    0  501 -0.00000000000E+00  0.00000000000E+00  0.15121309326E+03  0.15121309326E+03  0.00000000000E+00 0.  1.
          1   -1    0    0  501    0  0.00000000000E+00 -0.00000000000E+00 -0.85590060786E+02  0.85590060786E+02  0.00000000000E+00 0. -1.
         23    2    1    2    0    0 -0.20806613715E+02 -0.23306908704E+02  0.26178443303E+02  0.13147795935E+03  0.12500006294E+03 0.  0.
          5    1    3    3  502    0 -0.55439852925E+02 -0.55891916471E+02  0.27923687250E+02  0.83661854682E+02  0.47000000000E+01 0.  1.
         -5    1    3    3    0  502  0.34633239211E+02  0.32585007766E+02 -0.17452439473E+01  0.47816104670E+02  0.47000000000E+01 0.  1.
        -11    1    1    2    0    0  0.42600927679E+02  0.10528792137E+02 -0.14122561510E+02  0.46099254295E+02  0.00000000000E+00 0. -1.
         11    1    1    2    0    0 -0.21794313964E+02  0.12778116567E+02  0.53567150683E+02  0.59225940402E+02  0.00000000000E+00 0.  1.
<mgrwt>
<rscale>  0 0.12022123E+03</rscale>
<asrwt>0</asrwt>
<pdfrwt beam="2">  1        1 0.13167702E-01 0.12884542E+03</pdfrwt>
<pdfrwt beam="1">  1       -1 0.23263553E-01 0.12884542E+03</pdfrwt>
<totfact> 0.65742563E+03</totfact>
</mgrwt>
</event>
<event>
 7    1  0.8165933E-006  0.1405075E+03  0.7546771E-02  0.1223298E+00
          2   -1    0    0  501    0  0.00000000000E+00  0.00000000000E+00  0.45644993824E+03  0.45644993824E+03  0.00000000000E+00 0. -1.
         -2   -1    0    0    0  501 -0.00000000000E+00 -0.00000000000E+00 -0.37513914059E+02  0.37513914059E+02  0.00000000000E+00 0.  1.
         23    2    1    2    0    0  0.20306894326E+02  0.60850471427E+02  0.29492246986E+03  0.32668274516E+03  0.12500881140E+03 0.  0.
          5    1    3    3  502    0  0.64328649251E+02  0.58120578522E+02  0.24485776444E+03  0.25979528781E+03  0.47000000000E+01 0. -1.
         -5    1    3    3    0  502 -0.44021754925E+02  0.27298929048E+01  0.50064705427E+02  0.66887457356E+02  0.47000000000E+01 0. -1.
        -11    1    1    2    0    0 -0.18330963207E+02 -0.31352250398E+02 -0.34055017891E+01  0.36477188208E+02  0.00000000000E+00 0.  1.
         11    1    1    2    0    0 -0.19759311180E+01 -0.29498221029E+02  0.12741905611E+03  0.13080391893E+03  0.00000000000E+00 0. -1.
<mgrwt>
<rscale>  0 0.13284232E+03</rscale>
<asrwt>0</asrwt>
<pdfrwt beam="1">  1        2 0.70223064E-01 0.14050748E+03</pdfrwt>
<pdfrwt beam="2">  1       -2 0.57713717E-02 0.14050748E+03</pdfrwt>
<totfact> 0.10325372E+04</totfact>
</mgrwt>
</event>
<event>
 7    1  0.8165933E-006  0.1338654E+03  0.7546771E-02  0.1232789E+00
         -2   -1    0    0    0  501 -0.00000000000E+00  0.00000000000E+00  0.32118759203E+02  0.32118759203E+02  0.00000000000E+00 0.  1.
          2   -1    0    0  501    0  0.00000000000E+00 -0.00000000000E+00 -0.50277490870E+03  0.50277490870E+03  0.00000000000E+00 0. -1.
         23    2    1    2    0    0 -0.24578667945E+02  0.41067580474E+02 -0.34511753413E+03  0.37017031075E+03  0.12501715688E+03 0.  0.
          5    1    3    3  502    0 -0.29143018226E+02  0.16910142592E+02 -0.34340036348E+03  0.34508139340E+03  0.47000000000E+01 0. -1.
         -5    1    3    3    0  502  0.45643502815E+01  0.24157437882E+02 -0.17171706439E+01  0.25088917345E+02  0.47000000000E+01 0. -1.
        -11    1    1    2    0    0 -0.19074831477E+02  0.12050760321E+02 -0.11429752635E+01  0.22591511960E+02  0.00000000000E+00 0.  1.
         11    1    1    2    0    0  0.43653499422E+02 -0.53118340795E+02 -0.12439564010E+03  0.14213184519E+03  0.00000000000E+00 0. -1.
<mgrwt>
<rscale>  0 0.12647062E+03</rscale>
<asrwt>0</asrwt>
<pdfrwt beam="2">  1        2 0.77349984E-01 0.13386540E+03</pdfrwt>
<pdfrwt beam="1">  1       -2 0.49413477E-02 0.13386540E+03</pdfrwt>
<totfact> 0.11700960E+04</totfact>
</mgrwt>
</event>
<event>
 7    1  0.8165933E-006  0.1757207E+03  0.7546771E-02  0.1178220E+00
          2   -1    0    0  501    0  0.00000000000E+00  0.00000000000E+00  0.77887348219E+03  0.77887348219E+03  0.00000000000E+00 0. -1.
         -2   -1    0    0    0  501 -0.00000000000E+00 -0.00000000000E+00 -0.37292745582E+02  0.37292745582E+02  0.00000000000E+00 0.  1.
         23    2    1    2    0    0  0.22004625673E+02 -0.12151212847E+03  0.50419466828E+03  0.53393822403E+03  0.12501344983E+03 0.  0.
          5    1    3    3  502    0  0.31099734345E+02 -0.14415220607E+03  0.46181613038E+03  0.48481262388E+03  0.47000000000E+01 0.  1.
         -5    1    3    3    0  502 -0.90951086728E+01  0.22640077600E+02  0.42378537901E+02  0.49125600151E+02  0.47000000000E+01 0.  1.
        -11    1    1    2    0    0 -0.16637738928E+02  0.54233808298E+02  0.19368819883E+03  0.20182477223E+03  0.00000000000E+00 0. -1.
         11    1    1    2    0    0 -0.53668867442E+01  0.67278320177E+02  0.43697869494E+02  0.80403231511E+02  0.00000000000E+00 0.  1.
<mgrwt>
<rscale>  0 0.16964374E+03</rscale>
<asrwt>0</asrwt>
<pdfrwt beam="1">  1        2 0.11982668E+00 0.17572070E+03</pdfrwt>
<pdfrwt beam="2">  1       -2 0.57373461E-02 0.17572070E+03</pdfrwt>
<totfact> 0.57059978E+03</totfact>
</mgrwt>
</event>
<event>
 7    1  0.8165933E-006  0.1369985E+03  0.7546771E-02  0.1229614E+00
         -3   -1    0    0    0  501 -0.00000000000E+00  0.00000000000E+00  0.24732440001E+02  0.24732440001E+02  0.00000000000E+00 0.  1.
          3   -1    0    0  501    0  0.00000000000E+00 -0.00000000000E+00 -0.64137713433E+03  0.64137713433E+03  0.00000000000E+00 0. -1.
         23    2    1    2    0    0 -0.44826406944E+02  0.33683492581E+02 -0.43068014976E+03  0.45194465394E+03  0.12499837754E+03 0.  0.
          5    1    3    3  502    0 -0.80035445372E+02 -0.17031790977E+01 -0.32821904837E+03  0.33787335948E+03  0.47000000000E+01 0.  1.
         -5    1    3    3    0  502  0.35209038428E+02  0.35386671679E+02 -0.10246110139E+03  0.11407129445E+03  0.47000000000E+01 0.  1.
        -11    1    1    2    0    0  0.86086597510E+01 -0.43871346198E+02 -0.16530165773E+03  0.17124088906E+03  0.00000000000E+00 0. -1.
         11    1    1    2    0    0  0.36217747193E+02  0.10187853617E+02 -0.20662886833E+02  0.42924031327E+02  0.00000000000E+00 0.  1.
<mgrwt>
<rscale>  0 0.12855640E+03</rscale>
<asrwt>0</asrwt>
<pdfrwt beam="2">  1        3 0.98673400E-01 0.13699846E+03</pdfrwt>
<pdfrwt beam="1">  1       -3 0.38049910E-02 0.13699846E+03</pdfrwt>
<totfact> 0.76084877E+02</totfact>
</mgrwt>
</event>
<event>
 7    1  0.8165933E-006  0.1735143E+03  0.7546771E-02  0.1180735E+00
          1   -1    0    0  501    0  0.00000000000E+00  0.00000000000E+00  0.18561032185E+03  0.18561032185E+03  0.00000000000E+00 0. -1.
         -1   -1    0    0    0  501 -0.00000000000E+00 -0.00000000000E+00 -0.16247592918E+03  0.16247592918E+03  0.00000000000E+00 0.  1.
         23    2    1    2    0    0  0.73910566850E+02 -0.94975289314E+02  0.75706645570E+02  0.18931112153E+03  0.12499650826E+03 0.  0.
          5    1    3    3  502    0 -0.22874584140E+02 -0.72731720690E+01  0.50635576471E+02  0.56233417432E+02  0.47000000000E+01 0.  1.
         -5    1    3    3    0  502  0.96785150991E+02 -0.87702117245E+02  0.25071069098E+02  0.13307770410E+03  0.47000000000E+01 0.  1.
        -11    1    1    2    0    0 -0.18694527058E+02  0.62537223139E+02  0.13617134769E+02  0.66676952384E+02  0.00000000000E+00 0. -1.
         11    1    1    2    0    0 -0.55216039793E+02  0.32438066175E+02 -0.66189387667E+02  0.92098177112E+02  0.00000000000E+00 0.  1.
<mgrwt>
<rscale>  0 0.16726037E+03</rscale>
<asrwt>0</asrwt>
<pdfrwt beam="1">  1        1 0.28555434E-01 0.17351428E+03</pdfrwt>
<pdfrwt beam="2">  1       -1 0.24996297E-01 0.17351428E+03</pdfrwt>
<totfact> 0.22079767E+03</totfact>
</mgrwt>
</event>
<event>
 7    1  0.8165933E-006  0.1432205E+03  0.7546771E-02  0.1219578E+00
          1   -1    0    0  501    0  0.00000000000E+00  0.00000000000E+00  0.33683415758E+03  0.33683415758E+03  0.00000000000E+00 0. -1.
         -1   -1    0    0    0  501 -0.00000000000E+00 -0.00000000000E+00 -0.58732139870E+02  0.58732139870E+02  0.00000000000E+00 0.  1.
         23    2    1    2    0    0  0.47327747418E+02 -0.51466400374E+02  0.23072444205E+03  0.27156194230E+03  0.12499365705E+03 0.  0.
          5    1    3    3  502    0  0.14589229874E+02 -0.33454216595E+02 -0.98529470034E+00  0.36811561254E+02  0.47000000000E+01 0.  1.
         -5    1    3    3    0  502  0.32738517544E+02 -0.18012183779E+02  0.23170973675E+03  0.23475038105E+03  0.47000000000E+01 0.  1.
        -11    1    1    2    0    0 -0.40609867380E+02  0.37103666002E+02  0.74487947590E+02  0.92597503722E+02  0.00000000000E+00 0. -1.
         11    1    1    2    0    0 -0.67178800376E+01  0.14362734372E+02 -0.27110371928E+02  0.31406851432E+02  0.00000000000E+00 0.  1.
<mgrwt>
<rscale>  0 0.13545566E+03</rscale>
<asrwt>0</asrwt>
<pdfrwt beam="1">  1        1 0.51820638E-01 0.14322053E+03</pdfrwt>
<pdfrwt beam="2">  1       -1 0.90357141E-02 0.14322053E+03</pdfrwt>
<totfact> 0.51893287E+03</totfact>
</mgrwt>
</event>
<event>
 7    1  0.8165933E-006  0.1917487E+03  0.7546771E-02  0.1161637E+00
         -1   -1    0    0    0  501 -0.00000000000E+00  0.00000000000E+00  0.25459892921E+03  0.25459892921E+03  0.00000000000E+00 0.  1.
          1   -1    0    0  501    0  0.00000000000E+00 -0.00000000000E+00 -0.13304501725E+03  0.13304501725E+03  0.00000000000E+00 0. -1.
         23    2    1    2    0    0 -0.13316080133E+03  0.58404773651E+02  0.33335621606E+02  0.19462480121E+03  0.12499853191E+03 0.  0.
          5    1    3    3  502    0 -0.75964767099E+02  0.41791970697E+02 -0.43644058738E+02  0.97180803239E+02  0.47000000000E+01 0.  1.
         -5    1    3    3    0  502 -0.57196034231E+02  0.16612802954E+02  0.76979680344E+02  0.97443997966E+02  0.47000000000E+01 0.  1.
        -11    1    1    2    0    0  0.33829990008E+02  0.24531722571E+02  0.15406039608E+02  0.44537845622E+02  0.00000000000E+00 0.  1.
         11    1    1    2    0    0  0.99330811322E+02 -0.82936496222E+02  0.72812250737E+02  0.14848129963E+03  0.00000000000E+00 0. -1.
<mgrwt>
<rscale>  0 0.18652154E+03</rscale>
<asrwt>0</asrwt>
<pdfrwt beam="2">  1        1 0.20468464E-01 0.19174866E+03</pdfrwt>
<pdfrwt beam="1">  1       -1 0.39169066E-01 0.19174866E+03</pdfrwt>
<totfact> 0.15722341E+03</totfact>
</mgrwt>
</event>
<event>
 7    1  0.8165933E-006  0.1301936E+03  0.7546771E-02  0.1239692E+00
          2   -1    0    0  501    0  0.00000000000E+00  0.00000000000E+00  0.10241379698E+04  0.10241379698E+04  0.00000000000E+00 0.  1.
         -2   -1    0    0    0  501 -0.00000000000E+00 -0.00000000000E+00 -0.26445834020E+02  0.26445834020E+02  0.00000000000E+00 0. -1.
         23    2    1    2    0    0 -0.31262709754E+02 -0.18563909207E+02  0.90311983534E+03  0.91245592795E+03  0.12501363015E+03 0.  0.
          5    1    3    3  502    0  0.43531663204E+02  0.16789951480E+02  0.36315053222E+03  0.36616568275E+03  0.47000000000E+01 0. -1.
         -5    1    3    3    0  502 -0.74794372957E+02 -0.35353860686E+02  0.53996930312E+03  0.54629024520E+03  0.47000000000E+01 0. -1.
        -11    1    1    2    0    0  0.15159523714E+02 -0.35548651852E+02  0.17084954254E+02  0.42254153282E+02  0.00000000000E+00 0. -1.
         11    1    1    2    0    0  0.16103186039E+02  0.54112561059E+02  0.77487346230E+02  0.95873722629E+02  0.00000000000E+00 0.  1.
<mgrwt>
<rscale>  0 0.12208783E+03</rscale>
<asrwt>0</asrwt>
<pdfrwt beam="1">  1        2 0.15755966E+00 0.13019364E+03</pdfrwt>
<pdfrwt beam="2">  1       -2 0.40685906E-02 0.13019364E+03</pdfrwt>
<totfact> 0.65945585E+03</totfact>
</mgrwt>
</event>
<event>
 7    1  0.8165933E-006  0.1521743E+03  0.7546771E-02  0.1207383E+00
         -1   -1    0    0    0  501 -0.00000000000E+00  0.00000000000E+00  0.46830918571E+02  0.46830918571E+02  0.00000000000E+00 0. -1.
          1   -1    0    0  501    0  0.00000000000E+00 -0.00000000000E+00 -0.40877779058E+03  0.40877779058E+03  0.00000000000E+00 0.  1.
         23    2    1    2    0    0 -0.82936802916E+02 -0.25518678393E+02 -0.21651097133E+03  0.26463942654E+03  0.12500923625E+03 0.  0.
          5    1    3    3  502    0 -0.25801549940E+02  0.14271795584E+02  0.68478247379E+01  0.30633100270E+02  0.47000000000E+01 0.  1.
         -5    1    3    3    0  502 -0.57135252976E+02 -0.39790473977E+02 -0.22335879607E+03  0.23400632627E+03  0.47000000000E+01 0.  1.
        -11    1    1    2    0    0 -0.57898691594E+01 -0.15382454687E+02 -0.56535235824E+02  0.58875932152E+02  0.00000000000E+00 0.  1.
         11    1    1    2    0    0  0.88726672075E+02  0.40901133080E+02 -0.88900664855E+02  0.13209335046E+03  0.00000000000E+00 0. -1.
<mgrwt>
<rscale>  0 0.14451240E+03</rscale>
<asrwt>0</asrwt>
<pdfrwt beam="2">  1        1 0.62888890E-01 0.15217433E+03</pdfrwt>
<pdfrwt beam="1">  1       -1 0.72047567E-02 0.15217433E+03</pdfrwt>
<totfact> 0.57504202E+03</totfact>
</mgrwt>
</event>
<event>
 7    1  0.8165933E-006  0.1506872E+03  0.7546771E-02  0.1211471E+00
          1   -1    0    0  501    0  0.00000000000E+00  0.00000000000E+00  0.54294879655E+02  0.54294879655E+02  0.00000000000E+00 0. -1.
         -1   -1    0    0    0  501 -0.00000000000E+00 -0.00000000000E+00 -0.32981644751E+03  0.32981644751E+03  0.00000000000E+00 0.  1.
         23    2    1    2    0    0  0.83923299666E+02  0.62036320739E+01 -0.14882121084E+03  0.21178852820E+03  0.12500009042E+03 0.  0.
          5    1    3    3  502    0  0.37060693288E+02  0.59652028533E+02 -0.11018678665E+03  0.13074814510E+03  0.47000000000E+01 0. -1.
         -5    1    3    3    0  502  0.46862606378E+02 -0.53448396459E+02 -0.38634424182E+02  0.81040383096E+02  0.47000000000E+01 0. -1.
        -11    1    1    2    0    0 -0.66894392476E+02 -0.23164519648E+02 -0.13003715234E+03  0.14805781204E+03  0.00000000000E+00 0.  1.
         11    1    1    2    0    0 -0.17028907190E+02  0.16960887574E+02  0.33367953286E+01  0.24264986925E+02  0.00000000000E+00 0. -1.
<mgrwt>
<rscale>  0 0.14138966E+03</rscale>
<asrwt>0</asrwt>
<pdfrwt beam="1">  1        1 0.83530582E-02 0.15068719E+03</pdfrwt>
<pdfrwt beam="2">  1       -1 0.50740993E-01 0.15068719E+03</pdfrwt>
<totfact> 0.31728723E+03</totfact>
</mgrwt>
</event>
<event>
 7    1  0.8165933E-006  0.1619834E+03  0.7546771E-02  0.1194233E+00
         -2   -1    0    0    0  501 -0.00000000000E+00  0.00000000000E+00  0.12063399740E+03  0.12063399740E+03  0.00000000000E+00 0.  1.
          2   -1    0    0  501    0  0.00000000000E+00 -0.00000000000E+00 -0.18461550717E+03  0.18461550717E+03  0.00000000000E+00 0. -1.
         23    2    1    2    0    0 -0.10256785341E+03 -0.96023011979E+01 -0.35102666607E+02  0.16574320698E+03  0.12500497877E+03 0.  0.
          5    1    3    3  502    0 -0.36480765339E+02  0.35910558979E+02  0.32412182649E+02  0.60770503289E+02  0.47000000000E+01 0. -1.
         -5    1    3    3    0  502 -0.66087088070E+02 -0.45512860177E+02 -0.67514849256E+02  0.10497270370E+03  0.47000000000E+01 0. -1.
        -11    1    1    2    0    0  0.49551651528E+02  0.48582504190E+02 -0.52671692094E+01  0.69594316966E+02  0.00000000000E+00 0.  1.
         11    1    1    2    0    0  0.53016201881E+02 -0.38980202992E+02 -0.23611673956E+02  0.69911980620E+02  0.00000000000E+00 0. -1.
<mgrwt>
<rscale>  0 0.15519355E+03</rscale>
<asrwt>0</asrwt>
<pdfrwt beam="2">  1        2 0.28402386E-01 0.16198337E+03</pdfrwt>
<pdfrwt beam="1">  1       -2 0.18559076E-01 0.16198337E+03</pdfrwt>
<totfact> 0.43136151E+03</totfact>
</mgrwt>
</event>
<event>
 7    1  0.8165933E-006  0.1303981E+03  0.7546771E-02  0.1241283E+00
          3   -1    0    0  501    0  0.00000000000E+00  0.00000000000E+00  0.45222734346E+02  0.45222734346E+02  0.00000000000E+00 0. -1.
         -3   -1    0    0    0  501 -0.00000000000E+00 -0.00000000000E+00 -0.29567586588E+03  0.29567586588E+03  0.00000000000E+00 0.  1.
         23    2    1    2    0    0 -0.21653360085E+02 -0.30150749522E+02 -0.11234523000E+03  0.17211948302E+03  0.12500292009E+03 0.  0.
          5    1    3    3  502    0 -0.10500628874E+02  0.37177634701E+02  0.18958933267E+01  0.38963112558E+02  0.47000000000E+01 0.  1.
         -5    1    3    3    0  502 -0.11152731211E+02 -0.67328384223E+02 -0.11424112333E+03  0.13315637046E+03  0.47000000000E+01 0.  1.
        -11    1    1    2    0    0  0.44827792998E+02  0.49029208426E+02 -0.85540243154E+02  0.10830755977E+03  0.00000000000E+00 0.  1.
         11    1    1    2    0    0 -0.23174432914E+02 -0.18878458905E+02 -0.52567658374E+02  0.60471557433E+02  0.00000000000E+00 0. -1.
<mgrwt>
<rscale>  0 0.12110641E+03</rscale>
<asrwt>0</asrwt>
<pdfrwt beam="1">  1        3 0.69573437E-02 0.13039810E+03</pdfrwt>
<pdfrwt beam="2">  1       -3 0.45488595E-01 0.13039810E+03</pdfrwt>
<totfact> 0.14764126E+03</totfact>
</mgrwt>
</event>
<event>
 7    1  0.8165933E-006  0.1271776E+03  0.7546771E-02  0.1242579E+00
         -3   -1    0    0    0  501 -0.00000000000E+00  0.00000000000E+00  0.64448001608E+02  0.64448001608E+02  0.00000000000E+00 0.  1.
          3   -1    0    0  501    0  0.00000000000E+00 -0.00000000000E+00 -0.28016631625E+03  0.28016631625E+03  0.00000000000E+00 0. -1.
         23    2    1    2    0    0  0.21777833445E+02  0.86437034727E+01 -0.20624894428E+03  0.24230720516E+03  0.12500066806E+03 0.  0.
          5    1    3    3  502    0 -0.39368985010E+02 -0.97357881911E+01 -0.15503735661E+03  0.16032271984E+03  0.47000000000E+01 0.  1.
         -5    1    3    3    0  502  0.61146818455E+02  0.18379491664E+02 -0.51211587671E+02  0.81984485317E+02  0.47000000000E+01 0.  1.
        -11    1    1    2    0    0 -0.41547467229E+02 -0.10166101723E+02 -0.44707603162E+02  0.61873349981E+02  0.00000000000E+00 0. -1.
         11    1    1    2    0    0  0.19769633783E+02  0.15223982499E+01  0.35238232803E+02  0.40433762717E+02  0.00000000000E+00 0.  1.
<mgrwt>
<rscale>  0 0.12031436E+03</rscale>
<asrwt>0</asrwt>
<pdfrwt beam="2">  1        3 0.43102510E-01 0.12717765E+03</pdfrwt>
<pdfrwt beam="1">  1       -3 0.99150773E-02 0.12717765E+03</pdfrwt>
<totfact> 0.91761003E+02</totfact>
</mgrwt>
</event>
<event>
 7    1  0.8165933E-006  0.1834629E+03  0.7546771E-02  0.1170212E+00
         -1   -1    0    0    0  501 -0.00000000000E+00  0.00000000000E+00  0.77673904580E+03  0.77673904580E+03  0.00000000000E+00 0.  1.
          1   -1    0    0  501    0  0.00000000000E+00 -0.00000000000E+00 -0.38280094948E+02  0.38280094948E+02  0.00000000000E+00 0. -1.
         23    2    1    2    0    0 -0.10668018361E+03 -0.81559786452E+02  0.37073629432E+03  0.41364724092E+03  0.12500391856E+03 0.  0.
          5    1    3    3  502    0 -0.11606369365E+03 -0.61317981149E+02  0.36793206788E+03  0.39067476546E+03  0.47000000000E+01 0. -1.
         -5    1    3    3    0  502  0.93835100413E+01 -0.20241805303E+02  0.28042264382E+01  0.22972475456E+02  0.47000000000E+01 0. -1.
        -11    1    1    2    0    0  0.63489838118E+02  0.67913107726E+02  0.32867095450E+03  0.34156660562E+03  0.00000000000E+00 0.  1.
         11    1    1    2    0    0  0.43190345488E+02  0.13646678726E+02  0.39051702041E+02  0.59805294213E+02  0.00000000000E+00 0. -1.
<mgrwt>
<rscale>  0 0.17753361E+03</rscale>
<asrwt>0</asrwt>
<pdfrwt beam="2">  1        1 0.58892460E-02 0.18346291E+03</pdfrwt>
<pdfrwt beam="1">  1       -1 0.11949830E+00 0.18346291E+03</pdfrwt>
<totfact> 0.87923021E+02</totfact>
</mgrwt>
</event>
<event>
 7    1  0.8165933E-006  0.1378410E+03  0.7546771E-02  0.1228850E+00
         -2   -1    0    0    0  501 -0.00000000000E+00  0.00000000000E+00  0.20230574317E+02  0.20230574317E+02  0.00000000000E+00 0.  1.
          2   -1    0    0  501    0  0.00000000000E+00 -0.00000000000E+00 -0.74730476508E+03  0.74730476508E+03  0.00000000000E+00 0. -1.
         23    2    1    2    0    0 -0.50525233081E+02 -0.28693748137E+02 -0.46018995313E+03  0.48039038380E+03  0.12499599003E+03 0.  0.
          5    1    3    3  502    0 -0.99589352287E+01  0.16725139370E+02 -0.37517633263E+03  0.37571036883E+03  0.47000000000E+01 0.  1.
         -5    1    3    3    0  502 -0.40566297853E+02 -0.45418887507E+02 -0.85013620499E+02  0.10468001497E+03  0.47000000000E+01 0.  1.
        -11    1    1    2    0    0 -0.20398082228E+02 -0.20749877191E+01 -0.11395835380E+03  0.11578814159E+03  0.00000000000E+00 0.  1.
         11    1    1    2    0    0  0.70923315309E+02  0.30768735856E+02 -0.15292588384E+03  0.17135681401E+03  0.00000000000E+00 0. -1.
<mgrwt>
<rscale>  0 0.12906460E+03</rscale>
<asrwt>0</asrwt>
<pdfrwt beam="2">  1        2 0.11496995E+00 0.13784095E+03</pdfrwt>
<pdfrwt beam="1">  1       -2 0.31123964E-02 0.13784095E+03</pdfrwt>
<totfact> 0.14781272E+04</totfact>
</mgrwt>
</event>
<event>
 7    1  0.8165933E-006  0.1413668E+03  0.7546771E-02  0.1222118E+00
          2   -1    0    0  501    0  0.00000000000E+00  0.00000000000E+00  0.13214867790E+04  0.13214867790E+04  0.00000000000E+00 0. -1.
         -2   -1    0    0    0  501 -0.00000000000E+00 -0.00000000000E+00 -0.13065298535E+02  0.13065298535E+02  0.00000000000E+00 0.  1.
         23    2    1    2    0    0 -0.49419672842E+02  0.43767623989E+02  0.88942228120E+03  0.90058679714E+03  0.12500670344E+03 0.  0.
          5    1    3    3  502    0 -0.68927908257E+02  0.43707807594E+01  0.77231587075E+03  0.77541218360E+03  0.47000000000E+01 0. -1.
         -5    1    3    3    0  502  0.19508235415E+02  0.39396843230E+02  0.11710641045E+03  0.12517461354E+03  0.47000000000E+01 0. -1.
        -11    1    1    2    0    0  0.82730925224E+00  0.12038265097E+02  0.44458834032E+01  0.12859632436E+02  0.00000000000E+00 0.  1.
         11    1    1    2    0    0  0.48592363590E+02 -0.55805889086E+02  0.41455331586E+03  0.42110564796E+03  0.00000000000E+00 0. -1.
<mgrwt>
<rscale>  0 0.13366434E+03</rscale>
<asrwt>0</asrwt>
<pdfrwt beam="1">  1        2 0.20330555E+00 0.14136685E+03</pdfrwt>
<pdfrwt beam="2">  1       -2 0.20100470E-02 0.14136685E+03</pdfrwt>
<totfact> 0.12705837E+04</totfact>
</mgrwt>
</event>
<event>
 6    1  0.8165933E-006  0.1418259E+03  0.7546771E-02  0.1227952E+00
         -1   -1    0    0    0  501 -0.00000000000E+00  0.00000000000E+00  0.28112152079E+03  0.28112152079E+03  0.00000000000E+00 0.  1.
          1   -1    0    0  501    0  0.00000000000E+00 -0.00000000000E+00 -0.62448897123E+02  0.62448897123E+02  0.00000000000E+00 0. -1.
          5    1    1    2  502    0 -0.48067577346E+02 -0.16820210266E+02 -0.21175418010E+02  0.55352504850E+02  0.47000000000E+01 0. -1.
         -5    1    1    2    0  502  0.39637477911E+02  0.44583115197E+02  0.75930050956E+02  0.96675986957E+02  0.47000000000E+01 0.  1.
        -11    1    1    2    0    0 -0.36961782749E+02  0.96957376035E+01  0.84088325780E+02  0.92363560153E+02  0.00000000000E+00 0. -1.
         11    1    1    2    0    0  0.45391882184E+02 -0.37458642534E+02  0.79829664938E+02  0.99178365952E+02  0.00000000000E+00 0.  1.
<mgrwt>
<rscale>  0 0.12966604E+03</rscale>
<asrwt>0</asrwt>
<pdfrwt beam="2">  1        1 0.96075228E-02 0.14182592E+03</pdfrwt>
<pdfrwt beam="1">  1       -1 0.43249464E-01 0.14182592E+03</pdfrwt>
<totfact> 0.35005697E+03</totfact>
</mgrwt>
</event>
<event>
 7    1  0.8165933E-006  0.1697759E+03  0.7546771E-02  0.1184725E+00
         -1   -1    0    0    0  501 -0.00000000000E+00  0.00000000000E+00  0.79170993306E+02  0.79170993306E+02  0.00000000000E+00 0.  1.
          1   -1    0    0  501    0  0.00000000000E+00 -0.00000000000E+00 -0.36128129014E+03  0.36128129014E+03  0.00000000000E+00 0. -1.
         23    2    1    2    0    0 -0.69905891425E+02 -0.91172188900E+02 -0.22848131536E+03  0.28465343923E+03  0.12499866926E+03 0.  0.
          5    1    3    3  502    0 -0.88704642265E+01  0.14117204385E+01  0.14401549034E+02  0.17611720665E+02  0.47000000000E+01 0.  1.
         -5    1    3    3    0  502 -0.61035427198E+02 -0.92583909338E+02 -0.24288286439E+03  0.26704171857E+03  0.47000000000E+01 0.  1.
        -11    1    1    2    0    0  0.35471715071E+01  0.26568336875E+02 -0.57145292069E+02  0.63119278796E+02  0.00000000000E+00 0. -1.
         11    1    1    2    0    0  0.66358719918E+02  0.64603852025E+02  0.35163105918E+01  0.92679565416E+02  0.00000000000E+00 0.  1.
<mgrwt>
<rscale>  0 0.16356928E+03</rscale>
<asrwt>0</asrwt>
<pdfrwt beam="2">  1        1 0.55581735E-01 0.16977594E+03</pdfrwt>
<pdfrwt beam="1">  1       -1 0.12180153E-01 0.16977594E+03</pdfrwt>
<totfact> 0.30288642E+03</totfact>
</mgrwt>
</event>
<event>
 7    1  0.8165933E-006  0.1305813E+03  0.7546771E-02  0.1240468E+00
          1   -1    0    0  501    0  0.00000000000E+00  0.00000000000E+00  0.69098778032E+02  0.69098778032E+02  0.00000000000E+00 0. -1.
         -1   -1    0    0    0  501 -0.00000000000E+00 -0.00000000000E+00 -0.20770984465E+03  0.20770984465E+03  0.00000000000E+00 0.  1.
         23    2    1    2    0    0  0.37734281140E+02 -0.15003052286E+01 -0.37532152169E+02  0.13586809325E+03  0.12500139770E+03 0.  0.
          5    1    3    3  502    0 -0.42366770813E+02  0.12237687560E+02 -0.31183667261E+02  0.54214530984E+02  0.47000000000E+01 0.  1.
         -5    1    3    3    0  502  0.80101051953E+02 -0.13737992789E+02 -0.63484849077E+01  0.81653562264E+02  0.47000000000E+01 0.  1.
        -11    1    1    2    0    0  0.13076762322E+02  0.33682425935E+02 -0.51953962312E+02  0.63282870744E+02  0.00000000000E+00 0.  1.
         11    1    1    2    0    0 -0.50811043462E+02 -0.32182120706E+02 -0.49124952138E+02  0.77657658691E+02  0.00000000000E+00 0. -1.
<mgrwt>
<rscale>  0 0.12160779E+03</rscale>
<asrwt>0</asrwt>
<pdfrwt beam="1">  1        1 0.10630581E-01 0.13058130E+03</pdfrwt>
<pdfrwt beam="2">  1       -1 0.31955360E-01 0.13058130E+03</pdfrwt>
<totfact> 0.51466133E+03</totfact>
</mgrwt>
</event>
<event>
 7    1  0.8165933E-006  0.1281947E+03  0.7546771E-02  0.1244502E+00
          2   -1    0    0  501    0  0.00000000000E+00  0.00000000000E+00  0.19940406485E+03  0.19940406485E+03  0.00000000000E+00 0. -1.
         -2   -1    0    0    0  501 -0.00000000000E+00 -0.00000000000E+00 -0.81514384598E+02  0.81514384598E+02  0.00000000000E+00 0.  1.
         23    2    1    2    0    0 -0.27833535071E+02 -0.57852082359E+01  0.13223397993E+03  0.18417304481E+03  0.12500284267E+03 0.  0.
          5    1    3    3  502    0 -0.17902302875E+02  0.52406571333E+02  0.10540211665E+03  0.11915803524E+03  0.47000000000E+01 0.  1.
         -5    1    3    3    0  502 -0.99312321958E+01 -0.58191779569E+02  0.26831863280E+02  0.65015009570E+02  0.47000000000E+01 0.  1.
        -11    1    1    2    0    0  0.27298884178E+02 -0.20719693682E+02  0.29692207193E+02  0.45344922005E+02  0.00000000000E+00 0. -1.
         11    1    1    2    0    0  0.53465089320E+00  0.26504901918E+02 -0.44036506874E+02  0.51400482634E+02  0.00000000000E+00 0.  1.
<mgrwt>
<rscale>  0 0.11915258E+03</rscale>
<asrwt>0</asrwt>
<pdfrwt beam="1">  1        2 0.30677548E-01 0.12819472E+03</pdfrwt>
<pdfrwt beam="2">  1       -2 0.12540675E-01 0.12819472E+03</pdfrwt>
<totfact> 0.74346404E+03</totfact>
</mgrwt>
</event>
<event>
 7    1  0.8165933E-006  0.1927947E+03  0.7546771E-02  0.1160623E+00
         -1   -1    0    0    0  501 -0.00000000000E+00  0.00000000000E+00  0.34654643400E+03  0.34654643400E+03  0.00000000000E+00 0.  1.
          1   -1    0    0  501    0  0.00000000000E+00 -0.00000000000E+00 -0.99328127477E+02  0.99328127477E+02  0.00000000000E+00 0. -1.
         23    2    1    2    0    0  0.91418722184E+02  0.11484078731E+03  0.92489957924E+02  0.21383216826E+03  0.12499605861E+03 0.  0.
          5    1    3    3  502    0  0.99803148373E+02  0.61865566079E+02  0.13571557539E+02  0.11829748038E+03  0.47000000000E+01 0.  1.
         -5    1    3    3    0  502 -0.83844261894E+01  0.52975221233E+02  0.78918400385E+02  0.95534687870E+02  0.47000000000E+01 0.  1.
        -11    1    1    2    0    0 -0.64895908302E+02 -0.11713457446E+02  0.50739935363E+02  0.83205919503E+02  0.00000000000E+00 0.  1.
         11    1    1    2    0    0 -0.26522813882E+02 -0.10312732987E+03  0.10398841323E+03  0.14883647372E+03  0.00000000000E+00 0. -1.
<mgrwt>
<rscale>  0 0.18762269E+03</rscale>
<asrwt>0</asrwt>
<pdfrwt beam="2">  1        1 0.15281251E-01 0.19279472E+03</pdfrwt>
<pdfrwt beam="1">  1       -1 0.53314835E-01 0.19279472E+03</pdfrwt>
<totfact> 0.13130908E+03</totfact>
</mgrwt>
</event>
<event>
 7    1  0.8165933E-006  0.1833246E+03  0.7546771E-02  0.1169223E+00
         -2   -1    0    0    0  501 -0.00000000000E+00  0.00000000000E+00  0.41096042965E+02  0.41096042965E+02  0.00000000000E+00 0.  1.
          2   -1    0    0  501    0  0.00000000000E+00 -0.00000000000E+00 -0.80029351041E+03  0.80029351041E+03  0.00000000000E+00 0. -1.
         23    2    1    2    0    0  0.10689380910E+03  0.80976840168E+02 -0.51552761500E+03  0.54715320112E+03  0.12499747437E+03 0.  0.
          5    1    3    3  502    0 -0.75072001320E+01 -0.18194523648E+02 -0.18017628257E+02  0.27094716692E+02  0.47000000000E+01 0. -1.
         -5    1    3    3    0  502  0.11440100923E+03  0.99171363817E+02 -0.49750998674E+03  0.52005848443E+03  0.47000000000E+01 0. -1.
        -11    1    1    2    0    0 -0.30793644284E+02 -0.65595189314E+02 -0.57431134687E+02  0.92462493049E+02  0.00000000000E+00 0.  1.
         11    1    1    2    0    0 -0.76100164814E+02 -0.15381650855E+02 -0.18623871776E+03  0.20177385921E+03  0.00000000000E+00 0. -1.
<mgrwt>
<rscale>  0 0.17854049E+03</rscale>
<asrwt>0</asrwt>
<pdfrwt beam="2">  1        2 0.12312208E+00 0.18332459E+03</pdfrwt>
<pdfrwt beam="1">  1       -2 0.63224683E-02 0.18332459E+03</pdfrwt>
<totfact> 0.47631887E+03</totfact>
</mgrwt>
</event>
<event>
 7    1  0.8165933E-006  0.1686020E+03  0.7546771E-02  0.1186600E+00
         -1   -1    0    0    0  501 -0.00000000000E+00  0.00000000000E+00  0.88553416447E+03  0.88553416447E+03  0.00000000000E+00 0.  1.
          1   -1    0    0  501    0  0.00000000000E+00 -0.00000000000E+00 -0.42935788660E+02  0.42935788660E+02  0.00000000000E+00 0. -1.
         23    2    1    2    0    0  0.19104414134E+02  0.11151773385E+03  0.16503899349E+03  0.23593323208E+03  0.12500174808E+03 0.  0.
          5    1    3    3  502    0  0.33910631890E+02  0.28713980882E+02 -0.61816675002E+01  0.45107944604E+02  0.47000000000E+01 0. -1.
         -5    1    3    3    0  502 -0.14806217756E+02  0.82803752973E+02  0.17122066099E+03  0.19082528747E+03  0.47000000000E+01 0. -1.
        -11    1    1    2    0    0 -0.42761502704E+02 -0.98846019443E+02  0.61654738933E+03  0.62588318795E+03  0.00000000000E+00 0.  1.
         11    1    1    2    0    0  0.23657088569E+02 -0.12671714411E+02  0.61011992999E+02  0.66653533105E+02  0.00000000000E+00 0. -1.
<mgrwt>
<rscale>  0 0.16187142E+03</rscale>
<asrwt>0</asrwt>
<pdfrwt beam="2">  1        1 0.66055066E-02 0.16860196E+03</pdfrwt>
<pdfrwt beam="1">  1       -1 0.13623601E+00 0.16860196E+03</pdfrwt>
<totfact> 0.54627238E+02</totfact>
</mgrwt>
</event>
<event>
 7    1  0.8165933E-006  0.1356508E+03  0.7546771E-02  0.1232602E+00
         -1   -1    0    0    0  501 -0.00000000000E+00  0.00000000000E+00  0.17262078803E+02  0.17262078803E+02  0.00000000000E+00 0.  1.
          1   -1    0    0  501    0  0.00000000000E+00 -0.00000000000E+00 -0.82944059691E+03  0.82944059691E+03  0.00000000000E+00 0. -1.
         23    2    1    2    0    0 -0.51466956884E+02 -0.11248934661E+02 -0.42772224041E+03  0.44871757543E+03  0.12500304548E+03 0.  0.
          5    1    3    3  502    0 -0.10764006637E+02 -0.20615762092E+02 -0.54318167030E+01  0.24340667991E+02  0.47000000000E+01 0. -1.
         -5    1    3    3    0  502 -0.40702950247E+02  0.93668274313E+01 -0.42229042370E+03  0.42437690744E+03  0.47000000000E+01 0. -1.
        -11    1    1    2    0    0 -0.17630012193E+02 -0.43920299288E+01 -0.21360499006E+02  0.28042435248E+02  0.00000000000E+00 0.  1.
         11    1    1    2    0    0  0.69096969077E+02  0.15640964590E+02 -0.36309577869E+03  0.36994266503E+03  0.00000000000E+00 0. -1.
<mgrwt>
<rscale>  0 0.12659187E+03</rscale>
<asrwt>0</asrwt>
<pdfrwt beam="2">  1        1 0.12760625E+00 0.13565083E+03</pdfrwt>
<pdfrwt beam="1">  1       -1 0.26557044E-02 0.13565083E+03</pdfrwt>
<totfact> 0.94618552E+03</totfact>
</mgrwt>
</event>
<event>
 7    1  0.8165933E-006  0.1269286E+03  0.7546771E-02  0.1246397E+00
          1   -1    0    0  501    0  0.00000000000E+00  0.00000000000E+00  0.64827088064E+03  0.64827088064E+03  0.00000000000E+00 0. -1.
         -1   -1    0    0    0  501 -0.00000000000E+00 -0.00000000000E+00 -0.20400065194E+02  0.20400065194E+02  0.00000000000E+00 0.  1.
         23    2    1    2    0    0 -0.19396566277E+02  0.35833684777E+01  0.44368795969E+03  0.46148658068E+03  0.12538656730E+03 0.  0.
          5    1    3    3  502    0  0.14593919571E+02  0.59432073088E+02  0.21301657411E+03  0.22168289209E+03  0.47000000000E+01 0. -1.
         -5    1    3    3    0  502 -0.33990485848E+02 -0.55848704611E+02  0.23067138558E+03  0.23980368858E+03  0.47000000000E+01 0. -1.
        -11    1    1    2    0    0  0.25473825467E+02  0.37537057287E+02  0.53998969783E+02  0.70525422305E+02  0.00000000000E+00 0.  1.
         11    1    1    2    0    0 -0.60772591901E+01 -0.41120425764E+02  0.13018388597E+03  0.13665894285E+03  0.00000000000E+00 0. -1.
<mgrwt>
<rscale>  0 0.11802176E+03</rscale>
<asrwt>0</asrwt>
<pdfrwt beam="1">  1        1 0.99733966E-01 0.12692856E+03</pdfrwt>
<pdfrwt beam="2">  1       -1 0.31384721E-02 0.12692856E+03</pdfrwt>
<totfact> 0.10577216E+04</totfact>
</mgrwt>
</event>
<event>
 6    1  0.8165933E-006  0.1352453E+03  0.7546771E-02  0.1236223E+00
          1   -1    0    0  501    0  0.00000000000E+00  0.00000000000E+00  0.10965016762E+04  0.10965016762E+04  0.00000000000E+00 0. -1.
         -1   -1    0    0    0  501 -0.00000000000E+00 -0.00000000000E+00 -0.29416385770E+02  0.29416385770E+02  0.00000000000E+00 0.  1.
          5    1    1    2  502    0  0.48494602347E+01 -0.29716662024E+02  0.98802842608E+03  0.98849828427E+03  0.47000000000E+01 0. -1.
         -5    1    1    2    0  502  0.15022186200E+02  0.28680469570E+01  0.10476382099E+02  0.19124234716E+02  0.47000000000E+01 0.  1.
        -11    1    1    2    0    0 -0.30516404775E+02  0.13018151477E+02 -0.12427911338E+02  0.35428466076E+02  0.00000000000E+00 0.  1.
         11    1    1    2    0    0  0.10644758340E+02  0.13830463590E+02  0.81008393594E+02  0.82867076912E+02  0.00000000000E+00 0. -1.
<mgrwt>
<rscale>  0 0.12426442E+03</rscale>
<asrwt>0</asrwt>
<pdfrwt beam="1">  1        1 0.16869253E+00 0.13524529E+03</pdfrwt>
<pdfrwt beam="2">  1       -1 0.45255987E-02 0.13524529E+03</pdfrwt>
<totfact> 0.27408626E+03</totfact>
</mgrwt>
</event>
<event>
 7    1  0.8165933E-006  0.1265400E+03  0.7546771E-02  0.1248701E+00
          3   -1    0    0  501    0  0.00000000000E+00  0.00000000000E+00  0.91475864865E+02  0.91475864865E+02  0.00000000000E+00 0. -1.
         -3   -1    0    0    0  501 -0.00000000000E+00 -0.00000000000E+00 -0.14214101736E+03  0.14214101736E+03  0.00000000000E+00 0.  1.
         23    2    1    2    0    0  0.88178301996E+01  0.17670186989E+02  0.48848370437E+01  0.12663420099E+03  0.12498947792E+03 0.  0.
          5    1    3    3  502    0 -0.87623991753E+01 -0.25319028778E+01 -0.57591182897E+02  0.58498072780E+02  0.47000000000E+01 0. -1.
         -5    1    3    3    0  502  0.17580229375E+02  0.20202089866E+02  0.62476019940E+02  0.68136128210E+02  0.47000000000E+01 0. -1.
        -11    1    1    2    0    0 -0.34655951110E+02  0.23500455795E+02 -0.18076868709E+02  0.45607889145E+02  0.00000000000E+00 0.  1.
         11    1    1    2    0    0  0.25838120910E+02 -0.41170642783E+02 -0.37473120828E+02  0.61374792089E+02  0.00000000000E+00 0. -1.
<mgrwt>
<rscale>  0 0.11666571E+03</rscale>
<asrwt>0</asrwt>
<pdfrwt beam="1">  1        3 0.14073210E-01 0.12653995E+03</pdfrwt>
<pdfrwt beam="2">  1       -3 0.21867849E-01 0.12653995E+03</pdfrwt>
<totfact> 0.17964663E+03</totfact>
</mgrwt>
</event>
<event>
 7    1  0.8165933E-006  0.1425318E+03  0.7546771E-02  0.1220125E+00
         -1   -1    0    0    0  501 -0.00000000000E+00  0.00000000000E+00  0.48233767708E+02  0.48233767708E+02  0.00000000000E+00 0.  1.
          1   -1    0    0  501    0  0.00000000000E+00 -0.00000000000E+00 -0.40040822603E+03  0.40040822603E+03  0.00000000000E+00 0. -1.
         23    2    1    2    0    0  0.61836594974E+02 -0.29426882087E+02 -0.27636184138E+03  0.31095203436E+03  0.12500237770E+03 0.  0.
          5    1    3    3  502    0  0.67596987870E+02 -0.40885261773E+02 -0.28433036878E+03  0.29513862169E+03  0.47000000000E+01 0. -1.
         -5    1    3    3    0  502 -0.57603928952E+01  0.11458379686E+02  0.79685274002E+01  0.15813412670E+02  0.47000000000E+01 0. -1.
        -11    1    1    2    0    0 -0.84834172423E+02  0.11802085214E+02 -0.52127872809E+02  0.10026684970E+03  0.00000000000E+00 0.  1.
         11    1    1    2    0    0  0.22997577449E+02  0.17624796873E+02 -0.23684744132E+02  0.37423109677E+02  0.00000000000E+00 0. -1.
<mgrwt>
<rscale>  0 0.13506741E+03</rscale>
<asrwt>0</asrwt>
<pdfrwt beam="2">  1        1 0.61601263E-01 0.14253175E+03</pdfrwt>
<pdfrwt beam="1">  1       -1 0.74205799E-02 0.14253175E+03</pdfrwt>
<totfact> 0.56257189E+03</totfact>
</mgrwt>
</event>
<event>
 7    1  0.8165933E-006  0.1741883E+03  0.7546771E-02  0.1176513E+00
         -2   -1    0    0    0  501 -0.00000000000E+00  0.00000000000E+00  0.95316217815E+02  0.95316217815E+02  0.00000000000E+00 0.  1.
          2   -1    0    0  501    0  0.00000000000E+00 -0.00000000000E+00 -0.30023448936E+03  0.30023448936E+03  0.00000000000E+00 0. -1.
         23    2    1    2    0    0 -0.91601107232E+02 -0.50103879563E+02 -0.81890187615E+02  0.18229626152E+03  0.12499905017E+03 0.  0.
          5    1    3    3  502    0 -0.95734702135E-01  0.33287381507E+02 -0.38294385111E+02  0.50956931459E+02  0.47000000000E+01 0.  1.
         -5    1    3    3    0  502 -0.91505372530E+02 -0.83391261070E+02 -0.43595802505E+02  0.13133933006E+03  0.47000000000E+01 0.  1.
        -11    1    1    2    0    0 -0.34574516372E+02 -0.73594587172E+01 -0.29133127025E+02  0.45807181808E+02  0.00000000000E+00 0. -1.
         11    1    1    2    0    0  0.12617562360E+03  0.57463338280E+02 -0.93894956909E+02  0.16744726385E+03  0.00000000000E+00 0.  1.
<mgrwt>
<rscale>  0 0.17128644E+03</rscale>
<asrwt>0</asrwt>
<pdfrwt beam="2">  1        2 0.46189921E-01 0.17418826E+03</pdfrwt>
<pdfrwt beam="1">  1       -2 0.14664034E-01 0.17418826E+03</pdfrwt>
<totfact> 0.37903968E+03</totfact>
</mgrwt>
</event>
<event>
 7    1  0.8165933E-006  0.2215526E+03  0.7546771E-02  0.1136065E+00
          1   -1    0    0  501    0  0.00000000000E+00  0.00000000000E+00  0.38963364154E+02  0.38963364154E+02  0.00000000000E+00 0. -1.
         -1   -1    0    0    0  501 -0.00000000000E+00 -0.00000000000E+00 -0.11695405089E+04  0.11695405089E+04  0.00000000000E+00 0.  1.
         23    2    1    2    0    0 -0.17951234492E+03  0.34842189638E+02 -0.54436706453E+03  0.58772532813E+03  0.12508757023E+03 0.  0.
          5    1    3    3  502    0 -0.35516456661E+02 -0.41619950789E+02 -0.95782977551E+02  0.11040882114E+03  0.47000000000E+01 0. -1.
         -5    1    3    3    0  502 -0.14399588826E+03  0.76462140426E+02 -0.44858408697E+03  0.47731650698E+03  0.47000000000E+01 0. -1.
        -11    1    1    2    0    0  0.74511320131E+02 -0.27925809529E+02 -0.39098064099E+03  0.39899580110E+03  0.00000000000E+00 0.  1.
         11    1    1    2    0    0  0.10500102479E+03 -0.69163801085E+01 -0.19522943927E+03  0.22178274387E+03  0.00000000000E+00 0. -1.
<mgrwt>
<rscale>  0 0.21709787E+03</rscale>
<asrwt>0</asrwt>
<pdfrwt beam="1">  1        1 0.59943645E-02 0.22155261E+03</pdfrwt>
<pdfrwt beam="2">  1       -1 0.17992929E+00 0.22155261E+03</pdfrwt>
<totfact> 0.29681693E+02</totfact>
</mgrwt>
</event>
<event>
 7    1  0.8165933E-006  0.1881482E+03  0.7546771E-02  0.1165279E+00
         -1   -1    0    0    0  501 -0.00000000000E+00  0.00000000000E+00  0.39090400243E+03  0.39090400243E+03  0.00000000000E+00 0.  1.
          1   -1    0    0  501    0  0.00000000000E+00 -0.00000000000E+00 -0.10608023845E+03  0.10608023845E+03  0.00000000000E+00 0. -1.
         23    2    1    2    0    0  0.93676826841E+02  0.10487879420E+03  0.27425601970E+02  0.19013653024E+03  0.12499930851E+03 0.  0.
          5    1    3    3  502    0 -0.12843974530E+02  0.14687086364E+02  0.45104377150E+02  0.49367732637E+02  0.47000000000E+01 0.  1.
         -5    1    3    3    0  502  0.10652080137E+03  0.90191707836E+02 -0.17678775180E+02  0.14076879760E+03  0.47000000000E+01 0.  1.
        -11    1    1    2    0    0 -0.75830404487E+02 -0.18417503641E+02  0.13503116049E+03  0.15595790775E+03  0.00000000000E+00 0.  1.
         11    1    1    2    0    0 -0.17846422354E+02 -0.86461290559E+02  0.12236700152E+03  0.15088980289E+03  0.00000000000E+00 0. -1.
<mgrwt>
<rscale>  0 0.18263283E+03</rscale>
<asrwt>0</asrwt>
<pdfrwt beam="2">  1        1 0.16320037E-01 0.18814818E+03</pdfrwt>
<pdfrwt beam="1">  1       -1 0.60139077E-01 0.18814818E+03</pdfrwt>
<totfact> 0.95943101E+02</totfact>
</mgrwt>
</event>
<event>
 7    1  0.8165933E-006  0.1843326E+03  0.7546771E-02  0.1168734E+00
         -1   -1    0    0    0  501 -0.00000000000E+00  0.00000000000E+00  0.54651818120E+03  0.54651818120E+03  0.00000000000E+00 0.  1.
          1   -1    0    0  501    0  0.00000000000E+00 -0.00000000000E+00 -0.98883825027E+02  0.98883825027E+02  0.00000000000E+00 0. -1.
         23    2    1    2    0    0 -0.68436004405E+02  0.11691797960E+03  0.17642841221E+02  0.18517496180E+03  0.12500078391E+03 0.  0.
          5    1    3    3  502    0  0.25510437911E+02  0.17798699646E+02  0.35422388571E+02  0.47375223098E+02  0.47000000000E+01 0.  1.
         -5    1    3    3    0  502 -0.93946442317E+02  0.99119279952E+02 -0.17779547350E+02  0.13779973870E+03  0.47000000000E+01 0.  1.
        -11    1    1    2    0    0  0.82087157887E+02 -0.68978707315E+02  0.22469754900E+03  0.24896857649E+03  0.00000000000E+00 0. -1.
         11    1    1    2    0    0 -0.13651153482E+02 -0.47939272283E+02  0.20529396595E+03  0.21125846794E+03  0.00000000000E+00 0.  1.
<mgrwt>
<rscale>  0 0.17904135E+03</rscale>
<asrwt>0</asrwt>
<pdfrwt beam="2">  1        1 0.15212896E-01 0.18433257E+03</pdfrwt>
<pdfrwt beam="1">  1       -1 0.84079719E-01 0.18433257E+03</pdfrwt>
<totfact> 0.53796968E+02</totfact>
</mgrwt>
</event>
<event>
 7    1  0.8165933E-006  0.1468224E+03  0.7546771E-02  0.1213803E+00
          1   -1    0    0  501    0  0.00000000000E+00  0.00000000000E+00  0.55219295698E+03  0.55219295698E+03  0.00000000000E+00 0. -1.
         -1   -1    0    0    0  501 -0.00000000000E+00 -0.00000000000E+00 -0.43710783995E+02  0.43710783995E+02  0.00000000000E+00 0.  1.
         23    2    1    2    0    0  0.27284551312E+02  0.72019364692E+02  0.42484853378E+03  0.44950315240E+03  0.12500228691E+03 0.  0.
          5    1    3    3  502    0  0.13369504531E+02  0.62462931264E+02  0.72585109229E+02  0.96804181290E+02  0.47000000000E+01 0.  1.
         -5    1    3    3    0  502  0.13915046780E+02  0.95564334276E+01  0.35226342455E+03  0.35269897111E+03  0.47000000000E+01 0.  1.
        -11    1    1    2    0    0 -0.22116283832E+02  0.16140235650E+02  0.43527209870E+01  0.27723336692E+02  0.00000000000E+00 0.  1.
         11    1    1    2    0    0 -0.51682674800E+01 -0.88159600341E+02  0.79280918224E+02  0.11867725189E+03  0.00000000000E+00 0. -1.
<mgrwt>
<rscale>  0 0.13964796E+03</rscale>
<asrwt>0</asrwt>
<pdfrwt beam="1">  1        1 0.84952758E-01 0.14682237E+03</pdfrwt>
<pdfrwt beam="2">  1       -1 0.67247364E-02 0.14682237E+03</pdfrwt>
<totfact> 0.43086751E+03</totfact>
</mgrwt>
</event>
<event>
 7    1  0.8165933E-006  0.1230371E+03  0.7546771E-02  0.1245357E+00
         -1   -1    0    0    0  501 -0.00000000000E+00  0.00000000000E+00  0.77499751144E+02  0.77499751144E+02  0.00000000000E+00 0.  1.
          1   -1    0    0  501    0  0.00000000000E+00 -0.00000000000E+00 -0.34730112263E+03  0.34730112263E+03  0.00000000000E+00 0. -1.
         23    2    1    2    0    0  0.47939140966E+02  0.21138458593E+02 -0.29135563629E+03  0.31626923084E+03  0.11132440842E+03 0.  0.
          5    1    3    3  502    0  0.64458850006E+02  0.50439784664E+02 -0.15054688045E+03  0.17142219353E+03  0.47000000000E+01 0. -1.
         -5    1    3    3    0  502 -0.16519709041E+02 -0.29301326070E+02 -0.14080875584E+03  0.14484703731E+03  0.47000000000E+01 0.  1.
        -11    1    1    2    0    0 -0.12373662610E+02  0.53398394417E+01  0.52667824808E+02  0.54364705293E+02  0.00000000000E+00 0.  1.
         11    1    1    2    0    0 -0.35565478356E+02 -0.26478298035E+02 -0.31113560007E+02  0.54166937645E+02  0.00000000000E+00 0. -1.
<mgrwt>
<rscale>  0 0.11864011E+03</rscale>
<asrwt>0</asrwt>
<pdfrwt beam="2">  1        1 0.53430942E-01 0.12303707E+03</pdfrwt>
<pdfrwt beam="1">  1       -1 0.11923039E-01 0.12303707E+03</pdfrwt>
<totfact> 0.32438930E+03</totfact>
</mgrwt>
</event>
<event>
 7    1  0.8165933E-006  0.1324268E+03  0.7546771E-02  0.1235428E+00
         -2   -1    0    0    0  501 -0.00000000000E+00  0.00000000000E+00  0.27658083303E+02  0.27658083303E+02  0.00000000000E+00 0.  1.
          2   -1    0    0  501    0  0.00000000000E+00 -0.00000000000E+00 -0.55182664847E+03  0.55182664847E+03  0.00000000000E+00 0. -1.
         23    2    1    2    0    0  0.20766094862E+01 -0.43673350559E+02 -0.37285878507E+03  0.39567730868E+03  0.12500074056E+03 0.  0.
          5    1    3    3  502    0  0.58952459070E+02 -0.13414177923E+02 -0.24543755927E+03  0.25281815224E+03  0.47000000000E+01 0. -1.
         -5    1    3    3    0  502 -0.56875849584E+02 -0.30259172636E+02 -0.12742122580E+03  0.14285915644E+03  0.47000000000E+01 0. -1.
        -11    1    1    2    0    0 -0.41847354644E+02  0.23267564351E+02 -0.12009231232E+03  0.12928551396E+03  0.00000000000E+00 0.  1.
         11    1    1    2    0    0  0.39770745157E+02  0.20405786208E+02 -0.31217467771E+02  0.54521909130E+02  0.00000000000E+00 0. -1.
<mgrwt>
<rscale>  0 0.12477081E+03</rscale>
<asrwt>0</asrwt>
<pdfrwt beam="2">  1        2 0.84896403E-01 0.13242681E+03</pdfrwt>
<pdfrwt beam="1">  1       -2 0.42550899E-02 0.13242681E+03</pdfrwt>
<totfact> 0.13187842E+04</totfact>
</mgrwt>
</event>
<event>
 7    1  0.8165933E-006  0.1437574E+03  0.7546771E-02  0.1219157E+00
          1   -1    0    0  501    0  0.00000000000E+00  0.00000000000E+00  0.15572915053E+03  0.15572915053E+03  0.00000000000E+00 0. -1.
         -1   -1    0    0    0  501 -0.00000000000E+00 -0.00000000000E+00 -0.10938878414E+03  0.10938878414E+03  0.00000000000E+00 0.  1.
         23    2    1    2    0    0 -0.29074064822E+01  0.70962971579E+02  0.45510386533E+02  0.15078922181E+03  0.12498799055E+03 0.  0.
          5    1    3    3  502    0  0.48628588829E+02  0.65565444110E+02  0.15599577679E+00  0.81766016459E+02  0.47000000000E+01 0.  1.
         -5    1    3    3    0  502 -0.51535995312E+02  0.53975274696E+01  0.45354390756E+02  0.69023205347E+02  0.47000000000E+01 0.  1.
        -11    1    1    2    0    0 -0.55090631336E+01 -0.79211711838E+02  0.28413126664E+02  0.84333568854E+02  0.00000000000E+00 0. -1.
         11    1    1    2    0    0  0.84164696158E+01  0.82487402587E+01 -0.27583146806E+02  0.29995144013E+02  0.00000000000E+00 0.  1.
<mgrwt>
<rscale>  0 0.13575588E+03</rscale>
<asrwt>0</asrwt>
<pdfrwt beam="1">  1        1 0.23958331E-01 0.14375741E+03</pdfrwt>
<pdfrwt beam="2">  1       -1 0.16829044E-01 0.14375741E+03</pdfrwt>
<totfact> 0.51720673E+03</totfact>
</mgrwt>
</event>
<event>
 7    1  0.8165933E-006  0.1271789E+03  0.7546771E-02  0.1245395E+00
         -2   -1    0    0    0  501 -0.00000000000E+00  0.00000000000E+00  0.18636267564E+02  0.18636267564E+02  0.00000000000E+00 0.  1.
          2   -1    0    0  501    0  0.00000000000E+00 -0.00000000000E+00 -0.67059562753E+03  0.67059562753E+03  0.00000000000E+00 0. -1.
         23    2    1    2    0    0 -0.13010958813E+02 -0.19500508590E+02 -0.35791523315E+03  0.37983917023E+03  0.12499970495E+03 0.  0.
          5    1    3    3  502    0  0.42781295270E+02 -0.14581087891E+02 -0.53118883664E+02  0.69903885091E+02  0.47000000000E+01 0.  1.
         -5    1    3    3    0  502 -0.55792254083E+02 -0.49194206987E+01 -0.30479634948E+03  0.30993528514E+03  0.47000000000E+01 0.  1.
        -11    1    1    2    0    0  0.39717522532E+02  0.40595736199E+02 -0.13014141522E+03  0.14199395532E+03  0.00000000000E+00 0. -1.
         11    1    1    2    0    0 -0.26706563719E+02 -0.21095227609E+02 -0.16390271160E+03  0.16739876954E+03  0.00000000000E+00 0.  1.
<mgrwt>
<rscale>  0 0.11861755E+03</rscale>
<asrwt>0</asrwt>
<pdfrwt beam="2">  1        2 0.10316857E+00 0.12717893E+03</pdfrwt>
<pdfrwt beam="1">  1       -2 0.28671178E-02 0.12717893E+03</pdfrwt>
<totfact> 0.18852911E+04</totfact>
</mgrwt>
</event>
<event>
 7    1  0.8165933E-006  0.2144075E+03  0.7546771E-02  0.1141775E+00
          2   -1    0    0  501    0  0.00000000000E+00  0.00000000000E+00  0.48316501408E+03  0.48316501408E+03  0.00000000000E+00 0. -1.
         -2   -1    0    0    0  501 -0.00000000000E+00 -0.00000000000E+00 -0.87390041946E+02  0.87390041946E+02  0.00000000000E+00 0.  1.
         23    2    1    2    0    0  0.27136167204E+02 -0.17207104135E+03  0.19687198174E+03  0.29108270526E+03  0.12500299703E+03 0.  0.
          5    1    3    3  502    0 -0.45365756292E+02 -0.10755539058E+03  0.98407680444E+02  0.15274938775E+03  0.47000000000E+01 0. -1.
         -5    1    3    3    0  502  0.72501923496E+02 -0.64515650771E+02  0.98464301298E+02  0.13833331752E+03  0.47000000000E+01 0. -1.
        -11    1    1    2    0    0 -0.11833136604E+02  0.13569892751E+03  0.19758811030E+03  0.23999017351E+03  0.00000000000E+00 0. -1.
         11    1    1    2    0    0 -0.15303030600E+02  0.36372113841E+02  0.13148800900E+01  0.39482177251E+02  0.00000000000E+00 0.  1.
<mgrwt>
<rscale>  0 0.20973566E+03</rscale>
<asrwt>0</asrwt>
<pdfrwt beam="1">  1        2 0.74333077E-01 0.21440747E+03</pdfrwt>
<pdfrwt beam="2">  1       -2 0.13444622E-01 0.21440747E+03</pdfrwt>
<totfact> 0.26308079E+03</totfact>
</mgrwt>
</event>
<event>
 6    1  0.8165933E-006  0.1360372E+03  0.7546771E-02  0.1231453E+00
         -2   -1    0    0    0  501 -0.00000000000E+00  0.00000000000E+00  0.26576437182E+02  0.26576437182E+02  0.00000000000E+00 0.  1.
          2   -1    0    0  501    0  0.00000000000E+00 -0.00000000000E+00 -0.85619179550E+03  0.85619179550E+03  0.00000000000E+00 0. -1.
          5    1    1    2  502    0 -0.50407474555E+02  0.52520084434E+02 -0.67013682440E+03  0.67409548743E+03  0.47000000000E+01 0. -1.
         -5    1    1    2    0  502  0.14435271416E+02 -0.25205430456E+02 -0.44326287615E+02  0.53203388605E+02  0.47000000000E+01 0.  1.
        -11    1    1    2    0    0  0.21587572860E+02  0.28056753383E+02 -0.82079559963E+02  0.89388247975E+02  0.00000000000E+00 0. -1.
         11    1    1    2    0    0  0.14384630278E+02 -0.55371407361E+02 -0.33072686343E+02  0.66081108672E+02  0.00000000000E+00 0.  1.
<mgrwt>
<rscale>  0 0.12734289E+03</rscale>
<asrwt>0</asrwt>
<pdfrwt beam="2">  1        2 0.13172181E+00 0.13603719E+03</pdfrwt>
<pdfrwt beam="1">  1       -2 0.40886827E-02 0.13603719E+03</pdfrwt>
<totfact> 0.83274412E+03</totfact>
</mgrwt>
</event>
<event>
 7    1  0.8165933E-006  0.1317513E+03  0.7546771E-02  0.1237745E+00
         -2   -1    0    0    0  501 -0.00000000000E+00  0.00000000000E+00  0.64184634080E+02  0.64184634080E+02  0.00000000000E+00 0.  1.
          2   -1    0    0  501    0  0.00000000000E+00 -0.00000000000E+00 -0.21663583595E+03  0.21663583595E+03  0.00000000000E+00 0. -1.
         23    2    1    2    0    0  0.30379139096E+02 -0.28473158169E+02 -0.10819482585E+03  0.17048318026E+03  0.12499912632E+03 0.  0.
          5    1    3    3  502    0 -0.45491807945E+02 -0.69634261552E+01 -0.66909906175E+02  0.81345064007E+02  0.47000000000E+01 0. -1.
         -5    1    3    3    0  502  0.75870947041E+02 -0.21509732014E+02 -0.41284919675E+02  0.89138116251E+02  0.47000000000E+01 0. -1.
        -11    1    1    2    0    0 -0.18060297187E+02 -0.61187453355E+01 -0.65291515901E+02  0.68019081350E+02  0.00000000000E+00 0. -1.
         11    1    1    2    0    0 -0.12318841908E+02  0.34591903504E+02  0.21035139884E+02  0.42318208421E+02  0.00000000000E+00 0.  1.
<mgrwt>
<rscale>  0 0.12330326E+03</rscale>
<asrwt>0</asrwt>
<pdfrwt beam="2">  1        2 0.33328590E-01 0.13175126E+03</pdfrwt>
<pdfrwt beam="1">  1       -2 0.98745591E-02 0.13175126E+03</pdfrwt>
<totfact> 0.99513206E+03</totfact>
</mgrwt>
</event>
<event>
 7    1  0.8165933E-006  0.1896462E+03  0.7546771E-02  0.1163385E+00
         -1   -1    0    0    0  501 -0.00000000000E+00  0.00000000000E+00  0.13541704638E+02  0.13541704638E+02  0.00000000000E+00 0.  1.
          1   -1    0    0  501    0  0.00000000000E+00 -0.00000000000E+00 -0.27271853638E+04  0.27271853638E+04  0.00000000000E+00 0. -1.
         23    2    1    2    0    0 -0.12515000354E+03  0.68387801128E+02 -0.18993165129E+04  0.19087610869E+04  0.12500502328E+03 0.  0.
          5    1    3    3  502    0 -0.12053405749E+03  0.26066247149E+02 -0.88758845364E+03  0.89612681095E+03  0.47000000000E+01 0. -1.
         -5    1    3    3    0  502 -0.46159460526E+01  0.42321553978E+02 -0.10117280593E+04  0.10126342759E+04  0.47000000000E+01 0. -1.
        -11    1    1    2    0    0  0.95447819674E+02 -0.91945743565E+00 -0.50836557380E+03  0.51724915496E+03  0.00000000000E+00 0. -1.
         11    1    1    2    0    0  0.29702183867E+02 -0.67468343692E+02 -0.30596157250E+03  0.31471682665E+03  0.00000000000E+00 0.  1.
<mgrwt>
<rscale>  0 0.18464187E+03</rscale>
<asrwt>0</asrwt>
<pdfrwt beam="2">  1        1 0.41956721E+00 0.18964617E+03</pdfrwt>
<pdfrwt beam="1">  1       -1 0.20833380E-02 0.18964617E+03</pdfrwt>
<totfact> 0.72966390E+02</totfact>
</mgrwt>
</event>
<event>
 7    1  0.8165933E-006  0.1440513E+03  0.7546771E-02  0.1217676E+00
          2   -1    0    0  501    0  0.00000000000E+00  0.00000000000E+00  0.21554367880E+03  0.21554367880E+03  0.00000000000E+00 0. -1.
         -2   -1    0    0    0  501 -0.00000000000E+00 -0.00000000000E+00 -0.79745983840E+02  0.79745983840E+02  0.00000000000E+00 0.  1.
         23    2    1    2    0    0  0.56470978379E+02 -0.44020265243E+02  0.62427798154E+02  0.15699680854E+03  0.12499605097E+03 0.  0.
          5    1    3    3  502    0  0.35991637203E+02 -0.58897888012E+02  0.93710402828E+02  0.11648213923E+03  0.47000000000E+01 0. -1.
         -5    1    3    3    0  502  0.20479341175E+02  0.14877622769E+02 -0.31282604674E+02  0.40514669311E+02  0.47000000000E+01 0. -1.
        -11    1    1    2    0    0 -0.46859726926E+02 -0.12608468443E+02  0.46786649803E+01  0.48751383468E+02  0.00000000000E+00 0.  1.
         11    1    1    2    0    0 -0.96112514527E+01  0.56628733686E+02  0.68691231821E+02  0.89541470629E+02  0.00000000000E+00 0. -1.
<mgrwt>
<rscale>  0 0.13681797E+03</rscale>
<asrwt>0</asrwt>
<pdfrwt beam="1">  1        2 0.33160566E-01 0.14405127E+03</pdfrwt>
<pdfrwt beam="2">  1       -2 0.12268613E-01 0.14405127E+03</pdfrwt>
<totfact> 0.71383472E+03</totfact>
</mgrwt>
</event>
<event>
 7    1  0.8165933E-006  0.2311326E+03  0.7546771E-02  0.1128969E+00
         -2   -1    0    0    0  501 -0.00000000000E+00  0.00000000000E+00  0.10640399593E+03  0.10640399593E+03  0.00000000000E+00 0.  1.
          2   -1    0    0  501    0  0.00000000000E+00 -0.00000000000E+00 -0.46594591146E+03  0.46594591146E+03  0.00000000000E+00 0. -1.
         23    2    1    2    0    0 -0.14596254318E+03 -0.12842241958E+03 -0.17804458209E+03  0.29175697896E+03  0.12499951878E+03 0.  0.
          5    1    3    3  502    0 -0.86608540753E+02 -0.56410521202E+02 -0.16863521762E+03  0.19784618484E+03  0.47000000000E+01 0. -1.
         -5    1    3    3    0  502 -0.59354002429E+02 -0.72011898379E+02 -0.94093644715E+01  0.93910794120E+02  0.47000000000E+01 0. -1.
        -11    1    1    2    0    0  0.68834076918E+02  0.35697897686E+02 -0.12572309172E+03  0.14771176607E+03  0.00000000000E+00 0.  1.
         11    1    1    2    0    0  0.77128466264E+02  0.92724521895E+02 -0.55774241721E+02  0.13288116235E+03  0.00000000000E+00 0. -1.
<mgrwt>
<rscale>  0 0.22672191E+03</rscale>
<asrwt>0</asrwt>
<pdfrwt beam="2">  1        2 0.71683987E-01 0.23113256E+03</pdfrwt>
<pdfrwt beam="1">  1       -2 0.16369845E-01 0.23113256E+03</pdfrwt>
<totfact> 0.19828522E+03</totfact>
</mgrwt>
</event>
<event>
 7    1  0.8165933E-006  0.1275177E+03  0.7546771E-02  0.1244509E+00
          1   -1    0    0  501    0  0.00000000000E+00  0.00000000000E+00  0.25373240780E+03  0.25373240780E+03  0.00000000000E+00 0. -1.
         -1   -1    0    0    0  501 -0.00000000000E+00 -0.00000000000E+00 -0.50444363611E+02  0.50444363611E+02  0.00000000000E+00 0.  1.
         23    2    1    2    0    0 -0.25275024615E+02  0.75537684169E+01  0.13283027926E+03  0.18413217362E+03  0.12475932024E+03 0.  0.
          5    1    3    3  502    0 -0.55893058179E+02 -0.24336092706E+02  0.12477503264E+03  0.13895027215E+03  0.47000000000E+01 0. -1.
         -5    1    3    3    0  502  0.30618033564E+02  0.31889861123E+02  0.80552466125E+01  0.45181901463E+02  0.47000000000E+01 0. -1.
        -11    1    1    2    0    0  0.59609547862E+02  0.47001085433E+01  0.35512148609E+02  0.69544963264E+02  0.00000000000E+00 0.  1.
         11    1    1    2    0    0 -0.34334523247E+02 -0.12253876960E+02  0.34945616321E+02  0.50499634526E+02  0.00000000000E+00 0. -1.
<mgrwt>
<rscale>  0 0.11914787E+03</rscale>
<asrwt>0</asrwt>
<pdfrwt beam="1">  1        1 0.39035754E-01 0.12751774E+03</pdfrwt>
<pdfrwt beam="2">  1       -1 0.77606715E-02 0.12751774E+03</pdfrwt>
<totfact> 0.92034813E+03</totfact>
</mgrwt>
</event>
<event>
 7    1  0.8165933E-006  0.1298028E+03  0.7546771E-02  0.1241583E+00
         -2   -1    0    0    0  501 -0.00000000000E+00  0.00000000000E+00  0.46010338159E+02  0.46010338159E+02  0.00000000000E+00 0.  1.
          2   -1    0    0  501    0  0.00000000000E+00 -0.00000000000E+00 -0.32154425476E+03  0.32154425476E+03  0.00000000000E+00 0. -1.
         23    2    1    2    0    0 -0.21846281233E+02  0.27302200085E+02 -0.21912202507E+03  0.25468258165E+03  0.12500434149E+03 0.  0.
          5    1    3    3  502    0  0.23923743827E+02  0.49643053444E+02 -0.18526494370E+03  0.19334416888E+03  0.47000000000E+01 0.  1.
         -5    1    3    3    0  502 -0.45770025060E+02 -0.22340853359E+02 -0.33857081370E+02  0.61338412774E+02  0.47000000000E+01 0.  1.
        -11    1    1    2    0    0  0.11619353532E+01  0.33327277037E+02 -0.23943420102E+02  0.41052951838E+02  0.00000000000E+00 0.  1.
         11    1    1    2    0    0  0.20684345880E+02 -0.60629477122E+02 -0.32468471427E+02  0.71819059430E+02  0.00000000000E+00 0. -1.
<mgrwt>
<rscale>  0 0.12092264E+03</rscale>
<asrwt>0</asrwt>
<pdfrwt beam="2">  1        2 0.49468348E-01 0.12980276E+03</pdfrwt>
<pdfrwt beam="1">  1       -2 0.70785134E-02 0.12980276E+03</pdfrwt>
<totfact> 0.10937900E+04</totfact>
</mgrwt>
</event>
<event>
 7    1  0.8165933E-006  0.2322043E+03  0.7546771E-02  0.1128067E+00
         -1   -1    0    0    0  501 -0.00000000000E+00  0.00000000000E+00  0.21581512454E+03  0.21581512454E+03  0.00000000000E+00 0.  1.
          1   -1    0    0  501    0  0.00000000000E+00 -0.00000000000E+00 -0.28811327206E+03  0.28811327206E+03  0.00000000000E+00 0. -1.
         23    2    1    2    0    0 -0.95732481140E+02  0.17068323152E+03 -0.14788430765E+03  0.27529729266E+03  0.12498542886E+03 0.  0.
          5    1    3    3  502    0 -0.26681269216E+02  0.88012800989E+02  0.24031346239E+00  0.92088495565E+02  0.47000000000E+01 0.  1.
         -5    1    3    3    0  502 -0.69051211924E+02  0.82670430536E+02 -0.14812462111E+03  0.18320879709E+03  0.47000000000E+01 0.  1.
        -11    1    1    2    0    0  0.61059670154E+02 -0.26943725338E+02  0.34690782564E+02  0.75217671124E+02  0.00000000000E+00 0.  1.
         11    1    1    2    0    0  0.34672810985E+02 -0.14373950619E+03  0.40895377566E+02  0.15341343281E+03  0.00000000000E+00 0. -1.
<mgrwt>
<rscale>  0 0.22798330E+03</rscale>
<asrwt>0</asrwt>
<pdfrwt beam="2">  1        1 0.44325119E-01 0.23220429E+03</pdfrwt>
<pdfrwt beam="1">  1       -1 0.33202327E-01 0.23220429E+03</pdfrwt>
<totfact> 0.79254994E+02</totfact>
</mgrwt>
</event>
<event>
 7    1  0.8165933E-006  0.1384763E+03  0.7546771E-02  0.1226358E+00
          4   -1    0    0  501    0  0.00000000000E+00  0.00000000000E+00  0.66158464768E+03  0.66158464768E+03  0.00000000000E+00 0. -1.
         -4   -1    0    0    0  501 -0.00000000000E+00 -0.00000000000E+00 -0.35665078137E+02  0.35665078137E+02  0.00000000000E+00 0.  1.
         23    2    1    2    0    0  0.15390788770E+02 -0.57561084288E+02  0.54047535716E+03  0.55793304800E+03  0.12500207816E+03 0.  0.
          5    1    3    3  502    0 -0.51973197421E+02 -0.36730317471E+02  0.19082371089E+03  0.20121160034E+03  0.47000000000E+01 0. -1.
         -5    1    3    3    0  502  0.67363986191E+02 -0.20830766817E+02  0.34965164627E+03  0.35672144766E+03  0.47000000000E+01 0. -1.
        -11    1    1    2    0    0 -0.36131665377E+01  0.82227606170E+02  0.69111223627E+02  0.10747462687E+03  0.00000000000E+00 0. -1.
         11    1    1    2    0    0 -0.11777622232E+02 -0.24666521882E+02  0.16332988753E+02  0.31842050951E+02  0.00000000000E+00 0.  1.
<mgrwt>
<rscale>  0 0.13074270E+03</rscale>
<asrwt>0</asrwt>
<pdfrwt beam="1">  1        4 0.10178224E+00 0.13847626E+03</pdfrwt>
<pdfrwt beam="2">  1       -4 0.54869356E-02 0.13847626E+03</pdfrwt>
<totfact> 0.28226695E+02</totfact>
</mgrwt>
</event>
<event>
 7    1  0.8165933E-006  0.1371957E+03  0.7546771E-02  0.1228103E+00
         -2   -1    0    0    0  501 -0.00000000000E+00  0.00000000000E+00  0.91377129030E+02  0.91377129030E+02  0.00000000000E+00 0.  1.
          2   -1    0    0  501    0  0.00000000000E+00 -0.00000000000E+00 -0.16927044975E+03  0.16927044975E+03  0.00000000000E+00 0. -1.
         23    2    1    2    0    0 -0.33082887964E+02 -0.45951742328E+02 -0.61304737306E+02  0.15026952773E+03  0.12496647570E+03 0.  0.
          5    1    3    3  502    0 -0.43988354198E+01 -0.84995037067E+02 -0.54371877660E+02  0.10110339836E+03  0.47000000000E+01 0.  1.
         -5    1    3    3    0  502 -0.28684052544E+02  0.39043294740E+02 -0.69328596453E+01  0.49166129371E+02  0.47000000000E+01 0.  1.
        -11    1    1    2    0    0  0.34950543333E+02  0.35771095372E+02  0.32871287597E+02  0.59846748381E+02  0.00000000000E+00 0.  1.
         11    1    1    2    0    0 -0.18676553688E+01  0.10180646955E+02 -0.49459871015E+02  0.50531302673E+02  0.00000000000E+00 0. -1.
<mgrwt>
<rscale>  0 0.12956444E+03</rscale>
<asrwt>0</asrwt>
<pdfrwt beam="2">  1        2 0.26041608E-01 0.13719570E+03</pdfrwt>
<pdfrwt beam="1">  1       -2 0.14058020E-01 0.13719570E+03</pdfrwt>
<totfact> 0.74276463E+03</totfact>
</mgrwt>
</event>
<event>
 7    1  0.8165933E-006  0.1343000E+03  0.7546771E-02  0.1231659E+00
         -2   -1    0    0    0  501 -0.00000000000E+00  0.00000000000E+00  0.44775795298E+02  0.44775795298E+02  0.00000000000E+00 0.  1.
          2   -1    0    0  501    0  0.00000000000E+00 -0.00000000000E+00 -0.12340987144E+04  0.12340987144E+04  0.00000000000E+00 0. -1.
         23    2    1    2    0    0 -0.23265680565E+02 -0.51295390252E+02 -0.11587895338E+04  0.11665460422E+04  0.12191790604E+03 0.  0.
          5    1    3    3  502    0 -0.70579896313E+02 -0.19266041124E+02 -0.78072045704E+03  0.78415510209E+03  0.47000000000E+01 0. -1.
         -5    1    3    3    0  502  0.47314215748E+02 -0.32029349128E+02 -0.37806907680E+03  0.38239094007E+03  0.47000000000E+01 0.  1.
        -11    1    1    2    0    0  0.29181751162E+02  0.27233920888E+02 -0.61098576066E+02  0.72981484262E+02  0.00000000000E+00 0. -1.
         11    1    1    2    0    0 -0.59160705971E+01  0.24061469364E+02  0.30565190833E+02  0.39346983238E+02  0.00000000000E+00 0.  1.
<mgrwt>
<rscale>  0 0.12720741E+03</rscale>
<asrwt>0</asrwt>
<pdfrwt beam="2">  1        2 0.18986131E+00 0.13429998E+03</pdfrwt>
<pdfrwt beam="1">  1       -2 0.68885848E-02 0.13429998E+03</pdfrwt>
<totfact> 0.22713552E+03</totfact>
</mgrwt>
</event>
<event>
 7    1  0.8165933E-006  0.1283324E+03  0.7546771E-02  0.1238246E+00
         -1   -1    0    0    0  501 -0.00000000000E+00  0.00000000000E+00  0.10627147071E+03  0.10627147071E+03  0.00000000000E+00 0.  1.
          1   -1    0    0  501    0  0.00000000000E+00 -0.00000000000E+00 -0.26121720232E+03  0.26121720232E+03  0.00000000000E+00 0. -1.
         23    2    1    2    0    0 -0.48884593658E+02 -0.29235215632E+02 -0.20994568479E+03  0.24606176612E+03  0.11499913414E+03 0.  0.
          5    1    3    3  502    0 -0.69129579580E+02 -0.43989084949E+02 -0.20399821409E+03  0.21988928969E+03  0.47000000000E+01 0. -1.
         -5    1    3    3    0  502  0.20244985923E+02  0.14753869316E+02 -0.59474707028E+01  0.26172476432E+02  0.47000000000E+01 0.  1.
        -11    1    1    2    0    0  0.19385628762E+02  0.56781851101E+02  0.97408589727E+01  0.60785405736E+02  0.00000000000E+00 0.  1.
         11    1    1    2    0    0  0.29498964895E+02 -0.27546635469E+02  0.45259094210E+02  0.60641501171E+02  0.00000000000E+00 0. -1.
<mgrwt>
<rscale>  0 0.12298888E+03</rscale>
<asrwt>0</asrwt>
<pdfrwt beam="2">  1        1 0.40187261E-01 0.12833239E+03</pdfrwt>
<pdfrwt beam="1">  1       -1 0.16349457E-01 0.12833239E+03</pdfrwt>
<totfact> 0.28277443E+03</totfact>
</mgrwt>
</event>
<event>
 7    1  0.8165933E-006  0.1251253E+03  0.7546771E-02  0.1250133E+00
          2   -1    0    0  501    0  0.00000000000E+00  0.00000000000E+00  0.16763550364E+03  0.16763550364E+03  0.00000000000E+00 0. -1.
         -2   -1    0    0    0  501 -0.00000000000E+00 -0.00000000000E+00 -0.74176723259E+02  0.74176723259E+02  0.00000000000E+00 0.  1.
         23    2    1    2    0    0 -0.76159096915E-01 -0.53355532910E+01  0.81049361457E+02  0.14908168522E+03  0.12501150326E+03 0.  0.
          5    1    3    3  502    0  0.65565728323E+01  0.42423537604E+02  0.89992406693E+02  0.99817175138E+02  0.47000000000E+01 0. -1.
         -5    1    3    3    0  502 -0.66327319292E+01 -0.47759090895E+02 -0.89430452358E+01  0.49264510087E+02  0.47000000000E+01 0. -1.
        -11    1    1    2    0    0 -0.28004946641E+02  0.34299304950E+02 -0.11613868817E+02  0.45777738097E+02  0.00000000000E+00 0. -1.
         11    1    1    2    0    0  0.28081105738E+02 -0.28963751659E+02  0.24023287737E+02  0.46952803572E+02  0.00000000000E+00 0.  1.
<mgrwt>
<rscale>  0 0.11583336E+03</rscale>
<asrwt>0</asrwt>
<pdfrwt beam="1">  1        2 0.25790077E-01 0.12512534E+03</pdfrwt>
<pdfrwt beam="2">  1       -2 0.11411804E-01 0.12512534E+03</pdfrwt>
<totfact> 0.10415417E+04</totfact>
</mgrwt>
</event>
<event>
 7    1  0.8165933E-006  0.1619430E+03  0.7546771E-02  0.1193833E+00
          1   -1    0    0  501    0  0.00000000000E+00  0.00000000000E+00  0.13319981632E+04  0.13319981632E+04  0.00000000000E+00 0. -1.
         -1   -1    0    0    0  501 -0.00000000000E+00 -0.00000000000E+00 -0.33798678667E+02  0.33798678667E+02  0.00000000000E+00 0.  1.
         23    2    1    2    0    0 -0.76988799841E+02 -0.68371543992E+02  0.11578271133E+04  0.11690975794E+04  0.12499433031E+03 0.  0.
          5    1    3    3  502    0 -0.82760351686E+02 -0.78617434120E+02  0.58069949106E+03  0.59183102797E+03  0.47000000000E+01 0.  1.
         -5    1    3    3    0  502  0.57715518446E+01  0.10245890127E+02  0.57712762224E+03  0.57726655146E+03  0.47000000000E+01 0.  1.
        -11    1    1    2    0    0  0.83174788329E+02  0.82559613713E+02  0.10215411849E+03  0.15546574913E+03  0.00000000000E+00 0.  1.
         11    1    1    2    0    0 -0.61859884879E+01 -0.14188069721E+02  0.38218252710E+02  0.41233513265E+02  0.00000000000E+00 0. -1.
<mgrwt>
<rscale>  0 0.15553435E+03</rscale>
<asrwt>0</asrwt>
<pdfrwt beam="1">  1        1 0.20492275E+00 0.16194297E+03</pdfrwt>
<pdfrwt beam="2">  1       -1 0.51997977E-02 0.16194297E+03</pdfrwt>
<totfact> 0.15422192E+03</totfact>
</mgrwt>
</event>
<event>
 7    1  0.8165933E-006  0.1466917E+03  0.7546771E-02  0.1215165E+00
          2   -1    0    0  501    0  0.00000000000E+00  0.00000000000E+00  0.89374721121E+03  0.89374721121E+03  0.00000000000E+00 0. -1.
         -2   -1    0    0    0  501 -0.00000000000E+00 -0.00000000000E+00 -0.28647081259E+02  0.28647081259E+02  0.00000000000E+00 0.  1.
         23    2    1    2    0    0 -0.33072561289E+02  0.69277471214E+02  0.72564352937E+03  0.74032221488E+03  0.12500115120E+03 0.  0.
          5    1    3    3  502    0 -0.40303781385E+02 -0.27677338009E+02  0.22389901360E+03  0.22922322772E+03  0.47000000000E+01 0.  1.
         -5    1    3    3    0  502  0.72312200964E+01  0.96954809223E+02  0.50174451577E+03  0.51109898716E+03  0.47000000000E+01 0.  1.
        -11    1    1    2    0    0  0.90560861348E+01  0.13817922069E+02 -0.16093281721E+01  0.16599325395E+02  0.00000000000E+00 0.  1.
         11    1    1    2    0    0  0.24016475154E+02 -0.83095393283E+02  0.14106592875E+03  0.16547275219E+03  0.00000000000E+00 0. -1.
<mgrwt>
<rscale>  0 0.13864445E+03</rscale>
<asrwt>0</asrwt>
<pdfrwt beam="1">  1        2 0.13749955E+00 0.14669168E+03</pdfrwt>
<pdfrwt beam="2">  1       -2 0.44072440E-02 0.14669168E+03</pdfrwt>
<totfact> 0.70708657E+03</totfact>
</mgrwt>
</event>
<event>
 7    1  0.8165933E-006  0.1328011E+03  0.7546771E-02  0.1234215E+00
         -1   -1    0    0    0  501 -0.00000000000E+00  0.00000000000E+00  0.39024134461E+02  0.39024134461E+02  0.00000000000E+00 0.  1.
          1   -1    0    0  501    0  0.00000000000E+00 -0.00000000000E+00 -0.37572920086E+03  0.37572920086E+03  0.00000000000E+00 0. -1.
         23    2    1    2    0    0  0.39273998517E+02  0.21662168550E+02 -0.22056324042E+03  0.25745731945E+03  0.12499772721E+03 0.  0.
          5    1    3    3  502    0  0.75767564078E+02 -0.16798357252E+02 -0.10946535655E+03  0.13426713245E+03  0.47000000000E+01 0.  1.
         -5    1    3    3    0  502 -0.36493565561E+02  0.38460525801E+02 -0.11109788387E+03  0.12319018700E+03  0.47000000000E+01 0.  1.
        -11    1    1    2    0    0  0.14081063896E+01 -0.53961189876E+02 -0.54915471559E+02  0.77003258327E+02  0.00000000000E+00 0.  1.
         11    1    1    2    0    0 -0.40682104907E+02  0.32299021326E+02 -0.61226354419E+02  0.80292757542E+02  0.00000000000E+00 0. -1.
<mgrwt>
<rscale>  0 0.12554815E+03</rscale>
<asrwt>0</asrwt>
<pdfrwt beam="2">  1        1 0.57804495E-01 0.13280109E+03</pdfrwt>
<pdfrwt beam="1">  1       -1 0.60037127E-02 0.13280109E+03</pdfrwt>
<totfact> 0.83319719E+03</totfact>
</mgrwt>
</event>
<event>
 7    1  0.8165933E-006  0.1257085E+03  0.7546771E-02  0.1249279E+00
         -2   -1    0    0    0  501 -0.00000000000E+00  0.00000000000E+00  0.56466074751E+02  0.56466074751E+02  0.00000000000E+00 0.  1.
          2   -1    0    0  501    0  0.00000000000E+00 -0.00000000000E+00 -0.39137698533E+03  0.39137698533E+03  0.00000000000E+00 0. -1.
         23    2    1    2    0    0  0.50476840502E+01 -0.12235125833E+02 -0.33267304380E+03  0.35563181260E+03  0.12500981820E+03 0.  0.
          5    1    3    3  502    0  0.69454938793E+01  0.39282619035E+02 -0.34355109506E+02  0.52855724313E+02  0.47000000000E+01 0. -1.
         -5    1    3    3    0  502 -0.18978098291E+01 -0.51517744868E+02 -0.29831793429E+03  0.30277608829E+03  0.47000000000E+01 0. -1.
        -11    1    1    2    0    0 -0.17702591236E+02 -0.29615197248E+01  0.40950096967E+02  0.44710879852E+02  0.00000000000E+00 0.  1.
         11    1    1    2    0    0  0.12654907186E+02  0.15196645557E+02 -0.43187963748E+02  0.47500367628E+02  0.00000000000E+00 0. -1.
<mgrwt>
<rscale>  0 0.11632887E+03</rscale>
<asrwt>0</asrwt>
<pdfrwt beam="2">  1        2 0.60211845E-01 0.12570852E+03</pdfrwt>
<pdfrwt beam="1">  1       -2 0.86870882E-02 0.12570852E+03</pdfrwt>
<totfact> 0.64633298E+03</totfact>
</mgrwt>
</event>
<event>
 7    1  0.8165933E-006  0.1311081E+03  0.7546771E-02  0.1238623E+00
          1   -1    0    0  501    0  0.00000000000E+00  0.00000000000E+00  0.53341922403E+03  0.53341922403E+03  0.00000000000E+00 0. -1.
         -1   -1    0    0    0  501 -0.00000000000E+00 -0.00000000000E+00 -0.25518919557E+02  0.25518919557E+02  0.00000000000E+00 0.  1.
         23    2    1    2    0    0  0.73543015549E+01 -0.38864758920E+02  0.25555611068E+03  0.28722509567E+03  0.12499909854E+03 0.  0.
          5    1    3    3  502    0 -0.90849395188E+01 -0.67295117131E+02  0.24199320525E+03  0.25138410909E+03  0.47000000000E+01 0.  1.
         -5    1    3    3    0  502  0.16439241074E+02  0.28430358212E+02  0.13562905436E+02  0.35840986579E+02  0.47000000000E+01 0.  1.
        -11    1    1    2    0    0  0.37912393512E+02  0.26647531095E+02  0.74030750529E+02  0.87338379416E+02  0.00000000000E+00 0.  1.
         11    1    1    2    0    0 -0.45266695067E+02  0.12217227825E+02  0.17831344326E+03  0.18437466850E+03  0.00000000000E+00 0. -1.
<mgrwt>
<rscale>  0 0.12275309E+03</rscale>
<asrwt>0</asrwt>
<pdfrwt beam="1">  1        1 0.82064488E-01 0.13110808E+03</pdfrwt>
<pdfrwt beam="2">  1       -1 0.39259880E-02 0.13110808E+03</pdfrwt>
<totfact> 0.99512663E+03</totfact>
</mgrwt>
</event>
<event>
 7    1  0.8165933E-006  0.1411287E+03  0.7546771E-02  0.1222733E+00
         -2   -1    0    0    0  501 -0.00000000000E+00  0.00000000000E+00  0.47411678731E+02  0.47411678731E+02  0.00000000000E+00 0. -1.
          2   -1    0    0  501    0  0.00000000000E+00 -0.00000000000E+00 -0.37648653514E+03  0.37648653514E+03  0.00000000000E+00 0.  1.
         23    2    1    2    0    0 -0.49513989666E+02 -0.42910213325E+02 -0.24871109699E+03  0.28596242024E+03  0.12499749774E+03 0.  0.
          5    1    3    3  502    0 -0.88405846060E+02 -0.10674158241E+02 -0.17601116983E+03  0.19731080350E+03  0.47000000000E+01 0.  1.
         -5    1    3    3    0  502  0.38891856394E+02 -0.32236055084E+02 -0.72699927164E+02  0.88651616741E+02  0.47000000000E+01 0.  1.
        -11    1    1    2    0    0  0.72232008266E+02  0.14714333388E+02 -0.40602596080E+02  0.84157860201E+02  0.00000000000E+00 0. -1.
         11    1    1    2    0    0 -0.22718018600E+02  0.28195879938E+02 -0.39761163342E+02  0.53777933438E+02  0.00000000000E+00 0.  1.
<mgrwt>
<rscale>  0 0.13323534E+03</rscale>
<asrwt>0</asrwt>
<pdfrwt beam="2">  1        2 0.57921008E-01 0.14112865E+03</pdfrwt>
<pdfrwt beam="1">  1       -2 0.72941041E-02 0.14112865E+03</pdfrwt>
<totfact> 0.88882316E+03</totfact>
</mgrwt>
</event>
<event>
 7    1  0.8165933E-006  0.4091331E+03  0.7546771E-02  0.1040662E+00
         -2   -1    0    0    0  501 -0.00000000000E+00  0.00000000000E+00  0.10258545241E+03  0.10258545241E+03  0.00000000000E+00 0.  1.
          2   -1    0    0  501    0  0.00000000000E+00 -0.00000000000E+00 -0.40792791728E+03  0.40792791728E+03  0.00000000000E+00 0. -1.
         23    2    1    2    0    0 -0.10535879352E+03  0.11168890920E+03 -0.17859075021E+03  0.26663196723E+03  0.12499224808E+03 0.  0.
          5    1    3    3  502    0 -0.83087283156E+01  0.27385271356E+02  0.16184047909E+02  0.33211465794E+02  0.47000000000E+01 0.  1.
         -5    1    3    3    0  502 -0.97050065201E+02  0.84303637840E+02 -0.19477479812E+03  0.23342050144E+03  0.47000000000E+01 0.  1.
        -11    1    1    2    0    0  0.30599173641E+02 -0.69336656831E+02 -0.13778492936E+03  0.15725319763E+03  0.00000000000E+00 0. -1.
         11    1    1    2    0    0  0.74759619876E+02 -0.42352252366E+02  0.11033214704E+02  0.86628204825E+02  0.00000000000E+00 0.  1.
<mgrwt>
<rscale>  0 0.40913308E+03</rscale>
<asrwt>0</asrwt>
<pdfrwt beam="2">  1        2 0.62758142E-01 0.40913308E+03</pdfrwt>
<pdfrwt beam="1">  1       -2 0.15782377E-01 0.40913308E+03</pdfrwt>
<totfact> 0.24721170E+03</totfact>
</mgrwt>
</event>
<event>
 7    1  0.8165933E-006  0.1350853E+03  0.7546771E-02  0.1233744E+00
          2   -1    0    0  501    0  0.00000000000E+00  0.00000000000E+00  0.74314534185E+03  0.74314534185E+03  0.00000000000E+00 0. -1.
         -2   -1    0    0    0  501 -0.00000000000E+00 -0.00000000000E+00 -0.19301965347E+02  0.19301965347E+02  0.00000000000E+00 0.  1.
         23    2    1    2    0    0  0.49316436621E+02  0.13877687809E+02  0.46801685096E+03  0.48712195365E+03  0.12499329502E+03 0.  0.
          5    1    3    3  502    0 -0.59196134081E+01 -0.18318166749E+02  0.60371500958E+01  0.20715555441E+02  0.47000000000E+01 0. -1.
         -5    1    3    3    0  502  0.55236050029E+02  0.32195854558E+02  0.46197970087E+03  0.46640639821E+03  0.47000000000E+01 0. -1.
        -11    1    1    2    0    0 -0.39950736841E+02 -0.48657073301E+02  0.19173233365E+03  0.20180401365E+03  0.00000000000E+00 0.  1.
         11    1    1    2    0    0 -0.93656997800E+01  0.34779385492E+02  0.64094191889E+02  0.73521339905E+02  0.00000000000E+00 0. -1.
<mgrwt>
<rscale>  0 0.12585178E+03</rscale>
<asrwt>0</asrwt>
<pdfrwt beam="1">  1        2 0.11433003E+00 0.13508525E+03</pdfrwt>
<pdfrwt beam="2">  1       -2 0.29695337E-02 0.13508525E+03</pdfrwt>
<totfact> 0.15923207E+04</totfact>
</mgrwt>
</event>
<event>
 7    1  0.8165933E-006  0.1737422E+03  0.7546771E-02  0.1180121E+00
          1   -1    0    0  501    0  0.00000000000E+00  0.00000000000E+00  0.32537349663E+03  0.32537349663E+03  0.00000000000E+00 0.  1.
         -1   -1    0    0    0  501 -0.00000000000E+00 -0.00000000000E+00 -0.81243996148E+02  0.81243996148E+02  0.00000000000E+00 0. -1.
         23    2    1    2    0    0 -0.12060349985E+03  0.40117593639E+01  0.13618471287E+03  0.22075465786E+03  0.12500017823E+03 0.  0.
          5    1    3    3  502    0 -0.51975934768E+02 -0.19047035677E+02  0.13738708896E+03  0.14819443166E+03  0.47000000000E+01 0.  1.
         -5    1    3    3    0  502 -0.68627565084E+02  0.23058795041E+02 -0.12023760854E+01  0.72560226201E+02  0.47000000000E+01 0.  1.
        -11    1    1    2    0    0  0.36613010708E+02  0.39736066428E+02  0.56142748677E+02  0.77919675033E+02  0.00000000000E+00 0.  1.
         11    1    1    2    0    0  0.83990489144E+02 -0.43747825792E+02  0.51802038935E+02  0.10794315989E+03  0.00000000000E+00 0. -1.
<mgrwt>
<rscale>  0 0.16783850E+03</rscale>
<asrwt>0</asrwt>
<pdfrwt beam="1">  1        1 0.50057460E-01 0.17374217E+03</pdfrwt>
<pdfrwt beam="2">  1       -1 0.12499076E-01 0.17374217E+03</pdfrwt>
<totfact> 0.33212172E+03</totfact>
</mgrwt>
</event>
<event>
 7    1  0.8165933E-006  0.1343207E+03  0.7546771E-02  0.1233196E+00
         -1   -1    0    0    0  501 -0.00000000000E+00  0.00000000000E+00  0.78390339633E+02  0.78390339633E+02  0.00000000000E+00 0.  1.
          1   -1    0    0  501    0  0.00000000000E+00 -0.00000000000E+00 -0.18598886857E+03  0.18598886857E+03  0.00000000000E+00 0. -1.
         23    2    1    2    0    0 -0.44422243857E+02  0.21081533762E+02 -0.79102089849E+02  0.15588201800E+03  0.12499718438E+03 0.  0.
          5    1    3    3  502    0  0.40183635450E+01 -0.42067609331E+02  0.14522882245E+01  0.42544449009E+02  0.47000000000E+01 0.  1.
         -5    1    3    3    0  502 -0.48440607402E+02  0.63149143093E+02 -0.80554378073E+02  0.11333756899E+03  0.47000000000E+01 0.  1.
        -11    1    1    2    0    0  0.36281204800E+02 -0.54524430819E+02 -0.28153277186E+01  0.65552768424E+02  0.00000000000E+00 0.  1.
         11    1    1    2    0    0  0.81410390567E+01  0.33442897057E+02 -0.25681111371E+02  0.42944421777E+02  0.00000000000E+00 0. -1.
<mgrwt>
<rscale>  0 0.12620647E+03</rscale>
<asrwt>0</asrwt>
<pdfrwt beam="2">  1        1 0.28613672E-01 0.13432075E+03</pdfrwt>
<pdfrwt beam="1">  1       -1 0.12060052E-01 0.13432075E+03</pdfrwt>
<totfact> 0.69381767E+03</totfact>
</mgrwt>
</event>
<event>
 7    1  0.8165933E-006  0.1443325E+03  0.7546771E-02  0.1216436E+00
         -1   -1    0    0    0  501 -0.00000000000E+00  0.00000000000E+00  0.93903140218E+01  0.93903140218E+01  0.00000000000E+00 0.  1.
          1   -1    0    0  501    0  0.00000000000E+00 -0.00000000000E+00 -0.22597279851E+04  0.22597279851E+04  0.00000000000E+00 0. -1.
         23    2    1    2    0    0  0.70930549257E+02  0.13282053732E+02 -0.16900237313E+04  0.16961757233E+04  0.12499726463E+03 0.  0.
          5    1    3    3  502    0  0.65899998745E+02  0.47022095534E+02 -0.58258157301E+03  0.58819832243E+03  0.47000000000E+01 0. -1.
         -5    1    3    3    0  502  0.50305505116E+01 -0.33740041803E+02 -0.11074421583E+04  0.11079774009E+04  0.47000000000E+01 0. -1.
        -11    1    1    2    0    0  0.10893460942E+02  0.25728638593E+02 -0.10243778157E+03  0.10617970347E+03  0.00000000000E+00 0.  1.
         11    1    1    2    0    0 -0.81824010199E+02 -0.39010692324E+02 -0.45787615825E+03  0.46676287240E+03  0.00000000000E+00 0. -1.
<mgrwt>
<rscale>  0 0.13771578E+03</rscale>
<asrwt>0</asrwt>
<pdfrwt beam="2">  1        1 0.34765082E+00 0.14433250E+03</pdfrwt>
<pdfrwt beam="1">  1       -1 0.14446622E-02 0.14433250E+03</pdfrwt>
<totfact> 0.25229534E+03</totfact>
</mgrwt>
</event>
<event>
 6    1  0.8165933E-006  0.3104959E+03  0.7546771E-02  0.1082194E+00
          2   -1    0    0  501    0  0.00000000000E+00  0.00000000000E+00  0.47863901574E+03  0.47863901574E+03  0.00000000000E+00 0. -1.
         -2   -1    0    0    0  501 -0.00000000000E+00 -0.00000000000E+00 -0.19897801466E+03  0.19897801466E+03  0.00000000000E+00 0.  1.
          5    1    1    2  502    0  0.51536996679E+02 -0.13252120795E+03  0.10770554231E+03  0.17843908324E+03  0.47000000000E+01 0. -1.
         -5    1    1    2    0  502  0.16035928123E+03 -0.49178115630E+02  0.10541457492E+03  0.19816131999E+03  0.47000000000E+01 0.  1.
        -11    1    1    2    0    0 -0.12315736423E+03  0.69761671537E+02  0.70475313490E+02  0.15811766818E+03  0.00000000000E+00 0. -1.
         11    1    1    2    0    0 -0.88738913679E+02  0.11193765204E+03 -0.39344296391E+01  0.14289895900E+03  0.00000000000E+00 0.  1.
<mgrwt>
<rscale>  0 0.30617503E+03</rscale>
<asrwt>0</asrwt>
<pdfrwt beam="1">  1        2 0.73636771E-01 0.31049586E+03</pdfrwt>
<pdfrwt beam="2">  1       -2 0.30612002E-01 0.31049586E+03</pdfrwt>
<totfact> 0.64662136E+02</totfact>
</mgrwt>
</event>
<event>
 7    1  0.8165933E-006  0.1428303E+03  0.7546771E-02  0.1219887E+00
          3   -1    0    0  501    0  0.00000000000E+00  0.00000000000E+00  0.42765674377E+02  0.42765674377E+02  0.00000000000E+00 0. -1.
         -3   -1    0    0    0  501 -0.00000000000E+00 -0.00000000000E+00 -0.56730019155E+03  0.56730019155E+03  0.00000000000E+00 0.  1.
         23    2    1    2    0    0 -0.14009470649E+01 -0.69120904292E+02 -0.11098868896E+03  0.18088391915E+03  0.12498336316E+03 0.  0.
          5    1    3    3  502    0  0.31996353352E+02 -0.94022042044E+02 -0.65722778080E+02  0.11918676343E+03  0.47000000000E+01 0.  1.
         -5    1    3    3    0  502 -0.33397300416E+02  0.24901137752E+02 -0.45265910883E+02  0.61697155725E+02  0.47000000000E+01 0.  1.
        -11    1    1    2    0    0 -0.39019326030E+02  0.95091367388E+01 -0.10700071766E+03  0.11428947924E+03  0.00000000000E+00 0.  1.
         11    1    1    2    0    0  0.40420273095E+02  0.59611767553E+02 -0.30654511054E+03  0.31489246753E+03  0.00000000000E+00 0. -1.
<mgrwt>
<rscale>  0 0.13523601E+03</rscale>
<asrwt>0</asrwt>
<pdfrwt beam="1">  1        3 0.65793350E-02 0.14283033E+03</pdfrwt>
<pdfrwt beam="2">  1       -3 0.87276947E-01 0.14283033E+03</pdfrwt>
<totfact> 0.42220583E+02</totfact>
</mgrwt>
</event>
<event>
 7    1  0.8165933E-006  0.1402802E+03  0.7546771E-02  0.1224039E+00
         -2   -1    0    0    0  501 -0.00000000000E+00  0.00000000000E+00  0.13530388221E+02  0.13530388221E+02  0.00000000000E+00 0.  1.
          2   -1    0    0  501    0  0.00000000000E+00 -0.00000000000E+00 -0.13625932355E+04  0.13625932355E+04  0.00000000000E+00 0. -1.
         23    2    1    2    0    0  0.59996387628E+02  0.21314409274E+02 -0.10005650452E+04  0.10103508984E+04  0.12499863050E+03 0.  0.
          5    1    3    3  502    0 -0.18570996848E+02 -0.37366523466E+02 -0.31874256084E+03  0.32149657710E+03  0.47000000000E+01 0. -1.
         -5    1    3    3    0  502  0.78567384476E+02  0.58680932740E+02 -0.68182248436E+03  0.68885432128E+03  0.47000000000E+01 0. -1.
        -11    1    1    2    0    0 -0.13793521160E+02 -0.50179888711E+02 -0.11872581974E+03  0.12963063963E+03  0.00000000000E+00 0.  1.
         11    1    1    2    0    0 -0.46202866468E+02  0.28865479437E+02 -0.22977198230E+03  0.23614208567E+03  0.00000000000E+00 0. -1.
<mgrwt>
<rscale>  0 0.13232963E+03</rscale>
<asrwt>0</asrwt>
<pdfrwt beam="2">  1        2 0.20962974E+00 0.14028018E+03</pdfrwt>
<pdfrwt beam="1">  1       -2 0.20815981E-02 0.14028018E+03</pdfrwt>
<totfact> 0.11474819E+04</totfact>
</mgrwt>
</event>
<event>
 7    1  0.8165933E-006  0.2167626E+03  0.7546771E-02  0.1140417E+00
         -1   -1    0    0    0  501 -0.00000000000E+00  0.00000000000E+00  0.31969740664E+03  0.31969740664E+03  0.00000000000E+00 0.  1.
          1   -1    0    0  501    0  0.00000000000E+00 -0.00000000000E+00 -0.16385076205E+03  0.16385076205E+03  0.00000000000E+00 0. -1.
         23    2    1    2    0    0 -0.11601476528E+03  0.13380417110E+03 -0.23007935157E+02  0.21798024572E+03  0.12499216165E+03 0.  0.
          5    1    3    3  502    0 -0.76983418420E+02  0.19343069439E+01  0.58824536421E+01  0.77374941136E+02  0.47000000000E+01 0. -1.
         -5    1    3    3    0  502 -0.39031346862E+02  0.13186986416E+03 -0.28890388799E+02  0.14060530458E+03  0.47000000000E+01 0. -1.
        -11    1    1    2    0    0  0.77301275307E+02 -0.12764418577E+03  0.10668753451E+03  0.18344142210E+03  0.00000000000E+00 0. -1.
         11    1    1    2    0    0  0.38713489976E+02 -0.61599853349E+01  0.72167045239E+02  0.82126500863E+02  0.00000000000E+00 0.  1.
<mgrwt>
<rscale>  0 0.21145770E+03</rscale>
<asrwt>0</asrwt>
<pdfrwt beam="2">  1        1 0.25207810E-01 0.21676259E+03</pdfrwt>
<pdfrwt beam="1">  1       -1 0.49184216E-01 0.21676259E+03</pdfrwt>
<totfact> 0.80174965E+02</totfact>
</mgrwt>
</event>
<event>
 7    1  0.8165933E-006  0.1301550E+03  0.7546771E-02  0.1239361E+00
         -1   -1    0    0    0  501 -0.00000000000E+00  0.00000000000E+00  0.38944443332E+03  0.38944443332E+03  0.00000000000E+00 0.  1.
          1   -1    0    0  501    0  0.00000000000E+00 -0.00000000000E+00 -0.34990805348E+02  0.34990805348E+02  0.00000000000E+00 0. -1.
         23    2    1    2    0    0  0.10067139438E+01 -0.36236173557E+02  0.17223951406E+03  0.21588599841E+03  0.12500496135E+03 0.  0.
          5    1    3    3  502    0  0.55619345195E+01  0.12542175590E+02 -0.15838507775E+02  0.21475325671E+02  0.47000000000E+01 0. -1.
         -5    1    3    3    0  502 -0.45552205758E+01 -0.48778349147E+02  0.18807802183E+03  0.19441067274E+03  0.47000000000E+01 0. -1.
        -11    1    1    2    0    0  0.37301210995E+02  0.48327459003E+02  0.11659674680E+03  0.13161202453E+03  0.00000000000E+00 0. -1.
         11    1    1    2    0    0 -0.38307924939E+02 -0.12091285446E+02  0.65617367114E+02  0.76937215727E+02  0.00000000000E+00 0.  1.
<mgrwt>
<rscale>  0 0.12229303E+03</rscale>
<asrwt>0</asrwt>
<pdfrwt beam="2">  1        1 0.53832011E-02 0.13015496E+03</pdfrwt>
<pdfrwt beam="1">  1       -1 0.59914525E-01 0.13015496E+03</pdfrwt>
<totfact> 0.41802685E+03</totfact>
</mgrwt>
</event>
<event>
 7    1  0.8165933E-006  0.1327749E+03  0.7546771E-02  0.1235951E+00
          1   -1    0    0  501    0  0.00000000000E+00  0.00000000000E+00  0.66227537142E+03  0.66227537142E+03  0.00000000000E+00 0. -1.
         -1   -1    0    0    0  501 -0.00000000000E+00 -0.00000000000E+00 -0.24465041573E+02  0.24465041573E+02  0.00000000000E+00 0.  1.
         23    2    1    2    0    0 -0.30981345491E+02 -0.32326927181E+02  0.48444740969E+03  0.50231312346E+03  0.12499722899E+03 0.  0.
          5    1    3    3  502    0 -0.35480888024E+02 -0.58147856623E+02  0.46331286088E+03  0.46831716144E+03  0.47000000000E+01 0.  1.
         -5    1    3    3    0  502  0.44995425329E+01  0.25820929442E+02  0.21134548814E+02  0.33995962022E+02  0.47000000000E+01 0.  1.
        -11    1    1    2    0    0 -0.14940109339E+01  0.19436289073E+02 -0.66864022362E+01  0.20608478267E+02  0.00000000000E+00 0.  1.
         11    1    1    2    0    0  0.32475356425E+02  0.12890638108E+02  0.16004932239E+03  0.16381881127E+03  0.00000000000E+00 0. -1.
<mgrwt>
<rscale>  0 0.12443735E+03</rscale>
<asrwt>0</asrwt>
<pdfrwt beam="1">  1        1 0.10188851E+00 0.13277493E+03</pdfrwt>
<pdfrwt beam="2">  1       -1 0.37638530E-02 0.13277493E+03</pdfrwt>
<totfact> 0.78974781E+03</totfact>
</mgrwt>
</event>
<event>
 7    1  0.1194078E-005  0.1727830E+03  0.7546771E-02  0.1180513E+00
          3   -1    0    0  501    0  0.00000000000E+00  0.00000000000E+00  0.30354332635E+02  0.30354332635E+02  0.00000000000E+00 0. -1.
         -3   -1    0    0    0  501 -0.00000000000E+00 -0.00000000000E+00 -0.87748286148E+03  0.87748286148E+03  0.00000000000E+00 0.  1.
         23    2    1    2    0    0  0.86304154499E+02 -0.82344240588E+02 -0.41203085705E+03  0.44679234468E+03  0.12499996424E+03 0.  0.
          5    1    3    3  502    0  0.29651989752E+02 -0.21796403122E+02 -0.32267289201E+03  0.32479872063E+03  0.47000000000E+01 0. -1.
         -5    1    3    3    0  502  0.56652164748E+02 -0.60547837467E+02 -0.89357965043E+02  0.12199362405E+03  0.47000000000E+01 0. -1.
        -11    1    1    2    0    0 -0.32573207226E+02  0.76574109059E+02 -0.35359148964E+03  0.36325135864E+03  0.00000000000E+00 0.  1.
         11    1    1    2    0    0 -0.53730947273E+02  0.57701315298E+01 -0.81506182156E+02  0.97793490798E+02  0.00000000000E+00 0. -1.
<mgrwt>
<rscale>  0 0.16746891E+03</rscale>
<asrwt>0</asrwt>
<pdfrwt beam="1">  1        3 0.46698979E-02 0.17278302E+03</pdfrwt>
<pdfrwt beam="2">  1       -3 0.13499735E+00 0.17278302E+03</pdfrwt>
<totfact> 0.27186880E+02</totfact>
</mgrwt>
</event>
<event>
 7    1  0.8165933E-006  0.1273151E+03  0.7546771E-02  0.1246522E+00
          1   -1    0    0  501    0  0.00000000000E+00  0.00000000000E+00  0.51037490642E+03  0.51037490642E+03  0.00000000000E+00 0. -1.
         -1   -1    0    0    0  501 -0.00000000000E+00 -0.00000000000E+00 -0.24001965163E+02  0.24001965163E+02  0.00000000000E+00 0.  1.
         23    2    1    2    0    0  0.23937820380E+02 -0.31602823278E+01  0.26711121897E+03  0.29590121194E+03  0.12500446911E+03 0.  0.
          5    1    3    3  502    0  0.11327035922E+02 -0.28651215017E+02  0.42379765433E+01  0.31452254449E+02  0.47000000000E+01 0. -1.
         -5    1    3    3    0  502  0.12610784458E+02  0.25490932689E+02  0.26287324243E+03  0.26444895749E+03  0.47000000000E+01 0. -1.
        -11    1    1    2    0    0  0.16323285966E+02  0.21994370862E+02  0.18985740622E+02  0.33326571401E+02  0.00000000000E+00 0.  1.
         11    1    1    2    0    0 -0.40261106346E+02 -0.18834088534E+02  0.20027598166E+03  0.20514908824E+03  0.00000000000E+00 0. -1.
<mgrwt>
<rscale>  0 0.11794755E+03</rscale>
<asrwt>0</asrwt>
<pdfrwt beam="1">  1        1 0.78519208E-01 0.12731506E+03</pdfrwt>
<pdfrwt beam="2">  1       -1 0.36926104E-02 0.12731506E+03</pdfrwt>
<totfact> 0.11510459E+04</totfact>
</mgrwt>
</event>
<event>
 6    1  0.8165933E-006  0.3001764E+03  0.7546771E-02  0.1085152E+00
          2   -1    0    0  501    0  0.00000000000E+00  0.00000000000E+00  0.24349808162E+03  0.24349808162E+03  0.00000000000E+00 0. -1.
         -2   -1    0    0    0  501 -0.00000000000E+00 -0.00000000000E+00 -0.92511919799E+02  0.92511919799E+02  0.00000000000E+00 0.  1.
          5    1    1    2  502    0  0.23416553511E+02  0.10848467296E+03  0.11330431100E+03  0.15867330002E+03  0.47000000000E+01 0. -1.
         -5    1    1    2    0  502 -0.40355878780E+02 -0.13083111461E+02  0.98879391054E+01  0.43813537832E+02  0.47000000000E+01 0.  1.
        -11    1    1    2    0    0 -0.34502442975E+02 -0.48152857972E+02  0.22880090156E+02  0.63502872594E+02  0.00000000000E+00 0.  1.
         11    1    1    2    0    0  0.51441768244E+02 -0.47248703531E+02  0.49138215517E+01  0.70020290971E+02  0.00000000000E+00 0. -1.
<mgrwt>
<rscale>  0 0.30017645E+03</rscale>
<asrwt>0</asrwt>
<pdfrwt beam="1">  1        2 0.37461243E-01 0.30017645E+03</pdfrwt>
<pdfrwt beam="2">  1       -2 0.14232603E-01 0.30017645E+03</pdfrwt>
<totfact> 0.51143722E+03</totfact>
</mgrwt>
</event>
<event>
 7    1  0.8165933E-006  0.1554130E+03  0.7546771E-02  0.1202375E+00
         -2   -1    0    0    0  501 -0.00000000000E+00  0.00000000000E+00  0.34409444800E+03  0.34409444800E+03  0.00000000000E+00 0.  1.
          2   -1    0    0  501    0  0.00000000000E+00 -0.00000000000E+00 -0.66992876652E+02  0.66992876652E+02  0.00000000000E+00 0. -1.
         23    2    1    2    0    0  0.13313158095E+01 -0.92308768627E+02  0.78696589616E+02  0.17420201713E+03  0.12502203160E+03 0.  0.
          5    1    3    3  502    0  0.57156632286E+02 -0.49942107953E+02  0.11343793887E+02  0.76888662498E+02  0.47000000000E+01 0. -1.
         -5    1    3    3    0  502 -0.55825316476E+02 -0.42366660674E+02  0.67352795729E+02  0.97313354627E+02  0.47000000000E+01 0. -1.
        -11    1    1    2    0    0  0.20964376175E+02  0.98329356101E+02  0.12784620055E+03  0.16264322407E+03  0.00000000000E+00 0. -1.
         11    1    1    2    0    0 -0.22295691984E+02 -0.60205874743E+01  0.70558781180E+02  0.74242083458E+02  0.00000000000E+00 0.  1.
<mgrwt>
<rscale>  0 0.14846280E+03</rscale>
<asrwt>0</asrwt>
<pdfrwt beam="2">  1        2 0.10306597E-01 0.15541296E+03</pdfrwt>
<pdfrwt beam="1">  1       -2 0.52937606E-01 0.15541296E+03</pdfrwt>
<totfact> 0.20541235E+03</totfact>
</mgrwt>
</event>
<event>
 7    1  0.8165933E-006  0.1646157E+03  0.7546771E-02  0.1190410E+00
         -1   -1    0    0    0  501 -0.00000000000E+00  0.00000000000E+00  0.14412103336E+03  0.14412103336E+03  0.00000000000E+00 0.  1.
          1   -1    0    0  501    0  0.00000000000E+00 -0.00000000000E+00 -0.19101442083E+03  0.19101442083E+03  0.00000000000E+00 0. -1.
         23    2    1    2    0    0 -0.80496886924E+02 -0.70665428865E+02 -0.89541116195E+02  0.18739251306E+03  0.12499996327E+03 0.  0.
          5    1    3    3  502    0 -0.22945688947E+02 -0.91651260355E+02 -0.82562813055E+02  0.12555941329E+03  0.47000000000E+01 0. -1.
         -5    1    3    3    0  502 -0.57551197977E+02  0.20985831491E+02 -0.69783031406E+01  0.61833099766E+02  0.47000000000E+01 0. -1.
        -11    1    1    2    0    0  0.75988131125E+02  0.17677126038E+02  0.51984140793E+02  0.93749814671E+02  0.00000000000E+00 0.  1.
         11    1    1    2    0    0  0.45087557995E+01  0.52988302827E+02 -0.93364120646E+01  0.53993126466E+02  0.00000000000E+00 0. -1.
<mgrwt>
<rscale>  0 0.15849191E+03</rscale>
<asrwt>0</asrwt>
<pdfrwt beam="2">  1        1 0.29386834E-01 0.16461574E+03</pdfrwt>
<pdfrwt beam="1">  1       -1 0.22172467E-01 0.16461574E+03</pdfrwt>
<totfact> 0.25879684E+03</totfact>
</mgrwt>
</event>
<event>
 7    1  0.8165933E-006  0.2382826E+03  0.7546771E-02  0.1124660E+00
         -1   -1    0    0    0  501 -0.00000000000E+00  0.00000000000E+00  0.17619224231E+03  0.17619224231E+03  0.00000000000E+00 0.  1.
          1   -1    0    0  501    0  0.00000000000E+00 -0.00000000000E+00 -0.35725207046E+03  0.35725207046E+03  0.00000000000E+00 0. -1.
         23    2    1    2    0    0 -0.12827368485E+03 -0.15715987005E+03 -0.20574803125E+03  0.31481876208E+03  0.12500095044E+03 0.  0.
          5    1    3    3  502    0 -0.60128456669E+02 -0.15883234822E+03 -0.14983688238E+03  0.22653107395E+03  0.47000000000E+01 0. -1.
         -5    1    3    3    0  502 -0.68145228178E+02  0.16724781675E+01 -0.55911148875E+02  0.88287688129E+02  0.47000000000E+01 0. -1.
        -11    1    1    2    0    0  0.52202117601E+02  0.84907264190E+02  0.48797583926E+02  0.11097526207E+03  0.00000000000E+00 0.  1.
         11    1    1    2    0    0  0.76071567246E+02  0.72252605864E+02 -0.24109380828E+02  0.10765028863E+03  0.00000000000E+00 0. -1.
<mgrwt>
<rscale>  0 0.23283474E+03</rscale>
<asrwt>0</asrwt>
<pdfrwt beam="2">  1        1 0.54961856E-01 0.23828261E+03</pdfrwt>
<pdfrwt beam="1">  1       -1 0.27106499E-01 0.23828261E+03</pdfrwt>
<totfact> 0.85323838E+02</totfact>
</mgrwt>
</event>
<event>
 7    1  0.8165933E-006  0.1457143E+03  0.7546771E-02  0.1216239E+00
          2   -1    0    0  501    0  0.00000000000E+00  0.00000000000E+00  0.14351550089E+03  0.14351550089E+03  0.00000000000E+00 0. -1.
         -2   -1    0    0    0  501 -0.00000000000E+00 -0.00000000000E+00 -0.13847731832E+03  0.13847731832E+03  0.00000000000E+00 0.  1.
         23    2    1    2    0    0  0.62311793598E+02 -0.41492957695E+02  0.53998164340E+02  0.15539770326E+03  0.12501287641E+03 0.  0.
          5    1    3    3  502    0  0.36202337150E+02  0.25928126853E+02  0.68181165233E+02  0.81569836764E+02  0.47000000000E+01 0.  1.
         -5    1    3    3    0  502  0.26109456448E+02 -0.67421084547E+02 -0.14183000893E+02  0.73827866500E+02  0.47000000000E+01 0.  1.
        -11    1    1    2    0    0 -0.10658687863E+02  0.39759517667E+02  0.15490915740E+02  0.43981761476E+02  0.00000000000E+00 0.  1.
         11    1    1    2    0    0 -0.51653105735E+02  0.17334400275E+01 -0.64450897515E+02  0.82613354471E+02  0.00000000000E+00 0. -1.
<mgrwt>
<rscale>  0 0.13785912E+03</rscale>
<asrwt>0</asrwt>
<pdfrwt beam="1">  1        2 0.22079308E-01 0.14571426E+03</pdfrwt>
<pdfrwt beam="2">  1       -2 0.21304203E-01 0.14571426E+03</pdfrwt>
<totfact> 0.44841644E+03</totfact>
</mgrwt>
</event>
<event>
 7    1  0.8165933E-006  0.1814020E+03  0.7546771E-02  0.1169926E+00
          3   -1    0    0  501    0  0.00000000000E+00  0.00000000000E+00  0.73921826562E+02  0.73921826562E+02  0.00000000000E+00 0. -1.
         -3   -1    0    0    0  501 -0.00000000000E+00 -0.00000000000E+00 -0.46297326100E+03  0.46297326100E+03  0.00000000000E+00 0.  1.
         23    2    1    2    0    0 -0.47583267034E+02 -0.12253644835E+03 -0.11215332420E+03  0.21327222902E+03  0.12500930791E+03 0.  0.
          5    1    3    3  502    0 -0.40819627658E+02 -0.77955741227E+02 -0.13599542630E+03  0.16204994775E+03  0.47000000000E+01 0.  1.
         -5    1    3    3    0  502 -0.67636393752E+01 -0.44580707126E+02  0.23842102101E+02  0.51222281265E+02  0.47000000000E+01 0.  1.
        -11    1    1    2    0    0 -0.11554066804E+02  0.99432660643E+02 -0.20194771402E+03  0.22539571793E+03  0.00000000000E+00 0.  1.
         11    1    1    2    0    0  0.59137333837E+02  0.23103787710E+02 -0.74950396214E+02  0.98227140611E+02  0.00000000000E+00 0. -1.
<mgrwt>
<rscale>  0 0.17782421E+03</rscale>
<asrwt>0</asrwt>
<pdfrwt beam="1">  1        3 0.11372589E-01 0.18140197E+03</pdfrwt>
<pdfrwt beam="2">  1       -3 0.71226655E-01 0.18140197E+03</pdfrwt>
<totfact> 0.27543498E+02</totfact>
</mgrwt>
</event>
<event>
 7    1  0.8165933E-006  0.1344610E+03  0.7546771E-02  0.1234626E+00
         -2   -1    0    0    0  501 -0.00000000000E+00  0.00000000000E+00  0.19737523040E+02  0.19737523040E+02  0.00000000000E+00 0.  1.
          2   -1    0    0  501    0  0.00000000000E+00 -0.00000000000E+00 -0.75547759353E+03  0.75547759353E+03  0.00000000000E+00 0. -1.
         23    2    1    2    0    0 -0.17331699826E+02 -0.46402841689E+02 -0.51600393847E+03  0.53323524987E+03  0.12500462250E+03 0.  0.
          5    1    3    3  502    0 -0.11306899380E+02  0.41066975783E+02 -0.23354480126E+03  0.23744390215E+03  0.47000000000E+01 0.  1.
         -5    1    3    3    0  502 -0.60248004462E+01 -0.87469817472E+02 -0.28245913722E+03  0.29579134772E+03  0.47000000000E+01 0.  1.
        -11    1    1    2    0    0  0.74439843731E+01 -0.21962486868E+02 -0.19954305683E+02  0.30593104583E+02  0.00000000000E+00 0.  1.
         11    1    1    2    0    0  0.98877154534E+01  0.68365328557E+02 -0.19978182634E+03  0.21138676212E+03  0.00000000000E+00 0. -1.
<mgrwt>
<rscale>  0 0.12528386E+03</rscale>
<asrwt>0</asrwt>
<pdfrwt beam="2">  1        2 0.11622733E+00 0.13446102E+03</pdfrwt>
<pdfrwt beam="1">  1       -2 0.30365417E-02 0.13446102E+03</pdfrwt>
<totfact> 0.15099686E+04</totfact>
</mgrwt>
</event>
<event>
 7    1  0.8165933E-006  0.2399154E+03  0.7546771E-02  0.1120145E+00
          2   -1    0    0  501    0  0.00000000000E+00  0.00000000000E+00  0.56577427555E+03  0.56577427555E+03  0.00000000000E+00 0. -1.
         -2   -1    0    0    0  501 -0.00000000000E+00 -0.00000000000E+00 -0.10329059233E+03  0.10329059233E+03  0.00000000000E+00 0.  1.
         23    2    1    2    0    0  0.20447707367E+03  0.11110029488E+02  0.28203294928E+03  0.37027287241E+03  0.12500043661E+03 0.  0.
          5    1    3    3  502    0  0.10944796280E+03 -0.54182427531E+02  0.17058408583E+03  0.20984664008E+03  0.47000000000E+01 0.  1.
         -5    1    3    3    0  502  0.95029110869E+02  0.65292457019E+02  0.11144886345E+03  0.16042623234E+03  0.47000000000E+01 0.  1.
        -11    1    1    2    0    0 -0.10942869148E+03 -0.65872622538E+02  0.85411529477E+02  0.15365210798E+03  0.00000000000E+00 0. -1.
         11    1    1    2    0    0 -0.95048382191E+02  0.54762593049E+02  0.95039204465E+02  0.14513988749E+03  0.00000000000E+00 0.  1.
<mgrwt>
<rscale>  0 0.23947220E+03</rscale>
<asrwt>0</asrwt>
<pdfrwt beam="1">  1        2 0.87042195E-01 0.23991543E+03</pdfrwt>
<pdfrwt beam="2">  1       -2 0.15890861E-01 0.23991543E+03</pdfrwt>
<totfact> 0.16755855E+03</totfact>
</mgrwt>
</event>
<event>
 7    1  0.8165933E-006  0.1270845E+03  0.7546771E-02  0.1246797E+00
          2   -1    0    0  501    0  0.00000000000E+00  0.00000000000E+00  0.86072111122E+03  0.86072111122E+03  0.00000000000E+00 0. -1.
         -2   -1    0    0    0  501 -0.00000000000E+00 -0.00000000000E+00 -0.16994881727E+02  0.16994881727E+02  0.00000000000E+00 0.  1.
         23    2    1    2    0    0  0.18380375600E+02 -0.13761817091E+02  0.65219714657E+03  0.66446337772E+03  0.12499294590E+03 0.  0.
          5    1    3    3  502    0  0.69324586044E+02 -0.22418901585E+02  0.43986697327E+03  0.44588513045E+03  0.47000000000E+01 0. -1.
         -5    1    3    3    0  502 -0.50944210444E+02  0.86570844941E+01  0.21233017329E+03  0.21857824727E+03  0.47000000000E+01 0. -1.
        -11    1    1    2    0    0 -0.31071687642E+02  0.48033229951E+02  0.11899110378E+03  0.13202849591E+03  0.00000000000E+00 0. -1.
         11    1    1    2    0    0  0.12691312042E+02 -0.34271412860E+02  0.72537979140E+02  0.81224119315E+02  0.00000000000E+00 0.  1.
<mgrwt>
<rscale>  0 0.11778454E+03</rscale>
<asrwt>0</asrwt>
<pdfrwt beam="1">  1        2 0.13241860E+00 0.12708447E+03</pdfrwt>
<pdfrwt beam="2">  1       -2 0.26145979E-02 0.12708447E+03</pdfrwt>
<totfact> 0.15914684E+04</totfact>
</mgrwt>
</event>
<event>
 7    1  0.8165933E-006  0.1385321E+03  0.7546771E-02  0.1227061E+00
         -2   -1    0    0    0  501 -0.00000000000E+00  0.00000000000E+00  0.35158535878E+02  0.35158535878E+02  0.00000000000E+00 0.  1.
          2   -1    0    0  501    0  0.00000000000E+00 -0.00000000000E+00 -0.14372058545E+04  0.14372058545E+04  0.00000000000E+00 0. -1.
         23    2    1    2    0    0 -0.58981500086E+02 -0.93315625726E+01 -0.13407930077E+04  0.13479306520E+04  0.12500103148E+03 0.  0.
          5    1    3    3  502    0  0.33372483266E+02  0.22588625713E+02 -0.36671329911E+03  0.36895081297E+03  0.47000000000E+01 0. -1.
         -5    1    3    3    0  502 -0.92353983352E+02 -0.31920188286E+02 -0.97407970854E+03  0.97897983905E+03  0.47000000000E+01 0. -1.
        -11    1    1    2    0    0  0.74057429668E+02  0.16774209967E+02 -0.71868021043E+02  0.10455089410E+03  0.00000000000E+00 0. -1.
         11    1    1    2    0    0 -0.15075929582E+02 -0.74426473940E+01  0.10613710093E+02  0.19882844236E+02  0.00000000000E+00 0.  1.
<mgrwt>
<rscale>  0 0.13026653E+03</rscale>
<asrwt>0</asrwt>
<pdfrwt beam="2">  1        2 0.22110856E+00 0.13853214E+03</pdfrwt>
<pdfrwt beam="1">  1       -2 0.54090062E-02 0.13853214E+03</pdfrwt>
<totfact> 0.25529603E+03</totfact>
</mgrwt>
</event>
<event>
 7    1  0.8165933E-006  0.1703626E+03  0.7546771E-02  0.1183704E+00
         -2   -1    0    0    0  501 -0.00000000000E+00  0.00000000000E+00  0.25019646204E+03  0.25019646204E+03  0.00000000000E+00 0.  1.
          2   -1    0    0  501    0  0.00000000000E+00 -0.00000000000E+00 -0.10418033943E+03  0.10418033943E+03  0.00000000000E+00 0. -1.
         23    2    1    2    0    0 -0.10335102053E+03  0.52132170793E+02  0.48802489933E+02  0.17721482447E+03  0.12499685720E+03 0.  0.
          5    1    3    3  502    0 -0.41830007397E+02 -0.40456923691E+02  0.24570016373E+02  0.63342623074E+02  0.47000000000E+01 0. -1.
         -5    1    3    3    0  502 -0.61521013138E+02  0.92589094484E+02  0.24232473560E+02  0.11387220139E+03  0.47000000000E+01 0. -1.
        -11    1    1    2    0    0  0.45258807550E+01  0.22259280309E+02  0.60629775033E+01  0.23509973472E+02  0.00000000000E+00 0. -1.
         11    1    1    2    0    0  0.98825139780E+02 -0.74391451101E+02  0.91150655178E+02  0.15365200353E+03  0.00000000000E+00 0.  1.
<mgrwt>
<rscale>  0 0.16450346E+03</rscale>
<asrwt>0</asrwt>
<pdfrwt beam="2">  1        2 0.16027745E-01 0.17036259E+03</pdfrwt>
<pdfrwt beam="1">  1       -2 0.38491763E-01 0.17036259E+03</pdfrwt>
<totfact> 0.22585704E+03</totfact>
</mgrwt>
</event>
<event>
 7    1  0.8165933E-006  0.1349545E+03  0.7546771E-02  0.1233616E+00
         -1   -1    0    0    0  501 -0.00000000000E+00  0.00000000000E+00  0.28421765072E+02  0.28421765072E+02  0.00000000000E+00 0.  1.
          1   -1    0    0  501    0  0.00000000000E+00 -0.00000000000E+00 -0.50146771976E+03  0.50146771976E+03  0.00000000000E+00 0. -1.
         23    2    1    2    0    0  0.46332678980E+02  0.21017494415E+02 -0.29781476850E+03  0.32696538133E+03  0.12499708810E+03 0.  0.
          5    1    3    3  502    0  0.22423965235E+02 -0.47366285981E+02 -0.68137155560E+02  0.86088101572E+02  0.47000000000E+01 0. -1.
         -5    1    3    3    0  502  0.23908713745E+02  0.68383780395E+02 -0.22967761294E+03  0.24087727975E+03  0.47000000000E+01 0. -1.
        -11    1    1    2    0    0 -0.24207842610E+02 -0.50091516980E+02 -0.59033290870E+02  0.81117871941E+02  0.00000000000E+00 0.  1.
         11    1    1    2    0    0 -0.22124836370E+02  0.29074022566E+02 -0.11619789531E+03  0.12180623156E+03  0.00000000000E+00 0. -1.
<mgrwt>
<rscale>  0 0.12593471E+03</rscale>
<asrwt>0</asrwt>
<pdfrwt beam="2">  1        1 0.77148872E-01 0.13495453E+03</pdfrwt>
<pdfrwt beam="1">  1       -1 0.43725797E-02 0.13495453E+03</pdfrwt>
<totfact> 0.92300447E+03</totfact>
</mgrwt>
</event>
<event>
 7    1  0.8165933E-006  0.1393377E+03  0.7546771E-02  0.1225451E+00
         -2   -1    0    0    0  501 -0.00000000000E+00  0.00000000000E+00  0.46283097547E+02  0.46283097547E+02  0.00000000000E+00 0.  1.
          2   -1    0    0  501    0  0.00000000000E+00 -0.00000000000E+00 -0.44710186506E+03  0.44710186506E+03  0.00000000000E+00 0. -1.
         23    2    1    2    0    0  0.85833753944E+01 -0.60949030599E+02 -0.34042902747E+03  0.36784090223E+03  0.12500619161E+03 0.  0.
          5    1    3    3  502    0 -0.51656251864E+02 -0.54302529883E+02 -0.22775168562E+03  0.23981253806E+03  0.47000000000E+01 0.  1.
         -5    1    3    3    0  502  0.60239627259E+02 -0.66465007153E+01 -0.11267734185E+03  0.12802836417E+03  0.47000000000E+01 0.  1.
        -11    1    1    2    0    0 -0.73890492201E+01  0.85314324527E+02 -0.45634500758E+02  0.97034219105E+02  0.00000000000E+00 0. -1.
         11    1    1    2    0    0 -0.11943261743E+01 -0.24365293928E+02 -0.14755239283E+02  0.28509841275E+02  0.00000000000E+00 0.  1.
<mgrwt>
<rscale>  0 0.13136034E+03</rscale>
<asrwt>0</asrwt>
<pdfrwt beam="2">  1        2 0.68784904E-01 0.13933774E+03</pdfrwt>
<pdfrwt beam="1">  1       -2 0.71204763E-02 0.13933774E+03</pdfrwt>
<totfact> 0.76633304E+03</totfact>
</mgrwt>
</event>
<event>
 7    1  0.8165933E-006  0.1418822E+03  0.7546771E-02  0.1220820E+00
         -2   -1    0    0    0  501 -0.00000000000E+00  0.00000000000E+00  0.35600049141E+02  0.35600049141E+02  0.00000000000E+00 0.  1.
          2   -1    0    0  501    0  0.00000000000E+00 -0.00000000000E+00 -0.47759712548E+03  0.47759712548E+03  0.00000000000E+00 0. -1.
         23    2    1    2    0    0  0.51696168537E+02  0.42860935421E+02 -0.28845707853E+03  0.32146236120E+03  0.12498403853E+03 0.  0.
          5    1    3    3  502    0  0.24000454055E+02  0.80415253681E+02 -0.23879557636E+03  0.25315618126E+03  0.47000000000E+01 0.  1.
         -5    1    3    3    0  502  0.27695714482E+02 -0.37554318260E+02 -0.49661502167E+02  0.68306179941E+02  0.47000000000E+01 0.  1.
        -11    1    1    2    0    0 -0.76496752758E+02 -0.15955830674E+02 -0.10073916537E+03  0.12749400438E+03  0.00000000000E+00 0. -1.
         11    1    1    2    0    0  0.24800584221E+02 -0.26905104747E+02 -0.52800832446E+02  0.64240809040E+02  0.00000000000E+00 0.  1.
<mgrwt>
<rscale>  0 0.13457585E+03</rscale>
<asrwt>0</asrwt>
<pdfrwt beam="2">  1        2 0.73476482E-01 0.14188222E+03</pdfrwt>
<pdfrwt beam="1">  1       -2 0.54769306E-02 0.14188222E+03</pdfrwt>
<totfact> 0.10645772E+04</totfact>
</mgrwt>
</event>
<event>
 7    1  0.1478991E-005  0.1291321E+03  0.7546771E-02  0.1241929E+00
         -1   -1    0    0    0  501 -0.00000000000E+00  0.00000000000E+00  0.15936276624E+02  0.15936276624E+02  0.00000000000E+00 0.  1.
          1   -1    0    0  501    0  0.00000000000E+00 -0.00000000000E+00 -0.90474756742E+03  0.90474756742E+03  0.00000000000E+00 0. -1.
         23    2    1    2    0    0  0.30700851552E+02  0.10395383659E+02 -0.64291243405E+03  0.65575262173E+03  0.12499798704E+03 0.  0.
          5    1    3    3  502    0  0.37251747666E+02 -0.31854401925E+02 -0.56169234227E+03  0.56384640905E+03  0.47000000000E+01 0.  1.
         -5    1    3    3    0  502 -0.65508961136E+01  0.42249785585E+02 -0.81220091778E+02  0.91906212686E+02  0.47000000000E+01 0.  1.
        -11    1    1    2    0    0 -0.34785261065E+02  0.29839324164E+02 -0.64782693449E+02  0.79354880281E+02  0.00000000000E+00 0.  1.
         11    1    1    2    0    0  0.40844095125E+01 -0.40234707824E+02 -0.18111616330E+03  0.18557634204E+03  0.00000000000E+00 0. -1.
<mgrwt>
<rscale>  0 0.12071100E+03</rscale>
<asrwt>0</asrwt>
<pdfrwt beam="2">  1        1 0.13919193E+00 0.12913211E+03</pdfrwt>
<pdfrwt beam="1">  1       -1 0.24517350E-02 0.12913211E+03</pdfrwt>
<totfact> 0.92484411E+03</totfact>
</mgrwt>
</event>
<event>
 7    1  0.8165933E-006  0.1734807E+03  0.7546771E-02  0.1180325E+00
          1   -1    0    0  501    0  0.00000000000E+00  0.00000000000E+00  0.11728942348E+03  0.11728942348E+03  0.00000000000E+00 0. -1.
         -1   -1    0    0    0  501 -0.00000000000E+00 -0.00000000000E+00 -0.34112699903E+03  0.34112699903E+03  0.00000000000E+00 0.  1.
         23    2    1    2    0    0  0.10074788039E+03  0.65722175816E+02  0.16670799914E+02  0.17427987632E+03  0.12500407963E+03 0.  0.
          5    1    3    3  502    0 -0.18722947976E+02  0.89815396652E+01 -0.27482696417E+02  0.34765003064E+02  0.47000000000E+01 0.  1.
         -5    1    3    3    0  502  0.11947082837E+03  0.56740636151E+02  0.44153496331E+02  0.13951487326E+03  0.47000000000E+01 0.  1.
        -11    1    1    2    0    0 -0.52476416954E+02 -0.84508187840E+02 -0.15605016939E+03  0.18505962151E+03  0.00000000000E+00 0. -1.
         11    1    1    2    0    0 -0.48271463436E+02  0.18786012024E+02 -0.84458206074E+02  0.99076924676E+02  0.00000000000E+00 0.  1.
<mgrwt>
<rscale>  0 0.16764572E+03</rscale>
<asrwt>0</asrwt>
<pdfrwt beam="1">  1        1 0.18044527E-01 0.17348072E+03</pdfrwt>
<pdfrwt beam="2">  1       -1 0.52481077E-01 0.17348072E+03</pdfrwt>
<totfact> 0.10872944E+03</totfact>
</mgrwt>
</event>
<event>
 7    1  0.8165933E-006  0.2262413E+03  0.7546771E-02  0.1132778E+00
          1   -1    0    0  501    0  0.00000000000E+00  0.00000000000E+00  0.42123916792E+03  0.42123916792E+03  0.00000000000E+00 0. -1.
         -1   -1    0    0    0  501 -0.00000000000E+00 -0.00000000000E+00 -0.11417705851E+03  0.11417705851E+03  0.00000000000E+00 0.  1.
         23    2    1    2    0    0 -0.67191011350E+02  0.17619193192E+03  0.19834980523E+03  0.30087832952E+03  0.12500758000E+03 0.  0.
          5    1    3    3  502    0 -0.10053237544E+03  0.14544333551E+03  0.17804503611E+03  0.25096343805E+03  0.47000000000E+01 0.  1.
         -5    1    3    3    0  502  0.33341364092E+02  0.30748596416E+02  0.20304769117E+02  0.49914891465E+02  0.47000000000E+01 0.  1.
        -11    1    1    2    0    0  0.53126919864E+02 -0.34654440566E+02  0.49549837383E+02  0.80489665485E+02  0.00000000000E+00 0.  1.
         11    1    1    2    0    0  0.14064091485E+02 -0.14153749136E+03  0.59162466801E+02  0.15404823143E+03  0.00000000000E+00 0. -1.
<mgrwt>
<rscale>  0 0.22148860E+03</rscale>
<asrwt>0</asrwt>
<pdfrwt beam="1">  1        1 0.64806025E-01 0.22624130E+03</pdfrwt>
<pdfrwt beam="2">  1       -1 0.17565702E-01 0.22624130E+03</pdfrwt>
<totfact> 0.14079288E+03</totfact>
</mgrwt>
</event>
<event>
 7    1  0.8165933E-006  0.1394921E+03  0.7546771E-02  0.1225242E+00
         -1   -1    0    0    0  501 -0.00000000000E+00  0.00000000000E+00  0.40684528647E+02  0.40684528647E+02  0.00000000000E+00 0.  1.
          1   -1    0    0  501    0  0.00000000000E+00 -0.00000000000E+00 -0.40265952059E+03  0.40265952059E+03  0.00000000000E+00 0. -1.
         23    2    1    2    0    0  0.43695227994E+02  0.43861372380E+02 -0.24981180418E+03  0.28611881651E+03  0.12499978686E+03 0.  0.
          5    1    3    3  502    0  0.86191995288E+02  0.15240513742E+02 -0.16750283352E+03  0.18905190438E+03  0.47000000000E+01 0. -1.
         -5    1    3    3    0  502 -0.42496767294E+02  0.28620858638E+02 -0.82308970660E+02  0.97066912131E+02  0.47000000000E+01 0. -1.
        -11    1    1    2    0    0  0.17256903449E+02  0.25937160361E+01 -0.64856649112E+02  0.67163330870E+02  0.00000000000E+00 0.  1.
         11    1    1    2    0    0 -0.60952131443E+02 -0.46455088416E+02 -0.47306538646E+02  0.90061901856E+02  0.00000000000E+00 0. -1.
<mgrwt>
<rscale>  0 0.13150307E+03</rscale>
<asrwt>0</asrwt>
<pdfrwt beam="2">  1        1 0.61947619E-01 0.13949208E+03</pdfrwt>
<pdfrwt beam="1">  1       -1 0.62591582E-02 0.13949208E+03</pdfrwt>
<totfact> 0.72004889E+03</totfact>
</mgrwt>
</event>
<event>
 7    1  0.8165933E-006  0.1260227E+03  0.7546771E-02  0.1246448E+00
         -2   -1    0    0    0  501 -0.00000000000E+00  0.00000000000E+00  0.24744249839E+02  0.24744249839E+02  0.00000000000E+00 0.  1.
          2   -1    0    0  501    0  0.00000000000E+00 -0.00000000000E+00 -0.61737325895E+03  0.61737325895E+03  0.00000000000E+00 0. -1.
         23    2    1    2    0    0 -0.15385465366E+02  0.43231422631E+01 -0.46578435568E+03  0.48253163623E+03  0.12500524734E+03 0.  0.
          5    1    3    3  502    0 -0.76995399100E+01  0.11412590252E+02 -0.47006829888E+03  0.47029334010E+03  0.47000000000E+01 0.  1.
         -5    1    3    3    0  502 -0.76859254562E+01 -0.70894479893E+01  0.42839431969E+01  0.12238296132E+02  0.47000000000E+01 0.  1.
        -11    1    1    2    0    0  0.17737964373E+02 -0.18080957374E+02 -0.13887090442E+03  0.14116190879E+03  0.00000000000E+00 0. -1.
         11    1    1    2    0    0 -0.23524990069E+01  0.13757815111E+02  0.12026250985E+02  0.18423963769E+02  0.00000000000E+00 0.  1.
<mgrwt>
<rscale>  0 0.11799152E+03</rscale>
<asrwt>0</asrwt>
<pdfrwt beam="2">  1        2 0.94980495E-01 0.12602267E+03</pdfrwt>
<pdfrwt beam="1">  1       -2 0.38068079E-02 0.12602267E+03</pdfrwt>
<totfact> 0.13654892E+04</totfact>
</mgrwt>
</event>
<event>
 7    1  0.1271826E-005  0.2774179E+03  0.7546771E-02  0.1099100E+00
         -1   -1    0    0    0  501 -0.00000000000E+00  0.00000000000E+00  0.62326611825E+03  0.62326611825E+03  0.00000000000E+00 0.  1.
          1   -1    0    0  501    0  0.00000000000E+00 -0.00000000000E+00 -0.12104246265E+03  0.12104246265E+03  0.00000000000E+00 0. -1.
         23    2    1    2    0    0 -0.19478222729E+03  0.15295630444E+03  0.19214062197E+03  0.33745922559E+03  0.12499985274E+03 0.  0.
          5    1    3    3  502    0 -0.41186467804E+02  0.34230974655E+02 -0.12660170223E+02  0.55230921286E+02  0.47000000000E+01 0. -1.
         -5    1    3    3    0  502 -0.15359575949E+03  0.11872532979E+03  0.20480079219E+03  0.28222830430E+03  0.47000000000E+01 0. -1.
        -11    1    1    2    0    0  0.98366769380E+02 -0.13217413690E+03  0.19447179141E+03  0.25488291712E+03  0.00000000000E+00 0.  1.
         11    1    1    2    0    0  0.96415457910E+02 -0.20782167541E+02  0.11561124222E+03  0.15196643820E+03  0.00000000000E+00 0. -1.
<mgrwt>
<rscale>  0 0.27384272E+03</rscale>
<asrwt>0</asrwt>
<pdfrwt beam="2">  1        1 0.18621918E-01 0.27741793E+03</pdfrwt>
<pdfrwt beam="1">  1       -1 0.95887093E-01 0.27741793E+03</pdfrwt>
<totfact> 0.31114360E+02</totfact>
</mgrwt>
</event>
<event>
 7    1  0.8165933E-006  0.1350482E+03  0.7546771E-02  0.1231569E+00
         -2   -1    0    0    0  501 -0.00000000000E+00  0.00000000000E+00  0.26882262923E+02  0.26882262923E+02  0.00000000000E+00 0.  1.
          2   -1    0    0  501    0  0.00000000000E+00 -0.00000000000E+00 -0.54325766068E+03  0.54325766068E+03  0.00000000000E+00 0. -1.
         23    2    1    2    0    0 -0.29604494699E+02 -0.41667895883E+02 -0.29815242015E+03  0.32731157995E+03  0.12500146029E+03 0.  0.
          5    1    3    3  502    0 -0.49087366681E+02 -0.51118204977E+02 -0.75871192756E+02  0.10392866947E+03  0.47000000000E+01 0.  1.
         -5    1    3    3    0  502  0.19482871982E+02  0.94503090942E+01 -0.22228122739E+03  0.22338291048E+03  0.47000000000E+01 0.  1.
        -11    1    1    2    0    0 -0.10523812488E+02 -0.23937124535E+02 -0.85777334429E+02  0.89674342273E+02  0.00000000000E+00 0. -1.
         11    1    1    2    0    0  0.40128307188E+02  0.65605020418E+02 -0.13244564318E+03  0.15315400139E+03  0.00000000000E+00 0.  1.
<mgrwt>
<rscale>  0 0.12726644E+03</rscale>
<asrwt>0</asrwt>
<pdfrwt beam="2">  1        2 0.83578097E-01 0.13504816E+03</pdfrwt>
<pdfrwt beam="1">  1       -2 0.41357330E-02 0.13504816E+03</pdfrwt>
<totfact> 0.14020884E+04</totfact>
</mgrwt>
</event>
<event>
 7    1  0.8165933E-006  0.1586237E+03  0.7546771E-02  0.1200110E+00
          2   -1    0    0  501    0  0.00000000000E+00  0.00000000000E+00  0.10449091803E+04  0.10449091803E+04  0.00000000000E+00 0. -1.
         -2   -1    0    0    0  501 -0.00000000000E+00 -0.00000000000E+00 -0.19635579051E+02  0.19635579051E+02  0.00000000000E+00 0.  1.
         23    2    1    2    0    0 -0.30682736414E+02  0.92711853958E+02  0.57170451107E+03  0.59330222493E+03  0.12499825576E+03 0.  0.
          5    1    3    3  502    0  0.61410118628E+01  0.11499619732E+03  0.40759801145E+03  0.42358005897E+03  0.47000000000E+01 0.  1.
         -5    1    3    3    0  502 -0.36823748277E+02 -0.22284343359E+02  0.16410649962E+03  0.16972216595E+03  0.47000000000E+01 0.  1.
        -11    1    1    2    0    0  0.38278343482E+02 -0.23542971989E+02  0.84858896263E+02  0.96023618890E+02  0.00000000000E+00 0.  1.
         11    1    1    2    0    0 -0.75956070682E+01 -0.69168881969E+02  0.36871019388E+03  0.37521891550E+03  0.00000000000E+00 0. -1.
<mgrwt>
<rscale>  0 0.15029616E+03</rscale>
<asrwt>0</asrwt>
<pdfrwt beam="1">  1        2 0.16075522E+00 0.15862371E+03</pdfrwt>
<pdfrwt beam="2">  1       -2 0.30208591E-02 0.15862371E+03</pdfrwt>
<totfact> 0.10057059E+04</totfact>
</mgrwt>
</event>
<event>
 7    1  0.8165933E-006  0.2421325E+03  0.7546771E-02  0.1121069E+00
         -2   -1    0    0    0  501 -0.00000000000E+00  0.00000000000E+00  0.28826295321E+02  0.28826295321E+02  0.00000000000E+00 0.  1.
          2   -1    0    0  501    0  0.00000000000E+00 -0.00000000000E+00 -0.22012846477E+04  0.22012846477E+04  0.00000000000E+00 0. -1.
         23    2    1    2    0    0  0.95639959630E+02 -0.18411958711E+03 -0.15276017385E+04  0.15466723075E+04  0.12482440113E+03 0.  0.
          5    1    3    3  502    0  0.68816702728E+02 -0.55321204084E+02 -0.32251163789E+03  0.33441294946E+03  0.47000000000E+01 0. -1.
         -5    1    3    3    0  502  0.26823256902E+02 -0.12879838303E+03 -0.12050901006E+04  0.12122593580E+04  0.47000000000E+01 0. -1.
        -11    1    1    2    0    0 -0.51474532705E+02  0.15511372194E+03 -0.38479510228E+03  0.41806358965E+03  0.00000000000E+00 0.  1.
         11    1    1    2    0    0 -0.44165426925E+02  0.29005865169E+02 -0.26006151158E+03  0.26537504584E+03  0.00000000000E+00 0. -1.
<mgrwt>
<rscale>  0 0.23809473E+03</rscale>
<asrwt>0</asrwt>
<pdfrwt beam="2">  1        2 0.33865914E+00 0.24213252E+03</pdfrwt>
<pdfrwt beam="1">  1       -2 0.44348151E-02 0.24213252E+03</pdfrwt>
<totfact> 0.13706359E+03</totfact>
</mgrwt>
</event>
<event>
 7    1  0.8165933E-006  0.1356624E+03  0.7546771E-02  0.1231871E+00
          3   -1    0    0  501    0  0.00000000000E+00  0.00000000000E+00  0.87041949532E+02  0.87041949532E+02  0.00000000000E+00 0. -1.
         -3   -1    0    0    0  501 -0.00000000000E+00 -0.00000000000E+00 -0.17926760773E+03  0.17926760773E+03  0.00000000000E+00 0.  1.
         23    2    1    2    0    0  0.28815419008E+02 -0.44134668013E+02 -0.15110637327E+02  0.13650132575E+03  0.12500433304E+03 0.  0.
          5    1    3    3  502    0 -0.19209949787E+02 -0.39464596921E+02  0.42451914281E+02  0.61243216825E+02  0.47000000000E+01 0. -1.
         -5    1    3    3    0  502  0.48025368795E+02 -0.46700710921E+01 -0.57562551608E+02  0.75258108929E+02  0.47000000000E+01 0. -1.
        -11    1    1    2    0    0  0.26807230307E+02  0.31146978290E+02 -0.54773454455E+02  0.68475493180E+02  0.00000000000E+00 0.  1.
         11    1    1    2    0    0 -0.55622649315E+02  0.12987689723E+02 -0.22341566419E+02  0.61332738331E+02  0.00000000000E+00 0. -1.
<mgrwt>
<rscale>  0 0.12706913E+03</rscale>
<asrwt>0</asrwt>
<pdfrwt beam="1">  1        3 0.13391069E-01 0.13566238E+03</pdfrwt>
<pdfrwt beam="2">  1       -3 0.27579632E-01 0.13566238E+03</pdfrwt>
<totfact> 0.13019247E+03</totfact>
</mgrwt>
</event>
<event>
 7    1  0.8165933E-006  0.1284519E+03  0.7546771E-02  0.1249961E+00
          2   -1    0    0  501    0  0.00000000000E+00  0.00000000000E+00  0.18450385493E+03  0.18450385493E+03  0.00000000000E+00 0.  1.
         -2   -1    0    0    0  501 -0.00000000000E+00 -0.00000000000E+00 -0.78251158912E+02  0.78251158912E+02  0.00000000000E+00 0. -1.
         23    2    1    2    0    0  0.24356618893E+01 -0.29436723051E+02  0.12075203759E+03  0.17629786052E+03  0.12500971133E+03 0.  0.
          5    1    3    3  502    0 -0.54711126811E+02 -0.40784593481E+02  0.51173420196E+02  0.85425402527E+02  0.47000000000E+01 0.  1.
         -5    1    3    3    0  502  0.57146788700E+02  0.11347870430E+02  0.69578617399E+02  0.90872457990E+02  0.47000000000E+01 0.  1.
        -11    1    1    2    0    0 -0.31113940770E+02  0.22306919059E+02  0.18194045061E+02  0.42387489001E+02  0.00000000000E+00 0.  1.
         11    1    1    2    0    0  0.28678278880E+02  0.71298039925E+01 -0.32693386633E+02  0.44069664329E+02  0.00000000000E+00 0. -1.
<mgrwt>
<rscale>  0 0.11593294E+03</rscale>
<asrwt>0</asrwt>
<pdfrwt beam="1">  1        2 0.28385208E-01 0.12845186E+03</pdfrwt>
<pdfrwt beam="2">  1       -2 0.12038640E-01 0.12845186E+03</pdfrwt>
<totfact> 0.86337216E+03</totfact>
</mgrwt>
</event>
<event>
 7    1  0.8165933E-006  0.1345122E+03  0.7546771E-02  0.1233089E+00
          2   -1    0    0  501    0  0.00000000000E+00  0.00000000000E+00  0.14173912276E+03  0.14173912276E+03  0.00000000000E+00 0. -1.
         -2   -1    0    0    0  501 -0.00000000000E+00 -0.00000000000E+00 -0.11426346667E+03  0.11426346667E+03  0.00000000000E+00 0.  1.
         23    2    1    2    0    0  0.17734153159E+01 -0.49648800076E+02  0.58995061237E+02  0.14688077694E+03  0.12500158812E+03 0.  0.
          5    1    3    3  502    0 -0.34931134956E+02 -0.29997091156E+02  0.85555995226E+02  0.97272442070E+02  0.47000000000E+01 0. -1.
         -5    1    3    3    0  502  0.36704550272E+02 -0.19651708920E+02 -0.26560933989E+02  0.49608334869E+02  0.47000000000E+01 0. -1.
        -11    1    1    2    0    0  0.16974202173E+02 -0.20873865283E+02  0.52464217260E+01  0.27411069520E+02  0.00000000000E+00 0. -1.
         11    1    1    2    0    0 -0.18747617489E+02  0.70522665360E+02 -0.36765826877E+02  0.81710742971E+02  0.00000000000E+00 0.  1.
<mgrwt>
<rscale>  0 0.12627572E+03</rscale>
<asrwt>0</asrwt>
<pdfrwt beam="1">  1        2 0.21806019E-01 0.13451225E+03</pdfrwt>
<pdfrwt beam="2">  1       -2 0.17578995E-01 0.13451225E+03</pdfrwt>
<totfact> 0.62557976E+03</totfact>
</mgrwt>
</event>
<event>
 7    1  0.8165933E-006  0.2361269E+03  0.7546771E-02  0.1125264E+00
          1   -1    0    0  501    0  0.00000000000E+00  0.00000000000E+00  0.16353090916E+03  0.16353090916E+03  0.00000000000E+00 0. -1.
         -1   -1    0    0    0  501 -0.00000000000E+00 -0.00000000000E+00 -0.34548111550E+03  0.34548111550E+03  0.00000000000E+00 0.  1.
         23    2    1    2    0    0  0.13578234111E+03 -0.14729184798E+03 -0.22142575455E+02  0.23716278536E+03  0.12499664184E+03 0.  0.
          5    1    3    3  502    0  0.91800553765E+02 -0.28985775714E+02  0.29369266772E+02  0.10075793118E+03  0.47000000000E+01 0.  1.
         -5    1    3    3    0  502  0.43981787347E+02 -0.11830607226E+03 -0.51511842228E+02  0.13640485417E+03  0.47000000000E+01 0.  1.
        -11    1    1    2    0    0 -0.57440466137E+02  0.12632733065E+03 -0.10352094201E+03  0.17313170436E+03  0.00000000000E+00 0.  1.
         11    1    1    2    0    0 -0.78341874974E+02  0.20964517323E+02 -0.56286688865E+02  0.98717534939E+02  0.00000000000E+00 0. -1.
<mgrwt>
<rscale>  0 0.23196571E+03</rscale>
<asrwt>0</asrwt>
<pdfrwt beam="1">  1        1 0.25158602E-01 0.23612686E+03</pdfrwt>
<pdfrwt beam="2">  1       -1 0.53150940E-01 0.23612686E+03</pdfrwt>
<totfact> 0.69638043E+02</totfact>
</mgrwt>
</event>
<event>
 7    1  0.8165933E-006  0.1794913E+03  0.7546771E-02  0.1174249E+00
          2   -1    0    0  501    0  0.00000000000E+00  0.00000000000E+00  0.13364515091E+04  0.13364515091E+04  0.00000000000E+00 0. -1.
         -2   -1    0    0    0  501 -0.00000000000E+00 -0.00000000000E+00 -0.24496495334E+02  0.24496495334E+02  0.00000000000E+00 0.  1.
         23    2    1    2    0    0 -0.10879861208E+03 -0.68957666666E+02  0.94570409857E+03  0.96258681867E+03  0.12499937459E+03 0.  0.
          5    1    3    3  502    0  0.17954274242E+02  0.15360979828E+02  0.20312750910E+03  0.20455119315E+03  0.47000000000E+01 0.  1.
         -5    1    3    3    0  502 -0.12675288632E+03 -0.84318646494E+02  0.74257658947E+03  0.75803562552E+03  0.47000000000E+01 0.  1.
        -11    1    1    2    0    0  0.17618141879E+02 -0.31272040335E+01  0.45779981189E+01  0.18469878048E+02  0.00000000000E+00 0.  1.
         11    1    1    2    0    0  0.91180470197E+02  0.72084870700E+02  0.36167291708E+03  0.37989130771E+03  0.00000000000E+00 0. -1.
<mgrwt>
<rscale>  0 0.17349752E+03</rscale>
<asrwt>0</asrwt>
<pdfrwt beam="1">  1        2 0.20560787E+00 0.17949134E+03</pdfrwt>
<pdfrwt beam="2">  1       -2 0.37686926E-02 0.17949134E+03</pdfrwt>
<totfact> 0.49891331E+03</totfact>
</mgrwt>
</event>
<event>
 7    1  0.8165933E-006  0.1279620E+03  0.7546771E-02  0.1245271E+00
         -1   -1    0    0    0  501 -0.00000000000E+00  0.00000000000E+00  0.18956255849E+02  0.18956255849E+02  0.00000000000E+00 0.  1.
          1   -1    0    0  501    0  0.00000000000E+00 -0.00000000000E+00 -0.73358054380E+03  0.73358054380E+03  0.00000000000E+00 0. -1.
         23    2    1    2    0    0  0.12930576417E+02 -0.24074181413E+02 -0.52758537231E+03  0.54288174619E+03  0.12500999663E+03 0.  0.
          5    1    3    3  502    0  0.52063760264E+02  0.24682327198E+02 -0.16306483900E+03  0.17300891343E+03  0.47000000000E+01 0. -1.
         -5    1    3    3    0  502 -0.39133183847E+02 -0.48756508611E+02 -0.36452053331E+03  0.36987283276E+03  0.47000000000E+01 0. -1.
        -11    1    1    2    0    0 -0.32338659267E+02 -0.19616329120E+02 -0.12916481720E+03  0.13458877833E+03  0.00000000000E+00 0. -1.
         11    1    1    2    0    0  0.19408082850E+02  0.43690510533E+02 -0.57874098454E+02  0.75066275133E+02  0.00000000000E+00 0.  1.
<mgrwt>
<rscale>  0 0.11869159E+03</rscale>
<asrwt>0</asrwt>
<pdfrwt beam="2">  1        1 0.11285855E+00 0.12796197E+03</pdfrwt>
<pdfrwt beam="1">  1       -1 0.29163469E-02 0.12796197E+03</pdfrwt>
<totfact> 0.98805876E+03</totfact>
</mgrwt>
</event>
<event>
 7    1  0.8165933E-006  0.1154318E+03  0.7546771E-02  0.1259518E+00
         -1   -1    0    0    0  501 -0.00000000000E+00  0.00000000000E+00  0.10594408288E+03  0.10594408288E+03  0.00000000000E+00 0.  1.
          1   -1    0    0  501    0  0.00000000000E+00 -0.00000000000E+00 -0.14548269197E+04  0.14548269197E+04  0.00000000000E+00 0. -1.
         23    2    1    2    0    0  0.10434369067E+02 -0.25380099416E+02 -0.14297158328E+04  0.14343681073E+04  0.11212260834E+03 0.  0.
          5    1    3    3  502    0 -0.53235350948E+01 -0.62273011442E+02 -0.11549348317E+04  0.11566342653E+04  0.47000000000E+01 0. -1.
         -5    1    3    3    0  502  0.15757904161E+02  0.36892912026E+02 -0.27478100102E+03  0.27773384206E+03  0.47000000000E+01 0.  1.
        -11    1    1    2    0    0  0.21006816567E+02 -0.28133573019E+02  0.28906343136E+02  0.45479236434E+02  0.00000000000E+00 0. -1.
         11    1    1    2    0    0 -0.31441185633E+02  0.53513672435E+02  0.51926652795E+02  0.80923658852E+02  0.00000000000E+00 0.  1.
<mgrwt>
<rscale>  0 0.11056993E+03</rscale>
<asrwt>0</asrwt>
<pdfrwt beam="2">  1        1 0.22381951E+00 0.11543182E+03</pdfrwt>
<pdfrwt beam="1">  1       -1 0.16299091E-01 0.11543182E+03</pdfrwt>
<totfact> 0.22661227E+02</totfact>
</mgrwt>
</event>
<event>
 7    1  0.8165933E-006  0.1341993E+03  0.7546771E-02  0.1224250E+00
          1   -1    0    0  501    0  0.00000000000E+00  0.00000000000E+00  0.44178184800E+03  0.44178184800E+03  0.00000000000E+00 0. -1.
         -1   -1    0    0    0  501 -0.00000000000E+00 -0.00000000000E+00 -0.38882808271E+02  0.38882808271E+02  0.00000000000E+00 0.  1.
         23    2    1    2    0    0  0.47171627102E+02 -0.12613595814E+02  0.23403167574E+03  0.26977821930E+03  0.12500078862E+03 0.  0.
          5    1    3    3  502    0 -0.40290231564E+02 -0.80547337766E+01  0.11283672133E+03  0.12017652506E+03  0.47000000000E+01 0.  1.
         -5    1    3    3    0  502  0.87461858665E+02 -0.45588620374E+01  0.12119495441E+03  0.14960169424E+03  0.47000000000E+01 0.  1.
        -11    1    1    2    0    0 -0.55509898034E+02  0.52492051922E+02  0.14439477483E+03  0.16336038471E+03  0.00000000000E+00 0. -1.
         11    1    1    2    0    0  0.83382709324E+01 -0.39878456108E+02  0.24472589170E+02  0.47526052271E+02  0.00000000000E+00 0.  1.
<mgrwt>
<rscale>  0 0.13218475E+03</rscale>
<asrwt>0</asrwt>
<pdfrwt beam="1">  1        1 0.67966435E-01 0.13419934E+03</pdfrwt>
<pdfrwt beam="2">  1       -1 0.59819708E-02 0.13419934E+03</pdfrwt>
<totfact> 0.68319637E+03</totfact>
</mgrwt>
</event>
<event>
 7    1  0.8165933E-006  0.1633361E+03  0.7546771E-02  0.1192590E+00
         -2   -1    0    0    0  501 -0.00000000000E+00  0.00000000000E+00  0.27873538169E+02  0.27873538169E+02  0.00000000000E+00 0.  1.
          2   -1    0    0  501    0  0.00000000000E+00 -0.00000000000E+00 -0.82627524110E+03  0.82627524110E+03  0.00000000000E+00 0. -1.
         23    2    1    2    0    0  0.10330974164E+03 -0.19532062235E+02 -0.48309939222E+03  0.50996440502E+03  0.12499706977E+03 0.  0.
          5    1    3    3  502    0  0.90495924704E+02  0.26508736399E+02 -0.18172782631E+03  0.20479091373E+03  0.47000000000E+01 0.  1.
         -5    1    3    3    0  502  0.12813816940E+02 -0.46040798634E+02 -0.30137156591E+03  0.30517349129E+03  0.47000000000E+01 0.  1.
        -11    1    1    2    0    0 -0.86248684513E+02 -0.93593203853E+01 -0.28843672249E+03  0.30120122068E+03  0.00000000000E+00 0. -1.
         11    1    1    2    0    0 -0.17061057131E+02  0.28891382620E+02 -0.26865588217E+02  0.42983153565E+02  0.00000000000E+00 0.  1.
<mgrwt>
<rscale>  0 0.15659968E+03</rscale>
<asrwt>0</asrwt>
<pdfrwt beam="2">  1        2 0.12711928E+00 0.16333607E+03</pdfrwt>
<pdfrwt beam="1">  1       -2 0.42882361E-02 0.16333607E+03</pdfrwt>
<totfact> 0.81934131E+03</totfact>
</mgrwt>
</event>
<event>
 7    1  0.8165933E-006  0.2049448E+03  0.7546771E-02  0.1149641E+00
          1   -1    0    0  501    0  0.00000000000E+00  0.00000000000E+00  0.95476008434E+03  0.95476008434E+03  0.00000000000E+00 0. -1.
         -1   -1    0    0    0  501 -0.00000000000E+00 -0.00000000000E+00 -0.40317500001E+02  0.40317500001E+02  0.00000000000E+00 0.  1.
         23    2    1    2    0    0  0.11946353248E+03  0.11002206475E+03  0.51685833571E+03  0.55600800936E+03  0.12500390774E+03 0.  0.
          5    1    3    3  502    0  0.76681489105E+02  0.11849627877E+03  0.47434646048E+03  0.49492229029E+03  0.47000000000E+01 0. -1.
         -5    1    3    3    0  502  0.42782043374E+02 -0.84742140211E+01  0.42511875237E+02  0.61085719073E+02  0.47000000000E+01 0. -1.
        -11    1    1    2    0    0 -0.60748007448E+02 -0.44110905191E+02  0.81134397348E+02  0.11053905554E+03  0.00000000000E+00 0.  1.
         11    1    1    2    0    0 -0.58715525030E+02 -0.65911159561E+02  0.31644985128E+03  0.32853051945E+03  0.00000000000E+00 0. -1.
<mgrwt>
<rscale>  0 0.20011641E+03</rscale>
<asrwt>0</asrwt>
<pdfrwt beam="1">  1        1 0.14688615E+00 0.20494479E+03</pdfrwt>
<pdfrwt beam="2">  1       -1 0.62026930E-02 0.20494479E+03</pdfrwt>
<totfact> 0.21905438E+03</totfact>
</mgrwt>
</event>
<event>
 7    1  0.8165933E-006  0.1507736E+03  0.7546771E-02  0.1208386E+00
         -2   -1    0    0    0  501 -0.00000000000E+00  0.00000000000E+00  0.21500809989E+02  0.21500809989E+02  0.00000000000E+00 0. -1.
          2   -1    0    0  501    0  0.00000000000E+00 -0.00000000000E+00 -0.88683922090E+03  0.88683922090E+03  0.00000000000E+00 0.  1.
         23    2    1    2    0    0 -0.79158207698E+02 -0.29008974388E+02 -0.50925532010E+03  0.53110608368E+03  0.12500059453E+03 0.  0.
          5    1    3    3  502    0  0.16495769368E+02 -0.47117536550E+02 -0.22777292814E+03  0.23322686263E+03  0.47000000000E+01 0.  1.
         -5    1    3    3    0  502 -0.95653977066E+02  0.18108562162E+02 -0.28148239196E+03  0.29787922106E+03  0.47000000000E+01 0.  1.
        -11    1    1    2    0    0 -0.14491645507E+01  0.34237637901E+02 -0.18363266057E+03  0.18680275682E+03  0.00000000000E+00 0.  1.
         11    1    1    2    0    0  0.80607372248E+02 -0.52286635129E+01 -0.17245043024E+03  0.19043119039E+03  0.00000000000E+00 0. -1.
<mgrwt>
<rscale>  0 0.14373798E+03</rscale>
<asrwt>0</asrwt>
<pdfrwt beam="2">  1        2 0.13643680E+00 0.15077364E+03</pdfrwt>
<pdfrwt beam="1">  1       -2 0.33078170E-02 0.15077364E+03</pdfrwt>
<totfact> 0.10959355E+04</totfact>
</mgrwt>
</event>
<event>
 7    1  0.8165933E-006  0.1399007E+03  0.7546771E-02  0.1215843E+00
          1   -1    0    0  501    0  0.00000000000E+00  0.00000000000E+00  0.49678148340E+03  0.49678148340E+03  0.00000000000E+00 0. -1.
         -1   -1    0    0    0  501 -0.00000000000E+00 -0.00000000000E+00 -0.38060714702E+02  0.38060714702E+02  0.00000000000E+00 0.  1.
         23    2    1    2    0    0 -0.36734792718E+02 -0.26816852440E+02  0.25657370156E+03  0.28900557202E+03  0.12500227100E+03 0.  0.
          5    1    3    3  502    0  0.26976424480E+02 -0.49073850603E+02  0.17053597458E+03  0.17955661758E+03  0.47000000000E+01 0.  1.
         -5    1    3    3    0  502 -0.63711217198E+02  0.22256998163E+02  0.86037726981E+02  0.10944895444E+03  0.47000000000E+01 0.  1.
        -11    1    1    2    0    0  0.40290212321E+02 -0.46397748388E+02  0.59900699084E+02  0.85814602575E+02  0.00000000000E+00 0.  1.
         11    1    1    2    0    0 -0.35554196027E+01  0.73214600827E+02  0.14224636805E+03  0.16002202350E+03  0.00000000000E+00 0. -1.
<mgrwt>
<rscale>  0 0.13814771E+03</rscale>
<asrwt>0</asrwt>
<pdfrwt beam="1">  1        1 0.76427916E-01 0.13990071E+03</pdfrwt>
<pdfrwt beam="2">  1       -1 0.58554949E-02 0.13990071E+03</pdfrwt>
<totfact> 0.60773024E+03</totfact>
</mgrwt>
</event>
<event>
 7    1  0.8165933E-006  0.1326014E+03  0.7546771E-02  0.1233172E+00
          1   -1    0    0  501    0  0.00000000000E+00  0.00000000000E+00  0.17256752468E+03  0.17256752468E+03  0.00000000000E+00 0. -1.
         -1   -1    0    0    0  501 -0.00000000000E+00 -0.00000000000E+00 -0.10566508272E+03  0.10566508272E+03  0.00000000000E+00 0.  1.
         23    2    1    2    0    0 -0.54827861869E+02  0.17182217022E+02  0.98146054150E+02  0.16497205444E+03  0.11950651774E+03 0.  0.
          5    1    3    3  502    0 -0.28198112153E+02  0.60855293425E+02  0.90949287437E+02  0.11310332954E+03  0.47000000000E+01 0. -1.
         -5    1    3    3    0  502 -0.26629749715E+02 -0.43673076403E+02  0.71967667125E+01  0.51868724908E+02  0.47000000000E+01 0.  1.
        -11    1    1    2    0    0  0.57743586184E+02 -0.45626425630E+02 -0.39466152611E+02  0.83508500544E+02  0.00000000000E+00 0.  1.
         11    1    1    2    0    0 -0.29157243153E+01  0.28444208608E+02  0.82225404198E+01  0.29752052409E+02  0.00000000000E+00 0. -1.
<mgrwt>
<rscale>  0 0.12622171E+03</rscale>
<asrwt>0</asrwt>
<pdfrwt beam="1">  1        1 0.26548850E-01 0.13260140E+03</pdfrwt>
<pdfrwt beam="2">  1       -1 0.16256167E-01 0.13260140E+03</pdfrwt>
<totfact> 0.47792367E+03</totfact>
</mgrwt>
</event>
<event>
 7    1  0.8165933E-006  0.1258033E+03  0.7546771E-02  0.1239172E+00
          4   -1    0    0  501    0  0.00000000000E+00  0.00000000000E+00  0.30633815565E+02  0.30633815565E+02  0.00000000000E+00 0. -1.
         -4   -1    0    0    0  501 -0.00000000000E+00 -0.00000000000E+00 -0.47714271530E+03  0.47714271530E+03  0.00000000000E+00 0.  1.
         23    2    1    2    0    0  0.93894281333E+01  0.60026657196E+02 -0.19387486334E+03  0.23111454744E+03  0.11015947745E+03 0.  0.
          5    1    3    3  502    0  0.24018801734E+02  0.38974818700E+01  0.37812926054E+01  0.25069530818E+02  0.47000000000E+01 0. -1.
         -5    1    3    3    0  502 -0.14629373601E+02  0.56129175326E+02 -0.19765615594E+03  0.20604501662E+03  0.47000000000E+01 0.  1.
        -11    1    1    2    0    0 -0.59627587738E+01  0.88077829484E+01  0.36713777231E+01  0.11252135222E+02  0.00000000000E+00 0.  1.
         11    1    1    2    0    0 -0.34266693596E+01 -0.68834440144E+02 -0.25630541412E+03  0.26540984820E+03  0.00000000000E+00 0. -1.
<mgrwt>
<rscale>  0 0.12241114E+03</rscale>
<asrwt>0</asrwt>
<pdfrwt beam="1">  1        4 0.47128948E-02 0.12580330E+03</pdfrwt>
<pdfrwt beam="2">  1       -4 0.73406571E-01 0.12580330E+03</pdfrwt>
<totfact> 0.73646256E+02</totfact>
</mgrwt>
</event>
<event>
 7    1  0.8165933E-006  0.1576164E+03  0.7546771E-02  0.1198633E+00
          1   -1    0    0  501    0  0.00000000000E+00  0.00000000000E+00  0.13034021704E+04  0.13034021704E+04  0.00000000000E+00 0. -1.
         -1   -1    0    0    0  501 -0.00000000000E+00 -0.00000000000E+00 -0.20360295068E+02  0.20360295068E+02  0.00000000000E+00 0.  1.
         23    2    1    2    0    0 -0.94687115347E+02 -0.15875794457E+02  0.97434468752E+03  0.98701089636E+03  0.12500099507E+03 0.  0.
          5    1    3    3  502    0 -0.96944395504E+01  0.42407739714E+02  0.15047890234E+03  0.15671116296E+03  0.47000000000E+01 0. -1.
         -5    1    3    3    0  502 -0.84992675796E+02 -0.58283534171E+02  0.82386578518E+03  0.83029973340E+03  0.47000000000E+01 0. -1.
        -11    1    1    2    0    0  0.10755470167E+03  0.29637991530E+02  0.28752314971E+03  0.30840879692E+03  0.00000000000E+00 0. -1.
         11    1    1    2    0    0 -0.12867586327E+02 -0.13762197073E+02  0.21174038095E+02  0.28342772190E+02  0.00000000000E+00 0.  1.
<mgrwt>
<rscale>  0 0.15150743E+03</rscale>
<asrwt>0</asrwt>
<pdfrwt beam="1">  1        1 0.20052335E+00 0.15761643E+03</pdfrwt>
<pdfrwt beam="2">  1       -1 0.31323541E-02 0.15761643E+03</pdfrwt>
<totfact> 0.34031714E+03</totfact>
</mgrwt>
</event>
<event>
 7    1  0.8165933E-006  0.1269797E+03  0.7546771E-02  0.1248652E+00
         -2   -1    0    0    0  501 -0.00000000000E+00  0.00000000000E+00  0.78279693603E+02  0.78279693603E+02  0.00000000000E+00 0.  1.
          2   -1    0    0  501    0  0.00000000000E+00 -0.00000000000E+00 -0.17239647710E+03  0.17239647710E+03  0.00000000000E+00 0. -1.
         23    2    1    2    0    0  0.94096083318E+01 -0.20235184316E+02 -0.97416462935E+02  0.16004312439E+03  0.12500332395E+03 0.  0.
          5    1    3    3  502    0  0.29025623588E+02  0.46331788167E+02 -0.59036275855E+02  0.80600826833E+02  0.47000000000E+01 0. -1.
         -5    1    3    3    0  502 -0.19616015257E+02 -0.66566972483E+02 -0.38380187080E+02  0.79442297552E+02  0.47000000000E+01 0. -1.
        -11    1    1    2    0    0 -0.20621912777E+02 -0.28649001572E+02  0.16211946624E+02  0.38843992985E+02  0.00000000000E+00 0.  1.
         11    1    1    2    0    0  0.11212304445E+02  0.48884185888E+02 -0.12912267182E+02  0.51789053329E+02  0.00000000000E+00 0. -1.
<mgrwt>
<rscale>  0 0.11669447E+03</rscale>
<asrwt>0</asrwt>
<pdfrwt beam="2">  1        2 0.26522535E-01 0.12697966E+03</pdfrwt>
<pdfrwt beam="1">  1       -2 0.12043030E-01 0.12697966E+03</pdfrwt>
<totfact> 0.92829708E+03</totfact>
</mgrwt>
</event>
<event>
 7    1  0.8165933E-006  0.1272014E+03  0.7546771E-02  0.1249157E+00
         -2   -1    0    0    0  501 -0.00000000000E+00  0.00000000000E+00  0.13189430274E+03  0.13189430274E+03  0.00000000000E+00 0. -1.
          2   -1    0    0  501    0  0.00000000000E+00 -0.00000000000E+00 -0.88843676113E+02  0.88843676113E+02  0.00000000000E+00 0.  1.
         23    2    1    2    0    0 -0.21307412085E+02  0.10039847165E+02  0.28655072749E+02  0.13038911279E+03  0.12500161279E+03 0.  0.
          5    1    3    3  502    0  0.12787840106E+02 -0.12270543656E+02  0.69874180460E+02  0.72239782607E+02  0.47000000000E+01 0.  1.
         -5    1    3    3    0  502 -0.34095252191E+02  0.22310390821E+02 -0.41219107711E+02  0.58149330186E+02  0.47000000000E+01 0.  1.
        -11    1    1    2    0    0  0.45612175277E+02 -0.67022322312E+01  0.35342246814E+02  0.58090144261E+02  0.00000000000E+00 0. -1.
         11    1    1    2    0    0 -0.24304763192E+02 -0.33376149342E+01 -0.20946692936E+02  0.32258721801E+02  0.00000000000E+00 0.  1.
<mgrwt>
<rscale>  0 0.11640020E+03</rscale>
<asrwt>0</asrwt>
<pdfrwt beam="2">  1        2 0.13668258E-01 0.12720144E+03</pdfrwt>
<pdfrwt beam="1">  1       -2 0.20291431E-01 0.12720144E+03</pdfrwt>
<totfact> 0.83780148E+03</totfact>
</mgrwt>
</event>
<event>
 6    1  0.8165933E-006  0.1755797E+03  0.7546771E-02  0.1183706E+00
          3   -1    0    0  501    0  0.00000000000E+00  0.00000000000E+00  0.17029607564E+03  0.17029607564E+03  0.00000000000E+00 0. -1.
         -3   -1    0    0    0  501 -0.00000000000E+00 -0.00000000000E+00 -0.15655340323E+03  0.15655340323E+03  0.00000000000E+00 0.  1.
          5    1    1    2  502    0 -0.33188159828E+02  0.57534196601E+02  0.77197450085E+02  0.10194691771E+03  0.47000000000E+01 0. -1.
         -5    1    1    2    0  502 -0.67524176739E+02 -0.43288278167E+02 -0.19848402280E+02  0.82761334837E+02  0.47000000000E+01 0.  1.
        -11    1    1    2    0    0  0.70631570076E+02 -0.36977236721E+02 -0.61227258577E+02  0.10052319095E+03  0.00000000000E+00 0.  1.
         11    1    1    2    0    0  0.30080766492E+02  0.22731318287E+02  0.17620883175E+02  0.41618035365E+02  0.00000000000E+00 0. -1.
<mgrwt>
<rscale>  0 0.16450149E+03</rscale>
<asrwt>0</asrwt>
<pdfrwt beam="1">  1        3 0.26199396E-01 0.17557968E+03</pdfrwt>
<pdfrwt beam="2">  1       -3 0.24085139E-01 0.17557968E+03</pdfrwt>
<totfact> 0.53245940E+02</totfact>
</mgrwt>
</event>
<event>
 7    1  0.8165933E-006  0.1706529E+03  0.7546771E-02  0.1183595E+00
         -1   -1    0    0    0  501 -0.00000000000E+00  0.00000000000E+00  0.75190989711E+02  0.75190989711E+02  0.00000000000E+00 0.  1.
          1   -1    0    0  501    0  0.00000000000E+00 -0.00000000000E+00 -0.36159723251E+03  0.36159723251E+03  0.00000000000E+00 0. -1.
         23    2    1    2    0    0  0.24429882956E+02  0.11358474186E+03 -0.20964612565E+03  0.27032189201E+03  0.12499645808E+03 0.  0.
          5    1    3    3  502    0 -0.43706243750E+02  0.10312301063E+02 -0.73810117728E+02  0.86525156890E+02  0.47000000000E+01 0. -1.
         -5    1    3    3    0  502  0.68136126706E+02  0.10327244080E+03 -0.13583600793E+03  0.18379673512E+03  0.47000000000E+01 0. -1.
        -11    1    1    2    0    0 -0.26838701540E+02 -0.20191086383E+02  0.13840281391E+02  0.36325600595E+02  0.00000000000E+00 0.  1.
         11    1    1    2    0    0  0.24088185833E+01 -0.93393655479E+02 -0.90600398537E+02  0.13014072962E+03  0.00000000000E+00 0. -1.
<mgrwt>
<rscale>  0 0.16460367E+03</rscale>
<asrwt>0</asrwt>
<pdfrwt beam="2">  1        1 0.55630343E-01 0.17065294E+03</pdfrwt>
<pdfrwt beam="1">  1       -1 0.11567845E-01 0.17065294E+03</pdfrwt>
<totfact> 0.32780957E+03</totfact>
</mgrwt>
</event>
<event>
 7    1  0.8165933E-006  0.1473593E+03  0.7546771E-02  0.1213727E+00
          1   -1    0    0  501    0  0.00000000000E+00  0.00000000000E+00  0.21504434012E+02  0.21504434012E+02  0.00000000000E+00 0. -1.
         -1   -1    0    0    0  501 -0.00000000000E+00 -0.00000000000E+00 -0.82982755043E+03  0.82982755043E+03  0.00000000000E+00 0.  1.
         23    2    1    2    0    0 -0.58742336773E+02  0.51375640026E+02 -0.47890749893E+03  0.50106603327E+03  0.12499863457E+03 0.  0.
          5    1    3    3  502    0  0.29450360240E+02 -0.17372816620E+02 -0.90624837806E+02  0.96974685887E+02  0.47000000000E+01 0. -1.
         -5    1    3    3    0  502 -0.88192697014E+02  0.68748456645E+02 -0.38828266113E+03  0.40409134738E+03  0.47000000000E+01 0. -1.
        -11    1    1    2    0    0  0.17056421862E+02  0.25557468910E+02 -0.68688910561E+02  0.75248070925E+02  0.00000000000E+00 0.  1.
         11    1    1    2    0    0  0.41685914911E+02 -0.76933108936E+02 -0.26072670692E+03  0.27501788024E+03  0.00000000000E+00 0. -1.
<mgrwt>
<rscale>  0 0.13970456E+03</rscale>
<asrwt>0</asrwt>
<pdfrwt beam="1">  1        1 0.33083749E-02 0.14735935E+03</pdfrwt>
<pdfrwt beam="2">  1       -1 0.12766576E+00 0.14735935E+03</pdfrwt>
<totfact> 0.16512780E+03</totfact>
</mgrwt>
</event>
<event>
 7    1  0.8165933E-006  0.1510170E+03  0.7546771E-02  0.1214105E+00
         -1   -1    0    0    0  501 -0.00000000000E+00  0.00000000000E+00  0.49841798140E+02  0.49841798140E+02  0.00000000000E+00 0.  1.
          1   -1    0    0  501    0  0.00000000000E+00 -0.00000000000E+00 -0.38326421940E+03  0.38326421940E+03  0.00000000000E+00 0. -1.
         23    2    1    2    0    0  0.74612246155E+02  0.40327864540E+02 -0.26131209817E+03  0.30181142842E+03  0.12495119743E+03 0.  0.
          5    1    3    3  502    0  0.83624242873E+01 -0.35394688816E+02 -0.13696228339E+03  0.14178671027E+03  0.47000000000E+01 0. -1.
         -5    1    3    3    0  502  0.66249821868E+02  0.75722553356E+02 -0.12434981478E+03  0.16002471815E+03  0.47000000000E+01 0. -1.
        -11    1    1    2    0    0 -0.29444176390E+02 -0.27899358043E+02 -0.74023652823E+02  0.84408736988E+02  0.00000000000E+00 0. -1.
         11    1    1    2    0    0 -0.45168069764E+02 -0.12428506497E+02  0.19133297285E+01  0.46885852137E+02  0.00000000000E+00 0.  1.
<mgrwt>
<rscale>  0 0.13942488E+03</rscale>
<asrwt>0</asrwt>
<pdfrwt beam="2">  1        1 0.58963729E-01 0.15101697E+03</pdfrwt>
<pdfrwt beam="1">  1       -1 0.76679685E-02 0.15101697E+03</pdfrwt>
<totfact> 0.56767036E+03</totfact>
</mgrwt>
</event>
<event>
 7    1  0.8165933E-006  0.2031603E+03  0.7546771E-02  0.1151238E+00
          1   -1    0    0  501    0  0.00000000000E+00  0.00000000000E+00  0.40068466268E+02  0.40068466268E+02  0.00000000000E+00 0. -1.
         -1   -1    0    0    0  501 -0.00000000000E+00 -0.00000000000E+00 -0.94703509167E+03  0.94703509167E+03  0.00000000000E+00 0.  1.
         23    2    1    2    0    0 -0.68750503546E+02 -0.14464034011E+03 -0.52870402031E+03  0.56639389615E+03  0.12500657897E+03 0.  0.
          5    1    3    3  502    0  0.35972491144E+02 -0.44449201356E+02 -0.17309777774E+03  0.18235866385E+03  0.47000000000E+01 0.  1.
         -5    1    3    3    0  502 -0.10472299469E+03 -0.10019113876E+03 -0.35560624257E+03  0.38403523231E+03  0.47000000000E+01 0.  1.
        -11    1    1    2    0    0  0.72402843317E+02  0.47193311226E+02 -0.18793551791E+03  0.20685535825E+03  0.00000000000E+00 0. -1.
         11    1    1    2    0    0 -0.36523397703E+01  0.97447028886E+02 -0.19032708718E+03  0.21385430353E+03  0.00000000000E+00 0.  1.
<mgrwt>
<rscale>  0 0.19823326E+03</rscale>
<asrwt>0</asrwt>
<pdfrwt beam="1">  1        1 0.61643795E-02 0.20316029E+03</pdfrwt>
<pdfrwt beam="2">  1       -1 0.14569770E+00 0.20316029E+03</pdfrwt>
<totfact> 0.50717067E+02</totfact>
</mgrwt>
</event>
<event>
 7    1  0.8165933E-006  0.1746565E+03  0.7546771E-02  0.1179269E+00
          1   -1    0    0  501    0  0.00000000000E+00  0.00000000000E+00  0.12935122337E+04  0.12935122337E+04  0.00000000000E+00 0. -1.
         -1   -1    0    0    0  501 -0.00000000000E+00 -0.00000000000E+00 -0.20609509880E+02  0.20609509880E+02  0.00000000000E+00 0.  1.
         23    2    1    2    0    0 -0.76830779903E+02  0.94740727716E+02  0.69469884257E+03  0.71631792695E+03  0.12500446541E+03 0.  0.
          5    1    3    3  502    0 -0.11035815697E+03  0.67124117577E+02  0.55945565156E+03  0.57419272552E+03  0.47000000000E+01 0. -1.
         -5    1    3    3    0  502  0.33527377066E+02  0.27616610139E+02  0.13524319101E+03  0.14212520143E+03  0.47000000000E+01 0. -1.
        -11    1    1    2    0    0  0.39385758297E+01 -0.22374245596E+02  0.20121194506E+02  0.30347680536E+02  0.00000000000E+00 0.  1.
         11    1    1    2    0    0  0.72892204073E+02 -0.72366482119E+02  0.55808268676E+03  0.56745613612E+03  0.00000000000E+00 0. -1.
<mgrwt>
<rscale>  0 0.16864429E+03</rscale>
<asrwt>0</asrwt>
<pdfrwt beam="1">  1        1 0.19900182E+00 0.17465649E+03</pdfrwt>
<pdfrwt beam="2">  1       -1 0.31706948E-02 0.17465649E+03</pdfrwt>
<totfact> 0.34017384E+03</totfact>
</mgrwt>
</event>
<event>
 7    1  0.8165933E-006  0.1733263E+03  0.7546771E-02  0.1180890E+00
          2   -1    0    0  501    0  0.00000000000E+00  0.00000000000E+00  0.26945864289E+03  0.26945864289E+03  0.00000000000E+00 0. -1.
         -2   -1    0    0    0  501 -0.00000000000E+00 -0.00000000000E+00 -0.10555412848E+03  0.10555412848E+03  0.00000000000E+00 0.  1.
         23    2    1    2    0    0 -0.95393205114E+01  0.11969186683E+03  0.14110686041E+03  0.22350205055E+03  0.12499951569E+03 0.  0.
          5    1    3    3  502    0  0.33751562380E+02  0.46714519873E+02 -0.11047880145E+01  0.57833596521E+02  0.47000000000E+01 0. -1.
         -5    1    3    3    0  502 -0.43290882891E+02  0.72977346958E+02  0.14221164843E+03  0.16566845403E+03  0.47000000000E+01 0. -1.
        -11    1    1    2    0    0  0.15770798118E+02 -0.36338421428E+02  0.49834596647E+02  0.63660709768E+02  0.00000000000E+00 0. -1.
         11    1    1    2    0    0 -0.62314776068E+01 -0.83353445403E+02 -0.27036942651E+02  0.87850011051E+02  0.00000000000E+00 0.  1.
<mgrwt>
<rscale>  0 0.16711523E+03</rscale>
<asrwt>0</asrwt>
<pdfrwt beam="1">  1        2 0.41455176E-01 0.17332634E+03</pdfrwt>
<pdfrwt beam="2">  1       -2 0.16239097E-01 0.17332634E+03</pdfrwt>
<totfact> 0.35952224E+03</totfact>
</mgrwt>
</event>
<event>
 7    1  0.8165933E-006  0.1599898E+03  0.7546771E-02  0.1196199E+00
          2   -1    0    0  501    0  0.00000000000E+00  0.00000000000E+00  0.93589519709E+03  0.93589519709E+03  0.00000000000E+00 0. -1.
         -2   -1    0    0    0  501 -0.00000000000E+00 -0.00000000000E+00 -0.24977957983E+02  0.24977957983E+02  0.00000000000E+00 0.  1.
         23    2    1    2    0    0  0.12642984198E+02 -0.99062111937E+02  0.61264335093E+03  0.63318924451E+03  0.12499438728E+03 0.  0.
          5    1    3    3  502    0  0.36418567782E+02 -0.96036948502E+02  0.59299641088E+03  0.60184403368E+03  0.47000000000E+01 0.  1.
         -5    1    3    3    0  502 -0.23775583584E+02 -0.30251634351E+01  0.19646940042E+02  0.31345210823E+02  0.47000000000E+01 0.  1.
        -11    1    1    2    0    0 -0.12362937690E+01 -0.11775447403E+02  0.31872521629E+01  0.12261654055E+02  0.00000000000E+00 0.  1.
         11    1    1    2    0    0 -0.11406690429E+02  0.11083755934E+03  0.29508663602E+03  0.31542225652E+03  0.00000000000E+00 0. -1.
<mgrwt>
<rscale>  0 0.15353215E+03</rscale>
<asrwt>0</asrwt>
<pdfrwt beam="1">  1        2 0.14398385E+00 0.15998982E+03</pdfrwt>
<pdfrwt beam="2">  1       -2 0.38427635E-02 0.15998982E+03</pdfrwt>
<totfact> 0.81967265E+03</totfact>
</mgrwt>
</event>
<event>
 7    1  0.8165933E-006  0.1385698E+03  0.7546771E-02  0.1226567E+00
          2   -1    0    0  501    0  0.00000000000E+00  0.00000000000E+00  0.26143554172E+02  0.26143554172E+02  0.00000000000E+00 0. -1.
         -2   -1    0    0    0  501 -0.00000000000E+00 -0.00000000000E+00 -0.60517589773E+03  0.60517589773E+03  0.00000000000E+00 0.  1.
         23    2    1    2    0    0 -0.54250498152E+02  0.25221703459E+02 -0.26939902671E+03  0.30294787025E+03  0.12498930203E+03 0.  0.
          5    1    3    3  502    0 -0.22897200057E+02 -0.42296086357E+02 -0.43383339028E+02  0.64941857047E+02  0.47000000000E+01 0. -1.
         -5    1    3    3    0  502 -0.31353298095E+02  0.67517789816E+02 -0.22601568768E+03  0.23800601320E+03  0.47000000000E+01 0. -1.
        -11    1    1    2    0    0  0.64223842520E+02 -0.39334244078E+02 -0.29840783785E+03  0.30776471922E+03  0.00000000000E+00 0.  1.
         11    1    1    2    0    0 -0.99733443684E+01  0.14112540619E+02 -0.11225479001E+02  0.20606862435E+02  0.00000000000E+00 0. -1.
<mgrwt>
<rscale>  0 0.13060070E+03</rscale>
<asrwt>0</asrwt>
<pdfrwt beam="1">  1        2 0.40220850E-02 0.13856975E+03</pdfrwt>
<pdfrwt beam="2">  1       -2 0.93103989E-01 0.13856975E+03</pdfrwt>
<totfact> 0.20457086E+03</totfact>
</mgrwt>
</event>
<event>
 7    1  0.8165933E-006  0.1237502E+03  0.7546771E-02  0.1243764E+00
          1   -1    0    0  501    0  0.00000000000E+00  0.00000000000E+00  0.84872997832E+02  0.84872997832E+02  0.00000000000E+00 0. -1.
         -1   -1    0    0    0  501 -0.00000000000E+00 -0.00000000000E+00 -0.30017862102E+03  0.30017862102E+03  0.00000000000E+00 0.  1.
         23    2    1    2    0    0  0.19446235304E+02  0.52516661158E+02  0.20754078729E+02  0.12547844895E+03  0.11035376568E+03 0.  0.
          5    1    3    3  502    0 -0.16138163146E+02  0.75577685356E+02  0.27746746675E+02  0.82245965156E+02  0.47000000000E+01 0. -1.
         -5    1    3    3    0  502  0.35584398450E+02 -0.23061024198E+02 -0.69926679458E+01  0.43232483795E+02  0.47000000000E+01 0.  1.
        -11    1    1    2    0    0 -0.14103852353E+02  0.23608761911E+02 -0.34956147331E+02  0.44477236047E+02  0.00000000000E+00 0. -1.
         11    1    1    2    0    0 -0.53423829513E+01 -0.76125423069E+02 -0.20110355458E+03  0.21509593385E+03  0.00000000000E+00 0.  1.
<mgrwt>
<rscale>  0 0.11959665E+03</rscale>
<asrwt>0</asrwt>
<pdfrwt beam="1">  1        1 0.13057384E-01 0.12375019E+03</pdfrwt>
<pdfrwt beam="2">  1       -1 0.46181327E-01 0.12375019E+03</pdfrwt>
<totfact> 0.20649162E+03</totfact>
</mgrwt>
</event>
<event>
 7    1  0.8165933E-006  0.1333945E+03  0.7546771E-02  0.1235041E+00
          1   -1    0    0  501    0  0.00000000000E+00  0.00000000000E+00  0.58754751141E+03  0.58754751141E+03  0.00000000000E+00 0. -1.
         -1   -1    0    0    0  501 -0.00000000000E+00 -0.00000000000E+00 -0.27404446142E+02  0.27404446142E+02  0.00000000000E+00 0.  1.
         23    2    1    2    0    0 -0.45996473234E+02 -0.73582281061E+01  0.42269850155E+03  0.44324724870E+03  0.12499712474E+03 0.  0.
          5    1    3    3  502    0 -0.19426615076E+02  0.31021278903E+02  0.37330365482E+03  0.37512320886E+03  0.47000000000E+01 0.  1.
         -5    1    3    3    0  502 -0.26569858158E+02 -0.38379507009E+02  0.49394846725E+02  0.68124039838E+02  0.47000000000E+01 0.  1.
        -11    1    1    2    0    0 -0.19722250278E+01 -0.17233147944E+02 -0.60885579048E+01  0.18383187890E+02  0.00000000000E+00 0.  1.
         11    1    1    2    0    0  0.47968698262E+02  0.24591376050E+02  0.14353312162E+03  0.15332152097E+03  0.00000000000E+00 0. -1.
<mgrwt>
<rscale>  0 0.12501819E+03</rscale>
<asrwt>0</asrwt>
<pdfrwt beam="1">  1        1 0.90391915E-01 0.13339453E+03</pdfrwt>
<pdfrwt beam="2">  1       -1 0.42160691E-02 0.13339453E+03</pdfrwt>
<totfact> 0.78860217E+03</totfact>
</mgrwt>
</event>
<event>
 6    1  0.8165933E-006  0.1776905E+03  0.7546771E-02  0.1197136E+00
         -2   -1    0    0    0  501 -0.00000000000E+00  0.00000000000E+00  0.44620525283E+02  0.44620525283E+02  0.00000000000E+00 0.  1.
          2   -1    0    0  501    0  0.00000000000E+00 -0.00000000000E+00 -0.84886047344E+03  0.84886047344E+03  0.00000000000E+00 0. -1.
          5    1    1    2  502    0  0.29333964269E+02  0.21798950420E+02 -0.76130998963E+03  0.76220119785E+03  0.47000000000E+01 0. -1.
         -5    1    1    2    0  502 -0.18740292109E+01 -0.26552540905E+02 -0.92318081973E+01  0.28563362837E+02  0.47000000000E+01 0.  1.
        -11    1    1    2    0    0 -0.49211350015E+01  0.20040315724E+02  0.28286006604E+02  0.35013283103E+02  0.00000000000E+00 0.  1.
         11    1    1    2    0    0 -0.22538800056E+02 -0.15286725240E+02 -0.61984156935E+02  0.67703154930E+02  0.00000000000E+00 0. -1.
<mgrwt>
<rscale>  0 0.15274829E+03</rscale>
<asrwt>0</asrwt>
<pdfrwt beam="2">  1        2 0.13059392E+00 0.17769054E+03</pdfrwt>
<pdfrwt beam="1">  1       -2 0.68646962E-02 0.17769054E+03</pdfrwt>
<totfact> 0.38903252E+03</totfact>
</mgrwt>
</event>
<event>
 7    1  0.8165933E-006  0.1313259E+03  0.7546771E-02  0.1241272E+00
          1   -1    0    0  501    0  0.00000000000E+00  0.00000000000E+00  0.49677691592E+02  0.49677691592E+02  0.00000000000E+00 0. -1.
         -1   -1    0    0    0  501 -0.00000000000E+00 -0.00000000000E+00 -0.29627092250E+03  0.29627092250E+03  0.00000000000E+00 0.  1.
         23    2    1    2    0    0 -0.32498224768E+02 -0.23777099954E+02 -0.78865447140E+02  0.15318699048E+03  0.12500004082E+03 0.  0.
          5    1    3    3  502    0  0.22764268498E+02  0.10445629980E+02 -0.84032625664E+02  0.87811703559E+02  0.47000000000E+01 0. -1.
         -5    1    3    3    0  502 -0.55262493266E+02 -0.34222729933E+02  0.51671785242E+01  0.65375286921E+02  0.47000000000E+01 0. -1.
        -11    1    1    2    0    0  0.15955948889E+02 -0.18584480756E+01  0.54145467491E+01  0.16951797860E+02  0.00000000000E+00 0. -1.
         11    1    1    2    0    0  0.16542275879E+02  0.25635548029E+02 -0.17314233052E+03  0.17580982575E+03  0.00000000000E+00 0.  1.
<mgrwt>
<rscale>  0 0.12111288E+03</rscale>
<asrwt>0</asrwt>
<pdfrwt beam="1">  1        1 0.76427218E-02 0.13132591E+03</pdfrwt>
<pdfrwt beam="2">  1       -1 0.45580142E-01 0.13132591E+03</pdfrwt>
<totfact> 0.43080210E+03</totfact>
</mgrwt>
</event>
<event>
 7    1  0.8165933E-006  0.1394035E+03  0.7546771E-02  0.1225572E+00
         -1   -1    0    0    0  501 -0.00000000000E+00  0.00000000000E+00  0.14950515411E+02  0.14950515411E+02  0.00000000000E+00 0.  1.
          1   -1    0    0  501    0  0.00000000000E+00 -0.00000000000E+00 -0.11148946426E+04  0.11148946426E+04  0.00000000000E+00 0. -1.
         23    2    1    2    0    0  0.53806141730E+01 -0.61449296873E+02 -0.75938725986E+03  0.77207664535E+03  0.12501347432E+03 0.  0.
          5    1    3    3  502    0 -0.41250699665E+02  0.11430807270E+02 -0.13489446535E+03  0.14160116652E+03  0.47000000000E+01 0. -1.
         -5    1    3    3    0  502  0.46631313838E+02 -0.72880104142E+02 -0.62449279451E+03  0.63047547883E+03  0.47000000000E+01 0. -1.
        -11    1    1    2    0    0 -0.39030257992E+02  0.62745681245E+02 -0.19943428504E+03  0.21268383955E+03  0.00000000000E+00 0. -1.
         11    1    1    2    0    0  0.33649643819E+02 -0.12963843728E+01 -0.14112258224E+03  0.14508467307E+03  0.00000000000E+00 0.  1.
<mgrwt>
<rscale>  0 0.13127750E+03</rscale>
<asrwt>0</asrwt>
<pdfrwt beam="2">  1        1 0.17152229E+00 0.13940350E+03</pdfrwt>
<pdfrwt beam="1">  1       -1 0.23000788E-02 0.13940350E+03</pdfrwt>
<totfact> 0.71533553E+03</totfact>
</mgrwt>
</event>
<event>
 7    1  0.8165933E-006  0.2096334E+03  0.7546771E-02  0.1145532E+00
         -2   -1    0    0    0  501 -0.00000000000E+00  0.00000000000E+00  0.28862578041E+03  0.28862578041E+03  0.00000000000E+00 0.  1.
          2   -1    0    0  501    0  0.00000000000E+00 -0.00000000000E+00 -0.34033255479E+03  0.34033255479E+03  0.00000000000E+00 0. -1.
         23    2    1    2    0    0  0.10936813485E+02 -0.16793144074E+03 -0.26768430539E+03  0.34000155332E+03  0.12500234490E+03 0.  0.
          5    1    3    3  502    0  0.13972448104E+02 -0.21366535223E+02 -0.14922850530E+03  0.15146945212E+03  0.47000000000E+01 0.  1.
         -5    1    3    3    0  502 -0.30356346188E+01 -0.14656490552E+03 -0.11845580009E+03  0.18853210120E+03  0.47000000000E+01 0.  1.
        -11    1    1    2    0    0 -0.24863975053E+01 -0.11333260276E+02  0.20764490840E+02  0.23786320457E+02  0.00000000000E+00 0.  1.
         11    1    1    2    0    0 -0.84504159797E+01  0.17926470102E+03  0.19521304016E+03  0.26517046142E+03  0.00000000000E+00 0. -1.
<mgrwt>
<rscale>  0 0.20506884E+03</rscale>
<asrwt>0</asrwt>
<pdfrwt beam="2">  1        2 0.52358855E-01 0.20963342E+03</pdfrwt>
<pdfrwt beam="1">  1       -2 0.44403966E-01 0.20963342E+03</pdfrwt>
<totfact> 0.46597910E+02</totfact>
</mgrwt>
</event>
<event>
 7    1  0.8165933E-006  0.1440138E+03  0.7546771E-02  0.1218957E+00
          2   -1    0    0  501    0  0.00000000000E+00  0.00000000000E+00  0.23917785656E+03  0.23917785656E+03  0.00000000000E+00 0. -1.
         -2   -1    0    0    0  501 -0.00000000000E+00 -0.00000000000E+00 -0.85294204863E+02  0.85294204863E+02  0.00000000000E+00 0.  1.
         23    2    1    2    0    0 -0.38355398735E+02  0.60358943810E+02  0.15321814410E+03  0.21027543865E+03  0.12500248680E+03 0.  0.
          5    1    3    3  502    0  0.85362808462E+00 -0.65996198512E+01  0.12842247317E+03  0.12868063288E+03  0.47000000000E+01 0. -1.
         -5    1    3    3    0  502 -0.39209026819E+02  0.66958563661E+02  0.24795670936E+02  0.81594805771E+02  0.47000000000E+01 0. -1.
        -11    1    1    2    0    0 -0.17134216401E+02 -0.40390309502E+02  0.24888986119E+02  0.50442245226E+02  0.00000000000E+00 0.  1.
         11    1    1    2    0    0  0.55489615136E+02 -0.19968634307E+02 -0.24223478530E+02  0.63754377545E+02  0.00000000000E+00 0. -1.
<mgrwt>
<rscale>  0 0.13589843E+03</rscale>
<asrwt>0</asrwt>
<pdfrwt beam="1">  1        2 0.36796593E-01 0.14401375E+03</pdfrwt>
<pdfrwt beam="2">  1       -2 0.13122185E-01 0.14401375E+03</pdfrwt>
<totfact> 0.57297118E+03</totfact>
</mgrwt>
</event>
<event>
 7    1  0.8165933E-006  0.1296497E+03  0.7546771E-02  0.1241173E+00
         -2   -1    0    0    0  501 -0.00000000000E+00  0.00000000000E+00  0.14294119719E+02  0.14294119719E+02  0.00000000000E+00 0.  1.
          2   -1    0    0  501    0  0.00000000000E+00 -0.00000000000E+00 -0.15057273327E+04  0.15057273327E+04  0.00000000000E+00 0. -1.
         23    2    1    2    0    0 -0.33439801466E+02 -0.81055787866E+01 -0.12804392845E+04  0.12869863314E+04  0.12500054066E+03 0.  0.
          5    1    3    3  502    0 -0.73510518306E+02 -0.14969021728E+02 -0.51529976774E+03  0.52075311669E+03  0.47000000000E+01 0.  1.
         -5    1    3    3    0  502  0.40070716841E+02  0.68634429414E+01 -0.76513951678E+03  0.76623321472E+03  0.47000000000E+01 0.  1.
        -11    1    1    2    0    0  0.21636079038E+02 -0.37490127199E+02 -0.14911679388E+03  0.15527217320E+03  0.00000000000E+00 0. -1.
         11    1    1    2    0    0  0.11803722427E+02  0.45595705986E+02 -0.61877134575E+02  0.77762947801E+02  0.00000000000E+00 0.  1.
<mgrwt>
<rscale>  0 0.12117403E+03</rscale>
<asrwt>0</asrwt>
<pdfrwt beam="2">  1        2 0.23165033E+00 0.12964974E+03</pdfrwt>
<pdfrwt beam="1">  1       -2 0.21990956E-02 0.12964974E+03</pdfrwt>
<totfact> 0.88778278E+03</totfact>
</mgrwt>
</event>
<event>
 7    1  0.8165933E-006  0.1627699E+03  0.7546771E-02  0.1193270E+00
         -1   -1    0    0    0  501 -0.00000000000E+00  0.00000000000E+00  0.89713100060E+02  0.89713100060E+02  0.00000000000E+00 0.  1.
          1   -1    0    0  501    0  0.00000000000E+00 -0.00000000000E+00 -0.25391514993E+03  0.25391514993E+03  0.00000000000E+00 0. -1.
         23    2    1    2    0    0 -0.28000309263E+02 -0.10042270374E+03 -0.10710120169E+03  0.19484533389E+03  0.12500119995E+03 0.  0.
          5    1    3    3  502    0 -0.24611100684E+02 -0.11872314556E+03 -0.12083470272E+03  0.17124253838E+03  0.47000000000E+01 0. -1.
         -5    1    3    3    0  502 -0.33892085788E+01  0.18300441813E+02  0.13733501033E+02  0.23602795512E+02  0.47000000000E+01 0. -1.
        -11    1    1    2    0    0 -0.16218018513E+02  0.41681379154E+02  0.13633993778E+02  0.46757323266E+02  0.00000000000E+00 0.  1.
         11    1    1    2    0    0  0.44218327776E+02  0.58741324591E+02 -0.70734841955E+02  0.10202559283E+03  0.00000000000E+00 0. -1.
<mgrwt>
<rscale>  0 0.15601590E+03</rscale>
<asrwt>0</asrwt>
<pdfrwt beam="2">  1        1 0.39063868E-01 0.16276989E+03</pdfrwt>
<pdfrwt beam="1">  1       -1 0.13802016E-01 0.16276989E+03</pdfrwt>
<totfact> 0.38635309E+03</totfact>
</mgrwt>
</event>
<event>
 7    1  0.8165933E-006  0.1299610E+03  0.7546771E-02  0.1241562E+00
         -2   -1    0    0    0  501 -0.00000000000E+00  0.00000000000E+00  0.15071114895E+02  0.15071114895E+02  0.00000000000E+00 0.  1.
          2   -1    0    0  501    0  0.00000000000E+00 -0.00000000000E+00 -0.89466293716E+03  0.89466293716E+03  0.00000000000E+00 0. -1.
         23    2    1    2    0    0 -0.12720563151E+02  0.33234128277E+02 -0.59143871547E+03  0.60554902103E+03  0.12499417068E+03 0.  0.
          5    1    3    3  502    0  0.29665727068E+02 -0.10671417009E+02 -0.45375556284E+03  0.45487375755E+03  0.47000000000E+01 0.  1.
         -5    1    3    3    0  502 -0.42386290219E+02  0.43905545286E+02 -0.13768315263E+03  0.15067526348E+03  0.47000000000E+01 0.  1.
        -11    1    1    2    0    0  0.22108469541E+02 -0.62250770948E+02 -0.21528339061E+03  0.22519076620E+03  0.00000000000E+00 0.  1.
         11    1    1    2    0    0 -0.93879063898E+01  0.29016642671E+02 -0.72869716189E+02  0.78994264829E+02  0.00000000000E+00 0. -1.
<mgrwt>
<rscale>  0 0.12093561E+03</rscale>
<asrwt>0</asrwt>
<pdfrwt beam="2">  1        2 0.13764045E+00 0.12996100E+03</pdfrwt>
<pdfrwt beam="1">  1       -2 0.23186331E-02 0.12996100E+03</pdfrwt>
<totfact> 0.18069712E+04</totfact>
</mgrwt>
</event>
<event>
 7    1  0.8165933E-006  0.1314598E+03  0.7546771E-02  0.1239452E+00
          2   -1    0    0  501    0  0.00000000000E+00  0.00000000000E+00  0.26578962600E+02  0.26578962600E+02  0.00000000000E+00 0. -1.
         -2   -1    0    0    0  501 -0.00000000000E+00 -0.00000000000E+00 -0.63055985352E+03  0.63055985352E+03  0.00000000000E+00 0.  1.
         23    2    1    2    0    0  0.47519826346E+01 -0.40450201858E+02 -0.18603775788E+03  0.22779753803E+03  0.12499148293E+03 0.  0.
          5    1    3    3  502    0  0.17554554112E+02 -0.21217126882E+02 -0.19895947372E+03  0.20091115207E+03  0.47000000000E+01 0.  1.
         -5    1    3    3    0  502 -0.12802571478E+02 -0.19233074977E+02  0.12921715842E+02  0.26886385956E+02  0.47000000000E+01 0.  1.
        -11    1    1    2    0    0 -0.46366470876E+02  0.12158377092E+02 -0.20794150063E+03  0.21339480649E+03  0.00000000000E+00 0.  1.
         11    1    1    2    0    0  0.41614488241E+02  0.28291824767E+02 -0.21000163242E+03  0.21594647160E+03  0.00000000000E+00 0. -1.
<mgrwt>
<rscale>  0 0.12223697E+03</rscale>
<asrwt>0</asrwt>
<pdfrwt beam="1">  1        2 0.40890707E-02 0.13145977E+03</pdfrwt>
<pdfrwt beam="2">  1       -2 0.97009220E-01 0.13145977E+03</pdfrwt>
<totfact> 0.18169569E+03</totfact>
</mgrwt>
</event>
<event>
 7    1  0.8165933E-006  0.2038143E+03  0.7546771E-02  0.1150667E+00
          2   -1    0    0  501    0  0.00000000000E+00  0.00000000000E+00  0.12477370008E+04  0.12477370008E+04  0.00000000000E+00 0. -1.
         -2   -1    0    0    0  501 -0.00000000000E+00 -0.00000000000E+00 -0.31673128755E+02  0.31673128755E+02  0.00000000000E+00 0.  1.
         23    2    1    2    0    0 -0.15707352845E+03  0.35261181751E+02  0.77081867669E+03  0.79730902491E+03  0.12499921833E+03 0.  0.
          5    1    3    3  502    0 -0.10898819904E+03  0.28022382883E+02  0.71197368247E+03  0.72082750780E+03  0.47000000000E+01 0.  1.
         -5    1    3    3    0  502 -0.48085329415E+02  0.72387988675E+01  0.58844994224E+02  0.76481517109E+02  0.47000000000E+01 0.  1.
        -11    1    1    2    0    0  0.10984936296E+03  0.44473668191E+01  0.19009539545E+03  0.21959717891E+03  0.00000000000E+00 0. -1.
         11    1    1    2    0    0  0.47224165490E+02 -0.39708548570E+02  0.25514979994E+03  0.26250392577E+03  0.00000000000E+00 0.  1.
<mgrwt>
<rscale>  0 0.19890447E+03</rscale>
<asrwt>0</asrwt>
<pdfrwt beam="1">  1        2 0.19195950E+00 0.20381425E+03</pdfrwt>
<pdfrwt beam="2">  1       -2 0.48727900E-02 0.20381425E+03</pdfrwt>
<totfact> 0.38025178E+03</totfact>
</mgrwt>
</event>
<event>
 7    1  0.8165933E-006  0.2510691E+03  0.7546771E-02  0.1115218E+00
          1   -1    0    0  501    0  0.00000000000E+00  0.00000000000E+00  0.14580244677E+04  0.14580244677E+04  0.00000000000E+00 0. -1.
         -1   -1    0    0    0  501 -0.00000000000E+00 -0.00000000000E+00 -0.41499857446E+02  0.41499857446E+02  0.00000000000E+00 0.  1.
         23    2    1    2    0    0  0.14766987185E+03 -0.16005957228E+03  0.84488633628E+03  0.88140150299E+03  0.12494090810E+03 0.  0.
          5    1    3    3  502    0  0.36949441070E+02 -0.12589292438E+03  0.52421157740E+03  0.54040184815E+03  0.47000000000E+01 0. -1.
         -5    1    3    3    0  502  0.11072043078E+03 -0.34166647904E+02  0.32067475888E+03  0.34099965484E+03  0.47000000000E+01 0. -1.
        -11    1    1    2    0    0 -0.37860334260E+02  0.19890838257E+02  0.44482321843E+02  0.61706784986E+02  0.00000000000E+00 0.  1.
         11    1    1    2    0    0 -0.10980953759E+03  0.14016873403E+03  0.52715595209E+03  0.55641603713E+03  0.00000000000E+00 0. -1.
<mgrwt>
<rscale>  0 0.24699661E+03</rscale>
<asrwt>0</asrwt>
<pdfrwt beam="1">  1        1 0.22431142E+00 0.25106909E+03</pdfrwt>
<pdfrwt beam="2">  1       -1 0.63845946E-02 0.25106909E+03</pdfrwt>
<totfact> 0.92981796E+02</totfact>
</mgrwt>
</event>
<event>
 6    1  0.8165933E-006  0.1868454E+03  0.7546771E-02  0.1191096E+00
          1   -1    0    0  501    0  0.00000000000E+00  0.00000000000E+00  0.29866093315E+03  0.29866093315E+03  0.00000000000E+00 0. -1.
         -1   -1    0    0    0  501 -0.00000000000E+00 -0.00000000000E+00 -0.67368063509E+02  0.67368063509E+02  0.00000000000E+00 0.  1.
          5    1    1    2  502    0 -0.84025683972E+02 -0.29648620005E+01  0.14173116572E+03  0.16486030241E+03  0.47000000000E+01 0. -1.
         -5    1    1    2    0  502  0.77664676822E+02  0.30064777141E+02  0.29201436413E+02  0.88377071342E+02  0.47000000000E+01 0.  1.
        -11    1    1    2    0    0  0.31875097922E+02 -0.10936141383E+02 -0.10881184735E+02  0.35412162277E+02  0.00000000000E+00 0.  1.
         11    1    1    2    0    0 -0.25514090772E+02 -0.16163773757E+02  0.71241452247E+02  0.77379460635E+02  0.00000000000E+00 0. -1.
<mgrwt>
<rscale>  0 0.15789346E+03</rscale>
<asrwt>0</asrwt>
<pdfrwt beam="1">  1        1 0.45947835E-01 0.18684543E+03</pdfrwt>
<pdfrwt beam="2">  1       -1 0.10364318E-01 0.18684543E+03</pdfrwt>
<totfact> 0.49575210E+03</totfact>
</mgrwt>
</event>
<event>
 7    1  0.8165933E-006  0.1480364E+03  0.7546771E-02  0.1210453E+00
          2   -1    0    0  501    0  0.00000000000E+00  0.00000000000E+00  0.31808781586E+04  0.31808781586E+04  0.00000000000E+00 0. -1.
         -2   -1    0    0    0  501 -0.00000000000E+00 -0.00000000000E+00 -0.28885142811E+02  0.28885142811E+02  0.00000000000E+00 0.  1.
         23    2    1    2    0    0 -0.74445623620E+02 -0.46815758963E+02  0.30327629357E+04  0.30363737913E+04  0.11908362683E+03 0.  0.
          5    1    3    3  502    0 -0.81679868831E+02 -0.99555387825E+01  0.27313021007E+04  0.27325453279E+04  0.47000000000E+01 0. -1.
         -5    1    3    3    0  502  0.72342452114E+01 -0.36860220180E+02  0.30146083505E+03  0.30382846346E+03  0.47000000000E+01 0.  1.
        -11    1    1    2    0    0 -0.89597968074E+01 -0.17913200378E+02  0.14924036968E+02  0.24977741812E+02  0.00000000000E+00 0. -1.
         11    1    1    2    0    0  0.83405420427E+02  0.64728959340E+02  0.10430604307E+03  0.14841176825E+03  0.00000000000E+00 0.  1.
<mgrwt>
<rscale>  0 0.14215874E+03</rscale>
<asrwt>0</asrwt>
<pdfrwt beam="1">  1        2 0.48936559E+00 0.14803640E+03</pdfrwt>
<pdfrwt beam="2">  1       -2 0.44438706E-02 0.14803640E+03</pdfrwt>
<totfact> 0.39702956E+02</totfact>
</mgrwt>
</event>
<event>
 6    1  0.8165933E-006  0.2104409E+03  0.7546771E-02  0.1170304E+00
          1   -1    0    0  501    0  0.00000000000E+00  0.00000000000E+00  0.81938586014E+03  0.81938586014E+03  0.00000000000E+00 0. -1.
         -1   -1    0    0    0  501 -0.00000000000E+00 -0.00000000000E+00 -0.35981815770E+02  0.35981815770E+02  0.00000000000E+00 0.  1.
          5    1    1    2  502    0 -0.72027558366E+02 -0.36921797565E+02  0.90287935313E+02  0.12134739207E+03  0.47000000000E+01 0. -1.
         -5    1    1    2    0  502  0.42725811507E+02 -0.11961950225E+02  0.56821613102E+03  0.56996512592E+03  0.47000000000E+01 0.  1.
        -11    1    1    2    0    0 -0.30927966369E+02  0.18736323828E+02  0.62670748163E+02  0.72354762176E+02  0.00000000000E+00 0. -1.
         11    1    1    2    0    0  0.60229713228E+02  0.30147423962E+02  0.62229229876E+02  0.91700395735E+02  0.00000000000E+00 0.  1.
<mgrwt>
<rscale>  0 0.17743943E+03</rscale>
<asrwt>0</asrwt>
<pdfrwt beam="1">  1        1 0.12605935E+00 0.21044095E+03</pdfrwt>
<pdfrwt beam="2">  1       -1 0.55356646E-02 0.21044095E+03</pdfrwt>
<totfact> 0.33241306E+03</totfact>
</mgrwt>
</event>
<event>
 7    1  0.8165933E-006  0.1996373E+03  0.7546771E-02  0.1154355E+00
          2   -1    0    0  501    0  0.00000000000E+00  0.00000000000E+00  0.62525943653E+03  0.62525943653E+03  0.00000000000E+00 0. -1.
         -2   -1    0    0    0  501 -0.00000000000E+00 -0.00000000000E+00 -0.59280033284E+02  0.59280033284E+02  0.00000000000E+00 0.  1.
         23    2    1    2    0    0  0.12087207695E+03 -0.98077852150E+02  0.35233147825E+03  0.40495987929E+03  0.12500283677E+03 0.  0.
          5    1    3    3  502    0  0.55470899742E+02  0.17002430287E+02  0.57862789245E+02  0.82074939738E+02  0.47000000000E+01 0.  1.
         -5    1    3    3    0  502  0.65401177204E+02 -0.11508028244E+03  0.29446868900E+03  0.32288493955E+03  0.47000000000E+01 0.  1.
        -11    1    1    2    0    0 -0.64950399248E+02 -0.26616427781E+01  0.81699336058E+02  0.10440507754E+03  0.00000000000E+00 0.  1.
         11    1    1    2    0    0 -0.55921677698E+02  0.10073949493E+03  0.13194858895E+03  0.17517451299E+03  0.00000000000E+00 0. -1.
<mgrwt>
<rscale>  0 0.19462510E+03</rscale>
<asrwt>0</asrwt>
<pdfrwt beam="1">  1        2 0.96193755E-01 0.19963725E+03</pdfrwt>
<pdfrwt beam="2">  1       -2 0.91200056E-02 0.19963725E+03</pdfrwt>
<totfact> 0.36467271E+03</totfact>
</mgrwt>
</event>
<event>
 7    1  0.8165933E-006  0.1324308E+03  0.7546771E-02  0.1236788E+00
         -1   -1    0    0    0  501 -0.00000000000E+00  0.00000000000E+00  0.15509564870E+03  0.15509564870E+03  0.00000000000E+00 0. -1.
          1   -1    0    0  501    0  0.00000000000E+00 -0.00000000000E+00 -0.91699431483E+02  0.91699431483E+02  0.00000000000E+00 0.  1.
         23    2    1    2    0    0 -0.36607034650E+02  0.23992933225E+02  0.11829316390E+02  0.13295805571E+03  0.12498870357E+03 0.  0.
          5    1    3    3  502    0 -0.33128635271E+02  0.72880618643E+02 -0.64141180208E+01  0.80450742437E+02  0.47000000000E+01 0. -1.
         -5    1    3    3    0  502 -0.34783993782E+01 -0.48887685418E+02  0.18243434410E+02  0.52507313270E+02  0.47000000000E+01 0. -1.
        -11    1    1    2    0    0  0.36701147998E+02 -0.46218896443E+02  0.65056183741E+02  0.87837735033E+02  0.00000000000E+00 0. -1.
         11    1    1    2    0    0 -0.94113348552E-01  0.22225963219E+02 -0.13489282910E+02  0.25999289447E+02  0.00000000000E+00 0.  1.
<mgrwt>
<rscale>  0 0.12390673E+03</rscale>
<asrwt>0</asrwt>
<pdfrwt beam="2">  1        1 0.14107605E-01 0.13243078E+03</pdfrwt>
<pdfrwt beam="1">  1       -1 0.23860869E-01 0.13243078E+03</pdfrwt>
<totfact> 0.57785166E+03</totfact>
</mgrwt>
</event>
<event>
 7    1  0.8165933E-006  0.1276997E+03  0.7546771E-02  0.1246081E+00
         -2   -1    0    0    0  501 -0.00000000000E+00  0.00000000000E+00  0.19215973929E+02  0.19215973929E+02  0.00000000000E+00 0.  1.
          2   -1    0    0  501    0  0.00000000000E+00 -0.00000000000E+00 -0.64371863362E+03  0.64371863362E+03  0.00000000000E+00 0. -1.
         23    2    1    2    0    0 -0.13112265390E+02  0.22643306779E+02 -0.39030454757E+03  0.41066392609E+03  0.12499027760E+03 0.  0.
          5    1    3    3  502    0 -0.59871061041E+02 -0.20590831388E+01 -0.10968870257E+03  0.12506992143E+03  0.47000000000E+01 0.  1.
         -5    1    3    3    0  502  0.46758795651E+02  0.24702389918E+02 -0.28061584500E+03  0.28559400467E+03  0.47000000000E+01 0.  1.
        -11    1    1    2    0    0 -0.27208869781E+02  0.20981464340E+02 -0.85398904936E+02  0.92051710494E+02  0.00000000000E+00 0. -1.
         11    1    1    2    0    0  0.40321135172E+02 -0.43624771119E+02 -0.14879920719E+03  0.16021897096E+03  0.00000000000E+00 0.  1.
<mgrwt>
<rscale>  0 0.11820935E+03</rscale>
<asrwt>0</asrwt>
<pdfrwt beam="2">  1        2 0.99033614E-01 0.12769973E+03</pdfrwt>
<pdfrwt beam="1">  1       -2 0.29563043E-02 0.12769973E+03</pdfrwt>
<totfact> 0.18909101E+04</totfact>
</mgrwt>
</event>
<event>
 7    1  0.8165933E-006  0.1335704E+03  0.7546771E-02  0.1232997E+00
          2   -1    0    0  501    0  0.00000000000E+00  0.00000000000E+00  0.83103520555E+03  0.83103520555E+03  0.00000000000E+00 0. -1.
         -2   -1    0    0    0  501 -0.00000000000E+00 -0.00000000000E+00 -0.19063895072E+02  0.19063895072E+02  0.00000000000E+00 0.  1.
         23    2    1    2    0    0 -0.89036776069E+01 -0.57160561174E+02  0.57212026874E+03  0.58750545736E+03  0.12039292042E+03 0.  0.
          5    1    3    3  502    0  0.38292376754E+02 -0.73459040516E+02  0.33289395838E+03  0.34307872898E+03  0.47000000000E+01 0. -1.
         -5    1    3    3    0  502 -0.47196054360E+02  0.16298479342E+02  0.23922631036E+03  0.24442672838E+03  0.47000000000E+01 0.  1.
        -11    1    1    2    0    0 -0.22188473650E+02  0.26380757452E+02  0.23157601166E+02  0.41527668107E+02  0.00000000000E+00 0.  1.
         11    1    1    2    0    0  0.31092151257E+02  0.30779803722E+02  0.21669344057E+03  0.22106597516E+03  0.00000000000E+00 0. -1.
<mgrwt>
<rscale>  0 0.12633503E+03</rscale>
<asrwt>0</asrwt>
<pdfrwt beam="1">  1        2 0.12785154E+00 0.13357043E+03</pdfrwt>
<pdfrwt beam="2">  1       -2 0.29329076E-02 0.13357043E+03</pdfrwt>
<totfact> 0.14113601E+04</totfact>
</mgrwt>
</event>
<event>
 7    1  0.8165933E-006  0.1260275E+03  0.7546771E-02  0.1241702E+00
         -1   -1    0    0    0  501 -0.00000000000E+00  0.00000000000E+00  0.19668209979E+02  0.19668209979E+02  0.00000000000E+00 0.  1.
          1   -1    0    0  501    0  0.00000000000E+00 -0.00000000000E+00 -0.70722811027E+03  0.70722811027E+03  0.00000000000E+00 0. -1.
         23    2    1    2    0    0 -0.16632880687E+02 -0.37851645624E+02 -0.43208517568E+03  0.45008948189E+03  0.11905268946E+03 0.  0.
          5    1    3    3  502    0 -0.62830855404E+02 -0.46738502980E+02 -0.25433581050E+03  0.26615972376E+03  0.47000000000E+01 0. -1.
         -5    1    3    3    0  502  0.46197974718E+02  0.88868573559E+01 -0.17774936519E+03  0.18392975813E+03  0.47000000000E+01 0.  1.
        -11    1    1    2    0    0  0.15962794552E+02 -0.32479958161E+02 -0.90082637621E+02  0.97080585561E+02  0.00000000000E+00 0.  1.
         11    1    1    2    0    0  0.67008613434E+00  0.70331603785E+02 -0.16539208699E+03  0.17972625280E+03  0.00000000000E+00 0. -1.
<mgrwt>
<rscale>  0 0.12084983E+03</rscale>
<asrwt>0</asrwt>
<pdfrwt beam="2">  1        1 0.10880433E+00 0.12602755E+03</pdfrwt>
<pdfrwt beam="1">  1       -1 0.30258784E-02 0.12602755E+03</pdfrwt>
<totfact> 0.98618052E+03</totfact>
</mgrwt>
</event>
<event>
 7    1  0.8165933E-006  0.1319953E+03  0.7546771E-02  0.1237985E+00
         -1   -1    0    0    0  501 -0.00000000000E+00  0.00000000000E+00  0.19790544944E+03  0.19790544944E+03  0.00000000000E+00 0.  1.
          1   -1    0    0  501    0  0.00000000000E+00 -0.00000000000E+00 -0.69057958122E+02  0.69057958122E+02  0.00000000000E+00 0. -1.
         23    2    1    2    0    0 -0.53130065267E+01 -0.42101422126E+02  0.56821053657E+02  0.14370590745E+03  0.12498799108E+03 0.  0.
          5    1    3    3  502    0 -0.27520790648E+02 -0.52683215504E+01 -0.33278048008E+02  0.43756914986E+02  0.47000000000E+01 0. -1.
         -5    1    3    3    0  502  0.22207784121E+02 -0.36833100576E+02  0.90099101666E+02  0.99948992464E+02  0.47000000000E+01 0. -1.
        -11    1    1    2    0    0  0.58608109880E+01  0.69537524908E+02  0.63944650973E+02  0.94650593574E+02  0.00000000000E+00 0. -1.
         11    1    1    2    0    0 -0.54780446134E+00 -0.27436102782E+02  0.80817866868E+01  0.28606906538E+02  0.00000000000E+00 0.  1.
<mgrwt>
<rscale>  0 0.12315266E+03</rscale>
<asrwt>0</asrwt>
<pdfrwt beam="2">  1        1 0.10624301E-01 0.13199529E+03</pdfrwt>
<pdfrwt beam="1">  1       -1 0.30446992E-01 0.13199529E+03</pdfrwt>
<totfact> 0.55926084E+03</totfact>
</mgrwt>
</event>
<event>
 7    1  0.8165933E-006  0.1348201E+03  0.7546771E-02  0.1233258E+00
         -2   -1    0    0    0  501 -0.00000000000E+00  0.00000000000E+00  0.18623258161E+02  0.18623258161E+02  0.00000000000E+00 0.  1.
          2   -1    0    0  501    0  0.00000000000E+00 -0.00000000000E+00 -0.84552516024E+03  0.84552516024E+03  0.00000000000E+00 0. -1.
         23    2    1    2    0    0 -0.11485730435E+02 -0.49209033449E+02 -0.59749619053E+03  0.61251787826E+03  0.12499200980E+03 0.  0.
          5    1    3    3  502    0 -0.50975699818E+02  0.11085415224E+02 -0.14244003521E+03  0.15176515422E+03  0.47000000000E+01 0. -1.
         -5    1    3    3    0  502  0.39489969383E+02 -0.60294448674E+02 -0.45505615531E+03  0.46075272404E+03  0.47000000000E+01 0. -1.
        -11    1    1    2    0    0 -0.38134980198E+02  0.97938885013E+01 -0.74502847651E+02  0.84266667638E+02  0.00000000000E+00 0.  1.
         11    1    1    2    0    0  0.49620710634E+02  0.39415144948E+02 -0.15490286390E+03  0.16736387250E+03  0.00000000000E+00 0. -1.
<mgrwt>
<rscale>  0 0.12616618E+03</rscale>
<asrwt>0</asrwt>
<pdfrwt beam="2">  1        2 0.13008076E+00 0.13482008E+03</pdfrwt>
<pdfrwt beam="1">  1       -2 0.28651173E-02 0.13482008E+03</pdfrwt>
<totfact> 0.14299090E+04</totfact>
</mgrwt>
</event>
<event>
 7    1  0.8165933E-006  0.1595497E+03  0.7546771E-02  0.1196765E+00
         -1   -1    0    0    0  501 -0.00000000000E+00  0.00000000000E+00  0.14317300174E+02  0.14317300174E+02  0.00000000000E+00 0.  1.
          1   -1    0    0  501    0  0.00000000000E+00 -0.00000000000E+00 -0.20920076039E+04  0.20920076039E+04  0.00000000000E+00 0. -1.
         23    2    1    2    0    0 -0.29075122506E+02  0.94792722791E+02 -0.16523910788E+04  0.16600760184E+04  0.12500034563E+03 0.  0.
          5    1    3    3  502    0 -0.47312195035E+02 -0.11001599680E+02 -0.68469006112E+03  0.68642701636E+03  0.47000000000E+01 0.  1.
         -5    1    3    3    0  502  0.18237072529E+02  0.10579432247E+03 -0.96770101767E+03  0.97364900199E+03  0.47000000000E+01 0.  1.
        -11    1    1    2    0    0  0.40981224431E+02 -0.55889722209E+01 -0.89422589298E+02  0.98524600193E+02  0.00000000000E+00 0.  1.
         11    1    1    2    0    0 -0.11906101925E+02 -0.89203750570E+02 -0.33587663568E+03  0.34772428557E+03  0.00000000000E+00 0. -1.
<mgrwt>
<rscale>  0 0.15305783E+03</rscale>
<asrwt>0</asrwt>
<pdfrwt beam="2">  1        1 0.32184747E+00 0.15954971E+03</pdfrwt>
<pdfrwt beam="1">  1       -1 0.22026606E-02 0.15954971E+03</pdfrwt>
<totfact> 0.17576051E+03</totfact>
</mgrwt>
</event>
<event>
 7    1  0.8165933E-006  0.1422458E+03  0.7546771E-02  0.1221635E+00
          2   -1    0    0  501    0  0.00000000000E+00  0.00000000000E+00  0.81307959025E+03  0.81307959025E+03  0.00000000000E+00 0.  1.
         -2   -1    0    0    0  501 -0.00000000000E+00 -0.00000000000E+00 -0.20787433642E+02  0.20787433642E+02  0.00000000000E+00 0. -1.
         23    2    1    2    0    0 -0.16409312068E+02  0.65872330161E+02  0.52770245249E+03  0.54653796625E+03  0.12500176312E+03 0.  0.
          5    1    3    3  502    0  0.51341156405E+02  0.86422857166E+01  0.16298617026E+03  0.17116420519E+03  0.47000000000E+01 0. -1.
         -5    1    3    3    0  502 -0.67750468472E+02  0.57230044444E+02  0.36471628223E+03  0.37537376106E+03  0.47000000000E+01 0. -1.
        -11    1    1    2    0    0  0.27907415789E+00 -0.69020484524E+02  0.26169183397E+03  0.27064094504E+03  0.00000000000E+00 0.  1.
         11    1    1    2    0    0  0.16130237910E+02  0.31481543639E+01  0.28978701506E+01  0.16688112605E+02  0.00000000000E+00 0. -1.
<mgrwt>
<rscale>  0 0.13400200E+03</rscale>
<asrwt>0</asrwt>
<pdfrwt beam="1">  1        2 0.12508914E+00 0.14224581E+03</pdfrwt>
<pdfrwt beam="2">  1       -2 0.31980673E-02 0.14224581E+03</pdfrwt>
<totfact> 0.12825548E+04</totfact>
</mgrwt>
</event>
<event>
 7    1  0.8165933E-006  0.1445719E+03  0.7546771E-02  0.1217824E+00
         -2   -1    0    0    0  501 -0.00000000000E+00  0.00000000000E+00  0.31017455964E+03  0.31017455964E+03  0.00000000000E+00 0.  1.
          2   -1    0    0  501    0  0.00000000000E+00 -0.00000000000E+00 -0.55654821717E+02  0.55654821717E+02  0.00000000000E+00 0. -1.
         23    2    1    2    0    0 -0.64538650346E+02 -0.33084138582E+02  0.11562820330E+03  0.18512405250E+03  0.12506492635E+03 0.  0.
          5    1    3    3  502    0 -0.49951451842E+02 -0.95203064274E+01 -0.13621703452E+02  0.52852857827E+02  0.47000000000E+01 0. -1.
         -5    1    3    3    0  502 -0.14587198504E+02 -0.23563832155E+02  0.12924990675E+03  0.13227119468E+03  0.47000000000E+01 0. -1.
        -11    1    1    2    0    0  0.55424090749E+02  0.25248537760E+01  0.13807539879E+03  0.14880531064E+03  0.00000000000E+00 0.  1.
         11    1    1    2    0    0  0.91145595963E+01  0.30559284806E+02  0.81613583224E+00  0.31900018216E+02  0.00000000000E+00 0. -1.
<mgrwt>
<rscale>  0 0.13671091E+03</rscale>
<asrwt>0</asrwt>
<pdfrwt beam="2">  1        2 0.85622805E-02 0.14457190E+03</pdfrwt>
<pdfrwt beam="1">  1       -2 0.47719162E-01 0.14457190E+03</pdfrwt>
<totfact> 0.31623009E+03</totfact>
</mgrwt>
</event>
<event>
 7    1  0.8165933E-006  0.1957666E+03  0.7546771E-02  0.1157958E+00
         -2   -1    0    0    0  501 -0.00000000000E+00  0.00000000000E+00  0.64082130399E+03  0.64082130399E+03  0.00000000000E+00 0. -1.
          2   -1    0    0  501    0  0.00000000000E+00 -0.00000000000E+00 -0.55819289725E+02  0.55819289725E+02  0.00000000000E+00 0.  1.
         23    2    1    2    0    0 -0.12523960110E+03 -0.83699399772E+02  0.24233210355E+03  0.31152753496E+03  0.12503603248E+03 0.  0.
          5    1    3    3  502    0 -0.11527194953E+03 -0.46026702263E+02  0.24229339064E+03  0.27227606729E+03  0.47000000000E+01 0.  1.
         -5    1    3    3    0  502 -0.99676515724E+01 -0.37672697509E+02  0.38712909837E-01  0.39251467669E+02  0.47000000000E+01 0.  1.
        -11    1    1    2    0    0  0.13116302237E+03  0.48521363620E+02  0.28069795267E+03  0.31360708187E+03  0.00000000000E+00 0.  1.
         11    1    1    2    0    0 -0.59234212677E+01  0.35178036152E+02  0.61971958044E+02  0.71505976889E+02  0.00000000000E+00 0. -1.
<mgrwt>
<rscale>  0 0.19055928E+03</rscale>
<asrwt>0</asrwt>
<pdfrwt beam="2">  1        2 0.85875835E-02 0.19576659E+03</pdfrwt>
<pdfrwt beam="1">  1       -2 0.98587888E-01 0.19576659E+03</pdfrwt>
<totfact> 0.68270429E+02</totfact>
</mgrwt>
</event>
<event>
 7    1  0.1396960E-005  0.3179238E+03  0.7546771E-02  0.1078004E+00
         -1   -1    0    0    0  501 -0.00000000000E+00  0.00000000000E+00  0.18744809703E+03  0.18744809703E+03  0.00000000000E+00 0.  1.
          1   -1    0    0  501    0  0.00000000000E+00 -0.00000000000E+00 -0.52548918822E+03  0.52548918822E+03  0.00000000000E+00 0. -1.
         23    2    1    2    0    0 -0.64757321935E+02 -0.28505733901E+03 -0.21050458631E+03  0.38129743667E+03  0.12499742830E+03 0.  0.
          5    1    3    3  502    0 -0.13324547257E+02 -0.23162609674E+03 -0.11135716695E+03  0.25739211504E+03  0.47000000000E+01 0. -1.
         -5    1    3    3    0  502 -0.51432774678E+02 -0.53431242268E+02 -0.99147419366E+02  0.12390532163E+03  0.47000000000E+01 0. -1.
        -11    1    1    2    0    0  0.65584025785E+02  0.98179714505E+02 -0.63704744125E+02  0.13415966310E+03  0.00000000000E+00 0. -1.
         11    1    1    2    0    0 -0.82670385033E+00  0.18687762451E+03 -0.63831760756E+02  0.19748018549E+03  0.00000000000E+00 0.  1.
<mgrwt>
<rscale>  0 0.31493505E+03</rscale>
<asrwt>0</asrwt>
<pdfrwt beam="2">  1        1 0.80844491E-01 0.31792382E+03</pdfrwt>
<pdfrwt beam="1">  1       -1 0.28838169E-01 0.31792382E+03</pdfrwt>
<totfact> 0.46317320E+02</totfact>
</mgrwt>
</event>
<event>
 7    1  0.8165933E-006  0.1412952E+03  0.7546771E-02  0.1222760E+00
         -2   -1    0    0    0  501 -0.00000000000E+00  0.00000000000E+00  0.47403010530E+02  0.47403010530E+02  0.00000000000E+00 0. -1.
          2   -1    0    0  501    0  0.00000000000E+00 -0.00000000000E+00 -0.38652325939E+03  0.38652325939E+03  0.00000000000E+00 0.  1.
         23    2    1    2    0    0  0.38947240749E+02  0.53128130999E+02 -0.26377594662E+03  0.29923582372E+03  0.12499936927E+03 0.  0.
          5    1    3    3  502    0 -0.27276110261E+02  0.67304059251E+02 -0.15059610815E+03  0.16725758689E+03  0.47000000000E+01 0.  1.
         -5    1    3    3    0  502  0.66223351010E+02 -0.14175928252E+02 -0.11317983847E+03  0.13197823683E+03  0.47000000000E+01 0.  1.
        -11    1    1    2    0    0  0.29349816403E+02 -0.21482371910E+02 -0.24868555199E+02  0.44060742883E+02  0.00000000000E+00 0.  1.
         11    1    1    2    0    0 -0.68297057152E+02 -0.31645759089E+02 -0.50475747045E+02  0.90629703319E+02  0.00000000000E+00 0. -1.
<mgrwt>
<rscale>  0 0.13321587E+03</rscale>
<asrwt>0</asrwt>
<pdfrwt beam="2">  1        2 0.59465115E-01 0.14129518E+03</pdfrwt>
<pdfrwt beam="1">  1       -2 0.72927711E-02 0.14129518E+03</pdfrwt>
<totfact> 0.86453986E+03</totfact>
</mgrwt>
</event>
<event>
 7    1  0.8165933E-006  0.1781860E+03  0.7546771E-02  0.1174877E+00
          2   -1    0    0  501    0  0.00000000000E+00  0.00000000000E+00  0.41734350009E+03  0.41734350009E+03  0.00000000000E+00 0. -1.
         -2   -1    0    0    0  501 -0.00000000000E+00 -0.00000000000E+00 -0.77472898767E+02  0.77472898767E+02  0.00000000000E+00 0.  1.
         23    2    1    2    0    0 -0.12327288474E+03  0.30468925161E+02  0.26681497178E+03  0.32084340491E+03  0.12500280715E+03 0.  0.
          5    1    3    3  502    0  0.23675311907E+02  0.90883502643E+01  0.19498300690E+02  0.32332525949E+02  0.47000000000E+01 0. -1.
         -5    1    3    3    0  502 -0.14694819664E+03  0.21380574897E+02  0.24731667109E+03  0.28851087896E+03  0.47000000000E+01 0. -1.
        -11    1    1    2    0    0  0.11273225488E+03 -0.51516250097E+02  0.82193787286E+02  0.14872223769E+03  0.00000000000E+00 0. -1.
         11    1    1    2    0    0  0.10540629859E+02  0.21047324936E+02 -0.91381577444E+01  0.25250756260E+02  0.00000000000E+00 0.  1.
<mgrwt>
<rscale>  0 0.17287985E+03</rscale>
<asrwt>0</asrwt>
<pdfrwt beam="1">  1        2 0.64206691E-01 0.17818603E+03</pdfrwt>
<pdfrwt beam="2">  1       -2 0.11918908E-01 0.17818603E+03</pdfrwt>
<totfact> 0.37296670E+03</totfact>
</mgrwt>
</event>
<event>
 7    1  0.8165933E-006  0.1345182E+03  0.7546771E-02  0.1233384E+00
          2   -1    0    0  501    0  0.00000000000E+00  0.00000000000E+00  0.15467906473E+04  0.15467906473E+04  0.00000000000E+00 0. -1.
         -2   -1    0    0    0  501 -0.00000000000E+00 -0.00000000000E+00 -0.10157468319E+02  0.10157468319E+02  0.00000000000E+00 0.  1.
         23    2    1    2    0    0 -0.35232456562E+02  0.35046962071E+02  0.10972416271E+04  0.11054566139E+04  0.12500208579E+03 0.  0.
          5    1    3    3  502    0 -0.27805222471E+02 -0.82661311581E+01  0.55689321403E+02  0.62967053602E+02  0.47000000000E+01 0.  1.
         -5    1    3    3    0  502 -0.74272340912E+01  0.43313093229E+02  0.10415523057E+04  0.10424895603E+04  0.47000000000E+01 0.  1.
        -11    1    1    2    0    0  0.36298371781E+02  0.24776682400E+02  0.19256007013E+03  0.19751161079E+03  0.00000000000E+00 0.  1.
         11    1    1    2    0    0 -0.10659152193E+01 -0.59823644471E+02  0.24683148180E+03  0.25397989098E+03  0.00000000000E+00 0. -1.
<mgrwt>
<rscale>  0 0.12608437E+03</rscale>
<asrwt>0</asrwt>
<pdfrwt beam="1">  1        2 0.23796761E+00 0.13451817E+03</pdfrwt>
<pdfrwt beam="2">  1       -2 0.15626887E-02 0.13451817E+03</pdfrwt>
<totfact> 0.13886501E+04</totfact>
</mgrwt>
</event>
<event>
 7    1  0.8165933E-006  0.1252943E+03  0.7546771E-02  0.1247071E+00
         -1   -1    0    0    0  501 -0.00000000000E+00  0.00000000000E+00  0.41322343677E+03  0.41322343677E+03  0.00000000000E+00 0.  1.
          1   -1    0    0  501    0  0.00000000000E+00 -0.00000000000E+00 -0.36351624338E+02  0.36351624338E+02  0.00000000000E+00 0. -1.
         23    2    1    2    0    0 -0.90824281552E+01 -0.37844490904E+02  0.11447799800E+03  0.16971701862E+03  0.11909642475E+03 0.  0.
          5    1    3    3  502    0 -0.58526235898E+02  0.47375386099E+01  0.43776734437E+02  0.73391123703E+02  0.47000000000E+01 0. -1.
         -5    1    3    3    0  502  0.49443807743E+02 -0.42582029514E+02  0.70701263560E+02  0.96325894912E+02  0.47000000000E+01 0.  1.
        -11    1    1    2    0    0 -0.20758417950E+02  0.52085811306E+02  0.10504493119E+03  0.11907258805E+03  0.00000000000E+00 0. -1.
         11    1    1    2    0    0  0.29840846105E+02 -0.14241320402E+02  0.15734888324E+03  0.16078545444E+03  0.00000000000E+00 0.  1.
<mgrwt>
<rscale>  0 0.11762299E+03</rscale>
<asrwt>0</asrwt>
<pdfrwt beam="2">  1        1 0.55925579E-02 0.12529427E+03</pdfrwt>
<pdfrwt beam="1">  1       -1 0.63572833E-01 0.12529427E+03</pdfrwt>
<totfact> 0.35355167E+03</totfact>
</mgrwt>
</event>
<event>
 6    1  0.8165933E-006  0.1373148E+03  0.7546771E-02  0.1233240E+00
          1   -1    0    0  501    0  0.00000000000E+00  0.00000000000E+00  0.77134273420E+02  0.77134273420E+02  0.00000000000E+00 0. -1.
         -1   -1    0    0    0  501 -0.00000000000E+00 -0.00000000000E+00 -0.32206567243E+03  0.32206567243E+03  0.00000000000E+00 0.  1.
          5    1    1    2  502    0 -0.13022153126E+02 -0.67078710042E+02  0.44110145453E+00  0.68493900338E+02  0.47000000000E+01 0. -1.
         -5    1    1    2    0  502  0.48108977352E+02  0.48945404034E+02 -0.24907921392E+01  0.68836184695E+02  0.47000000000E+01 0.  1.
        -11    1    1    2    0    0 -0.38220080714E+02  0.51330585208E+02 -0.14599254026E+03  0.15940334175E+03  0.00000000000E+00 0.  1.
         11    1    1    2    0    0  0.31332564884E+01 -0.33197279200E+02 -0.96889168066E+02  0.10246651907E+03  0.00000000000E+00 0. -1.
<mgrwt>
<rscale>  0 0.12617782E+03</rscale>
<asrwt>0</asrwt>
<pdfrwt beam="1">  1        1 0.11866811E-01 0.13731479E+03</pdfrwt>
<pdfrwt beam="2">  1       -1 0.49548565E-01 0.13731479E+03</pdfrwt>
<totfact> 0.20696943E+03</totfact>
</mgrwt>
</event>
<event>
 7    1  0.8165933E-006  0.1307680E+03  0.7546771E-02  0.1240057E+00
          2   -1    0    0  501    0  0.00000000000E+00  0.00000000000E+00  0.52047020134E+02  0.52047020134E+02  0.00000000000E+00 0.  1.
         -2   -1    0    0    0  501 -0.00000000000E+00 -0.00000000000E+00 -0.26415852869E+03  0.26415852869E+03  0.00000000000E+00 0. -1.
         23    2    1    2    0    0  0.37986969811E+02 -0.56213381339E+01 -0.87727165061E+02  0.15746847305E+03  0.12500262076E+03 0.  0.
          5    1    3    3  502    0  0.83944746445E+02 -0.27867514537E+01 -0.62118541351E+02  0.10457193514E+03  0.47000000000E+01 0.  1.
         -5    1    3    3    0  502 -0.45957776634E+02 -0.28345866802E+01 -0.25608623710E+02  0.52896537912E+02  0.47000000000E+01 0.  1.
        -11    1    1    2    0    0 -0.10815710602E+02  0.20080958434E+02  0.69503722486E+01  0.23843912470E+02  0.00000000000E+00 0.  1.
         11    1    1    2    0    0 -0.27171259209E+02 -0.14459620301E+02 -0.13133471575E+03  0.13489316330E+03  0.00000000000E+00 0. -1.
<mgrwt>
<rscale>  0 0.12186186E+03</rscale>
<asrwt>0</asrwt>
<pdfrwt beam="1">  1        2 0.80072340E-02 0.13076798E+03</pdfrwt>
<pdfrwt beam="2">  1       -2 0.40639773E-01 0.13076798E+03</pdfrwt>
<totfact> 0.46564246E+03</totfact>
</mgrwt>
</event>
<event>
 7    1  0.8165933E-006  0.1278679E+03  0.7546771E-02  0.1236739E+00
         -1   -1    0    0    0  501 -0.00000000000E+00  0.00000000000E+00  0.14757478367E+02  0.14757478367E+02  0.00000000000E+00 0.  1.
          1   -1    0    0  501    0  0.00000000000E+00 -0.00000000000E+00 -0.10746276228E+04  0.10746276228E+04  0.00000000000E+00 0. -1.
         23    2    1    2    0    0  0.24531023301E+02  0.11120152758E+02 -0.72003448799E+03  0.73130011363E+03  0.12499905355E+03 0.  0.
          5    1    3    3  502    0  0.18864658926E+02  0.67182364182E+02 -0.34393646009E+03  0.35097538944E+03  0.47000000000E+01 0.  1.
         -5    1    3    3    0  502  0.56663643753E+01 -0.56062211424E+02 -0.37609802790E+03  0.38032472418E+03  0.47000000000E+01 0.  1.
        -11    1    1    2    0    0  0.24176490598E+02  0.29231541566E+02 -0.58468848770E+02  0.69696427430E+02  0.00000000000E+00 0.  1.
         11    1    1    2    0    0 -0.48707513899E+02 -0.40351694323E+02 -0.28136680771E+03  0.28838856015E+03  0.00000000000E+00 0. -1.
<mgrwt>
<rscale>  0 0.12393749E+03</rscale>
<asrwt>0</asrwt>
<pdfrwt beam="2">  1        1 0.16532743E+00 0.12786787E+03</pdfrwt>
<pdfrwt beam="1">  1       -1 0.22703799E-02 0.12786787E+03</pdfrwt>
<totfact> 0.77492919E+03</totfact>
</mgrwt>
</event>
<event>
 7    1  0.8165933E-006  0.1761411E+03  0.7546771E-02  0.1177546E+00
         -1   -1    0    0    0  501 -0.00000000000E+00  0.00000000000E+00  0.11368289664E+03  0.11368289664E+03  0.00000000000E+00 0.  1.
          1   -1    0    0  501    0  0.00000000000E+00 -0.00000000000E+00 -0.29109336074E+03  0.29109336074E+03  0.00000000000E+00 0. -1.
         23    2    1    2    0    0 -0.54279666143E+02 -0.11159915499E+03 -0.17866631910E+03  0.25089306458E+03  0.12500009090E+03 0.  0.
          5    1    3    3  502    0  0.11531831492E+02  0.50408297927E+01  0.11885853684E+02  0.17937575654E+02  0.47000000000E+01 0. -1.
         -5    1    3    3    0  502 -0.65811497635E+02 -0.11663998478E+03 -0.19055217278E+03  0.23295548893E+03  0.47000000000E+01 0. -1.
        -11    1    1    2    0    0  0.42509485263E+02  0.12463073869E+03  0.13654492097E+02  0.13238701794E+03  0.00000000000E+00 0.  1.
         11    1    1    2    0    0  0.11770180881E+02 -0.13031583705E+02 -0.12398637104E+02  0.21496174866E+02  0.00000000000E+00 0. -1.
<mgrwt>
<rscale>  0 0.17029020E+03</rscale>
<asrwt>0</asrwt>
<pdfrwt beam="2">  1        1 0.44783593E-01 0.17614107E+03</pdfrwt>
<pdfrwt beam="1">  1       -1 0.17489677E-01 0.17614107E+03</pdfrwt>
<totfact> 0.22490749E+03</totfact>
</mgrwt>
</event>
<event>
 7    1  0.8165933E-006  0.1424192E+03  0.7546771E-02  0.1221417E+00
         -3   -1    0    0    0  501 -0.00000000000E+00  0.00000000000E+00  0.18984064326E+02  0.18984064326E+02  0.00000000000E+00 0.  1.
          3   -1    0    0  501    0  0.00000000000E+00 -0.00000000000E+00 -0.88251905109E+03  0.88251905109E+03  0.00000000000E+00 0. -1.
         23    2    1    2    0    0  0.67221186070E+02 -0.11835494260E+02 -0.56290159465E+03  0.58063880641E+03  0.12499780584E+03 0.  0.
          5    1    3    3  502    0  0.68024353430E+02 -0.46752585204E+02 -0.51257782133E+03  0.51920249403E+03  0.47000000000E+01 0. -1.
         -5    1    3    3    0  502 -0.80316736066E+00  0.34917090945E+02 -0.50323773317E+02  0.61436312379E+02  0.47000000000E+01 0. -1.
        -11    1    1    2    0    0 -0.31764410978E+02 -0.38615255784E+02 -0.12021173909E+03  0.13019592159E+03  0.00000000000E+00 0.  1.
         11    1    1    2    0    0 -0.35456775091E+02  0.50450750044E+02 -0.18042165303E+03  0.19066838742E+03  0.00000000000E+00 0. -1.
<mgrwt>
<rscale>  0 0.13415542E+03</rscale>
<asrwt>0</asrwt>
<pdfrwt beam="2">  1        3 0.13577215E+00 0.14241916E+03</pdfrwt>
<pdfrwt beam="1">  1       -3 0.29206255E-02 0.14241916E+03</pdfrwt>
<totfact> 0.54696077E+02</totfact>
</mgrwt>
</event>
<event>
 7    1  0.8165933E-006  0.1546935E+03  0.7546771E-02  0.1203095E+00
          1   -1    0    0  501    0  0.00000000000E+00  0.00000000000E+00  0.79949702934E+03  0.79949702934E+03  0.00000000000E+00 0. -1.
         -1   -1    0    0    0  501 -0.00000000000E+00 -0.00000000000E+00 -0.32018534171E+02  0.32018534171E+02  0.00000000000E+00 0.  1.
         23    2    1    2    0    0 -0.76944220412E+02  0.48837107435E+02  0.60205496841E+03  0.62161101683E+03  0.12499838056E+03 0.  0.
          5    1    3    3  502    0 -0.61903987808E+02 -0.20899263186E+02  0.43493798835E+03  0.43984318412E+03  0.47000000000E+01 0. -1.
         -5    1    3    3    0  502 -0.15040232603E+02  0.69736370621E+02  0.16711698006E+03  0.18176783271E+03  0.47000000000E+01 0. -1.
        -11    1    1    2    0    0 -0.12628195693E+02  0.14172169594E+02  0.17224658482E+02  0.25632217565E+02  0.00000000000E+00 0.  1.
         11    1    1    2    0    0  0.89572416105E+02 -0.63009277029E+02  0.14819886827E+03  0.18427232911E+03  0.00000000000E+00 0. -1.
<mgrwt>
<rscale>  0 0.14788605E+03</rscale>
<asrwt>0</asrwt>
<pdfrwt beam="1">  1        1 0.12299953E+00 0.15469348E+03</pdfrwt>
<pdfrwt beam="2">  1       -1 0.49259289E-02 0.15469348E+03</pdfrwt>
<totfact> 0.40692970E+03</totfact>
</mgrwt>
</event>
<event>
 6    1  0.8165933E-006  0.1430912E+03  0.7546771E-02  0.1223963E+00
         -2   -1    0    0    0  501 -0.00000000000E+00  0.00000000000E+00  0.12605001297E+03  0.12605001297E+03  0.00000000000E+00 0.  1.
          2   -1    0    0  501    0  0.00000000000E+00 -0.00000000000E+00 -0.31823117656E+03  0.31823117656E+03  0.00000000000E+00 0. -1.
          5    1    1    2  502    0 -0.38902486749E+02 -0.34646595768E+02 -0.19575448879E+03  0.20262206186E+03  0.47000000000E+01 0. -1.
         -5    1    1    2    0  502  0.23416231861E-01  0.72405933504E+02 -0.79699422202E+02  0.10778083157E+03  0.47000000000E+01 0.  1.
        -11    1    1    2    0    0  0.29734323526E+02 -0.45416435876E+02  0.99734001798E+02  0.11355022571E+03  0.00000000000E+00 0.  1.
         11    1    1    2    0    0  0.91447469913E+01  0.76570981404E+01 -0.16461254393E+02  0.20328070387E+02  0.00000000000E+00 0. -1.
<mgrwt>
<rscale>  0 0.13238225E+03</rscale>
<asrwt>0</asrwt>
<pdfrwt beam="2">  1        2 0.48958642E-01 0.14309123E+03</pdfrwt>
<pdfrwt beam="1">  1       -2 0.19392310E-01 0.14309123E+03</pdfrwt>
<totfact> 0.22207334E+03</totfact>
</mgrwt>
</event>
<event>
 7    1  0.8165933E-006  0.1713079E+03  0.7546771E-02  0.1182996E+00
          4   -1    0    0  501    0  0.00000000000E+00  0.00000000000E+00  0.53977710586E+02  0.53977710586E+02  0.00000000000E+00 0. -1.
         -4   -1    0    0    0  501 -0.00000000000E+00 -0.00000000000E+00 -0.66778959054E+03  0.66778959054E+03  0.00000000000E+00 0.  1.
         23    2    1    2    0    0  0.11525826301E+03 -0.20917624732E+02 -0.12781160666E+03  0.21373394567E+03  0.12499751405E+03 0.  0.
          5    1    3    3  502    0  0.13571717725E+03 -0.28288193100E+02 -0.77905930654E+02  0.15909367712E+03  0.47000000000E+01 0. -1.
         -5    1    3    3    0  502 -0.20458914236E+02  0.73705683677E+01 -0.49905676005E+02  0.54640268551E+02  0.47000000000E+01 0. -1.
        -11    1    1    2    0    0 -0.69881471950E+02 -0.30180982308E+02 -0.31057168354E+03  0.31976410435E+03  0.00000000000E+00 0.  1.
         11    1    1    2    0    0 -0.45376791059E+02  0.51098607040E+02 -0.17542858976E+03  0.18826925111E+03  0.00000000000E+00 0. -1.
<mgrwt>
<rscale>  0 0.16515532E+03</rscale>
<asrwt>0</asrwt>
<pdfrwt beam="1">  1        4 0.83042629E-02 0.17130789E+03</pdfrwt>
<pdfrwt beam="2">  1       -4 0.10273686E+00 0.17130789E+03</pdfrwt>
<totfact> 0.14481395E+02</totfact>
</mgrwt>
</event>
<event>
 7    1  0.8165933E-006  0.1487654E+03  0.7546771E-02  0.1210978E+00
         -2   -1    0    0    0  501 -0.00000000000E+00  0.00000000000E+00  0.95881458517E+02  0.95881458517E+02  0.00000000000E+00 0. -1.
          2   -1    0    0  501    0  0.00000000000E+00 -0.00000000000E+00 -0.19219017833E+03  0.19219017833E+03  0.00000000000E+00 0.  1.
         23    2    1    2    0    0 -0.42633251257E+02  0.68504867930E+02 -0.49703619826E+02  0.15684899746E+03  0.12498258733E+03 0.  0.
          5    1    3    3  502    0 -0.66080052804E+02 -0.83477220095E+01 -0.11494635649E+02  0.67753040449E+02  0.47000000000E+01 0. -1.
         -5    1    3    3    0  502  0.23446801547E+02  0.76852589939E+02 -0.38208984177E+02  0.89095957007E+02  0.47000000000E+01 0. -1.
        -11    1    1    2    0    0 -0.40465586590E+01 -0.63760125947E+02 -0.54088134799E+02  0.83709346096E+02  0.00000000000E+00 0.  1.
         11    1    1    2    0    0  0.46679809916E+02 -0.47447419828E+01  0.74830348081E+01  0.47513293300E+02  0.00000000000E+00 0. -1.
<mgrwt>
<rscale>  0 0.14176174E+03</rscale>
<asrwt>0</asrwt>
<pdfrwt beam="2">  1        2 0.29567719E-01 0.14876545E+03</pdfrwt>
<pdfrwt beam="1">  1       -2 0.14750994E-01 0.14876545E+03</pdfrwt>
<totfact> 0.60104301E+03</totfact>
</mgrwt>
</event>
<event>
 7    1  0.8165933E-006  0.1739496E+03  0.7546771E-02  0.1181212E+00
         -2   -1    0    0    0  501 -0.00000000000E+00  0.00000000000E+00  0.36654839557E+03  0.36654839557E+03  0.00000000000E+00 0.  1.
          2   -1    0    0  501    0  0.00000000000E+00 -0.00000000000E+00 -0.28111036420E+03  0.28111036420E+03  0.00000000000E+00 0. -1.
         23    2    1    2    0    0 -0.35960558681E+02 -0.11550020227E+03 -0.23656826967E+03  0.29363754519E+03  0.12500001290E+03 0.  0.
          5    1    3    3  502    0  0.40645614944E+02 -0.50189715372E+02 -0.13911572441E+03  0.15344819426E+03  0.47000000000E+01 0. -1.
         -5    1    3    3    0  502 -0.76606173625E+02 -0.65310486902E+02 -0.97452545264E+02  0.14018935093E+03  0.47000000000E+01 0. -1.
        -11    1    1    2    0    0  0.10698542767E+02  0.54158915120E+02  0.25037700715E+03  0.25639089807E+03  0.00000000000E+00 0.  1.
         11    1    1    2    0    0  0.25262015914E+02  0.61341287154E+02  0.71629293896E+02  0.97630316509E+02  0.00000000000E+00 0. -1.
<mgrwt>
<rscale>  0 0.16681387E+03</rscale>
<asrwt>0</asrwt>
<pdfrwt beam="2">  1        2 0.43247748E-01 0.17394960E+03</pdfrwt>
<pdfrwt beam="1">  1       -2 0.56392061E-01 0.17394960E+03</pdfrwt>
<totfact> 0.35547615E+02</totfact>
</mgrwt>
</event>
<event>
 7    1  0.8165933E-006  0.1324604E+03  0.7546771E-02  0.1240293E+00
         -1   -1    0    0    0  501 -0.00000000000E+00  0.00000000000E+00  0.19873108791E+03  0.19873108791E+03  0.00000000000E+00 0.  1.
          1   -1    0    0  501    0  0.00000000000E+00 -0.00000000000E+00 -0.10836871913E+03  0.10836871913E+03  0.00000000000E+00 0. -1.
         23    2    1    2    0    0 -0.40542223378E+02  0.16631909543E+02 -0.46876000015E+02  0.14051024456E+03  0.12500190862E+03 0.  0.
          5    1    3    3  502    0  0.26450079127E+02 -0.17717364459E+02  0.21498767130E+02  0.38701404074E+02  0.47000000000E+01 0.  1.
         -5    1    3    3    0  502 -0.66992302505E+02  0.34349274001E+02 -0.68374767145E+02  0.10180884049E+03  0.47000000000E+01 0.  1.
        -11    1    1    2    0    0 -0.11501692222E+01 -0.41670171141E+02  0.39537872193E+02  0.57454063300E+02  0.00000000000E+00 0.  1.
         11    1    1    2    0    0  0.41692392600E+02  0.25038261599E+02  0.97700496604E+02  0.10913549918E+03  0.00000000000E+00 0. -1.
<mgrwt>
<rscale>  0 0.12171563E+03</rscale>
<asrwt>0</asrwt>
<pdfrwt beam="2">  1        1 0.16672111E-01 0.13246044E+03</pdfrwt>
<pdfrwt beam="1">  1       -1 0.30574013E-01 0.13246044E+03</pdfrwt>
<totfact> 0.30882580E+03</totfact>
</mgrwt>
</event>
<event>
 7    1  0.8165933E-006  0.1293705E+03  0.7546771E-02  0.1243099E+00
          2   -1    0    0  501    0  0.00000000000E+00  0.00000000000E+00  0.97957910176E+02  0.97957910176E+02  0.00000000000E+00 0. -1.
         -2   -1    0    0    0  501 -0.00000000000E+00 -0.00000000000E+00 -0.14038091494E+03  0.14038091494E+03  0.00000000000E+00 0.  1.
         23    2    1    2    0    0  0.18661824078E+01  0.33294501344E+02  0.89223915899E+01  0.12967784648E+03  0.12499891335E+03 0.  0.
          5    1    3    3  502    0  0.58386421731E+02  0.41146513279E+02  0.10788089322E+02  0.72391178114E+02  0.47000000000E+01 0. -1.
         -5    1    3    3    0  502 -0.56520239323E+02 -0.78520119352E+01 -0.18656977323E+01  0.57286668367E+02  0.47000000000E+01 0. -1.
        -11    1    1    2    0    0 -0.21885508027E+02 -0.54425716238E+02 -0.53605417874E+02  0.79464928585E+02  0.00000000000E+00 0.  1.
         11    1    1    2    0    0  0.20019325619E+02  0.21131214894E+02  0.22600215218E+01  0.29196050048E+02  0.00000000000E+00 0. -1.
<mgrwt>
<rscale>  0 0.11999904E+03</rscale>
<asrwt>0</asrwt>
<pdfrwt beam="1">  1        2 0.15070448E-01 0.12937053E+03</pdfrwt>
<pdfrwt beam="2">  1       -2 0.21597064E-01 0.12937053E+03</pdfrwt>
<totfact> 0.67272946E+03</totfact>
</mgrwt>
</event>
<event>
 7    1  0.8165933E-006  0.1442600E+03  0.7546771E-02  0.1229777E+00
         -1   -1    0    0    0  501 -0.00000000000E+00  0.00000000000E+00  0.78174133896E+02  0.78174133896E+02  0.00000000000E+00 0.  1.
          1   -1    0    0  501    0  0.00000000000E+00 -0.00000000000E+00 -0.20670342112E+03  0.20670342112E+03  0.00000000000E+00 0. -1.
         23    2    1    2    0    0  0.50038555806E+02 -0.51793394839E+02 -0.13000092726E+03  0.19419370056E+03  0.12499815771E+03 0.  0.
          5    1    3    3  502    0  0.79312626614E+02 -0.39267659944E+02 -0.13513106181E+03  0.16160116250E+03  0.47000000000E+01 0.  1.
         -5    1    3    3    0  502 -0.29274070808E+02 -0.12525734895E+02  0.51301345466E+01  0.32592538054E+02  0.47000000000E+01 0.  1.
        -11    1    1    2    0    0 -0.11145086574E+02  0.33548203838E+02  0.23456184949E+02  0.42425081590E+02  0.00000000000E+00 0.  1.
         11    1    1    2    0    0 -0.38893469232E+02  0.18245191001E+02 -0.21984544909E+02  0.48258772864E+02  0.00000000000E+00 0. -1.
<mgrwt>
<rscale>  0 0.12844810E+03</rscale>
<asrwt>0</asrwt>
<pdfrwt beam="2">  1        1 0.31800526E-01 0.14426002E+03</pdfrwt>
<pdfrwt beam="1">  1       -1 0.12026790E-01 0.14426002E+03</pdfrwt>
<totfact> 0.61384339E+03</totfact>
</mgrwt>
</event>
<event>
 7    1  0.8165933E-006  0.1515927E+03  0.7546771E-02  0.1209380E+00
          4   -1    0    0  501    0  0.00000000000E+00  0.00000000000E+00  0.15362239193E+03  0.15362239193E+03  0.00000000000E+00 0. -1.
         -4   -1    0    0    0  501 -0.00000000000E+00 -0.00000000000E+00 -0.13551395434E+03  0.13551395434E+03  0.00000000000E+00 0.  1.
         23    2    1    2    0    0  0.64090147225E+02 -0.56981157775E+02  0.58611005832E+02  0.16252872536E+03  0.12500374895E+03 0.  0.
          5    1    3    3  502    0 -0.10352443579E+02 -0.60868090263E+02  0.62178370216E+02  0.87751565360E+02  0.47000000000E+01 0.  1.
         -5    1    3    3    0  502  0.74442590804E+02  0.38869324876E+01 -0.35673643844E+01  0.74777160005E+02  0.47000000000E+01 0.  1.
        -11    1    1    2    0    0  0.10162982153E+02  0.97499279359E+01 -0.35811015922E+02  0.38480854491E+02  0.00000000000E+00 0.  1.
         11    1    1    2    0    0 -0.74253129378E+02  0.47231229839E+02 -0.46915523201E+01  0.88126766409E+02  0.00000000000E+00 0. -1.
<mgrwt>
<rscale>  0 0.14297582E+03</rscale>
<asrwt>0</asrwt>
<pdfrwt beam="1">  1        4 0.23634214E-01 0.15159267E+03</pdfrwt>
<pdfrwt beam="2">  1       -4 0.20848301E-01 0.15159267E+03</pdfrwt>
<totfact> 0.58883812E+02</totfact>
</mgrwt>
</event>
<event>
 7    1  0.8165933E-006  0.2194266E+03  0.7546771E-02  0.1137107E+00
          1   -1    0    0  501    0  0.00000000000E+00  0.00000000000E+00  0.19478502701E+04  0.19478502701E+04  0.00000000000E+00 0. -1.
         -1   -1    0    0    0  501 -0.00000000000E+00 -0.00000000000E+00 -0.25373812953E+02  0.25373812953E+02  0.00000000000E+00 0.  1.
         23    2    1    2    0    0  0.61537129648E+02 -0.16952300886E+03  0.12847918566E+04  0.13033948589E+04  0.12499269761E+03 0.  0.
          5    1    3    3  502    0  0.58632826870E+02 -0.12652160830E+03  0.55336405394E+03  0.57068326762E+03  0.47000000000E+01 0. -1.
         -5    1    3    3    0  502  0.29043027780E+01 -0.43001400564E+02  0.73142780269E+03  0.73271159126E+03  0.47000000000E+01 0. -1.
        -11    1    1    2    0    0  0.21771658569E+02  0.33888864117E+02  0.20202560991E+03  0.20600195942E+03  0.00000000000E+00 0. -1.
         11    1    1    2    0    0 -0.83308788217E+02  0.13563414475E+03  0.43565899057E+03  0.46382726470E+03  0.00000000000E+00 0.  1.
<mgrwt>
<rscale>  0 0.21573039E+03</rscale>
<asrwt>0</asrwt>
<pdfrwt beam="1">  1        1 0.29966916E+00 0.21942662E+03</pdfrwt>
<pdfrwt beam="2">  1       -1 0.39036651E-02 0.21942662E+03</pdfrwt>
<totfact> 0.93479196E+02</totfact>
</mgrwt>
</event>
<event>
 7    1  0.8165933E-006  0.2803954E+03  0.7546771E-02  0.1097325E+00
         -1   -1    0    0    0  501 -0.00000000000E+00  0.00000000000E+00  0.19405908188E+03  0.19405908188E+03  0.00000000000E+00 0.  1.
          1   -1    0    0  501    0  0.00000000000E+00 -0.00000000000E+00 -0.42070512179E+03  0.42070512179E+03  0.00000000000E+00 0. -1.
         23    2    1    2    0    0 -0.19545926517E+03 -0.15745362825E+03 -0.20380137145E+03  0.34663607887E+03  0.12500241109E+03 0.  0.
          5    1    3    3  502    0 -0.41498535641E+02 -0.11442281244E+01  0.69750047170E+01  0.42357743202E+02  0.47000000000E+01 0. -1.
         -5    1    3    3    0  502 -0.15396072953E+03 -0.15630940013E+03 -0.21077637617E+03  0.30427833567E+03  0.47000000000E+01 0. -1.
        -11    1    1    2    0    0  0.97325323789E+02  0.63399745256E+02  0.33646060627E+02  0.12092892022E+03  0.00000000000E+00 0.  1.
         11    1    1    2    0    0  0.98133941378E+02  0.94053882995E+02 -0.56490729079E+02  0.14719920458E+03  0.00000000000E+00 0. -1.
<mgrwt>
<rscale>  0 0.27702453E+03</rscale>
<asrwt>0</asrwt>
<pdfrwt beam="2">  1        1 0.64723864E-01 0.28039539E+03</pdfrwt>
<pdfrwt beam="1">  1       -1 0.29855244E-01 0.28039539E+03</pdfrwt>
<totfact> 0.58706513E+02</totfact>
</mgrwt>
</event>
<event>
 6    1  0.8165933E-006  0.4150640E+03  0.7546771E-02  0.1077998E+00
          1   -1    0    0  501    0  0.00000000000E+00  0.00000000000E+00  0.74877488378E+03  0.74877488378E+03  0.00000000000E+00 0. -1.
         -1   -1    0    0    0  501 -0.00000000000E+00 -0.00000000000E+00 -0.10516997989E+03  0.10516997989E+03  0.00000000000E+00 0.  1.
          5    1    1    2  502    0 -0.10070139235E+03 -0.15954887169E+02  0.53965976190E+03  0.54922679965E+03  0.47000000000E+01 0. -1.
         -5    1    1    2    0  502  0.10247654448E+03 -0.86663995678E+02  0.34607842878E+01  0.13433598678E+03  0.47000000000E+01 0.  1.
        -11    1    1    2    0    0 -0.29763466414E+02  0.10412334837E+03  0.88675019473E+02  0.13996712002E+03  0.00000000000E+00 0.  1.
         11    1    1    2    0    0  0.27988314284E+02 -0.15044655267E+01  0.11809338233E+02  0.30414957217E+02  0.00000000000E+00 0. -1.
<mgrwt>
<rscale>  0 0.31494782E+03</rscale>
<asrwt>0</asrwt>
<pdfrwt beam="1">  1        1 0.11519613E+00 0.41506404E+03</pdfrwt>
<pdfrwt beam="2">  1       -1 0.16179997E-01 0.41506404E+03</pdfrwt>
<totfact> 0.72412447E+02</totfact>
</mgrwt>
</event>
<event>
 7    1  0.8165933E-006  0.1553708E+03  0.7546771E-02  0.1203214E+00
          2   -1    0    0  501    0  0.00000000000E+00  0.00000000000E+00  0.96396114108E+03  0.96396114108E+03  0.00000000000E+00 0.  1.
         -2   -1    0    0    0  501 -0.00000000000E+00 -0.00000000000E+00 -0.35546630834E+02  0.35546630834E+02  0.00000000000E+00 0. -1.
         23    2    1    2    0    0  0.54218676010E+02  0.74661958573E+02  0.81312601558E+03  0.82783693472E+03  0.12500400149E+03 0.  0.
          5    1    3    3  502    0 -0.30821514181E+02  0.41239506318E+02  0.46588147805E+03  0.46874119107E+03  0.47000000000E+01 0.  1.
         -5    1    3    3    0  502  0.85040190191E+02  0.33422452255E+02  0.34724453753E+03  0.35909574365E+03  0.47000000000E+01 0.  1.
        -11    1    1    2    0    0 -0.48111385841E+02  0.31565257879E+01  0.34169401299E+02  0.59094983609E+02  0.00000000000E+00 0.  1.
         11    1    1    2    0    0 -0.61072901692E+01 -0.77818484361E+02  0.81119093369E+02  0.11257585359E+03  0.00000000000E+00 0. -1.
<mgrwt>
<rscale>  0 0.14779080E+03</rscale>
<asrwt>0</asrwt>
<pdfrwt beam="1">  1        2 0.14830169E+00 0.15537076E+03</pdfrwt>
<pdfrwt beam="2">  1       -2 0.54687132E-02 0.15537076E+03</pdfrwt>
<totfact> 0.46320761E+03</totfact>
</mgrwt>
</event>
<event>
 7    1  0.8165933E-006  0.1263795E+03  0.7546771E-02  0.1255572E+00
          2   -1    0    0  501    0  0.00000000000E+00  0.00000000000E+00  0.20579945002E+03  0.20579945002E+03  0.00000000000E+00 0. -1.
         -2   -1    0    0    0  501 -0.00000000000E+00 -0.00000000000E+00 -0.58100622052E+02  0.58100622052E+02  0.00000000000E+00 0.  1.
         23    2    1    2    0    0  0.54042510566E+01 -0.17824387455E+02  0.13120595610E+03  0.18217239019E+03  0.12499944845E+03 0.  0.
          5    1    3    3  502    0 -0.14414455817E+02  0.36282139314E+02  0.11586843841E+03  0.12235912385E+03  0.47000000000E+01 0. -1.
         -5    1    3    3    0  502  0.19818706873E+02 -0.54106526769E+02  0.15337517688E+02  0.59813266338E+02  0.47000000000E+01 0. -1.
        -11    1    1    2    0    0  0.22352638271E+02  0.34557752103E+02  0.25083133842E+02  0.48197948830E+02  0.00000000000E+00 0. -1.
         11    1    1    2    0    0 -0.27756889327E+02 -0.16733364648E+02 -0.85902619772E+01  0.33529733050E+02  0.00000000000E+00 0.  1.
<mgrwt>
<rscale>  0 0.11274380E+03</rscale>
<asrwt>0</asrwt>
<pdfrwt beam="1">  1        2 0.31661453E-01 0.12637950E+03</pdfrwt>
<pdfrwt beam="2">  1       -2 0.89385573E-02 0.12637950E+03</pdfrwt>
<totfact> 0.12242522E+04</totfact>
</mgrwt>
</event>
<event>
 7    1  0.8165933E-006  0.1361510E+03  0.7546771E-02  0.1231455E+00
          1   -1    0    0  501    0  0.00000000000E+00  0.00000000000E+00  0.17193785953E+03  0.17193785953E+03  0.00000000000E+00 0. -1.
         -1   -1    0    0    0  501 -0.00000000000E+00 -0.00000000000E+00 -0.84710136340E+02  0.84710136340E+02  0.00000000000E+00 0.  1.
         23    2    1    2    0    0 -0.35652965360E+02  0.39106503221E+02  0.37614230126E+02  0.14125130615E+03  0.12544579964E+03 0.  0.
          5    1    3    3  502    0 -0.65001362884E+02  0.35295333209E+02 -0.19601771143E+02  0.76663271226E+02  0.47000000000E+01 0. -1.
         -5    1    3    3    0  502  0.29348397523E+02  0.38111700117E+01  0.57216001269E+02  0.64588034924E+02  0.47000000000E+01 0.  1.
        -11    1    1    2    0    0  0.30550272800E+02 -0.73030315399E+01 -0.20999644500E+02  0.37784103893E+02  0.00000000000E+00 0.  1.
         11    1    1    2    0    0  0.51026925599E+01 -0.31803471681E+02  0.70613137562E+02  0.77612585826E+02  0.00000000000E+00 0. -1.
<mgrwt>
<rscale>  0 0.12734119E+03</rscale>
<asrwt>0</asrwt>
<pdfrwt beam="1">  1        1 0.26451978E-01 0.13615102E+03</pdfrwt>
<pdfrwt beam="2">  1       -1 0.13032329E-01 0.13615102E+03</pdfrwt>
<totfact> 0.67942555E+03</totfact>
</mgrwt>
</event>
<event>
 7    1  0.8165933E-006  0.1613029E+03  0.7546771E-02  0.1195283E+00
         -1   -1    0    0    0  501 -0.00000000000E+00  0.00000000000E+00  0.10183499432E+03  0.10183499432E+03  0.00000000000E+00 0.  1.
          1   -1    0    0  501    0  0.00000000000E+00 -0.00000000000E+00 -0.27085278883E+03  0.27085278883E+03  0.00000000000E+00 0. -1.
         23    2    1    2    0    0 -0.68803327107E+02 -0.75229690025E+02 -0.17433276284E+03  0.23750906055E+03  0.12500095024E+03 0.  0.
          5    1    3    3  502    0 -0.42465562078E+02 -0.38256997911E+02 -0.18236533598E+03  0.19117041512E+03  0.47000000000E+01 0. -1.
         -5    1    3    3    0  502 -0.26337765029E+02 -0.36972692114E+02  0.80325731344E+01  0.46338645427E+02  0.47000000000E+01 0. -1.
        -11    1    1    2    0    0  0.36315466532E+02  0.66998257019E+02  0.40738948974E+02  0.86413202212E+02  0.00000000000E+00 0.  1.
         11    1    1    2    0    0  0.32487860575E+02  0.82314330059E+01 -0.35423980643E+02  0.48765520388E+02  0.00000000000E+00 0. -1.
<mgrwt>
<rscale>  0 0.15430316E+03</rscale>
<asrwt>0</asrwt>
<pdfrwt beam="2">  1        1 0.41669659E-01 0.16130295E+03</pdfrwt>
<pdfrwt beam="1">  1       -1 0.15666922E-01 0.16130295E+03</pdfrwt>
<totfact> 0.29205312E+03</totfact>
</mgrwt>
</event>
<event>
 7    1  0.8165933E-006  0.1429524E+03  0.7546771E-02  0.1219683E+00
          2   -1    0    0  501    0  0.00000000000E+00  0.00000000000E+00  0.65007345880E+03  0.65007345880E+03  0.00000000000E+00 0.  1.
         -2   -1    0    0    0  501 -0.00000000000E+00 -0.00000000000E+00 -0.33535358070E+02  0.33535358070E+02  0.00000000000E+00 0. -1.
         23    2    1    2    0    0  0.54603152185E+02  0.42766844602E+02  0.49942661681E+03  0.51948275408E+03  0.12499951592E+03 0.  0.
          5    1    3    3  502    0  0.86583334104E+02  0.13821327233E+02  0.41896945774E+03  0.42807148860E+03  0.47000000000E+01 0.  1.
         -5    1    3    3    0  502 -0.31980181919E+02  0.28945517369E+02  0.80457159075E+02  0.91411265486E+02  0.47000000000E+01 0.  1.
        -11    1    1    2    0    0  0.18106198894E+02 -0.12763938819E+02  0.67711957061E+02  0.71243678328E+02  0.00000000000E+00 0.  1.
         11    1    1    2    0    0 -0.72709351079E+02 -0.30002905783E+02  0.49399526856E+02  0.92882384462E+02  0.00000000000E+00 0. -1.
<mgrwt>
<rscale>  0 0.13538071E+03</rscale>
<asrwt>0</asrwt>
<pdfrwt beam="1">  1        2 0.10001129E+00 0.14295239E+03</pdfrwt>
<pdfrwt beam="2">  1       -2 0.51592863E-02 0.14295239E+03</pdfrwt>
<totfact> 0.82420616E+03</totfact>
</mgrwt>
</event>
<event>
 7    1  0.8165933E-006  0.1317174E+03  0.7546771E-02  0.1238205E+00
          1   -1    0    0  501    0  0.00000000000E+00  0.00000000000E+00  0.35506419092E+03  0.35506419092E+03  0.00000000000E+00 0. -1.
         -1   -1    0    0    0  501 -0.00000000000E+00 -0.00000000000E+00 -0.40483620113E+02  0.40483620113E+02  0.00000000000E+00 0.  1.
         23    2    1    2    0    0  0.19073986741E+01  0.41479838531E+02  0.22706899102E+03  0.26250676931E+03  0.12500104830E+03 0.  0.
          5    1    3    3  502    0  0.21290817426E+02  0.34416770202E+02  0.23603594099E+03  0.23952634180E+03  0.47000000000E+01 0.  1.
         -5    1    3    3    0  502 -0.19383418752E+02  0.70630683294E+01 -0.89669499668E+01  0.22980427508E+02  0.47000000000E+01 0.  1.
        -11    1    1    2    0    0  0.27925281429E+02  0.65524610747E+01  0.67018959670E+02  0.72899225265E+02  0.00000000000E+00 0.  1.
         11    1    1    2    0    0 -0.29832680103E+02 -0.48032299606E+02  0.20492620110E+02  0.60141816455E+02  0.00000000000E+00 0. -1.
<mgrwt>
<rscale>  0 0.12301498E+03</rscale>
<asrwt>0</asrwt>
<pdfrwt beam="1">  1        1 0.54625258E-01 0.13171741E+03</pdfrwt>
<pdfrwt beam="2">  1       -1 0.62282495E-02 0.13171741E+03</pdfrwt>
<totfact> 0.84616431E+03</totfact>
</mgrwt>
</event>
<event>
 7    1  0.8165933E-006  0.1267629E+03  0.7546771E-02  0.1247090E+00
          1   -1    0    0  501    0  0.00000000000E+00  0.00000000000E+00  0.78934096507E+02  0.78934096507E+02  0.00000000000E+00 0. -1.
         -1   -1    0    0    0  501 -0.00000000000E+00 -0.00000000000E+00 -0.18831145501E+03  0.18831145501E+03  0.00000000000E+00 0.  1.
         23    2    1    2    0    0 -0.68011539664E+00  0.20779294920E+02 -0.50534257908E+01  0.12686358921E+03  0.12504635741E+03 0.  0.
          5    1    3    3  502    0 -0.18212201579E+02  0.32023182234E+02  0.53165774692E+02  0.64852587345E+02  0.47000000000E+01 0.  1.
         -5    1    3    3    0  502  0.17532086182E+02 -0.11243887315E+02 -0.58219200483E+02  0.62011001868E+02  0.47000000000E+01 0.  1.
        -11    1    1    2    0    0 -0.28990075950E+02  0.12882058391E+02 -0.59758527750E+01  0.32281306485E+02  0.00000000000E+00 0. -1.
         11    1    1    2    0    0  0.29670191347E+02 -0.33661353311E+02 -0.98348079938E+02  0.10810065582E+03  0.00000000000E+00 0.  1.
<mgrwt>
<rscale>  0 0.11761154E+03</rscale>
<asrwt>0</asrwt>
<pdfrwt beam="1">  1        1 0.12143707E-01 0.12676290E+03</pdfrwt>
<pdfrwt beam="2">  1       -1 0.28970993E-01 0.12676290E+03</pdfrwt>
<totfact> 0.50844807E+03</totfact>
</mgrwt>
</event>
<event>
 7    1  0.8165933E-006  0.1322995E+03  0.7546771E-02  0.1237171E+00
          2   -1    0    0  501    0  0.00000000000E+00  0.00000000000E+00  0.10127335922E+04  0.10127335922E+04  0.00000000000E+00 0. -1.
         -2   -1    0    0    0  501 -0.00000000000E+00 -0.00000000000E+00 -0.13527604347E+02  0.13527604347E+02  0.00000000000E+00 0.  1.
         23    2    1    2    0    0 -0.19144551053E+02  0.38866930529E+02  0.60809951048E+03  0.62232480739E+03  0.12500399644E+03 0.  0.
          5    1    3    3  502    0 -0.21652418541E+02  0.55266783040E+02  0.12038128676E+03  0.13430185679E+03  0.47000000000E+01 0.  1.
         -5    1    3    3    0  502  0.25078674883E+01 -0.16399852511E+02  0.48771822372E+03  0.48802295060E+03  0.47000000000E+01 0.  1.
        -11    1    1    2    0    0 -0.21512393588E+02 -0.53116016815E+02  0.20102249666E+03  0.20903142942E+03  0.00000000000E+00 0. -1.
         11    1    1    2    0    0  0.40656944641E+02  0.14249086287E+02  0.19008398076E+03  0.19490495979E+03  0.00000000000E+00 0.  1.
<mgrwt>
<rscale>  0 0.12366459E+03</rscale>
<asrwt>0</asrwt>
<pdfrwt beam="1">  1        2 0.15580511E+00 0.13229948E+03</pdfrwt>
<pdfrwt beam="2">  1       -2 0.20811707E-02 0.13229948E+03</pdfrwt>
<totfact> 0.17930919E+04</totfact>
</mgrwt>
</event>
<event>
 7    1  0.8165933E-006  0.1291641E+03  0.7546771E-02  0.1245511E+00
          4   -1    0    0  501    0  0.00000000000E+00  0.00000000000E+00  0.33119787207E+02  0.33119787207E+02  0.00000000000E+00 0. -1.
         -4   -1    0    0    0  501 -0.00000000000E+00 -0.00000000000E+00 -0.36813785736E+03  0.36813785736E+03  0.00000000000E+00 0.  1.
         23    2    1    2    0    0 -0.18118277454E+02 -0.27000799714E+02 -0.19320138144E+03  0.23240079073E+03  0.12500415424E+03 0.  0.
          5    1    3    3  502    0  0.36054240300E+01 -0.75523345637E+02 -0.11610983538E+03  0.13863750824E+03  0.47000000000E+01 0.  1.
         -5    1    3    3    0  502 -0.21723701484E+02  0.48522545923E+02 -0.77091546055E+02  0.93763282484E+02  0.47000000000E+01 0.  1.
        -11    1    1    2    0    0 -0.24043082636E+02 -0.14554810504E+02 -0.72176392810E+02  0.77455432414E+02  0.00000000000E+00 0.  1.
         11    1    1    2    0    0  0.42161360089E+02  0.41555610218E+02 -0.69640295904E+02  0.91401421426E+02  0.00000000000E+00 0. -1.
<mgrwt>
<rscale>  0 0.11854834E+03</rscale>
<asrwt>0</asrwt>
<pdfrwt beam="1">  1        4 0.50953518E-02 0.12916406E+03</pdfrwt>
<pdfrwt beam="2">  1       -4 0.56636594E-01 0.12916406E+03</pdfrwt>
<totfact> 0.11337146E+03</totfact>
</mgrwt>
</event>
<event>
 7    1  0.8165933E-006  0.1385100E+03  0.7546771E-02  0.1226774E+00
         -3   -1    0    0    0  501 -0.00000000000E+00  0.00000000000E+00  0.12127520742E+03  0.12127520742E+03  0.00000000000E+00 0.  1.
          3   -1    0    0  501    0  0.00000000000E+00 -0.00000000000E+00 -0.12710789326E+03  0.12710789326E+03  0.00000000000E+00 0. -1.
         23    2    1    2    0    0  0.34135944144E+02 -0.48936985220E+02 -0.13104533368E+02  0.13912851016E+03  0.12499968935E+03 0.  0.
          5    1    3    3  502    0  0.75718476360E+02 -0.27086904700E+01 -0.11279505132E+02  0.76745956913E+02  0.47000000000E+01 0. -1.
         -5    1    3    3    0  502 -0.41582532216E+02 -0.46228294750E+02 -0.18250282360E+01  0.62382553243E+02  0.47000000000E+01 0. -1.
        -11    1    1    2    0    0  0.13238987700E+02  0.56099040682E+02 -0.96473651079E+01  0.58441807075E+02  0.00000000000E+00 0. -1.
         11    1    1    2    0    0 -0.47374931844E+02 -0.71620554612E+01  0.16919212643E+02  0.50812783452E+02  0.00000000000E+00 0.  1.
<mgrwt>
<rscale>  0 0.13046069E+03</rscale>
<asrwt>0</asrwt>
<pdfrwt beam="2">  1        3 0.19555060E-01 0.13850998E+03</pdfrwt>
<pdfrwt beam="1">  1       -3 0.18657724E-01 0.13850998E+03</pdfrwt>
<totfact> 0.13675257E+03</totfact>
</mgrwt>
</event>
<event>
 7    1  0.8165933E-006  0.1315129E+03  0.7546771E-02  0.1238827E+00
          3   -1    0    0  501    0  0.00000000000E+00  0.00000000000E+00  0.44262649049E+02  0.44262649049E+02  0.00000000000E+00 0. -1.
         -3   -1    0    0    0  501 -0.00000000000E+00 -0.00000000000E+00 -0.33530316048E+03  0.33530316048E+03  0.00000000000E+00 0.  1.
         23    2    1    2    0    0 -0.23607412859E+02 -0.33368325548E+02 -0.10368185655E+03  0.16746812425E+03  0.12499956068E+03 0.  0.
          5    1    3    3  502    0  0.48264902499E+02 -0.27253823922E+02 -0.26150674159E+02  0.61467222896E+02  0.47000000000E+01 0. -1.
         -5    1    3    3    0  502 -0.71872315358E+02 -0.61145016256E+01 -0.77531182389E+02  0.10600090135E+03  0.47000000000E+01 0. -1.
        -11    1    1    2    0    0 -0.27991409757E+02  0.37047897684E+02 -0.72038202685E+02  0.85706291421E+02  0.00000000000E+00 0. -1.
         11    1    1    2    0    0  0.51598822616E+02 -0.36795721364E+01 -0.11532045220E+03  0.12639139386E+03  0.00000000000E+00 0.  1.
<mgrwt>
<rscale>  0 0.12262606E+03</rscale>
<asrwt>0</asrwt>
<pdfrwt beam="1">  1        3 0.68096384E-02 0.13151291E+03</pdfrwt>
<pdfrwt beam="2">  1       -3 0.51585101E-01 0.13151291E+03</pdfrwt>
<totfact> 0.11925378E+03</totfact>
</mgrwt>
</event>
<event>
 6    1  0.8165933E-006  0.1410315E+03  0.7546771E-02  0.1226168E+00
          1   -1    0    0  501    0  0.00000000000E+00  0.00000000000E+00  0.34765172016E+03  0.34765172016E+03  0.00000000000E+00 0. -1.
         -1   -1    0    0    0  501 -0.00000000000E+00 -0.00000000000E+00 -0.45907774756E+02  0.45907774756E+02  0.00000000000E+00 0.  1.
          5    1    1    2  502    0  0.65808184977E+02 -0.25626854388E+02  0.42143201164E+02  0.82374706555E+02  0.47000000000E+01 0. -1.
         -5    1    1    2    0  502 -0.19228999549E+02  0.10990054672E+02  0.17558660506E+03  0.17704033891E+03  0.47000000000E+01 0.  1.
        -11    1    1    2    0    0 -0.59308155489E+02  0.43154810985E+02  0.58838218243E+02  0.94030478807E+02  0.00000000000E+00 0.  1.
         11    1    1    2    0    0  0.12728970061E+02 -0.28518011269E+02  0.25175920932E+02  0.40113970638E+02  0.00000000000E+00 0. -1.
<mgrwt>
<rscale>  0 0.13087186E+03</rscale>
<asrwt>0</asrwt>
<pdfrwt beam="1">  1        1 0.53484878E-01 0.14103155E+03</pdfrwt>
<pdfrwt beam="2">  1       -1 0.70627348E-02 0.14103155E+03</pdfrwt>
<totfact> 0.72305734E+03</totfact>
</mgrwt>
</event>
<event>
 7    1  0.8165933E-006  0.1272144E+03  0.7546771E-02  0.1247211E+00
         -4   -1    0    0    0  501 -0.00000000000E+00  0.00000000000E+00  0.19360551047E+03  0.19360551047E+03  0.00000000000E+00 0.  1.
          4   -1    0    0  501    0  0.00000000000E+00 -0.00000000000E+00 -0.64006433070E+02  0.64006433070E+02  0.00000000000E+00 0. -1.
         23    2    1    2    0    0  0.23553710722E+02  0.20364095283E+01  0.54915969571E+02  0.13856142616E+03  0.12499832340E+03 0.  0.
          5    1    3    3  502    0  0.14730579146E+02 -0.57599871730E+02  0.44572818136E+01  0.59805455825E+02  0.47000000000E+01 0.  1.
         -5    1    3    3    0  502  0.88231315766E+01  0.59636281258E+02  0.50458687757E+02  0.78755970334E+02  0.47000000000E+01 0.  1.
        -11    1    1    2    0    0 -0.57983527447E+02 -0.34079949446E+01  0.50334184039E+02  0.76858532171E+02  0.00000000000E+00 0.  1.
         11    1    1    2    0    0  0.34429816724E+02  0.13715854163E+01  0.24348923791E+02  0.42191985210E+02  0.00000000000E+00 0. -1.
<mgrwt>
<rscale>  0 0.11754005E+03</rscale>
<asrwt>0</asrwt>
<pdfrwt beam="2">  1        4 0.98471436E-02 0.12721441E+03</pdfrwt>
<pdfrwt beam="1">  1       -4 0.29785463E-01 0.12721441E+03</pdfrwt>
<totfact> 0.13635592E+03</totfact>
</mgrwt>
</event>
<event>
 7    1  0.8165933E-006  0.1397990E+03  0.7546771E-02  0.1221188E+00
          1   -1    0    0  501    0  0.00000000000E+00  0.00000000000E+00  0.63303072486E+03  0.63303072486E+03  0.00000000000E+00 0. -1.
         -1   -1    0    0    0  501 -0.00000000000E+00 -0.00000000000E+00 -0.58253013858E+02  0.58253013858E+02  0.00000000000E+00 0.  1.
         23    2    1    2    0    0 -0.49194962012E+02  0.38866589176E+02  0.55273112251E+03  0.57013635526E+03  0.12495204583E+03 0.  0.
          5    1    3    3  502    0 -0.27284070477E+02  0.63015729875E+02  0.51689678097E+03  0.52145927443E+03  0.47000000000E+01 0. -1.
         -5    1    3    3    0  502 -0.21910891534E+02 -0.24149140699E+02  0.35834341536E+02  0.48677080825E+02  0.47000000000E+01 0. -1.
        -11    1    1    2    0    0  0.66990238259E+02 -0.42403887033E+01  0.40146891971E+02  0.78214102649E+02  0.00000000000E+00 0. -1.
         11    1    1    2    0    0 -0.17795276247E+02 -0.34626200472E+02 -0.18100303471E+02  0.42933280816E+02  0.00000000000E+00 0.  1.
<mgrwt>
<rscale>  0 0.13431619E+03</rscale>
<asrwt>0</asrwt>
<pdfrwt beam="1">  1        1 0.97389337E-01 0.13979903E+03</pdfrwt>
<pdfrwt beam="2">  1       -1 0.89620026E-02 0.13979903E+03</pdfrwt>
<totfact> 0.23161232E+03</totfact>
</mgrwt>
</event>
<event>
 7    1  0.8165933E-006  0.2638978E+03  0.7546771E-02  0.1107096E+00
         -2   -1    0    0    0  501 -0.00000000000E+00  0.00000000000E+00  0.12998423349E+03  0.12998423349E+03  0.00000000000E+00 0.  1.
          2   -1    0    0  501    0  0.00000000000E+00 -0.00000000000E+00 -0.53028914844E+03  0.53028914844E+03  0.00000000000E+00 0. -1.
         23    2    1    2    0    0  0.61995330265E+02  0.22399517409E+03 -0.27655613419E+03  0.38226343198E+03  0.12499910832E+03 0.  0.
          5    1    3    3  502    0 -0.22982314205E+02  0.28114410513E+02 -0.95484592624E+02  0.10226438419E+03  0.47000000000E+01 0. -1.
         -5    1    3    3    0  502  0.84977644470E+02  0.19588076358E+03 -0.18107154156E+03  0.27999904779E+03  0.47000000000E+01 0. -1.
        -11    1    1    2    0    0 -0.63081009711E+02 -0.16204519278E+03 -0.48484634908E+02  0.18052317887E+03  0.00000000000E+00 0.  1.
         11    1    1    2    0    0  0.10856794459E+01 -0.61949981318E+02 -0.75264145854E+02  0.97486771084E+02  0.00000000000E+00 0. -1.
<mgrwt>
<rscale>  0 0.26007855E+03</rscale>
<asrwt>0</asrwt>
<pdfrwt beam="2">  1        2 0.81582945E-01 0.26389778E+03</pdfrwt>
<pdfrwt beam="1">  1       -2 0.19997575E-01 0.26389778E+03</pdfrwt>
<totfact> 0.12246464E+03</totfact>
</mgrwt>
</event>
<event>
 7    1  0.8574880E-006  0.1662381E+03  0.7546771E-02  0.1188892E+00
         -3   -1    0    0    0  501 -0.00000000000E+00  0.00000000000E+00  0.92225498939E+03  0.92225498939E+03  0.00000000000E+00 0.  1.
          3   -1    0    0  501    0  0.00000000000E+00 -0.00000000000E+00 -0.25763729974E+02  0.25763729974E+02  0.00000000000E+00 0. -1.
         23    2    1    2    0    0 -0.96277241169E+02  0.52354319818E+02  0.48761637259E+03  0.51517455681E+03  0.12499926076E+03 0.  0.
          5    1    3    3  502    0 -0.22485254625E+02  0.63530890727E+02  0.10179180309E+03  0.12216964405E+03  0.47000000000E+01 0. -1.
         -5    1    3    3    0  502 -0.73791986543E+02 -0.11176570909E+02  0.38582456950E+03  0.39300491275E+03  0.47000000000E+01 0. -1.
        -11    1    1    2    0    0  0.56176078521E+02 -0.36794568644E+02  0.36600640232E+03  0.37211594781E+03  0.00000000000E+00 0.  1.
         11    1    1    2    0    0  0.40101162647E+02 -0.15559751175E+02  0.42868484510E+02  0.60728214748E+02  0.00000000000E+00 0. -1.
<mgrwt>
<rscale>  0 0.15982718E+03</rscale>
<asrwt>0</asrwt>
<pdfrwt beam="2">  1        3 0.39636515E-02 0.16623807E+03</pdfrwt>
<pdfrwt beam="1">  1       -3 0.14188536E+00 0.16623807E+03</pdfrwt>
<totfact> 0.31024745E+02</totfact>
</mgrwt>
</event>
<event>
 7    1  0.8165933E-006  0.1402294E+03  0.7546771E-02  0.1227437E+00
          2   -1    0    0  501    0  0.00000000000E+00  0.00000000000E+00  0.59529759381E+03  0.59529759381E+03  0.00000000000E+00 0. -1.
         -2   -1    0    0    0  501 -0.00000000000E+00 -0.00000000000E+00 -0.25923407052E+02  0.25923407052E+02  0.00000000000E+00 0.  1.
         23    2    1    2    0    0 -0.38879498236E+02  0.50278808153E+02  0.26697079190E+03  0.30155876746E+03  0.12499885028E+03 0.  0.
          5    1    3    3  502    0 -0.36769193646E+02 -0.26904549554E+02  0.17735797557E+03  0.18317688141E+03  0.47000000000E+01 0.  1.
         -5    1    3    3    0  502 -0.21103045898E+01  0.77183357706E+02  0.89612816336E+02  0.11838188605E+03  0.47000000000E+01 0.  1.
        -11    1    1    2    0    0  0.62300281701E+02 -0.33755867336E+02  0.25097631424E+03  0.26078706638E+03  0.00000000000E+00 0.  1.
         11    1    1    2    0    0 -0.23420783465E+02 -0.16522940817E+02  0.51427080612E+02  0.58875167020E+02  0.00000000000E+00 0. -1.
<mgrwt>
<rscale>  0 0.13001256E+03</rscale>
<asrwt>0</asrwt>
<pdfrwt beam="1">  1        2 0.91584235E-01 0.14022941E+03</pdfrwt>
<pdfrwt beam="2">  1       -2 0.39882169E-02 0.14022941E+03</pdfrwt>
<totfact> 0.13389184E+04</totfact>
</mgrwt>
</event>
<event>
 7    1  0.8165933E-006  0.1397782E+03  0.7546771E-02  0.1225011E+00
          1   -1    0    0  501    0  0.00000000000E+00  0.00000000000E+00  0.18856540510E+03  0.18856540510E+03  0.00000000000E+00 0. -1.
         -1   -1    0    0    0  501 -0.00000000000E+00 -0.00000000000E+00 -0.96597413589E+02  0.96597413589E+02  0.00000000000E+00 0.  1.
         23    2    1    2    0    0 -0.26840849448E+02 -0.56523304139E+02  0.10435632423E+03  0.17443676513E+03  0.12499050970E+03 0.  0.
          5    1    3    3  502    0  0.10813423372E+02  0.33051522162E+02  0.51059633674E+01  0.35461163322E+02  0.47000000000E+01 0. -1.
         -5    1    3    3    0  502 -0.37654272820E+02 -0.89574826302E+02  0.99250360858E+02  0.13897560181E+03  0.47000000000E+01 0. -1.
        -11    1    1    2    0    0  0.20893096392E+02  0.16244029806E+02 -0.49180681979E+02  0.55849167058E+02  0.00000000000E+00 0.  1.
         11    1    1    2    0    0  0.59477530563E+01  0.40279274333E+02  0.36792349263E+02  0.54876886496E+02  0.00000000000E+00 0. -1.
<mgrwt>
<rscale>  0 0.13166131E+03</rscale>
<asrwt>0</asrwt>
<pdfrwt beam="1">  1        1 0.29010062E-01 0.13977819E+03</pdfrwt>
<pdfrwt beam="2">  1       -1 0.14861141E-01 0.13977819E+03</pdfrwt>
<totfact> 0.49416683E+03</totfact>
</mgrwt>
</event>
<event>
 7    1  0.8165933E-006  0.1454078E+03  0.7546771E-02  0.1216486E+00
          1   -1    0    0  501    0  0.00000000000E+00  0.00000000000E+00  0.22219385042E+03  0.22219385042E+03  0.00000000000E+00 0. -1.
         -1   -1    0    0    0  501 -0.00000000000E+00 -0.00000000000E+00 -0.83226036792E+02  0.83226036792E+02  0.00000000000E+00 0.  1.
         23    2    1    2    0    0 -0.71626452395E+02  0.19697541185E+02  0.11669298210E+03  0.18644213307E+03  0.12500030041E+03 0.  0.
          5    1    3    3  502    0 -0.93366269993E+02  0.38759662431E+02  0.11998461889E+03  0.15696487051E+03  0.47000000000E+01 0. -1.
         -5    1    3    3    0  502  0.21739817598E+02 -0.19062121246E+02 -0.32916367878E+01  0.29477262565E+02  0.47000000000E+01 0. -1.
        -11    1    1    2    0    0  0.64518024832E+01 -0.27798698899E+02 -0.25094043759E+02  0.38001374290E+02  0.00000000000E+00 0.  1.
         11    1    1    2    0    0  0.65174649912E+02  0.81011577140E+01  0.47368875287E+02  0.80976379849E+02  0.00000000000E+00 0. -1.
<mgrwt>
<rscale>  0 0.13767979E+03</rscale>
<asrwt>0</asrwt>
<pdfrwt beam="1">  1        1 0.34183669E-01 0.14540776E+03</pdfrwt>
<pdfrwt beam="2">  1       -1 0.12804006E-01 0.14540776E+03</pdfrwt>
<totfact> 0.50951113E+03</totfact>
</mgrwt>
</event>
<event>
 7    1  0.8165933E-006  0.1773082E+03  0.7546771E-02  0.1176146E+00
          1   -1    0    0  501    0  0.00000000000E+00  0.00000000000E+00  0.81327207312E+03  0.81327207312E+03  0.00000000000E+00 0. -1.
         -1   -1    0    0    0  501 -0.00000000000E+00 -0.00000000000E+00 -0.36898214236E+02  0.36898214236E+02  0.00000000000E+00 0.  1.
         23    2    1    2    0    0 -0.11681426436E+03  0.46603678895E+02  0.52848888577E+03  0.55743941107E+03  0.12498287636E+03 0.  0.
          5    1    3    3  502    0 -0.10842371225E+03  0.84318356536E+02  0.38624018721E+03  0.40996202122E+03  0.47000000000E+01 0. -1.
         -5    1    3    3    0  502 -0.83905521123E+01 -0.37714677640E+02  0.14224869855E+03  0.14747738984E+03  0.47000000000E+01 0. -1.
        -11    1    1    2    0    0  0.54363112067E+02 -0.60265228405E+01  0.29816059829E+02  0.62294978569E+02  0.00000000000E+00 0.  1.
         11    1    1    2    0    0  0.62451152296E+02 -0.40577156055E+02  0.21806891328E+03  0.23043589772E+03  0.00000000000E+00 0. -1.
<mgrwt>
<rscale>  0 0.17164179E+03</rscale>
<asrwt>0</asrwt>
<pdfrwt beam="1">  1        1 0.12511877E+00 0.17730819E+03</pdfrwt>
<pdfrwt beam="2">  1       -1 0.56766489E-02 0.17730819E+03</pdfrwt>
<totfact> 0.32235380E+03</totfact>
</mgrwt>
</event>
<event>
 7    1  0.8165933E-006  0.1485392E+03  0.7546771E-02  0.1211881E+00
          1   -1    0    0  501    0  0.00000000000E+00  0.00000000000E+00  0.81893891658E+03  0.81893891658E+03  0.00000000000E+00 0. -1.
         -1   -1    0    0    0  501 -0.00000000000E+00 -0.00000000000E+00 -0.24801603615E+02  0.24801603615E+02  0.00000000000E+00 0.  1.
         23    2    1    2    0    0  0.41508358436E+02  0.68677984071E+02  0.57054645816E+03  0.58956522205E+03  0.12499712325E+03 0.  0.
          5    1    3    3  502    0  0.96936530408E+01  0.94346306962E+02  0.49000671258E+03  0.49912309195E+03  0.47000000000E+01 0.  1.
         -5    1    3    3    0  502  0.31814705395E+02 -0.25668322891E+02  0.80539745580E+02  0.90442130102E+02  0.47000000000E+01 0.  1.
        -11    1    1    2    0    0  0.59619279023E+01 -0.26466526713E+02  0.63848806394E+01  0.27870922506E+02  0.00000000000E+00 0.  1.
         11    1    1    2    0    0 -0.47470286338E+02 -0.42211457358E+02  0.21720597417E+03  0.22630437564E+03  0.00000000000E+00 0. -1.
<mgrwt>
<rscale>  0 0.14108157E+03</rscale>
<asrwt>0</asrwt>
<pdfrwt beam="1">  1        1 0.12599058E+00 0.14853919E+03</pdfrwt>
<pdfrwt beam="2">  1       -1 0.38156319E-02 0.14853919E+03</pdfrwt>
<totfact> 0.57105758E+03</totfact>
</mgrwt>
</event>
<event>
 6    1  0.8165933E-006  0.2924298E+03  0.7546771E-02  0.1104463E+00
         -1   -1    0    0    0  501 -0.00000000000E+00  0.00000000000E+00  0.87427204526E+02  0.87427204526E+02  0.00000000000E+00 0.  1.
          1   -1    0    0  501    0  0.00000000000E+00 -0.00000000000E+00 -0.70205118294E+03  0.70205118294E+03  0.00000000000E+00 0. -1.
          5    1    1    2  502    0 -0.88185061952E+02 -0.34701865777E+01 -0.16809632442E+03  0.18991343194E+03  0.47000000000E+01 0. -1.
         -5    1    1    2    0  502  0.79715660247E+02 -0.16937854551E+03 -0.13203995532E+03  0.22912947861E+03  0.47000000000E+01 0.  1.
        -11    1    1    2    0    0  0.32669066938E+02  0.89215964647E+02 -0.95207777049E+02  0.13450381814E+03  0.00000000000E+00 0.  1.
         11    1    1    2    0    0 -0.24199665233E+02  0.83632767442E+02 -0.21927992163E+03  0.23593165879E+03  0.00000000000E+00 0. -1.
<mgrwt>
<rscale>  0 0.26451133E+03</rscale>
<asrwt>0</asrwt>
<pdfrwt beam="2">  1        1 0.10800788E+00 0.29242978E+03</pdfrwt>
<pdfrwt beam="1">  1       -1 0.13450339E-01 0.29242978E+03</pdfrwt>
<totfact> 0.10748641E+03</totfact>
</mgrwt>
</event>
<event>
 7    1  0.8165933E-006  0.1391074E+03  0.7546771E-02  0.1225891E+00
          3   -1    0    0  501    0  0.00000000000E+00  0.00000000000E+00  0.50388885315E+02  0.50388885315E+02  0.00000000000E+00 0. -1.
         -3   -1    0    0    0  501 -0.00000000000E+00 -0.00000000000E+00 -0.32730797799E+03  0.32730797799E+03  0.00000000000E+00 0.  1.
         23    2    1    2    0    0 -0.20400138699E+02 -0.57541575717E+02 -0.10701813554E+03  0.17550999599E+03  0.12499471495E+03 0.  0.
          5    1    3    3  502    0 -0.62031565843E+02 -0.38417007295E+02 -0.18022366565E+02  0.75303899680E+02  0.47000000000E+01 0.  1.
         -5    1    3    3    0  502  0.41631427144E+02 -0.19124568422E+02 -0.88995768974E+02  0.10020609631E+03  0.47000000000E+01 0.  1.
        -11    1    1    2    0    0  0.75399866978E+00 -0.24759813791E+02 -0.44021210457E+02  0.50512214988E+02  0.00000000000E+00 0.  1.
         11    1    1    2    0    0  0.19646140029E+02  0.82301389508E+02 -0.12587974668E+03  0.15167465232E+03  0.00000000000E+00 0. -1.
<mgrwt>
<rscale>  0 0.13105997E+03</rscale>
<asrwt>0</asrwt>
<pdfrwt beam="1">  1        3 0.77521361E-02 0.13910743E+03</pdfrwt>
<pdfrwt beam="2">  1       -3 0.50355074E-01 0.13910743E+03</pdfrwt>
<totfact> 0.10240833E+03</totfact>
</mgrwt>
</event>
<event>
 7    1  0.8165933E-006  0.1325644E+03  0.7546771E-02  0.1242633E+00
         -1   -1    0    0    0  501 -0.00000000000E+00  0.00000000000E+00  0.22147958967E+03  0.22147958967E+03  0.00000000000E+00 0.  1.
          1   -1    0    0  501    0  0.00000000000E+00 -0.00000000000E+00 -0.56213922556E+02  0.56213922556E+02  0.00000000000E+00 0. -1.
         23    2    1    2    0    0  0.43874949566E+02 -0.48394841001E+01  0.87252103398E+02  0.15870180187E+03  0.12499960226E+03 0.  0.
          5    1    3    3  502    0 -0.19147604413E+02  0.48553058327E+01 -0.23353301114E+02  0.30946266695E+02  0.47000000000E+01 0.  1.
         -5    1    3    3    0  502  0.63022553978E+02 -0.96947899328E+01  0.11060540451E+03  0.12775553518E+03  0.47000000000E+01 0.  1.
        -11    1    1    2    0    0  0.14685022317E+02 -0.13265079584E+02  0.45478317975E+02  0.49597274347E+02  0.00000000000E+00 0.  1.
         11    1    1    2    0    0 -0.58559971883E+02  0.18104563684E+02  0.32535245744E+02  0.69394436007E+02  0.00000000000E+00 0. -1.
<mgrwt>
<rscale>  0 0.12028156E+03</rscale>
<asrwt>0</asrwt>
<pdfrwt beam="2">  1        1 0.86482959E-02 0.13256445E+03</pdfrwt>
<pdfrwt beam="1">  1       -1 0.34073783E-01 0.13256445E+03</pdfrwt>
<totfact> 0.60753706E+03</totfact>
</mgrwt>
</event>
<event>
 7    1  0.8165933E-006  0.1381380E+03  0.7546771E-02  0.1226617E+00
         -1   -1    0    0    0  501 -0.00000000000E+00  0.00000000000E+00  0.21520143359E+03  0.21520143359E+03  0.00000000000E+00 0.  1.
          1   -1    0    0  501    0  0.00000000000E+00 -0.00000000000E+00 -0.94021403644E+02  0.94021403644E+02  0.00000000000E+00 0. -1.
         23    2    1    2    0    0  0.50365342787E+02  0.30335056488E+02 -0.92380613907E+01  0.13844660103E+03  0.12500094460E+03 0.  0.
          5    1    3    3  502    0  0.80967995196E+02 -0.15740822451E+02 -0.47847621843E+01  0.82756109664E+02  0.47000000000E+01 0.  1.
         -5    1    3    3    0  502 -0.30602652409E+02  0.46075878939E+02 -0.44532992064E+01  0.55690491364E+02  0.47000000000E+01 0.  1.
        -11    1    1    2    0    0  0.24359701411E+02 -0.14899338056E+02  0.14569332698E+02  0.32056992725E+02  0.00000000000E+00 0. -1.
         11    1    1    2    0    0 -0.74725044198E+02 -0.15435718433E+02  0.11584875864E+03  0.13871924348E+03  0.00000000000E+00 0.  1.
<mgrwt>
<rscale>  0 0.13056664E+03</rscale>
<asrwt>0</asrwt>
<pdfrwt beam="2">  1        1 0.14464831E-01 0.13813805E+03</pdfrwt>
<pdfrwt beam="1">  1       -1 0.33107913E-01 0.13813805E+03</pdfrwt>
<totfact> 0.32490231E+03</totfact>
</mgrwt>
</event>
<event>
 7    1  0.8165933E-006  0.2501594E+03  0.7546771E-02  0.1117704E+00
          2   -1    0    0  501    0  0.00000000000E+00  0.00000000000E+00  0.47396791173E+03  0.47396791173E+03  0.00000000000E+00 0. -1.
         -2   -1    0    0    0  501 -0.00000000000E+00 -0.00000000000E+00 -0.12503897437E+03  0.12503897437E+03  0.00000000000E+00 0.  1.
         23    2    1    2    0    0 -0.13134456701E+03 -0.17234239367E+03  0.25349813055E+03  0.35614745628E+03  0.12500564981E+03 0.  0.
          5    1    3    3  502    0 -0.23932752682E+02 -0.11171025860E+03  0.17767048026E+03  0.21128380932E+03  0.47000000000E+01 0. -1.
         -5    1    3    3    0  502 -0.10741181433E+03 -0.60632135077E+02  0.75827650293E+02  0.14486364696E+03  0.47000000000E+01 0. -1.
        -11    1    1    2    0    0  0.93724027057E+01  0.39270863006E+02  0.32027619051E+02  0.51534561178E+02  0.00000000000E+00 0. -1.
         11    1    1    2    0    0  0.12197216431E+03  0.13307153067E+03  0.63403187767E+02  0.19132486864E+03  0.00000000000E+00 0.  1.
<mgrwt>
<rscale>  0 0.24316244E+03</rscale>
<asrwt>0</asrwt>
<pdfrwt beam="1">  1        2 0.72918140E-01 0.25015937E+03</pdfrwt>
<pdfrwt beam="2">  1       -2 0.19236765E-01 0.25015937E+03</pdfrwt>
<totfact> 0.14838853E+03</totfact>
</mgrwt>
</event>
<event>
 6    1  0.8165933E-006  0.1328424E+03  0.7546771E-02  0.1239679E+00
         -1   -1    0    0    0  501 -0.00000000000E+00  0.00000000000E+00  0.40491698804E+03  0.40491698804E+03  0.00000000000E+00 0.  1.
          1   -1    0    0  501    0  0.00000000000E+00 -0.00000000000E+00 -0.35129719501E+02  0.35129719501E+02  0.00000000000E+00 0. -1.
          5    1    1    2  502    0  0.21876289548E+02 -0.63912713504E+01 -0.19819512476E+02  0.30566705231E+02  0.47000000000E+01 0. -1.
         -5    1    1    2    0  502  0.20656915933E+01  0.11202633416E+02  0.16796390405E+03  0.16841534711E+03  0.47000000000E+01 0.  1.
        -11    1    1    2    0    0  0.27110647399E+02  0.10234996491E+02  0.28205772629E+02  0.40438941198E+02  0.00000000000E+00 0.  1.
         11    1    1    2    0    0 -0.51052628541E+02 -0.15046358556E+02  0.19343710433E+03  0.20062571400E+03  0.00000000000E+00 0. -1.
<mgrwt>
<rscale>  0 0.12209614E+03</rscale>
<asrwt>0</asrwt>
<pdfrwt beam="2">  1        1 0.54045725E-02 0.13284237E+03</pdfrwt>
<pdfrwt beam="1">  1       -1 0.62294918E-01 0.13284237E+03</pdfrwt>
<totfact> 0.38653103E+03</totfact>
</mgrwt>
</event>
<event>
 7    1  0.8165933E-006  0.2282785E+03  0.7546771E-02  0.1130421E+00
         -1   -1    0    0    0  501 -0.00000000000E+00  0.00000000000E+00  0.13254950131E+03  0.13254950131E+03  0.00000000000E+00 0.  1.
          1   -1    0    0  501    0  0.00000000000E+00 -0.00000000000E+00 -0.41786568522E+03  0.41786568522E+03  0.00000000000E+00 0. -1.
         23    2    1    2    0    0 -0.47665083838E+02  0.18776955567E+03 -0.24023576773E+03  0.33139748315E+03  0.12075471620E+03 0.  0.
          5    1    3    3  502    0 -0.65254995396E+02  0.19690398556E+03 -0.22415196438E+03  0.30544326329E+03  0.47000000000E+01 0. -1.
         -5    1    3    3    0  502  0.17589911558E+02 -0.91344298929E+01 -0.16083803355E+02  0.25954219858E+02  0.47000000000E+01 0.  1.
        -11    1    1    2    0    0 -0.14261204288E+02 -0.60328749667E+01 -0.20143488987E+02  0.25407433492E+02  0.00000000000E+00 0. -1.
         11    1    1    2    0    0  0.61926288125E+02 -0.18173668070E+03 -0.24936927188E+02  0.19361026990E+03  0.00000000000E+00 0.  1.
<mgrwt>
<rscale>  0 0.22470798E+03</rscale>
<asrwt>0</asrwt>
<pdfrwt beam="2">  1        1 0.64287028E-01 0.22827849E+03</pdfrwt>
<pdfrwt beam="1">  1       -1 0.20392231E-01 0.22827849E+03</pdfrwt>
<totfact> 0.11176622E+03</totfact>
</mgrwt>
</event>
<event>
 7    1  0.8165933E-006  0.1256491E+03  0.7546771E-02  0.1250218E+00
         -1   -1    0    0    0  501 -0.00000000000E+00  0.00000000000E+00  0.65487687006E+02  0.65487687006E+02  0.00000000000E+00 0.  1.
          1   -1    0    0  501    0  0.00000000000E+00 -0.00000000000E+00 -0.22313984734E+03  0.22313984734E+03  0.00000000000E+00 0. -1.
         23    2    1    2    0    0  0.10488213147E+02  0.73719866651E+01 -0.15289946282E+03  0.19790385210E+03  0.12499336040E+03 0.  0.
          5    1    3    3  502    0  0.13779964610E+02  0.56424134713E+02 -0.30188991896E+02  0.65628009527E+02  0.47000000000E+01 0. -1.
         -5    1    3    3    0  502 -0.32917514623E+01 -0.49052148048E+02 -0.12271047092E+03  0.13227584258E+03  0.47000000000E+01 0. -1.
        -11    1    1    2    0    0  0.32094416199E+02  0.19363772775E+02 -0.13198500687E+02  0.39739245936E+02  0.00000000000E+00 0. -1.
         11    1    1    2    0    0 -0.42582629346E+02 -0.26735759440E+02  0.84458031644E+01  0.50984436311E+02  0.00000000000E+00 0.  1.
<mgrwt>
<rscale>  0 0.11578450E+03</rscale>
<asrwt>0</asrwt>
<pdfrwt beam="2">  1        1 0.34329207E-01 0.12564907E+03</pdfrwt>
<pdfrwt beam="1">  1       -1 0.10075029E-01 0.12564907E+03</pdfrwt>
<totfact> 0.72581613E+03</totfact>
</mgrwt>
</event>
<event>
 7    1  0.8165933E-006  0.1675612E+03  0.7546771E-02  0.1188119E+00
          1   -1    0    0  501    0  0.00000000000E+00  0.00000000000E+00  0.23947227665E+02  0.23947227665E+02  0.00000000000E+00 0. -1.
         -1   -1    0    0    0  501 -0.00000000000E+00 -0.00000000000E+00 -0.10082983745E+04  0.10082983745E+04  0.00000000000E+00 0.  1.
         23    2    1    2    0    0 -0.25560108970E+02  0.10863180250E+03 -0.47382910097E+03  0.50258407949E+03  0.12499020900E+03 0.  0.
          5    1    3    3  502    0 -0.45911156449E+02  0.30775014237E+02 -0.63083557702E+02  0.84003339458E+02  0.47000000000E+01 0. -1.
         -5    1    3    3    0  502  0.20351047479E+02  0.77856788258E+02 -0.41074554326E+03  0.41858074003E+03  0.47000000000E+01 0. -1.
        -11    1    1    2    0    0  0.55453682575E+02 -0.52079853677E+02 -0.24478396354E+03  0.25633300778E+03  0.00000000000E+00 0.  1.
         11    1    1    2    0    0 -0.29893573606E+02 -0.56551948818E+02 -0.26573808235E+03  0.27332851492E+03  0.00000000000E+00 0. -1.
<mgrwt>
<rscale>  0 0.16051293E+03</rscale>
<asrwt>0</asrwt>
<pdfrwt beam="1">  1        1 0.36841903E-02 0.16756115E+03</pdfrwt>
<pdfrwt beam="2">  1       -1 0.15512277E+00 0.16756115E+03</pdfrwt>
<totfact> 0.87374721E+02</totfact>
</mgrwt>
</event>
<event>
 7    1  0.8165933E-006  0.1883370E+03  0.7546771E-02  0.1163653E+00
         -1   -1    0    0    0  501 -0.00000000000E+00  0.00000000000E+00  0.17135065050E+03  0.17135065050E+03  0.00000000000E+00 0.  1.
          1   -1    0    0  501    0  0.00000000000E+00 -0.00000000000E+00 -0.21629308968E+03  0.21629308968E+03  0.00000000000E+00 0. -1.
         23    2    1    2    0    0 -0.11889861401E+03  0.75550067902E+02 -0.90325393868E+02  0.20887680506E+03  0.12500459888E+03 0.  0.
          5    1    3    3  502    0 -0.10134074106E+03  0.74133795537E+02 -0.94861839776E+01  0.12600731378E+03  0.47000000000E+01 0.  1.
         -5    1    3    3    0  502 -0.17557872954E+02  0.14162723652E+01 -0.80839209890E+02  0.82869491284E+02  0.47000000000E+01 0.  1.
        -11    1    1    2    0    0  0.99574234668E+02 -0.95185346578E+02  0.56726122003E+02  0.14897359273E+03  0.00000000000E+00 0.  1.
         11    1    1    2    0    0  0.19324379347E+02  0.19635278676E+02 -0.11343167310E+02  0.29793342385E+02  0.00000000000E+00 0. -1.
<mgrwt>
<rscale>  0 0.18435592E+03</rscale>
<asrwt>0</asrwt>
<pdfrwt beam="2">  1        1 0.33275860E-01 0.18833705E+03</pdfrwt>
<pdfrwt beam="1">  1       -1 0.26361638E-01 0.18833705E+03</pdfrwt>
<totfact> 0.16730604E+03</totfact>
</mgrwt>
</event>
<event>
 7    1  0.8165933E-006  0.1157881E+03  0.7546771E-02  0.1293873E+00
          2   -1    0    0  501    0  0.00000000000E+00  0.00000000000E+00  0.39507164201E+03  0.39507164201E+03  0.00000000000E+00 0. -1.
         -2   -1    0    0    0  501 -0.00000000000E+00 -0.00000000000E+00 -0.34407385108E+02  0.34407385108E+02  0.00000000000E+00 0.  1.
         23    2    1    2    0    0 -0.23172678356E+02 -0.29958884866E+01  0.36148649422E+03  0.37957789694E+03  0.11340611083E+03 0.  0.
          5    1    3    3  502    0  0.39189568589E+02 -0.13816041905E+02  0.22759737319E+03  0.23140734556E+03  0.47000000000E+01 0. -1.
         -5    1    3    3    0  502 -0.62362246945E+02  0.10820153419E+02  0.13388912103E+03  0.14817055138E+03  0.47000000000E+01 0.  1.
        -11    1    1    2    0    0  0.22467182835E+02  0.21524514205E+02 -0.28714385438E+01  0.31246186577E+02  0.00000000000E+00 0.  1.
         11    1    1    2    0    0  0.70549552090E+00 -0.18528625718E+02  0.20492012243E+01  0.18654943597E+02  0.00000000000E+00 0. -1.
<mgrwt>
<rscale>  0 0.93812546E+02</rscale>
<asrwt>0</asrwt>
<pdfrwt beam="1">  1        2 0.60780250E-01 0.11578814E+03</pdfrwt>
<pdfrwt beam="2">  1       -2 0.52934441E-02 0.11578814E+03</pdfrwt>
<totfact> 0.13529505E+04</totfact>
</mgrwt>
</event>
<event>
 7    1  0.8165933E-006  0.1873665E+03  0.7546771E-02  0.1165464E+00
          2   -1    0    0  501    0  0.00000000000E+00  0.00000000000E+00  0.84612489184E+03  0.84612489184E+03  0.00000000000E+00 0. -1.
         -2   -1    0    0    0  501 -0.00000000000E+00 -0.00000000000E+00 -0.37770048244E+02  0.37770048244E+02  0.00000000000E+00 0.  1.
         23    2    1    2    0    0  0.92829761682E+02  0.10422730742E+03  0.46913652052E+03  0.50516856326E+03  0.12500202459E+03 0.  0.
          5    1    3    3  502    0  0.44155847583E-01  0.37876710202E+02  0.22791393447E+02  0.44454299463E+02  0.47000000000E+01 0.  1.
         -5    1    3    3    0  502  0.92785605834E+02  0.66350597216E+02  0.44634512708E+03  0.46071426380E+03  0.47000000000E+01 0.  1.
        -11    1    1    2    0    0 -0.77874283546E+02 -0.19410780467E+02  0.19310861897E+03  0.20912226366E+03  0.00000000000E+00 0. -1.
         11    1    1    2    0    0 -0.14955478136E+02 -0.84816526950E+02  0.14610970409E+03  0.16960411316E+03  0.00000000000E+00 0.  1.
<mgrwt>
<rscale>  0 0.18243830E+03</rscale>
<asrwt>0</asrwt>
<pdfrwt beam="1">  1        2 0.13017305E+00 0.18736649E+03</pdfrwt>
<pdfrwt beam="2">  1       -2 0.58107773E-02 0.18736649E+03</pdfrwt>
<totfact> 0.50518850E+03</totfact>
</mgrwt>
</event>
<event>
 7    1  0.8165933E-006  0.1695339E+03  0.7546771E-02  0.1184675E+00
          1   -1    0    0  501    0  0.00000000000E+00  0.00000000000E+00  0.20320804939E+03  0.20320804939E+03  0.00000000000E+00 0. -1.
         -1   -1    0    0    0  501 -0.00000000000E+00 -0.00000000000E+00 -0.12494228439E+03  0.12494228439E+03  0.00000000000E+00 0.  1.
         23    2    1    2    0    0 -0.55346972177E+02  0.10026278748E+03  0.23217367790E+02  0.17111629060E+03  0.12500329939E+03 0.  0.
          5    1    3    3  502    0 -0.51688036793E+02  0.10558259691E+03 -0.26636154994E+02  0.12062716390E+03  0.47000000000E+01 0. -1.
         -5    1    3    3    0  502 -0.36589353839E+01 -0.53198094271E+01  0.49853522785E+02  0.50489126696E+02  0.47000000000E+01 0. -1.
        -11    1    1    2    0    0  0.55412428540E+02 -0.42064310194E+02 -0.93944936133E+01  0.70201139158E+02  0.00000000000E+00 0.  1.
         11    1    1    2    0    0 -0.65456363227E-01 -0.58198477289E+02  0.64442890824E+02  0.86832904023E+02  0.00000000000E+00 0. -1.
<mgrwt>
<rscale>  0 0.16361490E+03</rscale>
<asrwt>0</asrwt>
<pdfrwt beam="1">  1        1 0.31262777E-01 0.16953389E+03</pdfrwt>
<pdfrwt beam="2">  1       -1 0.19221890E-01 0.16953389E+03</pdfrwt>
<totfact> 0.30217676E+03</totfact>
</mgrwt>
</event>
<event>
 7    1  0.8165933E-006  0.1315679E+03  0.7546771E-02  0.1237903E+00
         -1   -1    0    0    0  501 -0.00000000000E+00  0.00000000000E+00  0.78722089845E+02  0.78722089845E+02  0.00000000000E+00 0.  1.
          1   -1    0    0  501    0  0.00000000000E+00 -0.00000000000E+00 -0.19220265393E+03  0.19220265393E+03  0.00000000000E+00 0. -1.
         23    2    1    2    0    0  0.38819770077E+02  0.13342909115E+02 -0.10693581931E+03  0.16954465641E+03  0.12500045318E+03 0.  0.
          5    1    3    3  502    0 -0.43384985954E+02  0.21822188275E+02 -0.39147770640E+02  0.62554798804E+02  0.47000000000E+01 0.  1.
         -5    1    3    3    0  502  0.82204756032E+02 -0.84792791604E+01 -0.67788048668E+02  0.10698985761E+03  0.47000000000E+01 0.  1.
        -11    1    1    2    0    0 -0.49198829565E+02 -0.42601717724E+02 -0.19201960006E+02  0.67853860993E+02  0.00000000000E+00 0. -1.
         11    1    1    2    0    0  0.10379059488E+02  0.29258808609E+02  0.12657215228E+02  0.33526226367E+02  0.00000000000E+00 0.  1.
<mgrwt>
<rscale>  0 0.12320377E+03</rscale>
<asrwt>0</asrwt>
<pdfrwt beam="2">  1        1 0.29569639E-01 0.13156793E+03</pdfrwt>
<pdfrwt beam="1">  1       -1 0.12111091E-01 0.13156793E+03</pdfrwt>
<totfact> 0.66075227E+03</totfact>
</mgrwt>
</event>
<event>
 6    1  0.8165933E-006  0.2373298E+03  0.7546771E-02  0.1197448E+00
          2   -1    0    0  501    0  0.00000000000E+00  0.00000000000E+00  0.13963250326E+04  0.13963250326E+04  0.00000000000E+00 0.  1.
         -2   -1    0    0    0  501 -0.00000000000E+00 -0.00000000000E+00 -0.14424290332E+02  0.14424290332E+02  0.00000000000E+00 0. -1.
          5    1    1    2  502    0  0.57419248474E+02  0.86532868072E+02  0.87763224155E+03  0.88376770068E+03  0.47000000000E+01 0.  1.
         -5    1    1    2    0  502 -0.90253807095E+02 -0.66491600645E+02  0.38679293115E+03  0.40273781079E+03  0.47000000000E+01 0. -1.
        -11    1    1    2    0    0  0.11539306002E+02 -0.64424456655E+01  0.23829536979E+02  0.27248991207E+02  0.00000000000E+00 0. -1.
         11    1    1    2    0    0  0.21295252618E+02 -0.13598821761E+02  0.93646032584E+02  0.96994820254E+02  0.00000000000E+00 0.  1.
<mgrwt>
<rscale>  0 0.15248867E+03</rscale>
<asrwt>0</asrwt>
<pdfrwt beam="1">  1        2 0.21481913E+00 0.23732976E+03</pdfrwt>
<pdfrwt beam="2">  1       -2 0.22191227E-02 0.23732976E+03</pdfrwt>
<totfact> 0.10240404E+04</totfact>
</mgrwt>
</event>
<event>
 7    1  0.8165933E-006  0.1475646E+03  0.7546771E-02  0.1213214E+00
          1   -1    0    0  501    0  0.00000000000E+00  0.00000000000E+00  0.47504697802E+03  0.47504697802E+03  0.00000000000E+00 0. -1.
         -1   -1    0    0    0  501 -0.00000000000E+00 -0.00000000000E+00 -0.45257920416E+02  0.45257920416E+02  0.00000000000E+00 0.  1.
         23    2    1    2    0    0  0.74988806765E+02  0.23120337036E+02  0.33972520678E+03  0.37038968521E+03  0.12496972299E+03 0.  0.
          5    1    3    3  502    0  0.91922946361E+02  0.56810748503E+02  0.22745599551E+03  0.25186426722E+03  0.47000000000E+01 0.  1.
         -5    1    3    3    0  502 -0.16934139596E+02 -0.33690411467E+02  0.11226921127E+03  0.11852541798E+03  0.47000000000E+01 0.  1.
        -11    1    1    2    0    0 -0.25473749560E+02  0.26657861660E+02  0.15078604479E+01  0.36902942269E+02  0.00000000000E+00 0.  1.
         11    1    1    2    0    0 -0.49515057205E+02 -0.49778198697E+02  0.88555990384E+02  0.11301227096E+03  0.00000000000E+00 0. -1.
<mgrwt>
<rscale>  0 0.14008528E+03</rscale>
<asrwt>0</asrwt>
<pdfrwt beam="1">  1        1 0.73084147E-01 0.14756457E+03</pdfrwt>
<pdfrwt beam="2">  1       -1 0.69627573E-02 0.14756457E+03</pdfrwt>
<totfact> 0.49853973E+03</totfact>
</mgrwt>
</event>
<event>
 7    1  0.8165933E-006  0.1508489E+03  0.7546771E-02  0.1208217E+00
         -2   -1    0    0    0  501 -0.00000000000E+00  0.00000000000E+00  0.34234125504E+02  0.34234125504E+02  0.00000000000E+00 0. -1.
          2   -1    0    0  501    0  0.00000000000E+00 -0.00000000000E+00 -0.55492883325E+03  0.55492883325E+03  0.00000000000E+00 0.  1.
         23    2    1    2    0    0  0.79651705346E+02 -0.27982797607E+02 -0.28271310498E+03  0.32044044058E+03  0.12501177986E+03 0.  0.
          5    1    3    3  502    0  0.77795235351E+02 -0.69934509550E+02 -0.23124402857E+03  0.25384803528E+03  0.47000000000E+01 0.  1.
         -5    1    3    3    0  502  0.18564699946E+01  0.41951711944E+02 -0.51469076413E+02  0.66592405292E+02  0.47000000000E+01 0.  1.
        -11    1    1    2    0    0 -0.44142732751E+02 -0.12388743780E+02 -0.32181849807E+02  0.56015473614E+02  0.00000000000E+00 0. -1.
         11    1    1    2    0    0 -0.35508972594E+02  0.40371541387E+02 -0.20579975295E+03  0.21270704456E+03  0.00000000000E+00 0.  1.
<mgrwt>
<rscale>  0 0.14386840E+03</rscale>
<asrwt>0</asrwt>
<pdfrwt beam="2">  1        2 0.85373662E-01 0.15084885E+03</pdfrwt>
<pdfrwt beam="1">  1       -2 0.52667888E-02 0.15084885E+03</pdfrwt>
<totfact> 0.96043809E+03</totfact>
</mgrwt>
</event>
<event>
 7    1  0.8165933E-006  0.1301630E+03  0.7546771E-02  0.1241595E+00
         -2   -1    0    0    0  501 -0.00000000000E+00  0.00000000000E+00  0.24348319152E+03  0.24348319152E+03  0.00000000000E+00 0.  1.
          2   -1    0    0  501    0  0.00000000000E+00 -0.00000000000E+00 -0.53123787698E+02  0.53123787698E+02  0.00000000000E+00 0. -1.
         23    2    1    2    0    0  0.18993373765E+02  0.26784863308E+02  0.10072131387E+03  0.16458189548E+03  0.12595332510E+03 0.  0.
          5    1    3    3  502    0 -0.52827624188E+02  0.26744487117E+01  0.30853242582E+02  0.61415984329E+02  0.47000000000E+01 0. -1.
         -5    1    3    3    0  502  0.71820997953E+02  0.24110414597E+02  0.69868071284E+02  0.10316591115E+03  0.47000000000E+01 0. -1.
        -11    1    1    2    0    0  0.26121370122E+01 -0.40171092875E+02  0.97448308955E+02  0.10543582352E+03  0.00000000000E+00 0.  1.
         11    1    1    2    0    0 -0.21605510778E+02  0.13386229566E+02 -0.78102190031E+01  0.26589260216E+02  0.00000000000E+00 0. -1.
<mgrwt>
<rscale>  0 0.12091538E+03</rscale>
<asrwt>0</asrwt>
<pdfrwt beam="2">  1        2 0.81728905E-02 0.13016304E+03</pdfrwt>
<pdfrwt beam="1">  1       -2 0.37458952E-01 0.13016304E+03</pdfrwt>
<totfact> 0.52890381E+03</totfact>
</mgrwt>
</event>
<event>
 7    1  0.9556193E-006  0.1311246E+03  0.7546771E-02  0.1238897E+00
         -1   -1    0    0    0  501 -0.00000000000E+00  0.00000000000E+00  0.14359754027E+02  0.14359754027E+02  0.00000000000E+00 0.  1.
          1   -1    0    0  501    0  0.00000000000E+00 -0.00000000000E+00 -0.11933134207E+04  0.11933134207E+04  0.00000000000E+00 0. -1.
         23    2    1    2    0    0  0.38158464071E+02  0.10605760881E+02 -0.93207609278E+03  0.94125421459E+03  0.12500041286E+03 0.  0.
          5    1    3    3  502    0  0.28403879054E+02 -0.42493293911E+02 -0.73716469708E+03  0.73894948473E+03  0.47000000000E+01 0. -1.
         -5    1    3    3    0  502  0.97545850163E+01  0.53099054792E+02 -0.19491139570E+03  0.20230472986E+03  0.47000000000E+01 0. -1.
        -11    1    1    2    0    0 -0.40514387779E+02  0.33585573149E+02 -0.16707868686E+03  0.17517047109E+03  0.00000000000E+00 0. -1.
         11    1    1    2    0    0  0.23559237079E+01 -0.44191334030E+02 -0.79798887025E+02  0.91248489030E+02  0.00000000000E+00 0.  1.
<mgrwt>
<rscale>  0 0.12258252E+03</rscale>
<asrwt>0</asrwt>
<pdfrwt beam="2">  1        1 0.18358662E+00 0.13112457E+03</pdfrwt>
<pdfrwt beam="1">  1       -1 0.22091936E-02 0.13112457E+03</pdfrwt>
<totfact> 0.66728903E+03</totfact>
</mgrwt>
</event>
<event>
 7    1  0.8165933E-006  0.1752439E+03  0.7546771E-02  0.1178687E+00
          1   -1    0    0  501    0  0.00000000000E+00  0.00000000000E+00  0.96927306202E+03  0.96927306202E+03  0.00000000000E+00 0. -1.
         -1   -1    0    0    0  501 -0.00000000000E+00 -0.00000000000E+00 -0.30014343681E+02  0.30014343681E+02  0.00000000000E+00 0.  1.
         23    2    1    2    0    0  0.86061492404E+02  0.87618886074E+02  0.63935091488E+03  0.66293288880E+03  0.12500709188E+03 0.  0.
          5    1    3    3  502    0  0.11050199668E+02 -0.31775315320E+02  0.11214191949E+03  0.11717370731E+03  0.47000000000E+01 0.  1.
         -5    1    3    3    0  502  0.75011292735E+02  0.11939420139E+03  0.52720899539E+03  0.54575918149E+03  0.47000000000E+01 0.  1.
        -11    1    1    2    0    0  0.29608872659E+01 -0.36983277009E+02  0.30143227835E+02  0.47803177886E+02  0.00000000000E+00 0. -1.
         11    1    1    2    0    0 -0.89022379670E+02 -0.50635609065E+02  0.26976457562E+03  0.28855133902E+03  0.00000000000E+00 0.  1.
<mgrwt>
<rscale>  0 0.16919752E+03</rscale>
<asrwt>0</asrwt>
<pdfrwt beam="1">  1        1 0.14911891E+00 0.17524389E+03</pdfrwt>
<pdfrwt beam="2">  1       -1 0.46175921E-02 0.17524389E+03</pdfrwt>
<totfact> 0.33112117E+03</totfact>
</mgrwt>
</event>
<event>
 7    1  0.8165933E-006  0.1268266E+03  0.7546771E-02  0.1245638E+00
          1   -1    0    0  501    0  0.00000000000E+00  0.00000000000E+00  0.12867840025E+04  0.12867840025E+04  0.00000000000E+00 0. -1.
         -1   -1    0    0    0  501 -0.00000000000E+00 -0.00000000000E+00 -0.97546533011E+01  0.97546533011E+01  0.00000000000E+00 0.  1.
         23    2    1    2    0    0  0.21363748541E+02 -0.19866357438E+01  0.77431860424E+03  0.78463639896E+03  0.12499848485E+03 0.  0.
          5    1    3    3  502    0  0.34981118181E+02 -0.33717984014E+02  0.12221540207E+03  0.13160271874E+03  0.47000000000E+01 0. -1.
         -5    1    3    3    0  502 -0.13617369640E+02  0.31731348270E+02  0.65210320217E+03  0.65303368022E+03  0.47000000000E+01 0. -1.
        -11    1    1    2    0    0 -0.13989484364E+02  0.47492824219E+02  0.29612485561E+03  0.30023524799E+03  0.00000000000E+00 0.  1.
         11    1    1    2    0    0 -0.73742641771E+01 -0.45506188476E+02  0.20658588938E+03  0.21166700890E+03  0.00000000000E+00 0. -1.
<mgrwt>
<rscale>  0 0.11847278E+03</rscale>
<asrwt>0</asrwt>
<pdfrwt beam="1">  1        1 0.19796663E+00 0.12682657E+03</pdfrwt>
<pdfrwt beam="2">  1       -1 0.15007169E-02 0.12682657E+03</pdfrwt>
<totfact> 0.10044116E+04</totfact>
</mgrwt>
</event>
<event>
 7    1  0.8165933E-006  0.1304538E+03  0.7546771E-02  0.1240510E+00
         -4   -1    0    0    0  501 -0.00000000000E+00  0.00000000000E+00  0.70195169027E+02  0.70195169027E+02  0.00000000000E+00 0.  1.
          4   -1    0    0  501    0  0.00000000000E+00 -0.00000000000E+00 -0.25638160252E+03  0.25638160252E+03  0.00000000000E+00 0. -1.
         23    2    1    2    0    0  0.37088729912E+02  0.41967414381E+01 -0.18716940201E+03  0.22814595090E+03  0.12500001334E+03 0.  0.
          5    1    3    3  502    0  0.52542324298E+01  0.20765935125E+02  0.12486637303E+02  0.25235632173E+02  0.47000000000E+01 0.  1.
         -5    1    3    3    0  502  0.31834497482E+02 -0.16569193687E+02 -0.19965603931E+03  0.20291031872E+03  0.47000000000E+01 0.  1.
        -11    1    1    2    0    0  0.10541107213E+02  0.16329672851E+02 -0.31658999602E+02  0.37149231654E+02  0.00000000000E+00 0. -1.
         11    1    1    2    0    0 -0.47629837125E+02 -0.20526414289E+02  0.32641968115E+02  0.61281589002E+02  0.00000000000E+00 0.  1.
<mgrwt>
<rscale>  0 0.12158217E+03</rscale>
<asrwt>0</asrwt>
<pdfrwt beam="2">  1        4 0.39443323E-01 0.13045378E+03</pdfrwt>
<pdfrwt beam="1">  1       -4 0.10799257E-01 0.13045378E+03</pdfrwt>
<totfact> 0.68375248E+02</totfact>
</mgrwt>
</event>
<event>
 6    1  0.8165933E-006  0.4433113E+03  0.7546771E-02  0.1062101E+00
         -2   -1    0    0    0  501 -0.00000000000E+00  0.00000000000E+00  0.90813643014E+03  0.90813643014E+03  0.00000000000E+00 0.  1.
          2   -1    0    0  501    0  0.00000000000E+00 -0.00000000000E+00 -0.11774653709E+03  0.11774653709E+03  0.00000000000E+00 0. -1.
          5    1    1    2  502    0  0.55918862440E+02 -0.22327365585E+03  0.96394318624E+02  0.24958365178E+03  0.47000000000E+01 0. -1.
         -5    1    1    2    0  502 -0.13875006565E+03  0.99657493519E+02  0.29922321809E+03  0.34458644920E+03  0.47000000000E+01 0.  1.
        -11    1    1    2    0    0  0.10109173159E+03  0.11669018343E+03  0.33581462604E+03  0.36960465387E+03  0.00000000000E+00 0.  1.
         11    1    1    2    0    0 -0.18260528383E+02  0.69259789065E+01  0.58957730302E+02  0.62108212363E+02  0.00000000000E+00 0. -1.
<mgrwt>
<rscale>  0 0.35125605E+03</rscale>
<asrwt>0</asrwt>
<pdfrwt beam="2">  1        2 0.18114852E-01 0.44331126E+03</pdfrwt>
<pdfrwt beam="1">  1       -2 0.13971329E+00 0.44331126E+03</pdfrwt>
<totfact> 0.11796356E+02</totfact>
</mgrwt>
</event>
<event>
 7    1  0.8165933E-006  0.1498886E+03  0.7546771E-02  0.1209452E+00
          2   -1    0    0  501    0  0.00000000000E+00  0.00000000000E+00  0.62169742968E+03  0.62169742968E+03  0.00000000000E+00 0. -1.
         -2   -1    0    0    0  501 -0.00000000000E+00 -0.00000000000E+00 -0.31709560749E+02  0.31709560749E+02  0.00000000000E+00 0.  1.
         23    2    1    2    0    0  0.79381579358E+02  0.23123171781E+02  0.39390544521E+03  0.42145948766E+03  0.12502193311E+03 0.  0.
          5    1    3    3  502    0 -0.83261377500E+01  0.25246164196E+02  0.25940406000E+03  0.26080500325E+03  0.47000000000E+01 0. -1.
         -5    1    3    3    0  502  0.87707717108E+02 -0.21229924142E+01  0.13450138521E+03  0.16065448441E+03  0.47000000000E+01 0. -1.
        -11    1    1    2    0    0 -0.61457416169E+02  0.60343849296E+01  0.43406210906E+02  0.75481964394E+02  0.00000000000E+00 0.  1.
         11    1    1    2    0    0 -0.17924163189E+02 -0.29157556711E+02  0.15267621282E+03  0.15646553838E+03  0.00000000000E+00 0. -1.
<mgrwt>
<rscale>  0 0.14292057E+03</rscale>
<asrwt>0</asrwt>
<pdfrwt beam="1">  1        2 0.95645750E-01 0.14988863E+03</pdfrwt>
<pdfrwt beam="2">  1       -2 0.48783944E-02 0.14988863E+03</pdfrwt>
<totfact> 0.94690056E+03</totfact>
</mgrwt>
</event>
<event>
 7    1  0.8165933E-006  0.1493961E+03  0.7546771E-02  0.1210250E+00
          1   -1    0    0  501    0  0.00000000000E+00  0.00000000000E+00  0.15139764122E+03  0.15139764122E+03  0.00000000000E+00 0. -1.
         -1   -1    0    0    0  501 -0.00000000000E+00 -0.00000000000E+00 -0.12644532225E+03  0.12644532225E+03  0.00000000000E+00 0.  1.
         23    2    1    2    0    0  0.63128132322E+02 -0.52043455172E+02  0.37957012058E+02  0.15414257152E+03  0.12500206108E+03 0.  0.
          5    1    3    3  502    0  0.82140336547E+02  0.10212284818E+02  0.11414810458E+02  0.83688192400E+02  0.47000000000E+01 0. -1.
         -5    1    3    3    0  502 -0.19012204225E+02 -0.62255739990E+02  0.26542201600E+02  0.70454379119E+02  0.47000000000E+01 0. -1.
        -11    1    1    2    0    0 -0.38839938123E+02  0.71778023349E+02 -0.31347648598E+02  0.87425971553E+02  0.00000000000E+00 0.  1.
         11    1    1    2    0    0 -0.24288194199E+02 -0.19734568177E+02  0.18342955503E+02  0.36274420398E+02  0.00000000000E+00 0. -1.
<mgrwt>
<rscale>  0 0.14231278E+03</rscale>
<asrwt>0</asrwt>
<pdfrwt beam="1">  1        1 0.23291945E-01 0.14939611E+03</pdfrwt>
<pdfrwt beam="2">  1       -1 0.19453127E-01 0.14939611E+03</pdfrwt>
<totfact> 0.42636314E+03</totfact>
</mgrwt>
</event>
<event>
 7    1  0.8165933E-006  0.1437323E+03  0.7546771E-02  0.1217302E+00
         -2   -1    0    0    0  501 -0.00000000000E+00  0.00000000000E+00  0.20026265514E+03  0.20026265514E+03  0.00000000000E+00 0.  1.
          2   -1    0    0  501    0  0.00000000000E+00 -0.00000000000E+00 -0.19827463827E+03  0.19827463827E+03  0.00000000000E+00 0. -1.
         23    2    1    2    0    0  0.45597428642E+02  0.54382148774E+02 -0.14853524678E+03  0.20669229704E+03  0.12498976964E+03 0.  0.
          5    1    3    3  502    0 -0.51138730195E+01  0.49082223671E+01 -0.13393396842E+03  0.13420372663E+03  0.47000000000E+01 0. -1.
         -5    1    3    3    0  502  0.50711301661E+02  0.49473926407E+02 -0.14601278357E+02  0.72488570409E+02  0.47000000000E+01 0. -1.
        -11    1    1    2    0    0 -0.25610095321E+02  0.71926762990E+00  0.12554108876E+03  0.12812868256E+03  0.00000000000E+00 0.  1.
         11    1    1    2    0    0 -0.19987333320E+02 -0.55101416404E+02  0.24982174896E+02  0.63716313810E+02  0.00000000000E+00 0. -1.
<mgrwt>
<rscale>  0 0.13708814E+03</rscale>
<asrwt>0</asrwt>
<pdfrwt beam="2">  1        2 0.30503791E-01 0.14373234E+03</pdfrwt>
<pdfrwt beam="1">  1       -2 0.30809639E-01 0.14373234E+03</pdfrwt>
<totfact> 0.16421444E+03</totfact>
</mgrwt>
</event>
<event>
 7    1  0.8165933E-006  0.1421415E+03  0.7546771E-02  0.1220881E+00
         -2   -1    0    0    0  501 -0.00000000000E+00  0.00000000000E+00  0.40228627128E+02  0.40228627128E+02  0.00000000000E+00 0.  1.
          2   -1    0    0  501    0  0.00000000000E+00 -0.00000000000E+00 -0.42074284375E+03  0.42074284375E+03  0.00000000000E+00 0. -1.
         23    2    1    2    0    0  0.52030608166E+02 -0.43299361546E+02 -0.25046387694E+03  0.28798673020E+03  0.12498873638E+03 0.  0.
          5    1    3    3  502    0  0.11547773368E+02  0.43667032292E+02 -0.67625249755E+02  0.81458119198E+02  0.47000000000E+01 0. -1.
         -5    1    3    3    0  502  0.40482834798E+02 -0.86966393837E+02 -0.18283862718E+03  0.20652861100E+03  0.47000000000E+01 0. -1.
        -11    1    1    2    0    0  0.80722312763E+01  0.40997885223E+02 -0.93981650226E+02  0.10285202035E+03  0.00000000000E+00 0. -1.
         11    1    1    2    0    0 -0.60102839442E+02  0.23014763230E+01 -0.36068689457E+02  0.70132720334E+02  0.00000000000E+00 0.  1.
<mgrwt>
<rscale>  0 0.13453272E+03</rscale>
<asrwt>0</asrwt>
<pdfrwt beam="2">  1        2 0.64729665E-01 0.14214149E+03</pdfrwt>
<pdfrwt beam="1">  1       -2 0.61890199E-02 0.14214149E+03</pdfrwt>
<totfact> 0.10148993E+04</totfact>
</mgrwt>
</event>
<event>
 7    1  0.8165933E-006  0.1379494E+03  0.7546771E-02  0.1220243E+00
          2   -1    0    0  501    0  0.00000000000E+00  0.00000000000E+00  0.85153467280E+03  0.85153467280E+03  0.00000000000E+00 0. -1.
         -2   -1    0    0    0  501 -0.00000000000E+00 -0.00000000000E+00 -0.20689697967E+02  0.20689697967E+02  0.00000000000E+00 0.  1.
         23    2    1    2    0    0  0.19183806102E+02 -0.51627309430E+00  0.43627363949E+03  0.45423325938E+03  0.12499952185E+03 0.  0.
          5    1    3    3  502    0  0.51744858906E+02  0.79666602041E-02  0.40666179364E+03  0.40996760225E+03  0.47000000000E+01 0. -1.
         -5    1    3    3    0  502 -0.32561052804E+02 -0.52423975450E+00  0.29611845846E+02  0.44265657134E+02  0.47000000000E+01 0. -1.
        -11    1    1    2    0    0 -0.70145249331E+02  0.30776575778E+02  0.18582061483E+03  0.20098968759E+03  0.00000000000E+00 0.  1.
         11    1    1    2    0    0  0.50961443229E+02 -0.30260302684E+02  0.20875072052E+03  0.21700142380E+03  0.00000000000E+00 0. -1.
<mgrwt>
<rscale>  0 0.13498379E+03</rscale>
<asrwt>0</asrwt>
<pdfrwt beam="1">  1        2 0.13100531E+00 0.13794938E+03</pdfrwt>
<pdfrwt beam="2">  1       -2 0.31830311E-02 0.13794938E+03</pdfrwt>
<totfact> 0.12157721E+04</totfact>
</mgrwt>
</event>
<event>
 6    1  0.8165933E-006  0.3612598E+03  0.7546771E-02  0.1059257E+00
         -1   -1    0    0    0  501 -0.00000000000E+00  0.00000000000E+00  0.11948070205E+04  0.11948070205E+04  0.00000000000E+00 0.  1.
          1   -1    0    0  501    0  0.00000000000E+00 -0.00000000000E+00 -0.11441168493E+03  0.11441168493E+03  0.00000000000E+00 0. -1.
          5    1    1    2  502    0  0.18340755353E+03  0.87359812106E+02  0.14537631528E+03  0.24985281769E+03  0.47000000000E+01 0. -1.
         -5    1    1    2    0  502  0.14490865805E+03 -0.89790952659E+01  0.22270044698E+03  0.26588855262E+03  0.47000000000E+01 0.  1.
        -11    1    1    2    0    0 -0.74772577328E+02  0.19763660665E+02  0.14307761324E+03  0.16264299559E+03  0.00000000000E+00 0. -1.
         11    1    1    2    0    0 -0.25354363426E+03 -0.98144377505E+02  0.56924096006E+03  0.63083433952E+03  0.00000000000E+00 0.  1.
<mgrwt>
<rscale>  0 0.35830464E+03</rscale>
<asrwt>0</asrwt>
<pdfrwt beam="2">  1        1 0.17601799E-01 0.36125982E+03</pdfrwt>
<pdfrwt beam="1">  1       -1 0.18381646E+00 0.36125982E+03</pdfrwt>
<totfact> 0.64344719E+01</totfact>
</mgrwt>
</event>
<event>
 7    1  0.8165933E-006  0.1780343E+03  0.7546771E-02  0.1175550E+00
         -1   -1    0    0    0  501 -0.00000000000E+00  0.00000000000E+00  0.17132687926E+03  0.17132687926E+03  0.00000000000E+00 0.  1.
          1   -1    0    0  501    0  0.00000000000E+00 -0.00000000000E+00 -0.17394269259E+03  0.17394269259E+03  0.00000000000E+00 0. -1.
         23    2    1    2    0    0  0.98953923574E+02  0.79229526562E+02 -0.45150559984E+02  0.18367029111E+03  0.12500802334E+03 0.  0.
          5    1    3    3  502    0 -0.18276611983E+02  0.14761227107E+02  0.23208613487E+02  0.33356530265E+02  0.47000000000E+01 0.  1.
         -5    1    3    3    0  502  0.11723053556E+03  0.64468299455E+02 -0.68359173471E+02  0.15031376084E+03  0.47000000000E+01 0.  1.
        -11    1    1    2    0    0  0.23706958214E+01 -0.12508119697E+02  0.38130766894E+02  0.40199858718E+02  0.00000000000E+00 0.  1.
         11    1    1    2    0    0 -0.10132461940E+03 -0.66721406864E+02  0.44039797601E+01  0.12139942202E+03  0.00000000000E+00 0. -1.
<mgrwt>
<rscale>  0 0.17222252E+03</rscale>
<asrwt>0</asrwt>
<pdfrwt beam="2">  1        1 0.26760414E-01 0.17803427E+03</pdfrwt>
<pdfrwt beam="1">  1       -1 0.26357981E-01 0.17803427E+03</pdfrwt>
<totfact> 0.21960981E+03</totfact>
</mgrwt>
</event>
<event>
 7    1  0.8165933E-006  0.1506791E+03  0.7546771E-02  0.1208489E+00
         -1   -1    0    0    0  501 -0.00000000000E+00  0.00000000000E+00  0.31531915101E+03  0.31531915101E+03  0.00000000000E+00 0.  1.
          1   -1    0    0  501    0  0.00000000000E+00 -0.00000000000E+00 -0.11442892947E+03  0.11442892947E+03  0.00000000000E+00 0. -1.
         23    2    1    2    0    0 -0.76981466080E+02 -0.34816704953E+02 -0.42332359337E+02  0.15651264106E+03  0.12476309191E+03 0.  0.
          5    1    3    3  502    0 -0.10358080560E+03 -0.40865887378E+02 -0.57006424356E+02  0.12518317163E+03  0.47000000000E+01 0. -1.
         -5    1    3    3    0  502  0.26599339522E+02  0.60491824247E+01  0.14674065019E+02  0.31329469437E+02  0.47000000000E+01 0.  1.
        -11    1    1    2    0    0  0.14684933079E+02  0.97899102337E+01 -0.31074739929E+01  0.17920546770E+02  0.00000000000E+00 0. -1.
         11    1    1    2    0    0  0.62296533001E+02  0.25026794720E+02  0.24633005487E+03  0.25531489265E+03  0.00000000000E+00 0.  1.
<mgrwt>
<rscale>  0 0.14365888E+03</rscale>
<asrwt>0</asrwt>
<pdfrwt beam="2">  1        1 0.17604451E-01 0.15067906E+03</pdfrwt>
<pdfrwt beam="1">  1       -1 0.48510638E-01 0.15067906E+03</pdfrwt>
<totfact> 0.12925613E+03</totfact>
</mgrwt>
</event>
<event>
 6    1  0.8165933E-006  0.1743417E+03  0.7546771E-02  0.1189064E+00
          1   -1    0    0  501    0  0.00000000000E+00  0.00000000000E+00  0.35717392899E+03  0.35717392899E+03  0.00000000000E+00 0. -1.
         -1   -1    0    0    0  501 -0.00000000000E+00 -0.00000000000E+00 -0.71563070150E+02  0.71563070150E+02  0.00000000000E+00 0.  1.
          5    1    1    2  502    0 -0.52633598349E+02  0.83102790448E+02  0.18994981695E+03  0.21396119371E+03  0.47000000000E+01 0. -1.
         -5    1    1    2    0  502 -0.29673545302E+02 -0.59276362298E+02  0.52640819832E+02  0.84778253878E+02  0.47000000000E+01 0.  1.
        -11    1    1    2    0    0  0.36005542341E+02  0.31577601209E+02  0.30328167285E+02  0.56686344989E+02  0.00000000000E+00 0. -1.
         11    1    1    2    0    0  0.46301601310E+02 -0.55404029359E+02  0.12692054775E+02  0.73311206562E+02  0.00000000000E+00 0.  1.
<mgrwt>
<rscale>  0 0.15967544E+03</rscale>
<asrwt>0</asrwt>
<pdfrwt beam="1">  1        1 0.54949834E-01 0.17434173E+03</pdfrwt>
<pdfrwt beam="2">  1       -1 0.11009703E-01 0.17434173E+03</pdfrwt>
<totfact> 0.35970354E+03</totfact>
</mgrwt>
</event>
<event>
 7    1  0.8165933E-006  0.1297006E+03  0.7546771E-02  0.1239794E+00
         -4   -1    0    0    0  501 -0.00000000000E+00  0.00000000000E+00  0.70508970190E+02  0.70508970190E+02  0.00000000000E+00 0.  1.
          4   -1    0    0  501    0  0.00000000000E+00 -0.00000000000E+00 -0.18981306314E+03  0.18981306314E+03  0.00000000000E+00 0. -1.
         23    2    1    2    0    0 -0.34224632867E+02  0.53861915162E+01 -0.63999589020E+02  0.14463122791E+03  0.12498763194E+03 0.  0.
          5    1    3    3  502    0 -0.21300691795E+02 -0.45631875142E+02 -0.75192205692E+02  0.90619784246E+02  0.47000000000E+01 0.  1.
         -5    1    3    3    0  502 -0.12923941072E+02  0.51018066658E+02  0.11192616672E+02  0.54011443661E+02  0.47000000000E+01 0.  1.
        -11    1    1    2    0    0  0.95003936871E+01  0.42215815097E+02 -0.76555548941E+01  0.43943600731E+02  0.00000000000E+00 0.  1.
         11    1    1    2    0    0  0.24724239180E+02 -0.47602006613E+02 -0.47648949031E+02  0.71747204687E+02  0.00000000000E+00 0. -1.
<mgrwt>
<rscale>  0 0.12202444E+03</rscale>
<asrwt>0</asrwt>
<pdfrwt beam="2">  1        4 0.29202010E-01 0.12970060E+03</pdfrwt>
<pdfrwt beam="1">  1       -4 0.10847534E-01 0.12970060E+03</pdfrwt>
<totfact> 0.12073238E+03</totfact>
</mgrwt>
</event>
<event>
 7    1  0.8165933E-006  0.1652641E+03  0.7546771E-02  0.1189650E+00
         -1   -1    0    0    0  501 -0.00000000000E+00  0.00000000000E+00  0.94511027539E+02  0.94511027539E+02  0.00000000000E+00 0.  1.
          1   -1    0    0  501    0  0.00000000000E+00 -0.00000000000E+00 -0.25000759435E+03  0.25000759435E+03  0.00000000000E+00 0. -1.
         23    2    1    2    0    0 -0.47884203185E+02 -0.96935940081E+02 -0.82696767885E+02  0.18479982954E+03  0.12499099242E+03 0.  0.
          5    1    3    3  502    0  0.70687494544E+01 -0.84057245538E+02  0.10009108318E+00  0.84484837483E+02  0.47000000000E+01 0. -1.
         -5    1    3    3    0  502 -0.54952952639E+02 -0.12878694543E+02 -0.82796858968E+02  0.10031499206E+03  0.47000000000E+01 0. -1.
        -11    1    1    2    0    0  0.11792625673E+02  0.25406561337E+02 -0.74489803060E+02  0.79581971194E+02  0.00000000000E+00 0. -1.
         11    1    1    2    0    0  0.36091577512E+02  0.71529378744E+02  0.16900041313E+01  0.80136821155E+02  0.00000000000E+00 0.  1.
<mgrwt>
<rscale>  0 0.15915872E+03</rscale>
<asrwt>0</asrwt>
<pdfrwt beam="2">  1        1 0.38462706E-01 0.16526410E+03</pdfrwt>
<pdfrwt beam="1">  1       -1 0.14540158E-01 0.16526410E+03</pdfrwt>
<totfact> 0.36323774E+03</totfact>
</mgrwt>
</event>
<event>
 7    1  0.8165933E-006  0.1651066E+03  0.7546771E-02  0.1189980E+00
         -1   -1    0    0    0  501 -0.00000000000E+00  0.00000000000E+00  0.20102515401E+03  0.20102515401E+03  0.00000000000E+00 0.  1.
          1   -1    0    0  501    0  0.00000000000E+00 -0.00000000000E+00 -0.11871032821E+03  0.11871032821E+03  0.00000000000E+00 0. -1.
         23    2    1    2    0    0 -0.51425741586E+02 -0.94820983586E+02  0.24785271391E+02  0.16695659407E+03  0.12499827518E+03 0.  0.
          5    1    3    3  502    0 -0.83437472885E+02 -0.97390668372E+02  0.39578172071E+01  0.12839201098E+03  0.47000000000E+01 0.  1.
         -5    1    3    3    0  502  0.32011731299E+02  0.25696847862E+01  0.20827454184E+02  0.38564583084E+02  0.47000000000E+01 0.  1.
        -11    1    1    2    0    0  0.65940972182E+01  0.93228626748E+02  0.53616271231E+02  0.10774861254E+03  0.00000000000E+00 0.  1.
         11    1    1    2    0    0  0.44831644368E+02  0.15923568377E+01  0.39132831746E+01  0.45030275618E+02  0.00000000000E+00 0. -1.
<mgrwt>
<rscale>  0 0.15886864E+03</rscale>
<asrwt>0</asrwt>
<pdfrwt beam="2">  1        1 0.18263127E-01 0.16510662E+03</pdfrwt>
<pdfrwt beam="1">  1       -1 0.30926947E-01 0.16510662E+03</pdfrwt>
<totfact> 0.27222913E+03</totfact>
</mgrwt>
</event>
<event>
 7    1  0.8165933E-006  0.1510281E+03  0.7546771E-02  0.1208214E+00
         -2   -1    0    0    0  501 -0.00000000000E+00  0.00000000000E+00  0.44667445208E+02  0.44667445208E+02  0.00000000000E+00 0.  1.
          2   -1    0    0  501    0  0.00000000000E+00 -0.00000000000E+00 -0.46157897613E+03  0.46157897613E+03  0.00000000000E+00 0. -1.
         23    2    1    2    0    0  0.64921756866E+02 -0.54494427453E+02 -0.29845303726E+03  0.33449019413E+03  0.12499998952E+03 0.  0.
          5    1    3    3  502    0  0.43324787140E+02 -0.74979652436E+02 -0.94262563418E+02  0.12808788515E+03  0.47000000000E+01 0.  1.
         -5    1    3    3    0  502  0.21596969726E+02  0.20485224984E+02 -0.20419047384E+03  0.20640230897E+03  0.47000000000E+01 0.  1.
        -11    1    1    2    0    0 -0.70407774597E+02  0.66318420358E+01 -0.94273375700E+02  0.11785035180E+03  0.00000000000E+00 0. -1.
         11    1    1    2    0    0  0.54860177313E+01  0.47862585417E+02 -0.24185117964E+02  0.53905875415E+02  0.00000000000E+00 0.  1.
<mgrwt>
<rscale>  0 0.14387050E+03</rscale>
<asrwt>0</asrwt>
<pdfrwt beam="2">  1        2 0.71012146E-01 0.15102806E+03</pdfrwt>
<pdfrwt beam="1">  1       -2 0.68719151E-02 0.15102806E+03</pdfrwt>
<totfact> 0.78563455E+03</totfact>
</mgrwt>
</event>
<event>
 7    1  0.8165933E-006  0.1384517E+03  0.7546771E-02  0.1227300E+00
          2   -1    0    0  501    0  0.00000000000E+00  0.00000000000E+00  0.23135364314E+03  0.23135364314E+03  0.00000000000E+00 0. -1.
         -2   -1    0    0    0  501 -0.00000000000E+00 -0.00000000000E+00 -0.11649698100E+03  0.11649698100E+03  0.00000000000E+00 0.  1.
         23    2    1    2    0    0 -0.29021615617E+02  0.51953449927E+02  0.17587744504E+03  0.22383418388E+03  0.12500980389E+03 0.  0.
          5    1    3    3  502    0  0.38719444592E+02  0.53444755989E+02  0.11474529311E+03  0.13245417934E+03  0.47000000000E+01 0. -1.
         -5    1    3    3    0  502 -0.67741060209E+02 -0.14913060615E+01  0.61132151922E+02  0.91380004545E+02  0.47000000000E+01 0. -1.
        -11    1    1    2    0    0 -0.48092404856E+01 -0.50861224307E+02  0.34455650125E+01  0.51204148761E+02  0.00000000000E+00 0. -1.
         11    1    1    2    0    0  0.33830856102E+02 -0.10922256205E+01 -0.64466347904E+02  0.72812291500E+02  0.00000000000E+00 0.  1.
<mgrwt>
<rscale>  0 0.13010527E+03</rscale>
<asrwt>0</asrwt>
<pdfrwt beam="1">  1        2 0.35592868E-01 0.13845167E+03</pdfrwt>
<pdfrwt beam="2">  1       -2 0.17922612E-01 0.13845167E+03</pdfrwt>
<totfact> 0.35530283E+03</totfact>
</mgrwt>
</event>
<event>
 6    1  0.8165933E-006  0.2048983E+03  0.7546771E-02  0.1165594E+00
          1   -1    0    0  501    0  0.00000000000E+00  0.00000000000E+00  0.78443251457E+03  0.78443251457E+03  0.00000000000E+00 0. -1.
         -1   -1    0    0    0  501 -0.00000000000E+00 -0.00000000000E+00 -0.71214955385E+02  0.71214955385E+02  0.00000000000E+00 0.  1.
          5    1    1    2  502    0 -0.51832279429E+02  0.74742070255E+02  0.64983479901E+03  0.65618619176E+03  0.47000000000E+01 0. -1.
         -5    1    1    2    0  502  0.50310155696E+02  0.12357064235E+02  0.46854424895E+02  0.70008827550E+02  0.47000000000E+01 0.  1.
        -11    1    1    2    0    0  0.13786026484E+02 -0.10511229833E+03  0.18333651476E+02  0.10758611696E+03  0.00000000000E+00 0.  1.
         11    1    1    2    0    0 -0.12263902751E+02  0.18013163838E+02 -0.18053161952E+01  0.21866333682E+02  0.00000000000E+00 0. -1.
<mgrwt>
<rscale>  0 0.18230104E+03</rscale>
<asrwt>0</asrwt>
<pdfrwt beam="1">  1        1 0.12068192E+00 0.20489834E+03</pdfrwt>
<pdfrwt beam="2">  1       -1 0.10956148E-01 0.20489834E+03</pdfrwt>
<totfact> 0.12555066E+03</totfact>
</mgrwt>
</event>
<event>
 7    1  0.8165933E-006  0.1284683E+03  0.7546771E-02  0.1243622E+00
          2   -1    0    0  501    0  0.00000000000E+00  0.00000000000E+00  0.16787034880E+03  0.16787034880E+03  0.00000000000E+00 0. -1.
         -2   -1    0    0    0  501 -0.00000000000E+00 -0.00000000000E+00 -0.90713305072E+02  0.90713305072E+02  0.00000000000E+00 0.  1.
         23    2    1    2    0    0 -0.22953426095E+02 -0.18819309053E+02  0.95521504467E+02  0.16008889042E+03  0.12499227519E+03 0.  0.
          5    1    3    3  502    0  0.46995297029E+02  0.61017761904E+01  0.13824377647E+02  0.49588234823E+02  0.47000000000E+01 0. -1.
         -5    1    3    3    0  502 -0.69948723124E+02 -0.24921085243E+02  0.81697126820E+02  0.11050065560E+03  0.47000000000E+01 0. -1.
        -11    1    1    2    0    0  0.15809223459E+02  0.56348030794E+02 -0.12513376948E+02  0.59846609958E+02  0.00000000000E+00 0. -1.
         11    1    1    2    0    0  0.71442026361E+01 -0.37528721742E+02 -0.58510837941E+01  0.38648153493E+02  0.00000000000E+00 0.  1.
<mgrwt>
<rscale>  0 0.11968215E+03</rscale>
<asrwt>0</asrwt>
<pdfrwt beam="1">  1        2 0.25826208E-01 0.12846826E+03</pdfrwt>
<pdfrwt beam="2">  1       -2 0.13955893E-01 0.12846826E+03</pdfrwt>
<totfact> 0.75488380E+03</totfact>
</mgrwt>
</event>
<event>
 7    1  0.8165933E-006  0.1294329E+03  0.7546771E-02  0.1241758E+00
          4   -1    0    0  501    0  0.00000000000E+00  0.00000000000E+00  0.37837575247E+02  0.37837575247E+02  0.00000000000E+00 0.  1.
         -4   -1    0    0    0  501 -0.00000000000E+00 -0.00000000000E+00 -0.42480842602E+03  0.42480842602E+03  0.00000000000E+00 0. -1.
         23    2    1    2    0    0  0.29960897388E+02  0.15177442086E+02 -0.11381561006E+03  0.17235681808E+03  0.12499947810E+03 0.  0.
          5    1    3    3  502    0  0.35058520525E+02 -0.44881583185E+02 -0.19602420037E+02  0.60413584912E+02  0.47000000000E+01 0.  1.
         -5    1    3    3    0  502 -0.50976231376E+01  0.60059025271E+02 -0.94213190024E+02  0.11194323317E+03  0.47000000000E+01 0.  1.
        -11    1    1    2    0    0  0.24612099769E+02 -0.19640134237E+02 -0.40625357491E+02  0.51399513608E+02  0.00000000000E+00 0.  1.
         11    1    1    2    0    0 -0.54572997157E+02  0.44626921505E+01 -0.23252988322E+03  0.23888966958E+03  0.00000000000E+00 0. -1.
<mgrwt>
<rscale>  0 0.12081535E+03</rscale>
<asrwt>0</asrwt>
<pdfrwt beam="1">  1        4 0.58211653E-02 0.12943292E+03</pdfrwt>
<pdfrwt beam="2">  1       -4 0.65355143E-01 0.12943292E+03</pdfrwt>
<totfact> 0.67700101E+02</totfact>
</mgrwt>
</event>
<event>
 7    1  0.8165933E-006  0.1268910E+03  0.7546771E-02  0.1247148E+00
         -1   -1    0    0    0  501 -0.00000000000E+00  0.00000000000E+00  0.10404002379E+03  0.10404002379E+03  0.00000000000E+00 0.  1.
          1   -1    0    0  501    0  0.00000000000E+00 -0.00000000000E+00 -0.11803498735E+03  0.11803498735E+03  0.00000000000E+00 0. -1.
         23    2    1    2    0    0 -0.17559945166E+02  0.12908180140E+02 -0.19458037089E+02  0.12837418675E+03  0.12500537519E+03 0.  0.
          5    1    3    3  502    0  0.42188526611E+02  0.22095802613E+01 -0.45403347390E+02  0.62195723138E+02  0.47000000000E+01 0.  1.
         -5    1    3    3    0  502 -0.59748471777E+02  0.10698599879E+02  0.25945310301E+02  0.66178463609E+02  0.47000000000E+01 0.  1.
        -11    1    1    2    0    0 -0.15991238845E+02  0.20949581356E+02  0.30130326159E+02  0.40030503784E+02  0.00000000000E+00 0.  1.
         11    1    1    2    0    0  0.33551184010E+02 -0.33857761496E+02 -0.24667252623E+02  0.53670320606E+02  0.00000000000E+00 0. -1.
<mgrwt>
<rscale>  0 0.11757745E+03</rscale>
<asrwt>0</asrwt>
<pdfrwt beam="2">  1        1 0.18159229E-01 0.12689096E+03</pdfrwt>
<pdfrwt beam="1">  1       -1 0.16006157E-01 0.12689096E+03</pdfrwt>
<totfact> 0.78866977E+03</totfact>
</mgrwt>
</event>
<event>
 7    1  0.8165933E-006  0.1334716E+03  0.7546771E-02  0.1235367E+00
          2   -1    0    0  501    0  0.00000000000E+00  0.00000000000E+00  0.99960986510E+03  0.99960986510E+03  0.00000000000E+00 0. -1.
         -2   -1    0    0    0  501 -0.00000000000E+00 -0.00000000000E+00 -0.74869239431E+02  0.74869239431E+02  0.00000000000E+00 0.  1.
         23    2    1    2    0    0  0.17321754124E+02  0.39449852316E+02  0.95791483491E+03  0.96716880258E+03  0.12632627488E+03 0.  0.
          5    1    3    3  502    0  0.13367829661E+02  0.74583181178E+02  0.85270681495E+03  0.85607964118E+03  0.47000000000E+01 0. -1.
         -5    1    3    3    0  502  0.39539244633E+01 -0.35133328862E+02  0.10520801996E+03  0.11108916140E+03  0.47000000000E+01 0.  1.
        -11    1    1    2    0    0 -0.15667068674E+02  0.28605207694E+02 -0.19098787203E+02  0.37795219547E+02  0.00000000000E+00 0.  1.
         11    1    1    2    0    0 -0.16546854505E+01 -0.68055060009E+02 -0.14075422036E+02  0.69515082409E+02  0.00000000000E+00 0. -1.
<mgrwt>
<rscale>  0 0.12480985E+03</rscale>
<asrwt>0</asrwt>
<pdfrwt beam="1">  1        2 0.15378612E+00 0.13347158E+03</pdfrwt>
<pdfrwt beam="2">  1       -2 0.11518345E-01 0.13347158E+03</pdfrwt>
<totfact> 0.13874156E+03</totfact>
</mgrwt>
</event>
<event>
 7    1  0.8165933E-006  0.1867700E+03  0.7546771E-02  0.1166371E+00
          1   -1    0    0  501    0  0.00000000000E+00  0.00000000000E+00  0.26706404441E+03  0.26706404441E+03  0.00000000000E+00 0. -1.
         -1   -1    0    0    0  501 -0.00000000000E+00 -0.00000000000E+00 -0.11688516042E+03  0.11688516042E+03  0.00000000000E+00 0.  1.
         23    2    1    2    0    0  0.94118152883E+02 -0.10200307895E+03  0.83241503776E+02  0.20448030981E+03  0.12498077585E+03 0.  0.
          5    1    3    3  502    0  0.10834345359E+03 -0.12105401413E+03  0.71773699204E+02  0.17766803925E+03  0.47000000000E+01 0.  1.
         -5    1    3    3    0  502 -0.14225300707E+02  0.19050935176E+02  0.11467804572E+02  0.26812270568E+02  0.47000000000E+01 0.  1.
        -11    1    1    2    0    0 -0.78409554743E+02  0.10073632598E+03  0.19067328363E+02  0.12907140914E+03  0.00000000000E+00 0.  1.
         11    1    1    2    0    0 -0.15708598140E+02  0.12667529748E+01  0.47870051853E+02  0.50397485881E+02  0.00000000000E+00 0. -1.
<mgrwt>
<rscale>  0 0.18148727E+03</rscale>
<asrwt>0</asrwt>
<pdfrwt beam="1">  1        1 0.41086776E-01 0.18677004E+03</pdfrwt>
<pdfrwt beam="2">  1       -1 0.17982332E-01 0.18677004E+03</pdfrwt>
<totfact> 0.24000528E+03</totfact>
</mgrwt>
</event>
<event>
 7    1  0.8165933E-006  0.1289366E+03  0.7546771E-02  0.1241960E+00
          2   -1    0    0  501    0  0.00000000000E+00  0.00000000000E+00  0.40976565603E+03  0.40976565603E+03  0.00000000000E+00 0. -1.
         -2   -1    0    0    0  501 -0.00000000000E+00 -0.00000000000E+00 -0.32222842453E+02  0.32222842453E+02  0.00000000000E+00 0.  1.
         23    2    1    2    0    0  0.29516367102E+02  0.11337899008E+02  0.18512541144E+03  0.22560158683E+03  0.12499957656E+03 0.  0.
          5    1    3    3  502    0 -0.87115248458E+01  0.61438150215E+02  0.65742128087E+02  0.90524330279E+02  0.47000000000E+01 0.  1.
         -5    1    3    3    0  502  0.38227891948E+02 -0.50100251207E+02  0.11938328336E+03  0.13507725656E+03  0.47000000000E+01 0.  1.
        -11    1    1    2    0    0 -0.49535537625E+02  0.66788305467E+01  0.47383780680E+02  0.68873789912E+02  0.00000000000E+00 0.  1.
         11    1    1    2    0    0  0.20019170523E+02 -0.18016729555E+02  0.14503362146E+03  0.14751312174E+03  0.00000000000E+00 0. -1.
<mgrwt>
<rscale>  0 0.12069217E+03</rscale>
<asrwt>0</asrwt>
<pdfrwt beam="1">  1        2 0.63040866E-01 0.12893664E+03</pdfrwt>
<pdfrwt beam="2">  1       -2 0.49573607E-02 0.12893664E+03</pdfrwt>
<totfact> 0.14487346E+04</totfact>
</mgrwt>
</event>
<event>
 6    1  0.8165933E-006  0.2106864E+03  0.7546771E-02  0.1212416E+00
         -2   -1    0    0    0  501 -0.00000000000E+00  0.00000000000E+00  0.67430613638E+02  0.67430613638E+02  0.00000000000E+00 0.  1.
          2   -1    0    0  501    0  0.00000000000E+00 -0.00000000000E+00 -0.28941472127E+03  0.28941472127E+03  0.00000000000E+00 0. -1.
          5    1    1    2  502    0 -0.64120720685E+02 -0.77770596763E+02 -0.20605376222E+03  0.22943403293E+03  0.47000000000E+01 0. -1.
         -5    1    1    2    0  502  0.53662900333E+02  0.59182013239E+02 -0.26348198285E+02  0.84252804797E+02  0.47000000000E+01 0.  1.
        -11    1    1    2    0    0  0.10589441173E+02  0.29241261088E+02  0.92217678309E+01  0.32438073561E+02  0.00000000000E+00 0.  1.
         11    1    1    2    0    0 -0.13162082079E+00 -0.10652677565E+02  0.11960850335E+01  0.10720423627E+02  0.00000000000E+00 0. -1.
<mgrwt>
<rscale>  0 0.14068083E+03</rscale>
<asrwt>0</asrwt>
<pdfrwt beam="2">  1        2 0.44525343E-01 0.21068640E+03</pdfrwt>
<pdfrwt beam="1">  1       -2 0.10373940E-01 0.21068640E+03</pdfrwt>
<totfact> 0.69607248E+03</totfact>
</mgrwt>
</event>
<event>
 6    1  0.8165933E-006  0.3551436E+03  0.7546771E-02  0.1110694E+00
         -2   -1    0    0    0  501 -0.00000000000E+00  0.00000000000E+00  0.18689631595E+03  0.18689631595E+03  0.00000000000E+00 0.  1.
          2   -1    0    0  501    0  0.00000000000E+00 -0.00000000000E+00 -0.27979160336E+03  0.27979160336E+03  0.00000000000E+00 0. -1.
          5    1    1    2  502    0 -0.21119507297E+02 -0.11279342820E+03 -0.18972364967E+03  0.22177814202E+03  0.47000000000E+01 0. -1.
         -5    1    1    2    0  502  0.18341058717E+02  0.12598934839E+03  0.79383248376E+02  0.15011162668E+03  0.47000000000E+01 0.  1.
        -11    1    1    2    0    0 -0.25827563191E+02 -0.43993192513E+02  0.12070393453E+02  0.52422880557E+02  0.00000000000E+00 0. -1.
         11    1    1    2    0    0  0.28606011770E+02  0.30797272323E+02  0.53747204294E+01  0.42375270047E+02  0.00000000000E+00 0.  1.
<mgrwt>
<rscale>  0 0.25417494E+03</rscale>
<asrwt>0</asrwt>
<pdfrwt beam="2">  1        2 0.43044862E-01 0.35514363E+03</pdfrwt>
<pdfrwt beam="1">  1       -2 0.28753279E-01 0.35514363E+03</pdfrwt>
<totfact> 0.13086716E+03</totfact>
</mgrwt>
</event>
<event>
 7    1  0.8165933E-006  0.1305246E+03  0.7546771E-02  0.1240428E+00
          2   -1    0    0  501    0  0.00000000000E+00  0.00000000000E+00  0.19021980038E+04  0.19021980038E+04  0.00000000000E+00 0. -1.
         -2   -1    0    0    0  501 -0.00000000000E+00 -0.00000000000E+00 -0.80265757365E+01  0.80265757365E+01  0.00000000000E+00 0.  1.
         23    2    1    2    0    0  0.26055704236E+02 -0.27082534324E+02  0.14175091504E+04  0.14235058356E+04  0.12499723562E+03 0.  0.
          5    1    3    3  502    0  0.70968571356E+02 -0.39077746634E+02  0.75431428414E+03  0.75866707960E+03  0.47000000000E+01 0.  1.
         -5    1    3    3    0  502 -0.44912867120E+02  0.11995212310E+02  0.66319486629E+03  0.66483875596E+03  0.47000000000E+01 0.  1.
        -11    1    1    2    0    0  0.20959912618E+02 -0.21528437073E+02  0.17582910029E+03  0.17837786872E+03  0.00000000000E+00 0. -1.
         11    1    1    2    0    0 -0.47015616853E+02  0.48610971396E+02  0.30083317730E+03  0.30834087522E+03  0.00000000000E+00 0.  1.
<mgrwt>
<rscale>  0 0.12163253E+03</rscale>
<asrwt>0</asrwt>
<pdfrwt beam="1">  1        2 0.29264549E+00 0.13052460E+03</pdfrwt>
<pdfrwt beam="2">  1       -2 0.12348593E-02 0.13052460E+03</pdfrwt>
<totfact> 0.12797180E+04</totfact>
</mgrwt>
</event>
<event>
 7    1  0.8165933E-006  0.1441487E+03  0.7546771E-02  0.1218985E+00
          2   -1    0    0  501    0  0.00000000000E+00  0.00000000000E+00  0.36434811761E+03  0.36434811761E+03  0.00000000000E+00 0.  1.
         -2   -1    0    0    0  501 -0.00000000000E+00 -0.00000000000E+00 -0.60670736878E+02  0.60670736878E+02  0.00000000000E+00 0. -1.
         23    2    1    2    0    0 -0.57645224559E+02  0.42803883972E+02  0.27043740448E+03  0.30645592758E+03  0.12499480555E+03 0.  0.
          5    1    3    3  502    0 -0.47230552193E+02 -0.20626199948E+02  0.21593366472E+03  0.22204864949E+03  0.47000000000E+01 0.  1.
         -5    1    3    3    0  502 -0.10414672367E+02  0.63430083920E+02  0.54503739760E+02  0.84407278089E+02  0.47000000000E+01 0.  1.
        -11    1    1    2    0    0  0.13693623008E+01  0.24521258365E+02 -0.46712246788E+00  0.24563905804E+02  0.00000000000E+00 0.  1.
         11    1    1    2    0    0  0.56275862258E+02 -0.67325142337E+02  0.33707098725E+02  0.93999021102E+02  0.00000000000E+00 0. -1.
<mgrwt>
<rscale>  0 0.13587867E+03</rscale>
<asrwt>0</asrwt>
<pdfrwt beam="1">  1        2 0.56053555E-01 0.14414869E+03</pdfrwt>
<pdfrwt beam="2">  1       -2 0.93339597E-02 0.14414869E+03</pdfrwt>
<totfact> 0.62892403E+03</totfact>
</mgrwt>
</event>
<event>
 7    1  0.8165933E-006  0.1439824E+03  0.7546771E-02  0.1218412E+00
          1   -1    0    0  501    0  0.00000000000E+00  0.00000000000E+00  0.49113983841E+02  0.49113983841E+02  0.00000000000E+00 0. -1.
         -1   -1    0    0    0  501 -0.00000000000E+00 -0.00000000000E+00 -0.42511147549E+03  0.42511147549E+03  0.00000000000E+00 0.  1.
         23    2    1    2    0    0 -0.16400729082E+02 -0.69448669399E+02 -0.10086061710E+03  0.17579471834E+03  0.12505525706E+03 0.  0.
          5    1    3    3  502    0 -0.64942850088E+02 -0.69290620101E+02 -0.63107348932E+02  0.11412007405E+03  0.47000000000E+01 0. -1.
         -5    1    3    3    0  502  0.48542121006E+02 -0.15804929753E+00 -0.37753268163E+02  0.61674644290E+02  0.47000000000E+01 0. -1.
        -11    1    1    2    0    0 -0.18755979117E+02  0.71250491381E+02 -0.13346836242E+03  0.15245400303E+03  0.00000000000E+00 0. -1.
         11    1    1    2    0    0  0.35156708198E+02 -0.18018219825E+01 -0.14166851214E+03  0.14597673796E+03  0.00000000000E+00 0.  1.
<mgrwt>
<rscale>  0 0.13628882E+03</rscale>
<asrwt>0</asrwt>
<pdfrwt beam="1">  1        1 0.75559973E-02 0.14398236E+03</pdfrwt>
<pdfrwt beam="2">  1       -1 0.65401767E-01 0.14398236E+03</pdfrwt>
<totfact> 0.22443796E+03</totfact>
</mgrwt>
</event>
<event>
 7    1  0.8165933E-006  0.1356437E+03  0.7546771E-02  0.1231460E+00
         -4   -1    0    0    0  501 -0.00000000000E+00  0.00000000000E+00  0.29302691690E+02  0.29302691690E+02  0.00000000000E+00 0.  1.
          4   -1    0    0  501    0  0.00000000000E+00 -0.00000000000E+00 -0.49764184838E+03  0.49764184838E+03  0.00000000000E+00 0. -1.
         23    2    1    2    0    0 -0.44475121705E+02  0.28250204495E+02 -0.28063046908E+03  0.31169324491E+03  0.12499243275E+03 0.  0.
          5    1    3    3  502    0 -0.63635055586E+02  0.65040377594E+02 -0.16107741135E+03  0.18506132353E+03  0.47000000000E+01 0. -1.
         -5    1    3    3    0  502  0.19159933881E+02 -0.36790173099E+02 -0.11955305772E+03  0.12663192139E+03  0.47000000000E+01 0. -1.
        -11    1    1    2    0    0 -0.23215917958E+02 -0.29514138021E+02 -0.62613254100E+02  0.73010155312E+02  0.00000000000E+00 0.  1.
         11    1    1    2    0    0  0.67691039663E+02  0.12639335254E+01 -0.12509543352E+03  0.14224113985E+03  0.00000000000E+00 0. -1.
<mgrwt>
<rscale>  0 0.12733803E+03</rscale>
<asrwt>0</asrwt>
<pdfrwt beam="2">  1        4 0.76560278E-01 0.13564372E+03</pdfrwt>
<pdfrwt beam="1">  1       -4 0.45081068E-02 0.13564372E+03</pdfrwt>
<totfact> 0.73264982E+02</totfact>
</mgrwt>
</event>
<event>
 7    1  0.8165933E-006  0.1405204E+03  0.7546771E-02  0.1223597E+00
          4   -1    0    0  501    0  0.00000000000E+00  0.00000000000E+00  0.45112669546E+02  0.45112669546E+02  0.00000000000E+00 0. -1.
         -4   -1    0    0    0  501 -0.00000000000E+00 -0.00000000000E+00 -0.39608121520E+03  0.39608121520E+03  0.00000000000E+00 0.  1.
         23    2    1    2    0    0 -0.50065039551E+02 -0.40264411041E+02 -0.12032864516E+03  0.18499987507E+03  0.12497295687E+03 0.  0.
          5    1    3    3  502    0  0.88283748699E+01  0.32240860275E+02 -0.72451779561E+02  0.79929741872E+02  0.47000000000E+01 0.  1.
         -5    1    3    3    0  502 -0.58893414420E+02 -0.72505271316E+02 -0.47876865603E+02  0.10507013320E+03  0.47000000000E+01 0.  1.
        -11    1    1    2    0    0  0.28462902384E+02 -0.85629709739E+01 -0.13606340813E+02  0.32689352921E+02  0.00000000000E+00 0. -1.
         11    1    1    2    0    0  0.21602137166E+02  0.48827382015E+02 -0.21703355967E+03  0.22350465675E+03  0.00000000000E+00 0.  1.
<mgrwt>
<rscale>  0 0.13263545E+03</rscale>
<asrwt>0</asrwt>
<pdfrwt beam="1">  1        4 0.69404108E-02 0.14052036E+03</pdfrwt>
<pdfrwt beam="2">  1       -4 0.60935571E-01 0.14052036E+03</pdfrwt>
<totfact> 0.59914948E+02</totfact>
</mgrwt>
</event>
<event>
 7    1  0.8165933E-006  0.1380783E+03  0.7546771E-02  0.1227394E+00
          2   -1    0    0  501    0  0.00000000000E+00  0.00000000000E+00  0.27627435565E+03  0.27627435565E+03  0.00000000000E+00 0. -1.
         -2   -1    0    0    0  501 -0.00000000000E+00 -0.00000000000E+00 -0.61158046655E+02  0.61158046655E+02  0.00000000000E+00 0.  1.
         23    2    1    2    0    0 -0.56915140668E+02  0.13992162365E+02  0.17197647934E+03  0.22054825983E+03  0.12502204456E+03 0.  0.
          5    1    3    3  502    0  0.25606746145E+02 -0.16479235939E+02  0.42615834218E+01  0.31105011791E+02  0.47000000000E+01 0. -1.
         -5    1    3    3    0  502 -0.82521886813E+02  0.30471398304E+02  0.16771489591E+03  0.18944324804E+03  0.47000000000E+01 0. -1.
        -11    1    1    2    0    0  0.17895561450E+02  0.20081917481E+02 -0.21223501472E+02  0.34263268146E+02  0.00000000000E+00 0.  1.
         11    1    1    2    0    0  0.39019579219E+02 -0.34074079847E+02  0.64363331127E+02  0.82620874321E+02  0.00000000000E+00 0. -1.
<mgrwt>
<rscale>  0 0.13004191E+03</rscale>
<asrwt>0</asrwt>
<pdfrwt beam="1">  1        2 0.42503747E-01 0.13807833E+03</pdfrwt>
<pdfrwt beam="2">  1       -2 0.94089304E-02 0.13807833E+03</pdfrwt>
<totfact> 0.83096263E+03</totfact>
</mgrwt>
</event>
<event>
 7    1  0.8165933E-006  0.1616285E+03  0.7546771E-02  0.1193189E+00
          1   -1    0    0  501    0  0.00000000000E+00  0.00000000000E+00  0.54980064155E+03  0.54980064155E+03  0.00000000000E+00 0. -1.
         -1   -1    0    0    0  501 -0.00000000000E+00 -0.00000000000E+00 -0.56820702693E+02  0.56820702693E+02  0.00000000000E+00 0.  1.
         23    2    1    2    0    0 -0.98512135740E+02  0.28170308430E+02  0.41612620058E+03  0.44641324417E+03  0.12500225034E+03 0.  0.
          5    1    3    3  502    0 -0.53459196879E+02 -0.48658402925E+02  0.18659436960E+03  0.20016262057E+03  0.47000000000E+01 0. -1.
         -5    1    3    3    0  502 -0.45052938860E+02  0.76828711356E+02  0.22953183099E+03  0.24625062360E+03  0.47000000000E+01 0. -1.
        -11    1    1    2    0    0  0.79505275198E+02  0.25609904468E+02  0.46136077194E+02  0.95422710138E+02  0.00000000000E+00 0. -1.
         11    1    1    2    0    0  0.19006860542E+02 -0.53780212898E+02  0.30717661075E+02  0.64785389934E+02  0.00000000000E+00 0.  1.
<mgrwt>
<rscale>  0 0.15608537E+03</rscale>
<asrwt>0</asrwt>
<pdfrwt beam="1">  1        1 0.84584710E-01 0.16162849E+03</pdfrwt>
<pdfrwt beam="2">  1       -1 0.87416470E-02 0.16162849E+03</pdfrwt>
<totfact> 0.29272358E+03</totfact>
</mgrwt>
</event>
<event>
 7    1  0.8165933E-006  0.1233310E+03  0.7546771E-02  0.1244071E+00
         -1   -1    0    0    0  501 -0.00000000000E+00  0.00000000000E+00  0.94798004732E+02  0.94798004732E+02  0.00000000000E+00 0.  1.
          1   -1    0    0  501    0  0.00000000000E+00 -0.00000000000E+00 -0.28228340445E+03  0.28228340445E+03  0.00000000000E+00 0. -1.
         23    2    1    2    0    0  0.53133726002E+02  0.54358272411E+01 -0.22974087030E+03  0.26075162842E+03  0.11116565648E+03 0.  0.
          5    1    3    3  502    0  0.76007784144E+02  0.14748494343E+02 -0.90206798979E+02  0.11897082801E+03  0.47000000000E+01 0. -1.
         -5    1    3    3    0  502 -0.22874058141E+02 -0.93126671022E+01 -0.13953407133E+03  0.14178080041E+03  0.47000000000E+01 0.  1.
        -11    1    1    2    0    0 -0.35492248002E+02  0.17636875360E+02 -0.22346833635E+02  0.45498791349E+02  0.00000000000E+00 0. -1.
         11    1    1    2    0    0 -0.17641478000E+02 -0.23072702601E+02  0.64602304217E+02  0.70830989415E+02  0.00000000000E+00 0.  1.
<mgrwt>
<rscale>  0 0.11941134E+03</rscale>
<asrwt>0</asrwt>
<pdfrwt beam="2">  1        1 0.43428216E-01 0.12333104E+03</pdfrwt>
<pdfrwt beam="1">  1       -1 0.14584309E-01 0.12333104E+03</pdfrwt>
<totfact> 0.30682471E+03</totfact>
</mgrwt>
</event>
<event>
 7    1  0.8165933E-006  0.1321374E+03  0.7546771E-02  0.1236889E+00
          1   -1    0    0  501    0  0.00000000000E+00  0.00000000000E+00  0.11555228662E+04  0.11555228662E+04  0.00000000000E+00 0. -1.
         -1   -1    0    0    0  501 -0.00000000000E+00 -0.00000000000E+00 -0.13398805139E+02  0.13398805139E+02  0.00000000000E+00 0.  1.
         23    2    1    2    0    0 -0.32864949000E+02 -0.27497479863E+02  0.83309150754E+03  0.84350562936E+03  0.12499628220E+03 0.  0.
          5    1    3    3  502    0 -0.30366960143E+02  0.10428263097E+02  0.50815103830E+02  0.60292335473E+02  0.47000000000E+01 0. -1.
         -5    1    3    3    0  502 -0.24979888577E+01 -0.37925742959E+02  0.78227640371E+03  0.78321329389E+03  0.47000000000E+01 0. -1.
        -11    1    1    2    0    0  0.31931445924E+01  0.55613548422E+02  0.12424453367E+03  0.13616081333E+03  0.00000000000E+00 0. -1.
         11    1    1    2    0    0  0.29671804408E+02 -0.28116068559E+02  0.18478801987E+03  0.18925522866E+03  0.00000000000E+00 0.  1.
<mgrwt>
<rscale>  0 0.12384247E+03</rscale>
<asrwt>0</asrwt>
<pdfrwt beam="1">  1        1 0.17777267E+00 0.13213738E+03</pdfrwt>
<pdfrwt beam="2">  1       -1 0.20613556E-02 0.13213738E+03</pdfrwt>
<totfact> 0.78321855E+03</totfact>
</mgrwt>
</event>
<event>
 7    1  0.1181973E-005  0.1722401E+03  0.7546771E-02  0.1181853E+00
          1   -1    0    0  501    0  0.00000000000E+00  0.00000000000E+00  0.86801439033E+03  0.86801439033E+03  0.00000000000E+00 0. -1.
         -1   -1    0    0    0  501 -0.00000000000E+00 -0.00000000000E+00 -0.30554246705E+02  0.30554246705E+02  0.00000000000E+00 0.  1.
         23    2    1    2    0    0 -0.86569063149E+02  0.80914752632E+02  0.51856850419E+03  0.54642470295E+03  0.12500105027E+03 0.  0.
          5    1    3    3  502    0 -0.65454529001E+02  0.68491518991E+02  0.15308033775E+03  0.18008626640E+03  0.47000000000E+01 0. -1.
         -5    1    3    3    0  502 -0.21114534148E+02  0.12423233641E+02  0.36548816644E+03  0.36633843655E+03  0.47000000000E+01 0. -1.
        -11    1    1    2    0    0  0.39448728362E+02  0.12518730049E+02  0.12701334047E+03  0.13358633698E+03  0.00000000000E+00 0. -1.
         11    1    1    2    0    0  0.47120334787E+02 -0.93433482682E+02  0.19187829896E+03  0.21855759709E+03  0.00000000000E+00 0.  1.
<mgrwt>
<rscale>  0 0.16621555E+03</rscale>
<asrwt>0</asrwt>
<pdfrwt beam="1">  1        1 0.13354066E+00 0.17224013E+03</pdfrwt>
<pdfrwt beam="2">  1       -1 0.47006540E-02 0.17224013E+03</pdfrwt>
<totfact> 0.38555760E+03</totfact>
</mgrwt>
</event>
<event>
 7    1  0.8165933E-006  0.1303358E+03  0.7546771E-02  0.1241418E+00
         -2   -1    0    0    0  501 -0.00000000000E+00  0.00000000000E+00  0.57754860518E+02  0.57754860518E+02  0.00000000000E+00 0.  1.
          2   -1    0    0  501    0  0.00000000000E+00 -0.00000000000E+00 -0.23116638455E+03  0.23116638455E+03  0.00000000000E+00 0. -1.
         23    2    1    2    0    0 -0.29129187148E+02 -0.22676798238E+02 -0.12507475975E+03  0.18064084548E+03  0.12499869121E+03 0.  0.
          5    1    3    3  502    0  0.36946093081E+02  0.24947952571E+02 -0.24330756654E+02  0.51004802233E+02  0.47000000000E+01 0. -1.
         -5    1    3    3    0  502 -0.66075280229E+02 -0.47624750809E+02 -0.10074400310E+03  0.12963604324E+03  0.47000000000E+01 0. -1.
        -11    1    1    2    0    0  0.51211974869E+02 -0.19563678533E+01 -0.19258151858E+01  0.51285499991E+02  0.00000000000E+00 0.  1.
         11    1    1    2    0    0 -0.22082787721E+02  0.24633166092E+02 -0.46410949095E+02  0.56994899606E+02  0.00000000000E+00 0. -1.
<mgrwt>
<rscale>  0 0.12102374E+03</rscale>
<asrwt>0</asrwt>
<pdfrwt beam="2">  1        2 0.35564059E-01 0.13033580E+03</pdfrwt>
<pdfrwt beam="1">  1       -2 0.88853632E-02 0.13033580E+03</pdfrwt>
<totfact> 0.10936918E+04</totfact>
</mgrwt>
</event>
<event>
 7    1  0.8165933E-006  0.2889901E+03  0.7546771E-02  0.1092612E+00
         -2   -1    0    0    0  501 -0.00000000000E+00  0.00000000000E+00  0.70808906638E+02  0.70808906638E+02  0.00000000000E+00 0.  1.
          2   -1    0    0  501    0  0.00000000000E+00 -0.00000000000E+00 -0.11418721867E+04  0.11418721867E+04  0.00000000000E+00 0. -1.
         23    2    1    2    0    0  0.32581966530E+02 -0.25851234184E+03 -0.61596660003E+03  0.68038968567E+03  0.12500022635E+03 0.  0.
          5    1    3    3  502    0 -0.32320757913E+02 -0.19347836306E+03 -0.44197501785E+03  0.48357265717E+03  0.47000000000E+01 0. -1.
         -5    1    3    3    0  502  0.64902724444E+02 -0.65033978782E+02 -0.17399158219E+03  0.19681702850E+03  0.47000000000E+01 0. -1.
        -11    1    1    2    0    0 -0.63370169557E+02  0.17420416187E+03 -0.32683940038E+03  0.37574840259E+03  0.00000000000E+00 0. -1.
         11    1    1    2    0    0  0.30788203027E+02  0.84308179969E+02 -0.12825727961E+03  0.15654300505E+03  0.00000000000E+00 0.  1.
<mgrwt>
<rscale>  0 0.28570751E+03</rscale>
<asrwt>0</asrwt>
<pdfrwt beam="2">  1        2 0.17567263E+00 0.28899009E+03</pdfrwt>
<pdfrwt beam="1">  1       -2 0.10893679E-01 0.28899009E+03</pdfrwt>
<totfact> 0.12489230E+03</totfact>
</mgrwt>
</event>
<event>
 6    1  0.8165933E-006  0.3849790E+03  0.7546771E-02  0.1049109E+00
         -2   -1    0    0    0  501 -0.00000000000E+00  0.00000000000E+00  0.85831013864E+02  0.85831013864E+02  0.00000000000E+00 0.  1.
          2   -1    0    0  501    0  0.00000000000E+00 -0.00000000000E+00 -0.43168791641E+03  0.43168791641E+03  0.00000000000E+00 0. -1.
          5    1    1    2  502    0  0.35128891953E+01 -0.33581264958E+02 -0.70336739646E+02  0.78162578582E+02  0.47000000000E+01 0. -1.
         -5    1    1    2    0  502 -0.70206355064E+02  0.15729189747E+03 -0.12929382094E+03  0.21542668227E+03  0.47000000000E+01 0.  1.
        -11    1    1    2    0    0  0.53692317670E+02 -0.58685617697E+02 -0.13497657989E+03  0.15667017528E+03  0.00000000000E+00 0.  1.
         11    1    1    2    0    0  0.13001148199E+02 -0.65025014815E+02 -0.11249762069E+02  0.67259494146E+02  0.00000000000E+00 0. -1.
<mgrwt>
<rscale>  0 0.38497902E+03</rscale>
<asrwt>0</asrwt>
<pdfrwt beam="2">  1        2 0.66413527E-01 0.38497902E+03</pdfrwt>
<pdfrwt beam="1">  1       -2 0.13204771E-01 0.38497902E+03</pdfrwt>
<totfact> 0.31195045E+03</totfact>
</mgrwt>
</event>
<event>
 7    1  0.8165933E-006  0.1330545E+03  0.7546771E-02  0.1237743E+00
         -2   -1    0    0    0  501 -0.00000000000E+00  0.00000000000E+00  0.27090647403E+02  0.27090647403E+02  0.00000000000E+00 0.  1.
          2   -1    0    0  501    0  0.00000000000E+00 -0.00000000000E+00 -0.52546819161E+03  0.52546819161E+03  0.00000000000E+00 0. -1.
         23    2    1    2    0    0 -0.43865930024E+02 -0.12390083078E+02 -0.35220557584E+03  0.37650003195E+03  0.12500308969E+03 0.  0.
          5    1    3    3  502    0 -0.17367954265E+02 -0.61461718614E+02 -0.26688823183E+03  0.27446421803E+03  0.47000000000E+01 0.  1.
         -5    1    3    3    0  502 -0.26497975760E+02  0.49071635536E+02 -0.85317344006E+02  0.10203581392E+03  0.47000000000E+01 0.  1.
        -11    1    1    2    0    0 -0.25250052964E+02 -0.53751236022E+01 -0.50355524716E+02  0.56587419078E+02  0.00000000000E+00 0. -1.
         11    1    1    2    0    0  0.69115982989E+02  0.17765206681E+02 -0.95816443658E+02  0.11947138799E+03  0.00000000000E+00 0.  1.
<mgrwt>
<rscale>  0 0.12330427E+03</rscale>
<asrwt>0</asrwt>
<pdfrwt beam="2">  1        2 0.80841256E-01 0.13305452E+03</pdfrwt>
<pdfrwt beam="1">  1       -2 0.41677921E-02 0.13305452E+03</pdfrwt>
<totfact> 0.14366413E+04</totfact>
</mgrwt>
</event>
<event>
 6    1  0.8165933E-006  0.1626101E+03  0.7546771E-02  0.1194552E+00
          1   -1    0    0  501    0  0.00000000000E+00  0.00000000000E+00  0.48018792596E+03  0.48018792596E+03  0.00000000000E+00 0. -1.
         -1   -1    0    0    0  501 -0.00000000000E+00 -0.00000000000E+00 -0.49066103177E+03  0.49066103177E+03  0.00000000000E+00 0.  1.
          5    1    1    2  502    0  0.51011663253E+02  0.24180625826E+02  0.36273069950E+03  0.36712742040E+03  0.47000000000E+01 0. -1.
         -5    1    1    2    0  502 -0.17091392331E+02  0.68556899232E+02  0.94001107525E+02  0.11768798724E+03  0.47000000000E+01 0.  1.
        -11    1    1    2    0    0 -0.20185742073E+02 -0.18803929364E+02 -0.24217399492E+02  0.36708777979E+02  0.00000000000E+00 0. -1.
         11    1    1    2    0    0 -0.13734528849E+02 -0.73933595693E+02 -0.44298751334E+03  0.44932477211E+03  0.00000000000E+00 0.  1.
<mgrwt>
<rscale>  0 0.15492202E+03</rscale>
<asrwt>0</asrwt>
<pdfrwt beam="1">  1        1 0.73875066E-01 0.16261007E+03</pdfrwt>
<pdfrwt beam="2">  1       -1 0.75486312E-01 0.16261007E+03</pdfrwt>
<totfact> 0.91093527E+01</totfact>
</mgrwt>
</event>
<event>
 7    1  0.8165933E-006  0.1264144E+03  0.7546771E-02  0.1248053E+00
         -1   -1    0    0    0  501 -0.00000000000E+00  0.00000000000E+00  0.14172578426E+03  0.14172578426E+03  0.00000000000E+00 0.  1.
          1   -1    0    0  501    0  0.00000000000E+00 -0.00000000000E+00 -0.93673954128E+02  0.93673954128E+02  0.00000000000E+00 0. -1.
         23    2    1    2    0    0  0.17788709638E+02  0.62700436179E+01 -0.83965473980E+01  0.12669291155E+03  0.12499936077E+03 0.  0.
          5    1    3    3  502    0  0.45538109692E+02  0.41344608705E+02 -0.38372693136E+02  0.72647434103E+02  0.47000000000E+01 0.  1.
         -5    1    3    3    0  502 -0.27749400053E+02 -0.35074565087E+02  0.29976145738E+02  0.54045477449E+02  0.47000000000E+01 0.  1.
        -11    1    1    2    0    0 -0.20700347857E+02  0.30975080904E+02  0.60581463272E+02  0.71120135901E+02  0.00000000000E+00 0.  1.
         11    1    1    2    0    0  0.29116382190E+01 -0.37245124522E+02 -0.41330857403E+01  0.37586690936E+02  0.00000000000E+00 0. -1.
<mgrwt>
<rscale>  0 0.11704515E+03</rscale>
<asrwt>0</asrwt>
<pdfrwt beam="2">  1        1 0.14411378E-01 0.12641437E+03</pdfrwt>
<pdfrwt beam="1">  1       -1 0.21803967E-01 0.12641437E+03</pdfrwt>
<totfact> 0.64858765E+03</totfact>
</mgrwt>
</event>
<event>
 6    1  0.8165933E-006  0.2642162E+03  0.7546771E-02  0.1155000E+00
         -1   -1    0    0    0  501 -0.00000000000E+00  0.00000000000E+00  0.33708372877E+02  0.33708372877E+02  0.00000000000E+00 0.  1.
          1   -1    0    0  501    0  0.00000000000E+00 -0.00000000000E+00 -0.89147216791E+03  0.89147216791E+03  0.00000000000E+00 0. -1.
          5    1    1    2  502    0  0.10447854009E+03 -0.51647361838E+02 -0.30309590855E+03  0.32476519996E+03  0.47000000000E+01 0. -1.
         -5    1    1    2    0  502 -0.13635406305E+03  0.55404142268E+02 -0.42518256700E+03  0.44996039245E+03  0.47000000000E+01 0.  1.
        -11    1    1    2    0    0  0.10962958687E+02 -0.33433757997E+02 -0.90913657180E+02  0.97484848561E+02  0.00000000000E+00 0. -1.
         11    1    1    2    0    0  0.20912564278E+02  0.29676977567E+02 -0.38571662299E+02  0.52970099818E+02  0.00000000000E+00 0.  1.
<mgrwt>
<rscale>  0 0.19388830E+03</rscale>
<asrwt>0</asrwt>
<pdfrwt beam="2">  1        1 0.13714957E+00 0.26421621E+03</pdfrwt>
<pdfrwt beam="1">  1       -1 0.51859031E-02 0.26421621E+03</pdfrwt>
<totfact> 0.32246493E+03</totfact>
</mgrwt>
</event>
<event>
 7    1  0.8165933E-006  0.1611859E+03  0.7546771E-02  0.1196017E+00
         -1   -1    0    0    0  501 -0.00000000000E+00  0.00000000000E+00  0.38559826070E+02  0.38559826070E+02  0.00000000000E+00 0.  1.
          1   -1    0    0  501    0  0.00000000000E+00 -0.00000000000E+00 -0.58133521532E+03  0.58133521532E+03  0.00000000000E+00 0. -1.
         23    2    1    2    0    0  0.72233730657E+02  0.71674514676E+02 -0.35271944226E+03  0.38780394906E+03  0.12500380017E+03 0.  0.
          5    1    3    3  502    0  0.64747346973E+02  0.51867190619E+02 -0.83804630152E+02  0.11801580588E+03  0.47000000000E+01 0. -1.
         -5    1    3    3    0  502  0.74863836835E+01  0.19807324057E+02 -0.26891481211E+03  0.26978814318E+03  0.47000000000E+01 0. -1.
        -11    1    1    2    0    0 -0.34010079702E+02 -0.11710548489E+02 -0.14146027344E+03  0.14596174646E+03  0.00000000000E+00 0.  1.
         11    1    1    2    0    0 -0.38223650955E+02 -0.59963966187E+02 -0.48595673551E+02  0.86129345877E+02  0.00000000000E+00 0. -1.
<mgrwt>
<rscale>  0 0.15368442E+03</rscale>
<asrwt>0</asrwt>
<pdfrwt beam="2">  1        1 0.89436185E-01 0.16118591E+03</pdfrwt>
<pdfrwt beam="1">  1       -1 0.59322811E-02 0.16118591E+03</pdfrwt>
<totfact> 0.48714689E+03</totfact>
</mgrwt>
</event>
<event>
 6    1  0.8165933E-006  0.1340018E+03  0.7546771E-02  0.1237275E+00
          4   -1    0    0  501    0  0.00000000000E+00  0.00000000000E+00  0.10124478864E+03  0.10124478864E+03  0.00000000000E+00 0.  1.
         -4   -1    0    0    0  501 -0.00000000000E+00 -0.00000000000E+00 -0.16394470883E+03  0.16394470883E+03  0.00000000000E+00 0. -1.
          5    1    1    2  502    0  0.50230175251E+02  0.14576169251E+02 -0.25211038272E+02  0.58251366221E+02  0.47000000000E+01 0.  1.
         -5    1    1    2    0  502 -0.60758738600E+02 -0.42097399371E+01  0.47969688179E+02  0.77669345372E+02  0.47000000000E+01 0.  1.
        -11    1    1    2    0    0 -0.25655984556E+02 -0.95351340511E+01 -0.88798369451E+02  0.92920927363E+02  0.00000000000E+00 0. -1.
         11    1    1    2    0    0  0.36184547905E+02 -0.83129526304E+00  0.33397993550E+01  0.36347858515E+02  0.00000000000E+00 0.  1.
<mgrwt>
<rscale>  0 0.12359925E+03</rscale>
<asrwt>0</asrwt>
<pdfrwt beam="1">  1        4 0.15576122E-01 0.13400180E+03</pdfrwt>
<pdfrwt beam="2">  1       -4 0.25222262E-01 0.13400180E+03</pdfrwt>
<totfact> 0.85678483E+02</totfact>
</mgrwt>
</event>
<event>
 7    1  0.8165933E-006  0.1701374E+03  0.7546771E-02  0.1184214E+00
          2   -1    0    0  501    0  0.00000000000E+00  0.00000000000E+00  0.10810181493E+04  0.10810181493E+04  0.00000000000E+00 0. -1.
         -2   -1    0    0    0  501 -0.00000000000E+00 -0.00000000000E+00 -0.23418304745E+02  0.23418304745E+02  0.00000000000E+00 0.  1.
         23    2    1    2    0    0  0.20716473014E+02 -0.11353897174E+03  0.61211644076E+03  0.63532140016E+03  0.12500589623E+03 0.  0.
          5    1    3    3  502    0  0.47878793940E+02 -0.85605760455E+02  0.21609514880E+03  0.23736033465E+03  0.47000000000E+01 0.  1.
         -5    1    3    3    0  502 -0.27162320925E+02 -0.27933211288E+02  0.39602129197E+03  0.39796106551E+03  0.47000000000E+01 0.  1.
        -11    1    1    2    0    0 -0.46229050020E+02  0.38798720020E+02  0.12174988711E+03  0.13588782415E+03  0.00000000000E+00 0.  1.
         11    1    1    2    0    0  0.25512577005E+02  0.74740251723E+02  0.32373351668E+03  0.33322722973E+03  0.00000000000E+00 0. -1.
<mgrwt>
<rscale>  0 0.16403649E+03</rscale>
<asrwt>0</asrwt>
<pdfrwt beam="1">  1        2 0.16631045E+00 0.17013743E+03</pdfrwt>
<pdfrwt beam="2">  1       -2 0.36028169E-02 0.17013743E+03</pdfrwt>
<totfact> 0.74014245E+03</totfact>
</mgrwt>
</event>
<event>
 7    1  0.8165933E-006  0.1291717E+03  0.7546771E-02  0.1245015E+00
          1   -1    0    0  501    0  0.00000000000E+00  0.00000000000E+00  0.25202786161E+03  0.25202786161E+03  0.00000000000E+00 0. -1.
         -1   -1    0    0    0  501 -0.00000000000E+00 -0.00000000000E+00 -0.49600366724E+02  0.49600366724E+02  0.00000000000E+00 0.  1.
         23    2    1    2    0    0  0.71320667943E+01 -0.27396376073E+02  0.13690642849E+03  0.18822510484E+03  0.12603131409E+03 0.  0.
          5    1    3    3  502    0  0.71761458980E+00 -0.67277157856E+02  0.29944455868E+02  0.73793572736E+02  0.47000000000E+01 0. -1.
         -5    1    3    3    0  502  0.64144522045E+01  0.39880781784E+02  0.10696197262E+03  0.11443153211E+03  0.47000000000E+01 0.  1.
        -11    1    1    2    0    0 -0.27894736747E+02 -0.24075086860E+02  0.22427039471E+02  0.43135811630E+02  0.00000000000E+00 0.  1.
         11    1    1    2    0    0  0.20762669953E+02  0.51471462933E+02  0.43094026928E+02  0.70267311866E+02  0.00000000000E+00 0. -1.
<mgrwt>
<rscale>  0 0.11884494E+03</rscale>
<asrwt>0</asrwt>
<pdfrwt beam="1">  1        1 0.38773517E-01 0.12917167E+03</pdfrwt>
<pdfrwt beam="2">  1       -1 0.76308258E-02 0.12917167E+03</pdfrwt>
<totfact> 0.95283718E+03</totfact>
</mgrwt>
</event>
<event>
 7    1  0.8165933E-006  0.2610920E+03  0.7546771E-02  0.1108763E+00
          1   -1    0    0  501    0  0.00000000000E+00  0.00000000000E+00  0.17074883955E+03  0.17074883955E+03  0.00000000000E+00 0. -1.
         -1   -1    0    0    0  501 -0.00000000000E+00 -0.00000000000E+00 -0.37757195365E+03  0.37757195365E+03  0.00000000000E+00 0.  1.
         23    2    1    2    0    0  0.27721012964E+02 -0.22754033699E+03 -0.11718285369E+03  0.28618329571E+03  0.12500399204E+03 0.  0.
          5    1    3    3  502    0  0.57072267439E+02 -0.17070933202E+03 -0.37545156364E+02  0.18393109720E+03  0.47000000000E+01 0. -1.
         -5    1    3    3    0  502 -0.29351254476E+02 -0.56831004972E+02 -0.79637697322E+02  0.10225219851E+03  0.47000000000E+01 0. -1.
        -11    1    1    2    0    0  0.20579394824E+02  0.52307449190E+02 -0.51872642399E+02  0.76487592207E+02  0.00000000000E+00 0.  1.
         11    1    1    2    0    0 -0.48300407787E+02  0.17523288780E+03 -0.37767618012E+02  0.18564990528E+03  0.00000000000E+00 0. -1.
<mgrwt>
<rscale>  0 0.25732178E+03</rscale>
<asrwt>0</asrwt>
<pdfrwt beam="1">  1        1 0.26269053E-01 0.26109205E+03</pdfrwt>
<pdfrwt beam="2">  1       -1 0.58087992E-01 0.26109205E+03</pdfrwt>
<totfact> 0.55711974E+02</totfact>
</mgrwt>
</event>
<event>
 7    1  0.8165933E-006  0.1442807E+03  0.7546771E-02  0.1212667E+00
          1   -1    0    0  501    0  0.00000000000E+00  0.00000000000E+00  0.93244299192E+03  0.93244299192E+03  0.00000000000E+00 0. -1.
         -1   -1    0    0    0  501 -0.00000000000E+00 -0.00000000000E+00 -0.50991456992E+02  0.50991456992E+02  0.00000000000E+00 0.  1.
         23    2    1    2    0    0  0.23738261881E+02 -0.25031501642E+02  0.81381312846E+03  0.82408617532E+03  0.12504453261E+03 0.  0.
          5    1    3    3  502    0 -0.69955307179E+01 -0.63366221734E+02  0.64627423364E+03  0.64942797181E+03  0.47000000000E+01 0.  1.
         -5    1    3    3    0  502  0.30733792598E+02  0.38334720092E+02  0.16753889482E+03  0.17465820350E+03  0.47000000000E+01 0.  1.
        -11    1    1    2    0    0 -0.90701127383E+01  0.36699960286E+02  0.10822774986E+03  0.11464030648E+03  0.00000000000E+00 0. -1.
         11    1    1    2    0    0 -0.14668149142E+02 -0.11668458644E+02 -0.40589343395E+02  0.44707967116E+02  0.00000000000E+00 0.  1.
<mgrwt>
<rscale>  0 0.14049293E+03</rscale>
<asrwt>0</asrwt>
<pdfrwt beam="1">  1        1 0.14345276E+00 0.14428069E+03</pdfrwt>
<pdfrwt beam="2">  1       -1 0.78448402E-02 0.14428069E+03</pdfrwt>
<totfact> 0.15915414E+03</totfact>
</mgrwt>
</event>
<event>
 7    1  0.8165933E-006  0.1311433E+03  0.7546771E-02  0.1239364E+00
         -1   -1    0    0    0  501 -0.00000000000E+00  0.00000000000E+00  0.40437487419E+03  0.40437487419E+03  0.00000000000E+00 0.  1.
          1   -1    0    0  501    0  0.00000000000E+00 -0.00000000000E+00 -0.33365193558E+02  0.33365193558E+02  0.00000000000E+00 0. -1.
         23    2    1    2    0    0 -0.12049090802E+02 -0.37792914188E+02  0.23924017634E+03  0.27282675135E+03  0.12500035731E+03 0.  0.
          5    1    3    3  502    0 -0.32312157301E+02 -0.78711494562E+02  0.15289405466E+03  0.17503787258E+03  0.47000000000E+01 0.  1.
         -5    1    3    3    0  502  0.20263066498E+02  0.40918580374E+02  0.86346121677E+02  0.97788878777E+02  0.47000000000E+01 0.  1.
        -11    1    1    2    0    0 -0.55648390108E+01  0.64160043315E+02  0.10610282820E+03  0.12411804358E+03  0.00000000000E+00 0.  1.
         11    1    1    2    0    0  0.17613929813E+02 -0.26367129128E+02  0.25666676099E+02  0.40795272813E+02  0.00000000000E+00 0. -1.
<mgrwt>
<rscale>  0 0.12229157E+03</rscale>
<asrwt>0</asrwt>
<pdfrwt beam="2">  1        1 0.51331070E-02 0.13114333E+03</pdfrwt>
<pdfrwt beam="1">  1       -1 0.62211516E-01 0.13114333E+03</pdfrwt>
<totfact> 0.41538058E+03</totfact>
</mgrwt>
</event>
<event>
 7    1  0.8165933E-006  0.1268639E+03  0.7546771E-02  0.1247454E+00
          2   -1    0    0  501    0  0.00000000000E+00  0.00000000000E+00  0.93898562761E+03  0.93898562761E+03  0.00000000000E+00 0. -1.
         -2   -1    0    0    0  501 -0.00000000000E+00 -0.00000000000E+00 -0.13301337454E+02  0.13301337454E+02  0.00000000000E+00 0.  1.
         23    2    1    2    0    0 -0.70374757736E+01 -0.20486574757E+02  0.61616251856E+03  0.62908720103E+03  0.12500092567E+03 0.  0.
          5    1    3    3  502    0  0.55384768192E+02 -0.11562430590E+02  0.39513408679E+03  0.39919193240E+03  0.47000000000E+01 0.  1.
         -5    1    3    3    0  502 -0.62422243966E+02 -0.89241441671E+01  0.22102843176E+03  0.22989526863E+03  0.47000000000E+01 0.  1.
        -11    1    1    2    0    0 -0.42307190236E+01 -0.33176698640E+02  0.17060797223E+03  0.17385532061E+03  0.00000000000E+00 0. -1.
         11    1    1    2    0    0  0.11268194797E+02  0.53663273398E+02  0.13891379937E+03  0.14934444342E+03  0.00000000000E+00 0.  1.
<mgrwt>
<rscale>  0 0.11739727E+03</rscale>
<asrwt>0</asrwt>
<pdfrwt beam="1">  1        2 0.14445927E+00 0.12686393E+03</pdfrwt>
<pdfrwt beam="2">  1       -2 0.20463604E-02 0.12686393E+03</pdfrwt>
<totfact> 0.20294812E+04</totfact>
</mgrwt>
</event>
<event>
 7    1  0.8165933E-006  0.1622060E+03  0.7546771E-02  0.1194325E+00
         -4   -1    0    0    0  501 -0.00000000000E+00  0.00000000000E+00  0.69964966815E+02  0.69964966815E+02  0.00000000000E+00 0.  1.
          4   -1    0    0  501    0  0.00000000000E+00 -0.00000000000E+00 -0.42903826043E+03  0.42903826043E+03  0.00000000000E+00 0. -1.
         23    2    1    2    0    0  0.63909074990E+02  0.81221211602E+02 -0.31848458770E+03  0.35741184541E+03  0.12501815690E+03 0.  0.
          5    1    3    3  502    0  0.59344906525E+01 -0.32821985873E+02 -0.55479306472E+02  0.64904116838E+02  0.47000000000E+01 0. -1.
         -5    1    3    3    0  502  0.57974584337E+02  0.11404319747E+03 -0.26300528123E+03  0.29250772857E+03  0.47000000000E+01 0. -1.
        -11    1    1    2    0    0 -0.72273333738E+02 -0.35633231006E+02 -0.92131432114E+00  0.80585425119E+02  0.00000000000E+00 0.  1.
         11    1    1    2    0    0  0.83642587486E+01 -0.45587980596E+02 -0.39667391593E+02  0.61005956717E+02  0.00000000000E+00 0. -1.
<mgrwt>
<rscale>  0 0.15511524E+03</rscale>
<asrwt>0</asrwt>
<pdfrwt beam="2">  1        4 0.66005887E-01 0.16220603E+03</pdfrwt>
<pdfrwt beam="1">  1       -4 0.10763841E-01 0.16220603E+03</pdfrwt>
<totfact> 0.24933339E+02</totfact>
</mgrwt>
</event>
<event>
 6    1  0.8165933E-006  0.1569794E+03  0.7546771E-02  0.1237036E+00
          2   -1    0    0  501    0  0.00000000000E+00  0.00000000000E+00  0.99452592373E+03  0.99452592373E+03  0.00000000000E+00 0.  1.
         -2   -1    0    0    0  501 -0.00000000000E+00 -0.00000000000E+00 -0.11903106173E+02  0.11903106173E+02  0.00000000000E+00 0. -1.
          5    1    1    2  502    0 -0.18953471358E+02 -0.34107585708E+01  0.66826839674E+03  0.66856234371E+03  0.47000000000E+01 0.  1.
         -5    1    1    2    0  502 -0.39868090064E+02  0.53042798321E+01  0.40089469514E+02  0.56981185982E+02  0.47000000000E+01 0. -1.
        -11    1    1    2    0    0  0.21653205934E+02  0.38635528267E+01  0.12716987838E+03  0.12905799602E+03  0.00000000000E+00 0. -1.
         11    1    1    2    0    0  0.37168355489E+02 -0.57570740880E+01  0.14709507292E+03  0.15182750420E+03  0.00000000000E+00 0.  1.
<mgrwt>
<rscale>  0 0.12374999E+03</rscale>
<asrwt>0</asrwt>
<pdfrwt beam="1">  1        2 0.15300392E+00 0.15697945E+03</pdfrwt>
<pdfrwt beam="2">  1       -2 0.18312479E-02 0.15697945E+03</pdfrwt>
<totfact> 0.22413255E+04</totfact>
</mgrwt>
</event>
<event>
 7    1  0.8165933E-006  0.1267452E+03  0.7546771E-02  0.1247392E+00
          1   -1    0    0  501    0  0.00000000000E+00  0.00000000000E+00  0.10081893002E+04  0.10081893002E+04  0.00000000000E+00 0. -1.
         -1   -1    0    0    0  501 -0.00000000000E+00 -0.00000000000E+00 -0.13204159971E+02  0.13204159971E+02  0.00000000000E+00 0.  1.
         23    2    1    2    0    0 -0.99570032169E+01 -0.18457008483E+02  0.71750967916E+03  0.72861819755E+03  0.12499814013E+03 0.  0.
          5    1    3    3  502    0  0.21774377021E+02 -0.36527435413E+02  0.65254543861E+03  0.65394649360E+03  0.47000000000E+01 0.  1.
         -5    1    3    3    0  502 -0.31731380238E+02  0.18070426929E+02  0.64964240545E+02  0.74671703950E+02  0.47000000000E+01 0.  1.
        -11    1    1    2    0    0  0.85920822049E+01  0.55054224972E+02  0.14522552955E+03  0.15554821117E+03  0.00000000000E+00 0. -1.
         11    1    1    2    0    0  0.13649210121E+01 -0.36597216489E+02  0.13224993149E+03  0.13722705143E+03  0.00000000000E+00 0.  1.
<mgrwt>
<rscale>  0 0.11743364E+03</rscale>
<asrwt>0</asrwt>
<pdfrwt beam="1">  1        1 0.15510599E+00 0.12674517E+03</pdfrwt>
<pdfrwt beam="2">  1       -1 0.20314100E-02 0.12674517E+03</pdfrwt>
<totfact> 0.10148820E+04</totfact>
</mgrwt>
</event>
<event>
 6    1  0.8165933E-006  0.3013304E+03  0.7546771E-02  0.1098786E+00
         -1   -1    0    0    0  501 -0.00000000000E+00  0.00000000000E+00  0.48570623592E+02  0.48570623592E+02  0.00000000000E+00 0.  1.
          1   -1    0    0  501    0  0.00000000000E+00 -0.00000000000E+00 -0.14759952482E+04  0.14759952482E+04  0.00000000000E+00 0. -1.
          5    1    1    2  502    0 -0.79092991222E+02  0.74520096106E+02 -0.54419062950E+03  0.55495448211E+03  0.47000000000E+01 0. -1.
         -5    1    1    2    0  502 -0.87183390087E+02 -0.16042569367E+03 -0.52371723244E+03  0.55465230213E+03  0.47000000000E+01 0.  1.
        -11    1    1    2    0    0  0.93180887836E+02  0.80709994422E+02 -0.28465097503E+03  0.31019825700E+03  0.00000000000E+00 0.  1.
         11    1    1    2    0    0  0.73095493472E+02  0.51956031370E+01 -0.74865787587E+02  0.10476083051E+03  0.00000000000E+00 0. -1.
<mgrwt>
<rscale>  0 0.27440270E+03</rscale>
<asrwt>0</asrwt>
<pdfrwt beam="2">  1        1 0.22707620E+00 0.30133041E+03</pdfrwt>
<pdfrwt beam="1">  1       -1 0.74724035E-02 0.30133041E+03</pdfrwt>
<totfact> 0.70870472E+02</totfact>
</mgrwt>
</event>
<event>
 7    1  0.8165933E-006  0.1450230E+03  0.7546771E-02  0.1214334E+00
         -2   -1    0    0    0  501 -0.00000000000E+00  0.00000000000E+00  0.16584974060E+02  0.16584974060E+02  0.00000000000E+00 0.  1.
          2   -1    0    0  501    0  0.00000000000E+00 -0.00000000000E+00 -0.17468707304E+04  0.17468707304E+04  0.00000000000E+00 0. -1.
         23    2    1    2    0    0 -0.73349369342E+02  0.52156950711E+01 -0.14502078375E+04  0.14574410597E+04  0.12499734753E+03 0.  0.
          5    1    3    3  502    0 -0.12339996503E+02 -0.50379684942E+02 -0.84622004097E+03  0.84782122874E+03  0.47000000000E+01 0.  1.
         -5    1    3    3    0  502 -0.61009372839E+02  0.55595380013E+02 -0.60398779657E+03  0.60961983093E+03  0.47000000000E+01 0.  1.
        -11    1    1    2    0    0  0.43088113002E+02  0.41664436544E+02 -0.91736164921E+02  0.10958117863E+03  0.00000000000E+00 0. -1.
         11    1    1    2    0    0  0.30261256339E+02 -0.46880131615E+02 -0.18834175390E+03  0.19643346619E+03  0.00000000000E+00 0.  1.
<mgrwt>
<rscale>  0 0.13925565E+03</rscale>
<asrwt>0</asrwt>
<pdfrwt beam="2">  1        2 0.26874929E+00 0.14502300E+03</pdfrwt>
<pdfrwt beam="1">  1       -2 0.25515350E-02 0.14502300E+03</pdfrwt>
<totfact> 0.53869049E+03</totfact>
</mgrwt>
</event>
<event>
 7    1  0.8165933E-006  0.2947213E+03  0.7546771E-02  0.1089445E+00
         -2   -1    0    0    0  501 -0.00000000000E+00  0.00000000000E+00  0.61465366541E+02  0.61465366541E+02  0.00000000000E+00 0.  1.
          2   -1    0    0  501    0  0.00000000000E+00 -0.00000000000E+00 -0.15055236913E+04  0.15055236913E+04  0.00000000000E+00 0. -1.
         23    2    1    2    0    0 -0.19144647383E+03 -0.18597495728E+03 -0.98099588351E+03  0.10243112575E+04  0.12498876617E+03 0.  0.
          5    1    3    3  502    0 -0.15436243708E+03 -0.82325218582E+02 -0.72091748189E+03  0.74185531560E+03  0.47000000000E+01 0.  1.
         -5    1    3    3    0  502 -0.37084036755E+02 -0.10364973870E+03 -0.26007840162E+03  0.28245594188E+03  0.47000000000E+01 0.  1.
        -11    1    1    2    0    0  0.14260376232E+03  0.12711366455E+03 -0.23927384695E+03  0.30617918051E+03  0.00000000000E+00 0.  1.
         11    1    1    2    0    0  0.48842711513E+02  0.58861292732E+02 -0.22378859430E+03  0.23649861984E+03  0.00000000000E+00 0. -1.
<mgrwt>
<rscale>  0 0.29173864E+03</rscale>
<asrwt>0</asrwt>
<pdfrwt beam="2">  1        2 0.23161901E+00 0.29472127E+03</pdfrwt>
<pdfrwt beam="1">  1       -2 0.94562111E-02 0.29472127E+03</pdfrwt>
<totfact> 0.98308551E+02</totfact>
</mgrwt>
</event>
<event>
 7    1  0.8165933E-006  0.1471945E+03  0.7546771E-02  0.1213284E+00
         -2   -1    0    0    0  501 -0.00000000000E+00  0.00000000000E+00  0.85945724208E+02  0.85945724208E+02  0.00000000000E+00 0.  1.
          2   -1    0    0  501    0  0.00000000000E+00 -0.00000000000E+00 -0.27512156667E+03  0.27512156667E+03  0.00000000000E+00 0. -1.
         23    2    1    2    0    0  0.11750470619E+02  0.76826778871E+02 -0.19018035612E+03  0.24048867461E+03  0.12500322897E+03 0.  0.
          5    1    3    3  502    0  0.36360363050E+02  0.33680146135E+02 -0.65655242289E+01  0.50215777930E+02  0.47000000000E+01 0. -1.
         -5    1    3    3    0  502 -0.24609892430E+02  0.43146632736E+02 -0.18361483189E+03  0.19027289668E+03  0.47000000000E+01 0. -1.
        -11    1    1    2    0    0 -0.29273517506E+01 -0.47351874648E+02  0.45992285721E+02  0.66076166405E+02  0.00000000000E+00 0.  1.
         11    1    1    2    0    0 -0.88231188687E+01 -0.29474904223E+02 -0.44987772061E+02  0.54502449858E+02  0.00000000000E+00 0. -1.
<mgrwt>
<rscale>  0 0.14003371E+03</rscale>
<asrwt>0</asrwt>
<pdfrwt beam="2">  1        2 0.42326395E-01 0.14719455E+03</pdfrwt>
<pdfrwt beam="1">  1       -2 0.13222419E-01 0.14719455E+03</pdfrwt>
<totfact> 0.48811206E+03</totfact>
</mgrwt>
</event>
<event>
 7    1  0.8165933E-006  0.1284451E+03  0.7546771E-02  0.1248746E+00
         -2   -1    0    0    0  501 -0.00000000000E+00  0.00000000000E+00  0.12726612608E+03  0.12726612608E+03  0.00000000000E+00 0.  1.
          2   -1    0    0  501    0  0.00000000000E+00 -0.00000000000E+00 -0.10269776048E+03  0.10269776048E+03  0.00000000000E+00 0. -1.
         23    2    1    2    0    0  0.16144767073E+02 -0.24739251546E+02 -0.23028907066E+02  0.13049322131E+03  0.12500186469E+03 0.  0.
          5    1    3    3  502    0  0.18740742109E+02 -0.40153534716E+02  0.43331475227E+02  0.62154875194E+02  0.47000000000E+01 0.  1.
         -5    1    3    3    0  502 -0.25959750363E+01  0.15414283170E+02 -0.66360382293E+02  0.68338346118E+02  0.47000000000E+01 0.  1.
        -11    1    1    2    0    0 -0.10983489955E+02 -0.28279809219E+02  0.31703438996E+02  0.43880436475E+02  0.00000000000E+00 0.  1.
         11    1    1    2    0    0 -0.51612771177E+01  0.53019060765E+02  0.15893833668E+02  0.55590228769E+02  0.00000000000E+00 0. -1.
<mgrwt>
<rscale>  0 0.11663961E+03</rscale>
<asrwt>0</asrwt>
<pdfrwt beam="2">  1        2 0.15799655E-01 0.12844513E+03</pdfrwt>
<pdfrwt beam="1">  1       -2 0.19579404E-01 0.12844513E+03</pdfrwt>
<totfact> 0.75155590E+03</totfact>
</mgrwt>
</event>
<event>
 7    1  0.8165933E-006  0.3020158E+03  0.7546771E-02  0.1085820E+00
          3   -1    0    0  501    0  0.00000000000E+00  0.00000000000E+00  0.31383794130E+03  0.31383794130E+03  0.00000000000E+00 0. -1.
         -3   -1    0    0    0  501 -0.00000000000E+00 -0.00000000000E+00 -0.37270717564E+03  0.37270717564E+03  0.00000000000E+00 0.  1.
         23    2    1    2    0    0  0.15897525781E+03 -0.22430871514E+03  0.14242792793E+03  0.33391504496E+03  0.12500404118E+03 0.  0.
          5    1    3    3  502    0  0.11755212630E+02 -0.28775158187E+02  0.72960623253E+02  0.79445184235E+02  0.47000000000E+01 0.  1.
         -5    1    3    3    0  502  0.14722004518E+03 -0.19553355696E+03  0.69467304672E+02  0.25446986072E+03  0.47000000000E+01 0.  1.
        -11    1    1    2    0    0 -0.36009407300E+02  0.11771120151E+03 -0.11486102008E+03  0.16836168896E+03  0.00000000000E+00 0.  1.
         11    1    1    2    0    0 -0.12296585051E+03  0.10659751363E+03 -0.86436142192E+02  0.18426838302E+03  0.00000000000E+00 0. -1.
<mgrwt>
<rscale>  0 0.29884467E+03</rscale>
<asrwt>0</asrwt>
<pdfrwt beam="1">  1        3 0.48282760E-01 0.30201580E+03</pdfrwt>
<pdfrwt beam="2">  1       -3 0.57339566E-01 0.30201580E+03</pdfrwt>
<totfact> 0.32435379E+01</totfact>
</mgrwt>
</event>
<event>
 7    1  0.9079023E-006  0.2015769E+03  0.7546771E-02  0.1152915E+00
         -3   -1    0    0    0  501 -0.00000000000E+00  0.00000000000E+00  0.27291485985E+03  0.27291485985E+03  0.00000000000E+00 0.  1.
          3   -1    0    0  501    0  0.00000000000E+00 -0.00000000000E+00 -0.14416845412E+03  0.14416845412E+03  0.00000000000E+00 0. -1.
         23    2    1    2    0    0 -0.65951408411E+02 -0.14373334505E+03  0.12865169628E+02  0.20198705967E+03  0.12499758772E+03 0.  0.
          5    1    3    3  502    0 -0.42480932627E+02 -0.88818293453E+02  0.68659989160E+02  0.12012328251E+03  0.47000000000E+01 0.  1.
         -5    1    3    3    0  502 -0.23470475784E+02 -0.54915051593E+02 -0.55794819532E+02  0.81863777164E+02  0.47000000000E+01 0.  1.
        -11    1    1    2    0    0  0.69679671962E+02  0.49432010051E+02  0.41755738510E+02  0.95091124722E+02  0.00000000000E+00 0. -1.
         11    1    1    2    0    0 -0.37282635510E+01  0.94301334995E+02  0.74125497588E+02  0.12000512957E+03  0.00000000000E+00 0.  1.
<mgrwt>
<rscale>  0 0.19628070E+03</rscale>
<asrwt>0</asrwt>
<pdfrwt beam="2">  1        3 0.22179762E-01 0.20157693E+03</pdfrwt>
<pdfrwt beam="1">  1       -3 0.41986902E-01 0.20157693E+03</pdfrwt>
<totfact> 0.25761549E+02</totfact>
</mgrwt>
</event>
<event>
 7    1  0.8165933E-006  0.1597032E+03  0.7546771E-02  0.1196067E+00
          1   -1    0    0  501    0  0.00000000000E+00  0.00000000000E+00  0.12444531871E+03  0.12444531871E+03  0.00000000000E+00 0. -1.
         -1   -1    0    0    0  501 -0.00000000000E+00 -0.00000000000E+00 -0.18301982799E+03  0.18301982799E+03  0.00000000000E+00 0.  1.
         23    2    1    2    0    0  0.44648845835E+02  0.88651375381E+02 -0.28047310188E+01  0.15972782398E+03  0.12511005333E+03 0.  0.
          5    1    3    3  502    0  0.60108341569E+02  0.11274529486E+03 -0.14030159952E+02  0.12862134203E+03  0.47000000000E+01 0. -1.
         -5    1    3    3    0  502 -0.15459495734E+02 -0.24093919476E+02  0.11225428934E+02  0.31106481942E+02  0.47000000000E+01 0. -1.
        -11    1    1    2    0    0 -0.87939366593E+01 -0.40691167603E+02 -0.74202800671E+02  0.85083253759E+02  0.00000000000E+00 0.  1.
         11    1    1    2    0    0 -0.35854909176E+02 -0.47960207777E+02  0.18433022407E+02  0.62654068959E+02  0.00000000000E+00 0. -1.
<mgrwt>
<rscale>  0 0.15364272E+03</rscale>
<asrwt>0</asrwt>
<pdfrwt beam="1">  1        1 0.19145434E-01 0.15970320E+03</pdfrwt>
<pdfrwt beam="2">  1       -1 0.28156896E-01 0.15970320E+03</pdfrwt>
<totfact> 0.29966359E+03</totfact>
</mgrwt>
</event>
<event>
 7    1  0.8165933E-006  0.1580534E+03  0.7546771E-02  0.1198952E+00
         -2   -1    0    0    0  501 -0.00000000000E+00  0.00000000000E+00  0.16591365713E+03  0.16591365713E+03  0.00000000000E+00 0.  1.
          2   -1    0    0  501    0  0.00000000000E+00 -0.00000000000E+00 -0.27746110842E+03  0.27746110842E+03  0.00000000000E+00 0. -1.
         23    2    1    2    0    0  0.40164639425E+02  0.87991060401E+02 -0.22085611598E+03  0.27158482312E+03  0.12500106885E+03 0.  0.
          5    1    3    3  502    0 -0.43540758654E+02  0.44906269507E+02 -0.10398664983E+03  0.12144004301E+03  0.47000000000E+01 0. -1.
         -5    1    3    3    0  502  0.83705398079E+02  0.43084790893E+02 -0.11686946616E+03  0.15014478011E+03  0.47000000000E+01 0. -1.
        -11    1    1    2    0    0 -0.66202349330E+02 -0.38475155040E+02  0.62033929084E+02  0.98545913003E+02  0.00000000000E+00 0.  1.
         11    1    1    2    0    0  0.26037709905E+02 -0.49515905361E+02  0.47274735608E+02  0.73244029433E+02  0.00000000000E+00 0. -1.
<mgrwt>
<rscale>  0 0.15124431E+03</rscale>
<asrwt>0</asrwt>
<pdfrwt beam="2">  1        2 0.42686325E-01 0.15805345E+03</pdfrwt>
<pdfrwt beam="1">  1       -2 0.25525178E-01 0.15805345E+03</pdfrwt>
<totfact> 0.16062447E+03</totfact>
</mgrwt>
</event>
<event>
 6    1  0.8165933E-006  0.1809770E+03  0.7546771E-02  0.1190171E+00
         -1   -1    0    0    0  501 -0.00000000000E+00  0.00000000000E+00  0.53175194317E+02  0.53175194317E+02  0.00000000000E+00 0.  1.
          1   -1    0    0  501    0  0.00000000000E+00 -0.00000000000E+00 -0.42747709152E+03  0.42747709152E+03  0.00000000000E+00 0. -1.
          5    1    1    2  502    0 -0.42749259045E+00 -0.38863107573E+02 -0.31697955947E+03  0.31938793810E+03  0.47000000000E+01 0. -1.
         -5    1    1    2    0  502  0.16859527553E+02 -0.19173925467E+02  0.16945516212E+02  0.31001993594E+02  0.47000000000E+01 0.  1.
        -11    1    1    2    0    0 -0.50077633613E+02  0.50655178565E+02 -0.59389191592E+02  0.92740458170E+02  0.00000000000E+00 0. -1.
         11    1    1    2    0    0  0.33645598650E+02  0.73818544749E+01 -0.14878662351E+02  0.37521895973E+02  0.00000000000E+00 0.  1.
<mgrwt>
<rscale>  0 0.15870127E+03</rscale>
<asrwt>0</asrwt>
<pdfrwt beam="2">  1        1 0.65765704E-01 0.18097701E+03</pdfrwt>
<pdfrwt beam="1">  1       -1 0.81807994E-02 0.18097701E+03</pdfrwt>
<totfact> 0.45207013E+03</totfact>
</mgrwt>
</event>
<event>
 7    1  0.8165933E-006  0.1298838E+03  0.7546771E-02  0.1241808E+00
          2   -1    0    0  501    0  0.00000000000E+00  0.00000000000E+00  0.10348127023E+04  0.10348127023E+04  0.00000000000E+00 0. -1.
         -2   -1    0    0    0  501 -0.00000000000E+00 -0.00000000000E+00 -0.23432175740E+02  0.23432175740E+02  0.00000000000E+00 0.  1.
         23    2    1    2    0    0 -0.13442423774E+02  0.32619596452E+02  0.90465917966E+03  0.91393546125E+03  0.12500023665E+03 0.  0.
          5    1    3    3  502    0  0.54237911321E+02  0.29277829393E+02  0.45253634010E+03  0.45673862485E+03  0.47000000000E+01 0. -1.
         -5    1    3    3    0  502 -0.67680335095E+02  0.33417670592E+01  0.45212283956E+03  0.45719683640E+03  0.47000000000E+01 0. -1.
        -11    1    1    2    0    0 -0.15138133373E+02 -0.34832885217E+02  0.46198892730E+01  0.38260114368E+02  0.00000000000E+00 0.  1.
         11    1    1    2    0    0  0.28580557147E+02  0.22132887647E+01  0.10210145765E+03  0.10604930244E+03  0.00000000000E+00 0. -1.
<mgrwt>
<rscale>  0 0.12078508E+03</rscale>
<asrwt>0</asrwt>
<pdfrwt beam="1">  1        2 0.15920192E+00 0.12988378E+03</pdfrwt>
<pdfrwt beam="2">  1       -2 0.36049509E-02 0.12988378E+03</pdfrwt>
<totfact> 0.77752256E+03</totfact>
</mgrwt>
</event>
<event>
 7    1  0.8165933E-006  0.1737983E+03  0.7546771E-02  0.1182702E+00
         -1   -1    0    0    0  501 -0.00000000000E+00  0.00000000000E+00  0.46932380324E+02  0.46932380324E+02  0.00000000000E+00 0.  1.
          1   -1    0    0  501    0  0.00000000000E+00 -0.00000000000E+00 -0.53509467005E+03  0.53509467005E+03  0.00000000000E+00 0. -1.
         23    2    1    2    0    0 -0.66674117171E+02 -0.10067767839E+03 -0.25195547335E+03  0.30608400487E+03  0.12499769861E+03 0.  0.
          5    1    3    3  502    0 -0.73130243675E+02 -0.66282638717E+01 -0.72376850069E+02  0.10321077874E+03  0.47000000000E+01 0. -1.
         -5    1    3    3    0  502  0.64561265035E+01 -0.94049414522E+02 -0.17957862328E+03  0.20287322613E+03  0.47000000000E+01 0. -1.
        -11    1    1    2    0    0  0.46940826925E+02  0.63716700145E+02 -0.73774739263E+02  0.10819413692E+03  0.00000000000E+00 0.  1.
         11    1    1    2    0    0  0.19733290247E+02  0.36960978248E+02 -0.16243207711E+03  0.16774890859E+03  0.00000000000E+00 0. -1.
<mgrwt>
<rscale>  0 0.16542729E+03</rscale>
<asrwt>0</asrwt>
<pdfrwt beam="2">  1        1 0.82322251E-01 0.17379832E+03</pdfrwt>
<pdfrwt beam="1">  1       -1 0.72203667E-02 0.17379832E+03</pdfrwt>
<totfact> 0.40667425E+03</totfact>
</mgrwt>
</event>
<event>
 6    1  0.8165933E-006  0.3506295E+03  0.7546771E-02  0.1081766E+00
          1   -1    0    0  501    0  0.00000000000E+00  0.00000000000E+00  0.52732041137E+03  0.52732041137E+03  0.00000000000E+00 0. -1.
         -1   -1    0    0    0  501 -0.00000000000E+00 -0.00000000000E+00 -0.17307808254E+03  0.17307808254E+03  0.00000000000E+00 0.  1.
          5    1    1    2  502    0 -0.15012909312E+03  0.11264096738E+02  0.15507823535E+03  0.21618735753E+03  0.47000000000E+01 0. -1.
         -5    1    1    2    0  502  0.80215717590E+02 -0.18305781790E+03  0.19304355248E+03  0.27790759111E+03  0.47000000000E+01 0.  1.
        -11    1    1    2    0    0  0.47756479243E+02  0.14032824309E+03  0.41601961482E+02  0.15395915146E+03  0.00000000000E+00 0.  1.
         11    1    1    2    0    0  0.22156896289E+02  0.31465478067E+02 -0.35481420483E+02  0.52344393803E+02  0.00000000000E+00 0. -1.
<mgrwt>
<rscale>  0 0.30705431E+03</rscale>
<asrwt>0</asrwt>
<pdfrwt beam="1">  1        1 0.81126217E-01 0.35062949E+03</pdfrwt>
<pdfrwt beam="2">  1       -1 0.26627397E-01 0.35062949E+03</pdfrwt>
<totfact> 0.52705544E+02</totfact>
</mgrwt>
</event>
<event>
 6    1  0.8165933E-006  0.1477416E+03  0.7546771E-02  0.1216951E+00
         -2   -1    0    0    0  501 -0.00000000000E+00  0.00000000000E+00  0.24837841662E+03  0.24837841662E+03  0.00000000000E+00 0.  1.
          2   -1    0    0  501    0  0.00000000000E+00 -0.00000000000E+00 -0.69989952584E+02  0.69989952584E+02  0.00000000000E+00 0. -1.
          5    1    1    2  502    0  0.39711879426E+02  0.12035622996E+02 -0.19719908355E+02  0.46182836357E+02  0.47000000000E+01 0. -1.
         -5    1    1    2    0  502 -0.60206460863E+02  0.46104525351E+02  0.88930163596E+02  0.11696627371E+03  0.47000000000E+01 0.  1.
        -11    1    1    2    0    0 -0.15619765726E+02 -0.96362419312E+00  0.80085255410E+02  0.81599961930E+02  0.00000000000E+00 0. -1.
         11    1    1    2    0    0  0.36114347162E+02 -0.57176524154E+02  0.29092953388E+02  0.73619297213E+02  0.00000000000E+00 0.  1.
<mgrwt>
<rscale>  0 0.13734168E+03</rscale>
<asrwt>0</asrwt>
<pdfrwt beam="2">  1        2 0.10767685E-01 0.14774157E+03</pdfrwt>
<pdfrwt beam="1">  1       -2 0.38212063E-01 0.14774157E+03</pdfrwt>
<totfact> 0.36551344E+03</totfact>
</mgrwt>
</event>
<event>
 7    1  0.8165933E-006  0.1863190E+03  0.7546771E-02  0.1166929E+00
          1   -1    0    0  501    0  0.00000000000E+00  0.00000000000E+00  0.59015945659E+03  0.59015945659E+03  0.00000000000E+00 0. -1.
         -1   -1    0    0    0  501 -0.00000000000E+00 -0.00000000000E+00 -0.65823825744E+02  0.65823825744E+02  0.00000000000E+00 0.  1.
         23    2    1    2    0    0  0.78410382094E+02  0.11376348315E+03  0.42204741932E+03  0.46134456385E+03  0.12499785728E+03 0.  0.
          5    1    3    3  502    0  0.87326984804E+02  0.41657379089E+02  0.14134026131E+03  0.17134905595E+03  0.47000000000E+01 0.  1.
         -5    1    3    3    0  502 -0.89166027100E+01  0.72106104061E+02  0.28070715801E+03  0.28999550791E+03  0.47000000000E+01 0.  1.
        -11    1    1    2    0    0 -0.80346594788E+02 -0.42359880461E+02  0.37715848261E+02  0.98348461995E+02  0.00000000000E+00 0. -1.
         11    1    1    2    0    0  0.19362126936E+01 -0.71403602689E+02  0.64572363270E+02  0.96290256490E+02  0.00000000000E+00 0.  1.
<mgrwt>
<rscale>  0 0.18090644E+03</rscale>
<asrwt>0</asrwt>
<pdfrwt beam="1">  1        1 0.90793759E-01 0.18631903E+03</pdfrwt>
<pdfrwt beam="2">  1       -1 0.10126743E-01 0.18631903E+03</pdfrwt>
<totfact> 0.21317160E+03</totfact>
</mgrwt>
</event>
<event>
 7    1  0.8165933E-006  0.1506752E+03  0.7546771E-02  0.1204875E+00
          2   -1    0    0  501    0  0.00000000000E+00  0.00000000000E+00  0.83624359257E+03  0.83624359257E+03  0.00000000000E+00 0.  1.
         -2   -1    0    0    0  501 -0.00000000000E+00 -0.00000000000E+00 -0.34419068405E+02  0.34419068405E+02  0.00000000000E+00 0. -1.
         23    2    1    2    0    0 -0.18308626986E+02  0.82107503923E+02  0.65243941616E+03  0.66961198780E+03  0.12500469756E+03 0.  0.
          5    1    3    3  502    0 -0.49909028590E+02  0.84918036956E+02  0.60069036916E+03  0.60873064136E+03  0.47000000000E+01 0. -1.
         -5    1    3    3    0  502  0.31600401604E+02 -0.28105330325E+01  0.51749047009E+02  0.60881346435E+02  0.47000000000E+01 0. -1.
        -11    1    1    2    0    0 -0.35705605821E+02 -0.67359744995E+01  0.70480471995E+02  0.79295400700E+02  0.00000000000E+00 0.  1.
         11    1    1    2    0    0  0.54014232807E+02 -0.75371529424E+02  0.78904636009E+02  0.12175527248E+03  0.00000000000E+00 0. -1.
<mgrwt>
<rscale>  0 0.14647300E+03</rscale>
<asrwt>0</asrwt>
<pdfrwt beam="1">  1        2 0.12865285E+00 0.15067522E+03</pdfrwt>
<pdfrwt beam="2">  1       -2 0.52952419E-02 0.15067522E+03</pdfrwt>
<totfact> 0.58540229E+03</totfact>
</mgrwt>
</event>
<event>
 7    1  0.8165933E-006  0.1266456E+03  0.7546771E-02  0.1246647E+00
          2   -1    0    0  501    0  0.00000000000E+00  0.00000000000E+00  0.14458683176E+03  0.14458683176E+03  0.00000000000E+00 0. -1.
         -2   -1    0    0    0  501 -0.00000000000E+00 -0.00000000000E+00 -0.84998187662E+02  0.84998187662E+02  0.00000000000E+00 0.  1.
         23    2    1    2    0    0  0.19834506136E+02 -0.45893119703E+01  0.32036300574E+02  0.13063469323E+03  0.12499851640E+03 0.  0.
          5    1    3    3  502    0  0.53171142287E+02  0.38057271213E+02  0.38327093429E+02  0.75938016533E+02  0.47000000000E+01 0. -1.
         -5    1    3    3    0  502 -0.33336636150E+02 -0.42646583184E+02 -0.62907928543E+01  0.54696676698E+02  0.47000000000E+01 0. -1.
        -11    1    1    2    0    0  0.82612409334E+01 -0.36021575208E+02  0.32639593577E+02  0.49306643073E+02  0.00000000000E+00 0. -1.
         11    1    1    2    0    0 -0.28095747070E+02  0.40610887178E+02 -0.50872500500E+01  0.49643683122E+02  0.00000000000E+00 0.  1.
<mgrwt>
<rscale>  0 0.11787337E+03</rscale>
<asrwt>0</asrwt>
<pdfrwt beam="1">  1        2 0.22244128E-01 0.12664556E+03</pdfrwt>
<pdfrwt beam="2">  1       -2 0.13076644E-01 0.12664556E+03</pdfrwt>
<totfact> 0.98789666E+03</totfact>
</mgrwt>
</event>
<event>
 7    1  0.8165933E-006  0.1328136E+03  0.7546771E-02  0.1236742E+00
         -2   -1    0    0    0  501 -0.00000000000E+00  0.00000000000E+00  0.14726031154E+02  0.14726031154E+02  0.00000000000E+00 0.  1.
          2   -1    0    0  501    0  0.00000000000E+00 -0.00000000000E+00 -0.92673487156E+03  0.92673487156E+03  0.00000000000E+00 0. -1.
         23    2    1    2    0    0 -0.36044916919E+01 -0.44733731154E+02 -0.53370050144E+03  0.54997788857E+03  0.12500141446E+03 0.  0.
          5    1    3    3  502    0 -0.22643782781E+02 -0.44343329555E+02 -0.52682434779E+03  0.52919283366E+03  0.47000000000E+01 0.  1.
         -5    1    3    3    0  502  0.19039291089E+02 -0.39040159927E+00 -0.68761536487E+01  0.20785054909E+02  0.47000000000E+01 0.  1.
        -11    1    1    2    0    0  0.36110969231E+02 -0.93826117057E+01 -0.12700874399E+03  0.13237543787E+03  0.00000000000E+00 0.  1.
         11    1    1    2    0    0 -0.32506477539E+02  0.54116342860E+02 -0.25129959497E+03  0.25910757627E+03  0.00000000000E+00 0. -1.
<mgrwt>
<rscale>  0 0.12393559E+03</rscale>
<asrwt>0</asrwt>
<pdfrwt beam="2">  1        2 0.14257464E+00 0.13281360E+03</pdfrwt>
<pdfrwt beam="1">  1       -2 0.22655425E-02 0.13281360E+03</pdfrwt>
<totfact> 0.17874419E+04</totfact>
</mgrwt>
</event>
<event>
 7    1  0.8165933E-006  0.1260921E+03  0.7546771E-02  0.1248840E+00
         -1   -1    0    0    0  501 -0.00000000000E+00  0.00000000000E+00  0.79139333024E+02  0.79139333024E+02  0.00000000000E+00 0.  1.
          1   -1    0    0  501    0  0.00000000000E+00 -0.00000000000E+00 -0.15733956727E+03  0.15733956727E+03  0.00000000000E+00 0. -1.
         23    2    1    2    0    0 -0.85009285251E+01 -0.14530009407E+02 -0.69344874501E+02  0.14390245776E+03  0.12496326969E+03 0.  0.
          5    1    3    3  502    0 -0.18664536074E+02  0.53466231836E+02 -0.25988845926E+02  0.62486102184E+02  0.47000000000E+01 0. -1.
         -5    1    3    3    0  502  0.10163607549E+02 -0.67996241243E+02 -0.43356028575E+02  0.81416355577E+02  0.47000000000E+01 0. -1.
        -11    1    1    2    0    0  0.45592659171E+02  0.11456515330E+02  0.13813558678E+02  0.48997517459E+02  0.00000000000E+00 0.  1.
         11    1    1    2    0    0 -0.37091730646E+02  0.30734940766E+01 -0.22668918423E+02  0.43578925074E+02  0.00000000000E+00 0. -1.
<mgrwt>
<rscale>  0 0.11658479E+03</rscale>
<asrwt>0</asrwt>
<pdfrwt beam="2">  1        1 0.24206087E-01 0.12609205E+03</pdfrwt>
<pdfrwt beam="1">  1       -1 0.12175282E-01 0.12609205E+03</pdfrwt>
<totfact> 0.83881985E+03</totfact>
</mgrwt>
</event>
<event>
 7    1  0.8165933E-006  0.1338795E+03  0.7546771E-02  0.1234690E+00
          2   -1    0    0  501    0  0.00000000000E+00  0.00000000000E+00  0.60472915060E+03  0.60472915060E+03  0.00000000000E+00 0. -1.
         -2   -1    0    0    0  501 -0.00000000000E+00 -0.00000000000E+00 -0.26985955848E+02  0.26985955848E+02  0.00000000000E+00 0.  1.
         23    2    1    2    0    0 -0.47509366529E+02 -0.63963265259E+01  0.44052651913E+03  0.46042081976E+03  0.12500265721E+03 0.  0.
          5    1    3    3  502    0 -0.85018359155E+02  0.21580862995E+01  0.20928528582E+03  0.22595397671E+03  0.47000000000E+01 0.  1.
         -5    1    3    3    0  502  0.37508992627E+02 -0.85544128254E+01  0.23124123331E+03  0.23446684305E+03  0.47000000000E+01 0.  1.
        -11    1    1    2    0    0 -0.14788215370E+02  0.22454663399E+02  0.99093195501E+01  0.28654804765E+02  0.00000000000E+00 0.  1.
         11    1    1    2    0    0  0.62297581899E+02 -0.16058336873E+02  0.12730735607E+03  0.14263948192E+03  0.00000000000E+00 0. -1.
<mgrwt>
<rscale>  0 0.12524287E+03</rscale>
<asrwt>0</asrwt>
<pdfrwt beam="1">  1        2 0.93035244E-01 0.13387949E+03</pdfrwt>
<pdfrwt beam="2">  1       -2 0.41516860E-02 0.13387949E+03</pdfrwt>
<totfact> 0.12348125E+04</totfact>
</mgrwt>
</event>
<event>
 7    1  0.8165933E-006  0.1269693E+03  0.7546771E-02  0.1246321E+00
          1   -1    0    0  501    0  0.00000000000E+00  0.00000000000E+00  0.26606755289E+03  0.26606755289E+03  0.00000000000E+00 0. -1.
         -1   -1    0    0    0  501 -0.00000000000E+00 -0.00000000000E+00 -0.47473489784E+02  0.47473489784E+02  0.00000000000E+00 0.  1.
         23    2    1    2    0    0  0.22500576134E+02  0.17804860869E+02  0.14941599796E+03  0.19607738898E+03  0.12368473239E+03 0.  0.
          5    1    3    3  502    0  0.72579107937E+02  0.23199943521E+02  0.92281142186E+02  0.11976586948E+03  0.47000000000E+01 0. -1.
         -5    1    3    3    0  502 -0.50078531803E+02 -0.53950826521E+01  0.57134855772E+02  0.76311519500E+02  0.47000000000E+01 0.  1.
        -11    1    1    2    0    0  0.23833176437E+02 -0.25327043898E+02  0.11298895470E+01  0.34795920768E+02  0.00000000000E+00 0.  1.
         11    1    1    2    0    0 -0.46333752571E+02  0.75221830294E+01  0.68048175598E+02  0.82667732926E+02  0.00000000000E+00 0. -1.
<mgrwt>
<rscale>  0 0.11806667E+03</rscale>
<asrwt>0</asrwt>
<pdfrwt beam="1">  1        1 0.40933469E-01 0.12696930E+03</pdfrwt>
<pdfrwt beam="2">  1       -1 0.73036140E-02 0.12696930E+03</pdfrwt>
<totfact> 0.95055092E+03</totfact>
</mgrwt>
</event>
<event>
 7    1  0.8165933E-006  0.1327576E+03  0.7546771E-02  0.1235812E+00
         -1   -1    0    0    0  501 -0.00000000000E+00  0.00000000000E+00  0.40446513660E+02  0.40446513660E+02  0.00000000000E+00 0.  1.
          1   -1    0    0  501    0  0.00000000000E+00 -0.00000000000E+00 -0.36445809993E+03  0.36445809993E+03  0.00000000000E+00 0. -1.
         23    2    1    2    0    0  0.96715664498E+00 -0.44716704762E+02 -0.23030107400E+03  0.26582544505E+03  0.12499625384E+03 0.  0.
          5    1    3    3  502    0 -0.11412524246E+02  0.10864723399E+02  0.97173865156E+01  0.19099882850E+02  0.47000000000E+01 0. -1.
         -5    1    3    3    0  502  0.12379680891E+02 -0.55581428161E+02 -0.24001846051E+03  0.24672556220E+03  0.47000000000E+01 0. -1.
        -11    1    1    2    0    0 -0.18297183069E+02 -0.24121312838E+02 -0.17672878676E+02  0.35056458492E+02  0.00000000000E+00 0.  1.
         11    1    1    2    0    0  0.17330026424E+02  0.68838017600E+02 -0.76037633597E+02  0.10402271005E+03  0.00000000000E+00 0. -1.
<mgrwt>
<rscale>  0 0.12452585E+03</rscale>
<asrwt>0</asrwt>
<pdfrwt beam="2">  1        1 0.56070476E-01 0.13275761E+03</pdfrwt>
<pdfrwt beam="1">  1       -1 0.62225406E-02 0.13275761E+03</pdfrwt>
<totfact> 0.82059178E+03</totfact>
</mgrwt>
</event>
<event>
 7    1  0.8165933E-006  0.2623960E+03  0.7546771E-02  0.1107927E+00
          2   -1    0    0  501    0  0.00000000000E+00  0.00000000000E+00  0.34427208850E+03  0.34427208850E+03  0.00000000000E+00 0. -1.
         -2   -1    0    0    0  501 -0.00000000000E+00 -0.00000000000E+00 -0.20083754597E+03  0.20083754597E+03  0.00000000000E+00 0.  1.
         23    2    1    2    0    0  0.21381051494E+03  0.86658064444E+02  0.13947135007E+03  0.29715977361E+03  0.12500846822E+03 0.  0.
          5    1    3    3  502    0  0.17667148635E+03  0.11448398704E+02  0.10806216541E+03  0.20746903748E+03  0.47000000000E+01 0.  1.
         -5    1    3    3    0  502  0.37139028595E+02  0.75209665740E+02  0.31409184660E+02  0.89690736125E+02  0.47000000000E+01 0.  1.
        -11    1    1    2    0    0 -0.96716537153E+02 -0.87503818059E+02  0.90725138368E+01  0.13074141364E+03  0.00000000000E+00 0.  1.
         11    1    1    2    0    0 -0.11709397779E+03  0.84575361492E+00 -0.51093213802E+01  0.11720844722E+03  0.00000000000E+00 0. -1.
<mgrwt>
<rscale>  0 0.25869917E+03</rscale>
<asrwt>0</asrwt>
<pdfrwt beam="1">  1        2 0.52964937E-01 0.26239602E+03</pdfrwt>
<pdfrwt beam="2">  1       -2 0.30898084E-01 0.26239602E+03</pdfrwt>
<totfact> 0.91292895E+02</totfact>
</mgrwt>
</event>
<event>
 7    1  0.8165933E-006  0.1480257E+03  0.7546771E-02  0.1212286E+00
         -2   -1    0    0    0  501 -0.00000000000E+00  0.00000000000E+00  0.88617252805E+02  0.88617252805E+02  0.00000000000E+00 0.  1.
          2   -1    0    0  501    0  0.00000000000E+00 -0.00000000000E+00 -0.24736562760E+03  0.24736562760E+03  0.00000000000E+00 0. -1.
         23    2    1    2    0    0 -0.43988694043E+02  0.65972383424E+02 -0.15572067857E+03  0.21485005343E+03  0.12499702055E+03 0.  0.
          5    1    3    3  502    0  0.23372211710E+01  0.64508377483E+02 -0.14750072229E+02  0.66381081635E+02  0.47000000000E+01 0.  1.
         -5    1    3    3    0  502 -0.46325915214E+02  0.14640059407E+01 -0.14097060634E+03  0.14846897180E+03  0.47000000000E+01 0.  1.
        -11    1    1    2    0    0  0.31242763456E+02 -0.18287162274E+02  0.41208784635E+02  0.54851567922E+02  0.00000000000E+00 0.  1.
         11    1    1    2    0    0  0.12745930587E+02 -0.47685221150E+02 -0.44236480860E+02  0.66281259052E+02  0.00000000000E+00 0. -1.
<mgrwt>
<rscale>  0 0.14077789E+03</rscale>
<asrwt>0</asrwt>
<pdfrwt beam="2">  1        2 0.38056250E-01 0.14802573E+03</pdfrwt>
<pdfrwt beam="1">  1       -2 0.13633424E-01 0.14802573E+03</pdfrwt>
<totfact> 0.52043768E+03</totfact>
</mgrwt>
</event>
<event>
 7    1  0.8165933E-006  0.1250033E+03  0.7546771E-02  0.1251283E+00
          1   -1    0    0  501    0  0.00000000000E+00  0.00000000000E+00  0.12048522544E+03  0.12048522544E+03  0.00000000000E+00 0. -1.
         -1   -1    0    0    0  501 -0.00000000000E+00 -0.00000000000E+00 -0.10304333251E+03  0.10304333251E+03  0.00000000000E+00 0.  1.
         23    2    1    2    0    0 -0.62800644530E+00 -0.59807316891E+00  0.38930642757E+02  0.13092522809E+03  0.12500027329E+03 0.  0.
          5    1    3    3  502    0  0.18057049513E+02  0.16366326170E+02  0.79295337060E+02  0.83088832877E+02  0.47000000000E+01 0. -1.
         -5    1    3    3    0  502 -0.18685055958E+02 -0.16964399339E+02 -0.40364694303E+02  0.47836395216E+02  0.47000000000E+01 0. -1.
        -11    1    1    2    0    0 -0.44021380039E+02 -0.14860709434E+01 -0.27374006943E+01  0.44131436300E+02  0.00000000000E+00 0. -1.
         11    1    1    2    0    0  0.44649386484E+02  0.20841441123E+01 -0.18751349139E+02  0.48471893553E+02  0.00000000000E+00 0.  1.
<mgrwt>
<rscale>  0 0.11517092E+03</rscale>
<asrwt>0</asrwt>
<pdfrwt beam="1">  1        1 0.18536189E-01 0.12500328E+03</pdfrwt>
<pdfrwt beam="2">  1       -1 0.15852820E-01 0.12500328E+03</pdfrwt>
<totfact> 0.77907384E+03</totfact>
</mgrwt>
</event>
<event>
 7    1  0.8165933E-006  0.1258567E+03  0.7546771E-02  0.1249708E+00
          1   -1    0    0  501    0  0.00000000000E+00  0.00000000000E+00  0.42825637804E+02  0.42825637804E+02  0.00000000000E+00 0. -1.
         -1   -1    0    0    0  501 -0.00000000000E+00 -0.00000000000E+00 -0.27474394848E+03  0.27474394848E+03  0.00000000000E+00 0.  1.
         23    2    1    2    0    0 -0.11297096037E+02 -0.93556052999E+01 -0.13621849467E+03  0.18545994762E+03  0.12499904861E+03 0.  0.
          5    1    3    3  502    0 -0.20389069219E+02  0.52411522648E+00  0.19789596043E+02  0.28804634209E+02  0.47000000000E+01 0. -1.
         -5    1    3    3    0  502  0.90919731819E+01 -0.98797205264E+01 -0.15600809071E+03  0.15665531341E+03  0.47000000000E+01 0. -1.
        -11    1    1    2    0    0  0.11769965229E+02 -0.15015172670E+02 -0.10447510629E+03  0.10620280281E+03  0.00000000000E+00 0.  1.
         11    1    1    2    0    0 -0.47286919253E+00  0.24370777970E+02  0.87752902768E+01  0.25906835847E+02  0.00000000000E+00 0. -1.
<mgrwt>
<rscale>  0 0.11607965E+03</rscale>
<asrwt>0</asrwt>
<pdfrwt beam="1">  1        1 0.65885596E-02 0.12585672E+03</pdfrwt>
<pdfrwt beam="2">  1       -1 0.42268300E-01 0.12585672E+03</pdfrwt>
<totfact> 0.59983652E+03</totfact>
</mgrwt>
</event>
<event>
 7    1  0.8165933E-006  0.1360837E+03  0.7546771E-02  0.1230923E+00
         -1   -1    0    0    0  501 -0.00000000000E+00  0.00000000000E+00  0.42503014770E+03  0.42503014770E+03  0.00000000000E+00 0.  1.
          1   -1    0    0  501    0  0.00000000000E+00 -0.00000000000E+00 -0.39948870302E+02  0.39948870302E+02  0.00000000000E+00 0. -1.
         23    2    1    2    0    0  0.33300340723E+02 -0.42249167240E+02  0.12687448862E+03  0.18605351643E+03  0.12499948116E+03 0.  0.
          5    1    3    3  502    0  0.63590627741E+02  0.12560503199E+02  0.96375008614E+02  0.11624012415E+03  0.47000000000E+01 0. -1.
         -5    1    3    3    0  502 -0.30290287019E+02 -0.54809670439E+02  0.30499480010E+02  0.69813392284E+02  0.47000000000E+01 0. -1.
        -11    1    1    2    0    0 -0.63975652384E+02  0.37437267795E+02  0.17178595412E+03  0.18709582345E+03  0.00000000000E+00 0.  1.
         11    1    1    2    0    0  0.30675311661E+02  0.48118994454E+01  0.86420834654E+02  0.91829678122E+02  0.00000000000E+00 0. -1.
<mgrwt>
<rscale>  0 0.12769094E+03</rscale>
<asrwt>0</asrwt>
<pdfrwt beam="2">  1        1 0.61459803E-02 0.13608371E+03</pdfrwt>
<pdfrwt beam="1">  1       -1 0.65389251E-01 0.13608371E+03</pdfrwt>
<totfact> 0.29601195E+03</totfact>
</mgrwt>
</event>
<event>
 7    1  0.8165933E-006  0.1567711E+03  0.7546771E-02  0.1200597E+00
         -3   -1    0    0    0  501 -0.00000000000E+00  0.00000000000E+00  0.30630796226E+03  0.30630796226E+03  0.00000000000E+00 0.  1.
          3   -1    0    0  501    0  0.00000000000E+00 -0.00000000000E+00 -0.67607899854E+02  0.67607899854E+02  0.00000000000E+00 0. -1.
         23    2    1    2    0    0  0.92077569748E+02 -0.21773871681E+02  0.12923470922E+03  0.20317181926E+03  0.12499919094E+03 0.  0.
          5    1    3    3  502    0  0.73621517579E+02 -0.18139868838E+02  0.36045916247E+01  0.76054360643E+02  0.47000000000E+01 0. -1.
         -5    1    3    3    0  502  0.18456052169E+02 -0.36340028429E+01  0.12563011760E+03  0.12711745862E+03  0.47000000000E+01 0. -1.
        -11    1    1    2    0    0  0.11922221175E+02  0.87328636304E+01  0.45762847867E+02  0.48089921083E+02  0.00000000000E+00 0.  1.
         11    1    1    2    0    0 -0.10399979092E+03  0.13041008051E+02  0.63702505315E+02  0.12265412177E+03  0.00000000000E+00 0. -1.
<mgrwt>
<rscale>  0 0.14989893E+03</rscale>
<asrwt>0</asrwt>
<pdfrwt beam="2">  1        3 0.10401215E-01 0.15677110E+03</pdfrwt>
<pdfrwt beam="1">  1       -3 0.47124301E-01 0.15677110E+03</pdfrwt>
<totfact> 0.73409640E+02</totfact>
</mgrwt>
</event>
<event>
 7    1  0.8165933E-006  0.1440234E+03  0.7546771E-02  0.1217859E+00
         -1   -1    0    0    0  501 -0.00000000000E+00  0.00000000000E+00  0.14239301027E+03  0.14239301027E+03  0.00000000000E+00 0.  1.
          1   -1    0    0  501    0  0.00000000000E+00 -0.00000000000E+00 -0.19950283822E+03  0.19950283822E+03  0.00000000000E+00 0. -1.
         23    2    1    2    0    0  0.39388062587E+02 -0.59712873256E+02 -0.13825306844E+03  0.19964130911E+03  0.12500277862E+03 0.  0.
          5    1    3    3  502    0  0.48311246781E+02  0.27301861974E+02 -0.44066280450E+02  0.71016162284E+02  0.47000000000E+01 0. -1.
         -5    1    3    3    0  502 -0.89231841945E+01 -0.87014735230E+02 -0.94186787992E+02  0.12862514682E+03  0.47000000000E+01 0. -1.
        -11    1    1    2    0    0 -0.32716907786E+02  0.87236640598E+00 -0.94127464449E+01  0.34055203330E+02  0.00000000000E+00 0. -1.
         11    1    1    2    0    0 -0.66711548009E+01  0.58840506850E+02  0.90555986938E+02  0.10819933606E+03  0.00000000000E+00 0.  1.
<mgrwt>
<rscale>  0 0.13668626E+03</rscale>
<asrwt>0</asrwt>
<pdfrwt beam="2">  1        1 0.30692744E-01 0.14402341E+03</pdfrwt>
<pdfrwt beam="1">  1       -1 0.21906617E-01 0.14402341E+03</pdfrwt>
<totfact> 0.24861984E+03</totfact>
</mgrwt>
</event>
<event>
 7    1  0.8165933E-006  0.3386899E+03  0.7546771E-02  0.1068558E+00
         -1   -1    0    0    0  501 -0.00000000000E+00  0.00000000000E+00  0.12376184361E+03  0.12376184361E+03  0.00000000000E+00 0.  1.
          1   -1    0    0  501    0  0.00000000000E+00 -0.00000000000E+00 -0.11920410307E+04  0.11920410307E+04  0.00000000000E+00 0. -1.
         23    2    1    2    0    0  0.97769110936E+02  0.29920992623E+03 -0.86812806489E+03  0.93185683277E+03  0.12500176288E+03 0.  0.
          5    1    3    3  502    0  0.83899481987E+02  0.10502029990E+03 -0.46655457238E+03  0.48555498708E+03  0.47000000000E+01 0. -1.
         -5    1    3    3    0  502  0.13869628949E+02  0.19418962633E+03 -0.40157349251E+03  0.44630184569E+03  0.47000000000E+01 0. -1.
        -11    1    1    2    0    0  0.15602001703E+02 -0.65571771869E+02 -0.50488380910E+02  0.84214941252E+02  0.00000000000E+00 0. -1.
         11    1    1    2    0    0 -0.11337111264E+03 -0.23363815436E+03 -0.14966274132E+03  0.29973110031E+03  0.00000000000E+00 0.  1.
<mgrwt>
<rscale>  0 0.33589533E+03</rscale>
<asrwt>0</asrwt>
<pdfrwt beam="2">  1        1 0.18339092E+00 0.33868986E+03</pdfrwt>
<pdfrwt beam="1">  1       -1 0.19040284E-01 0.33868986E+03</pdfrwt>
<totfact> 0.25282818E+02</totfact>
</mgrwt>
</event>
<event>
 7    1  0.8165933E-006  0.1344447E+03  0.7546771E-02  0.1232908E+00
          2   -1    0    0  501    0  0.00000000000E+00  0.00000000000E+00  0.87140033677E+03  0.87140033677E+03  0.00000000000E+00 0. -1.
         -2   -1    0    0    0  501 -0.00000000000E+00 -0.00000000000E+00 -0.16674238924E+02  0.16674238924E+02  0.00000000000E+00 0.  1.
         23    2    1    2    0    0  0.49384352837E+01 -0.49250187894E+02  0.53014084340E+03  0.54692293172E+03  0.12500164101E+03 0.  0.
          5    1    3    3  502    0  0.56581251014E+02 -0.52154379879E+02  0.23722009957E+03  0.24943332365E+03  0.47000000000E+01 0. -1.
         -5    1    3    3    0  502 -0.51642815730E+02  0.29041919852E+01  0.29292074383E+03  0.29748960807E+03  0.47000000000E+01 0. -1.
        -11    1    1    2    0    0  0.38702456468E+02  0.10980127415E+02  0.19580182514E+03  0.19989196598E+03  0.00000000000E+00 0. -1.
         11    1    1    2    0    0 -0.43640891751E+02  0.38270060478E+02  0.12878342931E+03  0.14125967799E+03  0.00000000000E+00 0.  1.
<mgrwt>
<rscale>  0 0.12639331E+03</rscale>
<asrwt>0</asrwt>
<pdfrwt beam="1">  1        2 0.13406155E+00 0.13444471E+03</pdfrwt>
<pdfrwt beam="2">  1       -2 0.25652682E-02 0.13444471E+03</pdfrwt>
<totfact> 0.16172651E+04</totfact>
</mgrwt>
</event>
<event>
 7    1  0.8165933E-006  0.1260698E+03  0.7546771E-02  0.1248574E+00
          3   -1    0    0  501    0  0.00000000000E+00  0.00000000000E+00  0.30100509986E+02  0.30100509986E+02  0.00000000000E+00 0. -1.
         -3   -1    0    0    0  501 -0.00000000000E+00 -0.00000000000E+00 -0.39968047233E+03  0.39968047233E+03  0.00000000000E+00 0.  1.
         23    2    1    2    0    0  0.14304852482E+02 -0.79712614599E+01 -0.19706144624E+03  0.23393762747E+03  0.12500172055E+03 0.  0.
          5    1    3    3  502    0  0.59269596889E+02  0.12551469780E+01 -0.17077618727E+03  0.18083433482E+03  0.47000000000E+01 0.  1.
         -5    1    3    3    0  502 -0.44964744407E+02 -0.92264084379E+01 -0.26285258964E+02  0.53103292658E+02  0.47000000000E+01 0.  1.
        -11    1    1    2    0    0 -0.49433144488E+02  0.28367792834E+01 -0.13679048355E+03  0.14547618183E+03  0.00000000000E+00 0.  1.
         11    1    1    2    0    0  0.35128292006E+02  0.51344821765E+01 -0.35728032556E+02  0.50367173008E+02  0.00000000000E+00 0. -1.
<mgrwt>
<rscale>  0 0.11674009E+03</rscale>
<asrwt>0</asrwt>
<pdfrwt beam="1">  1        3 0.46308478E-02 0.12606982E+03</pdfrwt>
<pdfrwt beam="2">  1       -3 0.61489302E-01 0.12606982E+03</pdfrwt>
<totfact> 0.15292270E+03</totfact>
</mgrwt>
</event>
<event>
 6    1  0.8165933E-006  0.2282212E+03  0.7546771E-02  0.1157023E+00
         -1   -1    0    0    0  501 -0.00000000000E+00  0.00000000000E+00  0.85796138332E+02  0.85796138332E+02  0.00000000000E+00 0.  1.
          1   -1    0    0  501    0  0.00000000000E+00 -0.00000000000E+00 -0.36127102370E+03  0.36127102370E+03  0.00000000000E+00 0. -1.
          5    1    1    2  502    0  0.31429295734E+01 -0.22350202516E+02 -0.25555650359E+03  0.25659428304E+03  0.47000000000E+01 0. -1.
         -5    1    1    2    0  502  0.20130224229E+02 -0.61953504411E+02  0.22996598983E+02  0.69241578558E+02  0.47000000000E+01 0.  1.
        -11    1    1    2    0    0  0.12279110178E+02 -0.61919465374E+01 -0.14390229955E+02  0.19904659426E+02  0.00000000000E+00 0.  1.
         11    1    1    2    0    0 -0.35552263981E+02  0.90495653465E+02 -0.28524750801E+02  0.10132664101E+03  0.00000000000E+00 0. -1.
<mgrwt>
<rscale>  0 0.19160302E+03</rscale>
<asrwt>0</asrwt>
<pdfrwt beam="2">  1        1 0.55580156E-01 0.22822116E+03</pdfrwt>
<pdfrwt beam="1">  1       -1 0.13199406E-01 0.22822116E+03</pdfrwt>
<totfact> 0.26990169E+03</totfact>
</mgrwt>
</event>
<event>
 7    1  0.8165933E-006  0.1673621E+03  0.7546771E-02  0.1187177E+00
         -1   -1    0    0    0  501 -0.00000000000E+00  0.00000000000E+00  0.28642998876E+02  0.28642998876E+02  0.00000000000E+00 0.  1.
          1   -1    0    0  501    0  0.00000000000E+00 -0.00000000000E+00 -0.93552776886E+03  0.93552776886E+03  0.00000000000E+00 0. -1.
         23    2    1    2    0    0 -0.80325734361E+02 -0.77027233411E+02 -0.62943625737E+03  0.65130642527E+03  0.12499855684E+03 0.  0.
          5    1    3    3  502    0  0.22699786354E+02 -0.18262660416E+02 -0.38194654369E+02  0.48267242394E+02  0.47000000000E+01 0. -1.
         -5    1    3    3    0  502 -0.10302552071E+03 -0.58764572995E+02 -0.59124160300E+03  0.60303918287E+03  0.47000000000E+01 0. -1.
        -11    1    1    2    0    0 -0.24814710832E+01 -0.14177134140E+02 -0.71096457673E+02  0.72538645733E+02  0.00000000000E+00 0. -1.
         11    1    1    2    0    0  0.82807205444E+02  0.91204367551E+02 -0.20635205494E+03  0.24032569674E+03  0.00000000000E+00 0.  1.
<mgrwt>
<rscale>  0 0.16135325E+03</rscale>
<asrwt>0</asrwt>
<pdfrwt beam="2">  1        1 0.14392733E+00 0.16736206E+03</pdfrwt>
<pdfrwt beam="1">  1       -1 0.44066159E-02 0.16736206E+03</pdfrwt>
<totfact> 0.37585656E+03</totfact>
</mgrwt>
</event>
<event>
 7    1  0.8165933E-006  0.2240224E+03  0.7546771E-02  0.1134164E+00
         -2   -1    0    0    0  501 -0.00000000000E+00  0.00000000000E+00  0.31631021521E+02  0.31631021521E+02  0.00000000000E+00 0.  1.
          2   -1    0    0  501    0  0.00000000000E+00 -0.00000000000E+00 -0.15872090205E+04  0.15872090205E+04  0.00000000000E+00 0. -1.
         23    2    1    2    0    0  0.59367536718E+02  0.17617226526E+03 -0.10280399907E+04  0.10521655125E+04  0.12499948678E+03 0.  0.
          5    1    3    3  502    0 -0.32255589845E+02  0.89983404290E+02 -0.52224577794E+03  0.53094272639E+03  0.47000000000E+01 0.  1.
         -5    1    3    3    0  502  0.91623126563E+02  0.86188860974E+02 -0.50579421279E+03  0.52122278612E+03  0.47000000000E+01 0.  1.
        -11    1    1    2    0    0 -0.68419007100E+02 -0.16905568412E+03 -0.52368458510E+03  0.55453271278E+03  0.00000000000E+00 0. -1.
         11    1    1    2    0    0  0.90514703821E+01 -0.71165811405E+01 -0.38534231086E+01  0.12141816703E+02  0.00000000000E+00 0.  1.
<mgrwt>
<rscale>  0 0.21962365E+03</rscale>
<asrwt>0</asrwt>
<pdfrwt beam="2">  1        2 0.24418605E+00 0.22402242E+03</pdfrwt>
<pdfrwt beam="1">  1       -2 0.48663102E-02 0.22402242E+03</pdfrwt>
<totfact> 0.25022938E+03</totfact>
</mgrwt>
</event>
<event>
 7    1  0.8165933E-006  0.1273347E+03  0.7546771E-02  0.1246275E+00
          1   -1    0    0  501    0  0.00000000000E+00  0.00000000000E+00  0.41956152191E+02  0.41956152191E+02  0.00000000000E+00 0. -1.
         -1   -1    0    0    0  501 -0.00000000000E+00 -0.00000000000E+00 -0.34854978564E+03  0.34854978564E+03  0.00000000000E+00 0.  1.
         23    2    1    2    0    0 -0.23515020822E+02  0.58514684018E+01 -0.94933438603E+02  0.15882843593E+03  0.12500767339E+03 0.  0.
          5    1    3    3  502    0  0.18705014950E+02 -0.38765628537E+02 -0.86389483249E+02  0.96632729218E+02  0.47000000000E+01 0.  1.
         -5    1    3    3    0  502 -0.42220035771E+02  0.44617096939E+02 -0.85439553543E+01  0.62195706708E+02  0.47000000000E+01 0.  1.
        -11    1    1    2    0    0  0.19297441039E+02 -0.39297374553E+02 -0.18062891062E+03  0.18585875882E+03  0.00000000000E+00 0.  1.
         11    1    1    2    0    0  0.42175797827E+01  0.33445906151E+02 -0.31031284229E+02  0.45818743091E+02  0.00000000000E+00 0. -1.
<mgrwt>
<rscale>  0 0.11809391E+03</rscale>
<asrwt>0</asrwt>
<pdfrwt beam="1">  1        1 0.64547927E-02 0.12733465E+03</pdfrwt>
<pdfrwt beam="2">  1       -1 0.53623044E-01 0.12733465E+03</pdfrwt>
<totfact> 0.40162715E+03</totfact>
</mgrwt>
</event>
<event>
 7    1  0.8165933E-006  0.2818633E+03  0.7546771E-02  0.1096504E+00
         -3   -1    0    0    0  501 -0.00000000000E+00  0.00000000000E+00  0.26874280290E+02  0.26874280290E+02  0.00000000000E+00 0.  1.
          3   -1    0    0  501    0  0.00000000000E+00 -0.00000000000E+00 -0.28240706761E+04  0.28240706761E+04  0.00000000000E+00 0. -1.
         23    2    1    2    0    0 -0.25169344987E+03 -0.21935795090E+02 -0.14874766666E+04  0.15139464083E+04  0.12496448164E+03 0.  0.
          5    1    3    3  502    0  0.48474207812E+01 -0.16857980033E+02 -0.22007843353E+03  0.22082639309E+03  0.47000000000E+01 0. -1.
         -5    1    3    3    0  502 -0.25654087065E+03 -0.50778150572E+01 -0.12673982331E+04  0.12931200152E+04  0.47000000000E+01 0. -1.
        -11    1    1    2    0    0  0.20769069579E+03 -0.13732995179E+02 -0.11125759951E+04  0.11318786883E+04  0.00000000000E+00 0.  1.
         11    1    1    2    0    0  0.44002754082E+02  0.35668790269E+02 -0.19714373415E+03  0.20511985980E+03  0.00000000000E+00 0. -1.
<mgrwt>
<rscale>  0 0.27851302E+03</rscale>
<asrwt>0</asrwt>
<pdfrwt beam="2">  1        3 0.43447235E+00 0.28186325E+03</pdfrwt>
<pdfrwt beam="1">  1       -3 0.41345052E-02 0.28186325E+03</pdfrwt>
<totfact> 0.69051588E+00</totfact>
</mgrwt>
</event>
<event>
 7    1  0.8165933E-006  0.1469124E+03  0.7546771E-02  0.1213636E+00
         -3   -1    0    0    0  501 -0.00000000000E+00  0.00000000000E+00  0.20969964620E+02  0.20969964620E+02  0.00000000000E+00 0.  1.
          3   -1    0    0  501    0  0.00000000000E+00 -0.00000000000E+00 -0.87281010782E+03  0.87281010782E+03  0.00000000000E+00 0. -1.
         23    2    1    2    0    0 -0.73498650790E+02 -0.23686433703E+02 -0.53642105367E+03  0.55617514153E+03  0.12498056819E+03 0.  0.
          5    1    3    3  502    0 -0.56610004240E+02 -0.10308363324E+02 -0.53010082433E+03  0.53323534100E+03  0.47000000000E+01 0. -1.
         -5    1    3    3    0  502 -0.16888646550E+02 -0.13378070378E+02 -0.63202293348E+01  0.22939800526E+02  0.47000000000E+01 0.  1.
        -11    1    1    2    0    0  0.44434629017E+01 -0.20248629403E+02 -0.13381381878E+02  0.24674130911E+02  0.00000000000E+00 0.  1.
         11    1    1    2    0    0  0.69055187888E+02  0.43935063105E+02 -0.30203770765E+03  0.31293080000E+03  0.00000000000E+00 0. -1.
<mgrwt>
<rscale>  0 0.13977174E+03</rscale>
<asrwt>0</asrwt>
<pdfrwt beam="2">  1        3 0.13427848E+00 0.14691236E+03</pdfrwt>
<pdfrwt beam="1">  1       -3 0.32261483E-02 0.14691236E+03</pdfrwt>
<totfact> 0.48359908E+02</totfact>
</mgrwt>
</event>
<event>
 7    1  0.8165933E-006  0.2158553E+03  0.7546771E-02  0.1137381E+00
          1   -1    0    0  501    0  0.00000000000E+00  0.00000000000E+00  0.45024718342E+03  0.45024718342E+03  0.00000000000E+00 0. -1.
         -1   -1    0    0    0  501 -0.00000000000E+00 -0.00000000000E+00 -0.10561145239E+03  0.10561145239E+03  0.00000000000E+00 0.  1.
         23    2    1    2    0    0 -0.12174935013E+03 -0.12707004374E+03  0.22029191525E+03  0.30841864249E+03  0.12499532326E+03 0.  0.
          5    1    3    3  502    0 -0.14754868794E+03 -0.10268673702E+03  0.18875914495E+03  0.26070536257E+03  0.47000000000E+01 0.  1.
         -5    1    3    3    0  502  0.25799337805E+02 -0.24383306713E+02  0.31532770303E+02  0.47713279917E+02  0.47000000000E+01 0.  1.
        -11    1    1    2    0    0  0.18951338537E+01  0.61555838910E+02  0.85615891696E+02  0.10546465639E+03  0.00000000000E+00 0. -1.
         11    1    1    2    0    0  0.11985421628E+03  0.65514204827E+02  0.38727924078E+02  0.14197533693E+03  0.00000000000E+00 0.  1.
<mgrwt>
<rscale>  0 0.21537188E+03</rscale>
<asrwt>0</asrwt>
<pdfrwt beam="1">  1        1 0.69268796E-01 0.21585535E+03</pdfrwt>
<pdfrwt beam="2">  1       -1 0.16247916E-01 0.21585535E+03</pdfrwt>
<totfact> 0.14622540E+03</totfact>
</mgrwt>
</event>
<event>
 7    1  0.8165933E-006  0.1541300E+03  0.7546771E-02  0.1205044E+00
         -1   -1    0    0    0  501 -0.00000000000E+00  0.00000000000E+00  0.35116031129E+02  0.35116031129E+02  0.00000000000E+00 0.  1.
          1   -1    0    0  501    0  0.00000000000E+00 -0.00000000000E+00 -0.55743841327E+03  0.55743841327E+03  0.00000000000E+00 0. -1.
         23    2    1    2    0    0  0.15312324087E+02 -0.88750322208E+02 -0.30455074649E+03  0.34133153133E+03  0.12507985503E+03 0.  0.
          5    1    3    3  502    0  0.30337477597E+02 -0.32177428675E+02 -0.16625286248E+02  0.47478833241E+02  0.47000000000E+01 0. -1.
         -5    1    3    3    0  502 -0.15025153510E+02 -0.56572893533E+02 -0.28792546024E+03  0.29385269809E+03  0.47000000000E+01 0. -1.
        -11    1    1    2    0    0 -0.13664556987E+01  0.51867024558E+02 -0.20232786975E+03  0.20887465695E+03  0.00000000000E+00 0. -1.
         11    1    1    2    0    0 -0.13945868389E+02  0.36883297651E+02 -0.15443765896E+02  0.42348256112E+02  0.00000000000E+00 0.  1.
<mgrwt>
<rscale>  0 0.14633997E+03</rscale>
<asrwt>0</asrwt>
<pdfrwt beam="2">  1        1 0.85759754E-01 0.15413000E+03</pdfrwt>
<pdfrwt beam="1">  1       -1 0.54024664E-02 0.15413000E+03</pdfrwt>
<totfact> 0.59145038E+03</totfact>
</mgrwt>
</event>
<event>
 7    1  0.8165933E-006  0.1271459E+03  0.7546771E-02  0.1254535E+00
          2   -1    0    0  501    0  0.00000000000E+00  0.00000000000E+00  0.52221868421E+03  0.52221868421E+03  0.00000000000E+00 0.  1.
         -2   -1    0    0    0  501 -0.00000000000E+00 -0.00000000000E+00 -0.21796502422E+02  0.21796502422E+02  0.00000000000E+00 0. -1.
         23    2    1    2    0    0 -0.15637659325E+02  0.17188751032E+02  0.36612405166E+03  0.38757308548E+03  0.12500434325E+03 0.  0.
          5    1    3    3  502    0  0.62507774394E+01 -0.41913051470E+02  0.26439522234E+03  0.26781094022E+03  0.47000000000E+01 0. -1.
         -5    1    3    3    0  502 -0.21888436764E+02  0.59101802502E+02  0.10172882932E+03  0.11976214526E+03  0.47000000000E+01 0. -1.
        -11    1    1    2    0    0 -0.51247635811E+01 -0.38198794935E+02  0.32404425628E+02  0.50353330937E+02  0.00000000000E+00 0. -1.
         11    1    1    2    0    0  0.20762422906E+02  0.21010043903E+02  0.10189370450E+03  0.10608877022E+03  0.00000000000E+00 0.  1.
<mgrwt>
<rscale>  0 0.11332398E+03</rscale>
<asrwt>0</asrwt>
<pdfrwt beam="1">  1        2 0.80341327E-01 0.12714588E+03</pdfrwt>
<pdfrwt beam="2">  1       -2 0.33533085E-02 0.12714588E+03</pdfrwt>
<totfact> 0.19882106E+04</totfact>
</mgrwt>
</event>
<event>
 7    1  0.8165933E-006  0.1275836E+03  0.7546771E-02  0.1246158E+00
          1   -1    0    0  501    0  0.00000000000E+00  0.00000000000E+00  0.57493780204E+03  0.57493780204E+03  0.00000000000E+00 0. -1.
         -1   -1    0    0    0  501 -0.00000000000E+00 -0.00000000000E+00 -0.22646890856E+02  0.22646890856E+02  0.00000000000E+00 0.  1.
         23    2    1    2    0    0 -0.24584845637E+02 -0.67040295698E+01  0.38710120209E+03  0.40758423542E+03  0.12501283796E+03 0.  0.
          5    1    3    3  502    0  0.35888122952E+02  0.11484086382E+02  0.28444485416E+03  0.28696830255E+03  0.47000000000E+01 0.  1.
         -5    1    3    3    0  502 -0.60472968589E+02 -0.18188115952E+02  0.10265634793E+03  0.12061593287E+03  0.47000000000E+01 0.  1.
        -11    1    1    2    0    0  0.41416446569E+02 -0.21485396208E+02  0.14288154450E+03  0.15030662014E+03  0.00000000000E+00 0. -1.
         11    1    1    2    0    0 -0.16831600932E+02  0.28189425778E+02  0.22308164587E+02  0.39693837341E+02  0.00000000000E+00 0.  1.
<mgrwt>
<rscale>  0 0.11816359E+03</rscale>
<asrwt>0</asrwt>
<pdfrwt beam="1">  1        1 0.88451958E-01 0.12758357E+03</pdfrwt>
<pdfrwt beam="2">  1       -1 0.34841375E-02 0.12758357E+03</pdfrwt>
<totfact> 0.10704159E+04</totfact>
</mgrwt>
</event>
<event>
 7    1  0.8165933E-006  0.1129973E+03  0.7546771E-02  0.1265209E+00
         -1   -1    0    0    0  501 -0.00000000000E+00  0.00000000000E+00  0.49592072595E+02  0.49592072595E+02  0.00000000000E+00 0.  1.
          1   -1    0    0  501    0  0.00000000000E+00 -0.00000000000E+00 -0.21326693857E+03  0.21326693857E+03  0.00000000000E+00 0. -1.
         23    2    1    2    0    0  0.19430048753E+02 -0.56194923817E+01 -0.88468416376E+02  0.14350976885E+03  0.11117233275E+03 0.  0.
          5    1    3    3  502    0  0.60896122220E+02 -0.20569163416E+02 -0.70934290647E+02  0.95839406168E+02  0.47000000000E+01 0. -1.
         -5    1    3    3    0  502 -0.41466073468E+02  0.14949671034E+02 -0.17534125729E+02  0.47670362679E+02  0.47000000000E+01 0.  1.
        -11    1    1    2    0    0  0.16903367362E+02  0.39296006071E+02 -0.29663454795E+02  0.52055935989E+02  0.00000000000E+00 0. -1.
         11    1    1    2    0    0 -0.36333416115E+02 -0.33676513689E+02 -0.45542994804E+02  0.67293306328E+02  0.00000000000E+00 0.  1.
<mgrwt>
<rscale>  0 0.10753233E+03</rscale>
<asrwt>0</asrwt>
<pdfrwt beam="2">  1        1 0.32810297E-01 0.11299731E+03</pdfrwt>
<pdfrwt beam="1">  1       -1 0.76295498E-02 0.11299731E+03</pdfrwt>
<totfact> 0.11583642E+04</totfact>
</mgrwt>
</event>
<event>
 7    1  0.8165933E-006  0.1387066E+03  0.7546771E-02  0.1227963E+00
         -2   -1    0    0    0  501 -0.00000000000E+00  0.00000000000E+00  0.91185756230E+01  0.91185756230E+01  0.00000000000E+00 0.  1.
          2   -1    0    0  501    0  0.00000000000E+00 -0.00000000000E+00 -0.20915916651E+04  0.20915916651E+04  0.00000000000E+00 0. -1.
         23    2    1    2    0    0 -0.29947965563E+02  0.52133734604E+02 -0.16351113708E+04  0.16409840728E+04  0.12499890141E+03 0.  0.
          5    1    3    3  502    0  0.10555037781E+02  0.48602659363E+02 -0.23391858048E+03  0.23919368640E+03  0.47000000000E+01 0. -1.
         -5    1    3    3    0  502 -0.40503003344E+02  0.35310752409E+01 -0.14011927903E+04  0.14017903864E+04  0.47000000000E+01 0. -1.
        -11    1    1    2    0    0  0.15408191130E+02 -0.75766912715E+02 -0.35306017523E+03  0.36142706699E+03  0.00000000000E+00 0.  1.
         11    1    1    2    0    0  0.14539774434E+02  0.23633178112E+02 -0.94301543511E+02  0.98299100997E+02  0.00000000000E+00 0. -1.
<mgrwt>
<rscale>  0 0.12965849E+03</rscale>
<asrwt>0</asrwt>
<pdfrwt beam="2">  1        2 0.32178322E+00 0.13870664E+03</pdfrwt>
<pdfrwt beam="1">  1       -2 0.14028583E-02 0.13870664E+03</pdfrwt>
<totfact> 0.85390928E+03</totfact>
</mgrwt>
</event>
<event>
 7    1  0.8165933E-006  0.1278746E+03  0.7546771E-02  0.1248086E+00
         -2   -1    0    0    0  501 -0.00000000000E+00  0.00000000000E+00  0.43667531069E+02  0.43667531069E+02  0.00000000000E+00 0.  1.
          2   -1    0    0  501    0  0.00000000000E+00 -0.00000000000E+00 -0.27600094134E+03  0.27600094134E+03  0.00000000000E+00 0. -1.
         23    2    1    2    0    0 -0.20650231245E+02 -0.17327879394E+02 -0.15735793808E+03  0.20276450931E+03  0.12500095240E+03 0.  0.
          5    1    3    3  502    0  0.20084223879E+02  0.78660581754E+01 -0.15284085469E+03  0.15442690110E+03  0.47000000000E+01 0. -1.
         -5    1    3    3    0  502 -0.40734455124E+02 -0.25193937570E+02 -0.45170833881E+01  0.48337608204E+02  0.47000000000E+01 0. -1.
        -11    1    1    2    0    0  0.42060888733E+02  0.21438353151E+02 -0.81466224298E+02  0.94156609158E+02  0.00000000000E+00 0. -1.
         11    1    1    2    0    0 -0.21410657487E+02 -0.41104737564E+01  0.64907521102E+01  0.22747353945E+02  0.00000000000E+00 0.  1.
<mgrwt>
<rscale>  0 0.11702551E+03</rscale>
<asrwt>0</asrwt>
<pdfrwt beam="2">  1        2 0.42461684E-01 0.12787465E+03</pdfrwt>
<pdfrwt beam="1">  1       -2 0.67180816E-02 0.12787465E+03</pdfrwt>
<totfact> 0.13906550E+04</totfact>
</mgrwt>
</event>
<event>
 7    1  0.8165933E-006  0.1439666E+03  0.7546771E-02  0.1217653E+00
         -2   -1    0    0    0  501 -0.00000000000E+00  0.00000000000E+00  0.14192703630E+03  0.14192703630E+03  0.00000000000E+00 0.  1.
          2   -1    0    0  501    0  0.00000000000E+00 -0.00000000000E+00 -0.13050726672E+03  0.13050726672E+03  0.00000000000E+00 0. -1.
         23    2    1    2    0    0 -0.41857793459E+02 -0.57879108656E+02 -0.31463475477E+02  0.14736462259E+03  0.12499726241E+03 0.  0.
          5    1    3    3  502    0 -0.41816613566E+02 -0.66422950018E+02  0.30722165941E+02  0.84419067392E+02  0.47000000000E+01 0.  1.
         -5    1    3    3    0  502 -0.41179892722E-01  0.85438413615E+01 -0.62185641418E+02  0.62945555201E+02  0.47000000000E+01 0.  1.
        -11    1    1    2    0    0 -0.92627595185E+01  0.63991447774E+02  0.14442330264E+02  0.66251679265E+02  0.00000000000E+00 0.  1.
         11    1    1    2    0    0  0.51120552977E+02 -0.61123391174E+01  0.28440914798E+02  0.58818001162E+02  0.00000000000E+00 0. -1.
<mgrwt>
<rscale>  0 0.13683424E+03</rscale>
<asrwt>0</asrwt>
<pdfrwt beam="2">  1        2 0.20078041E-01 0.14396660E+03</pdfrwt>
<pdfrwt beam="1">  1       -2 0.21834929E-01 0.14396660E+03</pdfrwt>
<totfact> 0.47811530E+03</totfact>
</mgrwt>
</event>
<event>
 7    1  0.8165933E-006  0.1283838E+03  0.7546771E-02  0.1242242E+00
         -2   -1    0    0    0  501 -0.00000000000E+00  0.00000000000E+00  0.68256005413E+02  0.68256005413E+02  0.00000000000E+00 0.  1.
          2   -1    0    0  501    0  0.00000000000E+00 -0.00000000000E+00 -0.23162434761E+03  0.23162434761E+03  0.00000000000E+00 0. -1.
         23    2    1    2    0    0  0.20125438166E+02 -0.21247877093E+02 -0.15286673592E+03  0.19962624106E+03  0.12500356645E+03 0.  0.
          5    1    3    3  502    0  0.47206307031E+02  0.36578364176E+02 -0.10011283684E+03  0.11666654298E+03  0.47000000000E+01 0. -1.
         -5    1    3    3    0  502 -0.27080868865E+02 -0.57826241269E+02 -0.52753899080E+02  0.82959698082E+02  0.47000000000E+01 0. -1.
        -11    1    1    2    0    0  0.19643347489E+02  0.26481166978E+02  0.29034573844E+02  0.43933128541E+02  0.00000000000E+00 0.  1.
         11    1    1    2    0    0 -0.39768785655E+02 -0.52332898858E+01 -0.39536180120E+02  0.56320983425E+02  0.00000000000E+00 0. -1.
<mgrwt>
<rscale>  0 0.12052003E+03</rscale>
<asrwt>0</asrwt>
<pdfrwt beam="2">  1        2 0.35634514E-01 0.12838379E+03</pdfrwt>
<pdfrwt beam="1">  1       -2 0.10500924E-01 0.12838379E+03</pdfrwt>
<totfact> 0.83929462E+03</totfact>
</mgrwt>
</event>
<event>
 7    1  0.8165933E-006  0.1367873E+03  0.7546771E-02  0.1228671E+00
          1   -1    0    0  501    0  0.00000000000E+00  0.00000000000E+00  0.43036096111E+03  0.43036096111E+03  0.00000000000E+00 0. -1.
         -1   -1    0    0    0  501 -0.00000000000E+00 -0.00000000000E+00 -0.43172193183E+02  0.43172193183E+02  0.00000000000E+00 0.  1.
         23    2    1    2    0    0 -0.25175806036E+02  0.49519880186E+02  0.31369301081E+03  0.34221931184E+03  0.12499885047E+03 0.  0.
          5    1    3    3  502    0  0.32442675082E+02  0.52706387998E+02  0.24320997854E+03  0.25100532696E+03  0.47000000000E+01 0. -1.
         -5    1    3    3    0  502 -0.57618481118E+02 -0.31865078113E+01  0.70483032267E+02  0.91213984871E+02  0.47000000000E+01 0. -1.
        -11    1    1    2    0    0  0.42964573698E+02 -0.76923767720E+01  0.73936329064E+02  0.85858651334E+02  0.00000000000E+00 0.  1.
         11    1    1    2    0    0 -0.17788767662E+02 -0.41827503414E+02 -0.44057194143E+00  0.45455191128E+02  0.00000000000E+00 0. -1.
<mgrwt>
<rscale>  0 0.12918467E+03</rscale>
<asrwt>0</asrwt>
<pdfrwt beam="1">  1        1 0.66209376E-01 0.13678725E+03</pdfrwt>
<pdfrwt beam="2">  1       -1 0.66418762E-02 0.13678725E+03</pdfrwt>
<totfact> 0.60492370E+03</totfact>
</mgrwt>
</event>
<event>
 7    1  0.8165933E-006  0.1748565E+03  0.7546771E-02  0.1177747E+00
         -1   -1    0    0    0  501 -0.00000000000E+00  0.00000000000E+00  0.13729779398E+03  0.13729779398E+03  0.00000000000E+00 0.  1.
          1   -1    0    0  501    0  0.00000000000E+00 -0.00000000000E+00 -0.20035125507E+03  0.20035125507E+03  0.00000000000E+00 0. -1.
         23    2    1    2    0    0 -0.11836206733E+03 -0.30667925867E+02 -0.26429603286E+02  0.17684263134E+03  0.12499876667E+03 0.  0.
          5    1    3    3  502    0 -0.12039774859E+03 -0.39458653642E+02  0.20842785630E+02  0.12848780069E+03  0.47000000000E+01 0. -1.
         -5    1    3    3    0  502  0.20356812614E+01  0.87907277745E+01 -0.47272388916E+02  0.48354830646E+02  0.47000000000E+01 0. -1.
        -11    1    1    2    0    0  0.86922131401E+02 -0.25272640971E+02 -0.33628790737E+02  0.96566344424E+02  0.00000000000E+00 0.  1.
         11    1    1    2    0    0  0.31439935932E+02  0.55940566838E+02 -0.29950670727E+01  0.64240073290E+02  0.00000000000E+00 0. -1.
<mgrwt>
<rscale>  0 0.17009659E+03</rscale>
<asrwt>0</asrwt>
<pdfrwt beam="2">  1        1 0.30823270E-01 0.17485649E+03</pdfrwt>
<pdfrwt beam="1">  1       -1 0.21122738E-01 0.17485649E+03</pdfrwt>
<totfact> 0.26442396E+03</totfact>
</mgrwt>
</event>
<event>
 7    1  0.8165933E-006  0.1593512E+03  0.7546771E-02  0.1197056E+00
         -1   -1    0    0    0  501 -0.00000000000E+00  0.00000000000E+00  0.31490543966E+03  0.31490543966E+03  0.00000000000E+00 0.  1.
          1   -1    0    0  501    0  0.00000000000E+00 -0.00000000000E+00 -0.68758293378E+02  0.68758293378E+02  0.00000000000E+00 0. -1.
         23    2    1    2    0    0 -0.29368670492E+02 -0.94362513677E+02  0.12683217448E+03  0.20366444218E+03  0.12500400687E+03 0.  0.
          5    1    3    3  502    0 -0.13509288255E+02 -0.26589207783E+02 -0.23285425556E+02  0.38128570429E+02  0.47000000000E+01 0. -1.
         -5    1    3    3    0  502 -0.15859382238E+02 -0.67773305894E+02  0.15011760004E+03  0.16553587175E+03  0.47000000000E+01 0. -1.
        -11    1    1    2    0    0  0.17565309477E+02 -0.34268505920E+00  0.70782382057E+02  0.72930125049E+02  0.00000000000E+00 0.  1.
         11    1    1    2    0    0  0.11803361015E+02  0.94705198736E+02  0.48532589744E+02  0.10706916580E+03  0.00000000000E+00 0. -1.
<mgrwt>
<rscale>  0 0.15281535E+03</rscale>
<asrwt>0</asrwt>
<pdfrwt beam="2">  1        1 0.10578199E-01 0.15935120E+03</pdfrwt>
<pdfrwt beam="1">  1       -1 0.48446990E-01 0.15935120E+03</pdfrwt>
<totfact> 0.25261597E+03</totfact>
</mgrwt>
</event>
<event>
 7    1  0.8165933E-006  0.1281209E+03  0.7546771E-02  0.1244492E+00
          2   -1    0    0  501    0  0.00000000000E+00  0.00000000000E+00  0.12271022521E+03  0.12271022521E+03  0.00000000000E+00 0. -1.
         -2   -1    0    0    0  501 -0.00000000000E+00 -0.00000000000E+00 -0.11308969074E+03  0.11308969074E+03  0.00000000000E+00 0.  1.
         23    2    1    2    0    0 -0.26123955744E+02  0.99451393903E+01  0.41666288190E+02  0.13472581946E+03  0.12503439526E+03 0.  0.
          5    1    3    3  502    0  0.15014349552E+02 -0.17694949150E+01 -0.39667511297E+02  0.42710224270E+02  0.47000000000E+01 0. -1.
         -5    1    3    3    0  502 -0.41138305296E+02  0.11714634305E+02  0.81333799487E+02  0.92015595192E+02  0.47000000000E+01 0. -1.
        -11    1    1    2    0    0  0.53305172455E+02 -0.16599358899E+02 -0.43561170874E+02  0.70813527904E+02  0.00000000000E+00 0.  1.
         11    1    1    2    0    0 -0.27181216710E+02  0.66542195087E+01  0.11515417149E+02  0.30260568587E+02  0.00000000000E+00 0. -1.
<mgrwt>
<rscale>  0 0.11915816E+03</rscale>
<asrwt>0</asrwt>
<pdfrwt beam="1">  1        2 0.18878496E-01 0.12812091E+03</pdfrwt>
<pdfrwt beam="2">  1       -2 0.17398414E-01 0.12812091E+03</pdfrwt>
<totfact> 0.74608745E+03</totfact>
</mgrwt>
</event>
<event>
 6    1  0.8165933E-006  0.1765411E+03  0.7546771E-02  0.1194474E+00
          1   -1    0    0  501    0  0.00000000000E+00  0.00000000000E+00  0.46451698887E+03  0.46451698887E+03  0.00000000000E+00 0. -1.
         -1   -1    0    0    0  501 -0.00000000000E+00 -0.00000000000E+00 -0.15838533701E+03  0.15838533701E+03  0.00000000000E+00 0.  1.
          5    1    1    2  502    0 -0.45254659380E+02 -0.37845198998E+02  0.27240144353E+03  0.27875595011E+03  0.47000000000E+01 0. -1.
         -5    1    1    2    0  502  0.90580710640E+02  0.38545029188E+02  0.15508857278E+03  0.18375293147E+03  0.47000000000E+01 0.  1.
        -11    1    1    2    0    0 -0.33680453296E+02  0.17100964358E+02 -0.60218506898E+00  0.37778016664E+02  0.00000000000E+00 0. -1.
         11    1    1    2    0    0 -0.11645597964E+02 -0.17800794548E+02 -0.12075617938E+03  0.12261542765E+03  0.00000000000E+00 0.  1.
<mgrwt>
<rscale>  0 0.15498853E+03</rscale>
<asrwt>0</asrwt>
<pdfrwt beam="1">  1        1 0.71464152E-01 0.17654108E+03</pdfrwt>
<pdfrwt beam="2">  1       -1 0.24366975E-01 0.17654108E+03</pdfrwt>
<totfact> 0.72710604E+02</totfact>
</mgrwt>
</event>
<event>
 7    1  0.8165933E-006  0.1868218E+03  0.7546771E-02  0.1167293E+00
          1   -1    0    0  501    0  0.00000000000E+00  0.00000000000E+00  0.26961653965E+03  0.26961653965E+03  0.00000000000E+00 0. -1.
         -1   -1    0    0    0  501 -0.00000000000E+00 -0.00000000000E+00 -0.18208237001E+03  0.18208237001E+03  0.00000000000E+00 0.  1.
         23    2    1    2    0    0 -0.25322363414E+02  0.13651690349E+03  0.18413952669E+03  0.26231614226E+03  0.12499722466E+03 0.  0.
          5    1    3    3  502    0 -0.29756585663E+02  0.33765539615E+02 -0.64385760141E+01  0.45706797273E+02  0.47000000000E+01 0.  1.
         -5    1    3    3    0  502  0.44342222489E+01  0.10275136388E+03  0.19057810271E+03  0.21660934499E+03  0.47000000000E+01 0.  1.
        -11    1    1    2    0    0 -0.26893194323E+02 -0.79396001009E+02 -0.63717443852E+02  0.10529426161E+03  0.00000000000E+00 0.  1.
         11    1    1    2    0    0  0.52215557737E+02 -0.57120902485E+02 -0.32887913198E+02  0.84088505784E+02  0.00000000000E+00 0. -1.
<mgrwt>
<rscale>  0 0.18052796E+03</rscale>
<asrwt>0</asrwt>
<pdfrwt beam="1">  1        1 0.41479468E-01 0.18682182E+03</pdfrwt>
<pdfrwt beam="2">  1       -1 0.28012672E-01 0.18682182E+03</pdfrwt>
<totfact> 0.11474912E+03</totfact>
</mgrwt>
</event>
<event>
 7    1  0.8165933E-006  0.1375660E+03  0.7546771E-02  0.1228684E+00
          2   -1    0    0  501    0  0.00000000000E+00  0.00000000000E+00  0.17097697336E+03  0.17097697336E+03  0.00000000000E+00 0. -1.
         -2   -1    0    0    0  501 -0.00000000000E+00 -0.00000000000E+00 -0.88273391023E+02  0.88273391023E+02  0.00000000000E+00 0.  1.
         23    2    1    2    0    0  0.52880580025E+02 -0.22432981547E+02  0.59102063848E+02  0.14972462659E+03  0.12499926180E+03 0.  0.
          5    1    3    3  502    0  0.28478439747E+02  0.26909883441E+02 -0.26720187454E+02  0.47657337051E+02  0.47000000000E+01 0. -1.
         -5    1    3    3    0  502  0.24402140279E+02 -0.49342864988E+02  0.85822251302E+02  0.10206728954E+03  0.47000000000E+01 0. -1.
        -11    1    1    2    0    0 -0.45646249202E+02 -0.13657047168E+02 -0.20683313917E+02  0.51941259882E+02  0.00000000000E+00 0.  1.
         11    1    1    2    0    0 -0.72343308235E+01  0.36090028716E+02  0.44284832409E+02  0.57584477914E+02  0.00000000000E+00 0. -1.
<mgrwt>
<rscale>  0 0.12917581E+03</rscale>
<asrwt>0</asrwt>
<pdfrwt beam="1">  1        2 0.26304150E-01 0.13756602E+03</pdfrwt>
<pdfrwt beam="2">  1       -2 0.13580522E-01 0.13756602E+03</pdfrwt>
<totfact> 0.77707557E+03</totfact>
</mgrwt>
</event>
<event>
 7    1  0.8165933E-006  0.1566836E+03  0.7546771E-02  0.1199631E+00
          1   -1    0    0  501    0  0.00000000000E+00  0.00000000000E+00  0.74563796454E+02  0.74563796454E+02  0.00000000000E+00 0. -1.
         -1   -1    0    0    0  501 -0.00000000000E+00 -0.00000000000E+00 -0.28617114485E+03  0.28617114485E+03  0.00000000000E+00 0.  1.
         23    2    1    2    0    0  0.90290262797E+02  0.27795961866E+02 -0.13171452779E+03  0.20469113827E+03  0.12499919280E+03 0.  0.
          5    1    3    3  502    0 -0.13302750638E+02  0.32899754053E+02 -0.82214562392E+02  0.89669845882E+02  0.47000000000E+01 0.  1.
         -5    1    3    3    0  502  0.10359301343E+03 -0.51037921868E+01 -0.49499965400E+02  0.11502129238E+03  0.47000000000E+01 0.  1.
        -11    1    1    2    0    0 -0.29177221574E+01 -0.36851914936E+02 -0.52155653011E+02  0.63927997607E+02  0.00000000000E+00 0.  1.
         11    1    1    2    0    0 -0.87372540640E+02  0.90559530706E+01 -0.27737167592E+02  0.92115805429E+02  0.00000000000E+00 0. -1.
<mgrwt>
<rscale>  0 0.15068724E+03</rscale>
<asrwt>0</asrwt>
<pdfrwt beam="1">  1        1 0.11471353E-01 0.15668358E+03</pdfrwt>
<pdfrwt beam="2">  1       -1 0.44026330E-01 0.15668358E+03</pdfrwt>
<totfact> 0.26945786E+03</totfact>
</mgrwt>
</event>
<event>
 7    1  0.8165933E-006  0.1527970E+03  0.7546771E-02  0.1205546E+00
          2   -1    0    0  501    0  0.00000000000E+00  0.00000000000E+00  0.14523791285E+03  0.14523791285E+03  0.00000000000E+00 0. -1.
         -2   -1    0    0    0  501 -0.00000000000E+00 -0.00000000000E+00 -0.16437745121E+03  0.16437745121E+03  0.00000000000E+00 0.  1.
         23    2    1    2    0    0 -0.43141674238E+02 -0.76546790739E+02  0.55011498207E+02  0.16239825954E+03  0.12500525804E+03 0.  0.
          5    1    3    3  502    0 -0.14404662828E+02 -0.29377630325E+02 -0.40310247742E+02  0.52130082944E+02  0.47000000000E+01 0.  1.
         -5    1    3    3    0  502 -0.28737011410E+02 -0.47169160414E+02  0.95321745949E+02  0.11026817660E+03  0.47000000000E+01 0.  1.
        -11    1    1    2    0    0  0.63697466248E+02  0.19618956243E+02 -0.39389678035E+02  0.77419748037E+02  0.00000000000E+00 0.  1.
         11    1    1    2    0    0 -0.20555792010E+02  0.56927834497E+02 -0.34761358532E+02  0.69797356487E+02  0.00000000000E+00 0. -1.
<mgrwt>
<rscale>  0 0.14594527E+03</rscale>
<asrwt>0</asrwt>
<pdfrwt beam="1">  1        2 0.22344294E-01 0.15279702E+03</pdfrwt>
<pdfrwt beam="2">  1       -2 0.25288839E-01 0.15279702E+03</pdfrwt>
<totfact> 0.32970230E+03</totfact>
</mgrwt>
</event>
<event>
 7    1  0.8165933E-006  0.1294627E+03  0.7546771E-02  0.1241205E+00
          2   -1    0    0  501    0  0.00000000000E+00  0.00000000000E+00  0.17050747440E+02  0.17050747440E+02  0.00000000000E+00 0. -1.
         -2   -1    0    0    0  501 -0.00000000000E+00 -0.00000000000E+00 -0.84708286665E+03  0.84708286665E+03  0.00000000000E+00 0.  1.
         23    2    1    2    0    0  0.20354205996E+02 -0.26844997020E+02 -0.33300595594E+03  0.35728637998E+03  0.12500257223E+03 0.  0.
          5    1    3    3  502    0  0.19134949797E+02  0.48230481759E+02 -0.10548700925E+03  0.11765170970E+03  0.47000000000E+01 0. -1.
         -5    1    3    3    0  502  0.12192561990E+01 -0.75075478779E+02 -0.22751894669E+03  0.23963467029E+03  0.47000000000E+01 0. -1.
        -11    1    1    2    0    0 -0.96362550360E+01 -0.35064434242E+02 -0.17147406945E+03  0.17528755933E+03  0.00000000000E+00 0.  1.
         11    1    1    2    0    0 -0.10717950960E+02  0.61909431261E+02 -0.32555209381E+03  0.33155967477E+03  0.00000000000E+00 0. -1.
<mgrwt>
<rscale>  0 0.12115413E+03</rscale>
<asrwt>0</asrwt>
<pdfrwt beam="1">  1        2 0.26231920E-02 0.12946270E+03</pdfrwt>
<pdfrwt beam="2">  1       -2 0.13032044E+00 0.12946270E+03</pdfrwt>
<totfact> 0.16341585E+03</totfact>
</mgrwt>
</event>
<event>
 7    1  0.8165933E-006  0.1474891E+03  0.7546771E-02  0.1214240E+00
          1   -1    0    0  501    0  0.00000000000E+00  0.00000000000E+00  0.14293184284E+04  0.14293184284E+04  0.00000000000E+00 0. -1.
         -1   -1    0    0    0  501 -0.00000000000E+00 -0.00000000000E+00 -0.30088754815E+02  0.30088754815E+02  0.00000000000E+00 0.  1.
         23    2    1    2    0    0 -0.72142444728E+02  0.30382772560E+02  0.12919451112E+04  0.13003365690E+04  0.12500150945E+03 0.  0.
          5    1    3    3  502    0 -0.90174999594E+02  0.88415147966E+01  0.51927526182E+03  0.52714190734E+03  0.47000000000E+01 0.  1.
         -5    1    3    3    0  502  0.18032554865E+02  0.21541257763E+02  0.77266984934E+03  0.77319466171E+03  0.47000000000E+01 0.  1.
        -11    1    1    2    0    0  0.59511874908E+02  0.16550395499E+02  0.86305820239E+02  0.10613328155E+03  0.00000000000E+00 0. -1.
         11    1    1    2    0    0  0.12630569820E+02 -0.46933168059E+02  0.20978742155E+02  0.52937332577E+02  0.00000000000E+00 0.  1.
<mgrwt>
<rscale>  0 0.13932501E+03</rscale>
<asrwt>0</asrwt>
<pdfrwt beam="1">  1        1 0.21989509E+00 0.14748906E+03</pdfrwt>
<pdfrwt beam="2">  1       -1 0.46290403E-02 0.14748906E+03</pdfrwt>
<totfact> 0.15798443E+03</totfact>
</mgrwt>
</event>
<event>
 7    1  0.8165933E-006  0.1169783E+03  0.7546771E-02  0.1256909E+00
         -2   -1    0    0    0  501 -0.00000000000E+00  0.00000000000E+00  0.89656385001E+02  0.89656385001E+02  0.00000000000E+00 0.  1.
          2   -1    0    0  501    0  0.00000000000E+00 -0.00000000000E+00 -0.12923451720E+03  0.12923451720E+03  0.00000000000E+00 0. -1.
         23    2    1    2    0    0 -0.33917830059E+02  0.82079246908E+01 -0.21099114753E+02  0.11886584819E+03  0.11165181592E+03 0.  0.
          5    1    3    3  502    0  0.24031230598E+02 -0.34659270994E+02 -0.19274514395E+02  0.46608604517E+02  0.47000000000E+01 0. -1.
         -5    1    3    3    0  502 -0.57949060657E+02  0.42867195684E+02 -0.18246003577E+01  0.72257243674E+02  0.47000000000E+01 0.  1.
        -11    1    1    2    0    0  0.22666415157E+02 -0.47657158289E+02 -0.25157549108E+02  0.58462581104E+02  0.00000000000E+00 0.  1.
         11    1    1    2    0    0  0.11251414902E+02  0.39449233598E+02  0.66785316639E+01  0.41562472905E+02  0.00000000000E+00 0. -1.
<mgrwt>
<rscale>  0 0.11200075E+03</rscale>
<asrwt>0</asrwt>
<pdfrwt beam="2">  1        2 0.19882233E-01 0.11697828E+03</pdfrwt>
<pdfrwt beam="1">  1       -2 0.13793290E-01 0.11697828E+03</pdfrwt>
<totfact> 0.10212398E+04</totfact>
</mgrwt>
</event>
<event>
 6    1  0.8165933E-006  0.1652984E+03  0.7546771E-02  0.1199858E+00
          1   -1    0    0  501    0  0.00000000000E+00  0.00000000000E+00  0.79199570318E+03  0.79199570318E+03  0.00000000000E+00 0. -1.
         -1   -1    0    0    0  501 -0.00000000000E+00 -0.00000000000E+00 -0.26692198826E+02  0.26692198826E+02  0.00000000000E+00 0.  1.
          5    1    1    2  502    0  0.48110550903E+02  0.23754699496E+02  0.33341577922E+03  0.33773818660E+03  0.47000000000E+01 0. -1.
         -5    1    1    2    0  502 -0.34226886192E+02 -0.89955495709E+02  0.22853865925E+03  0.24802314352E+03  0.47000000000E+01 0.  1.
        -11    1    1    2    0    0 -0.52995126732E+02  0.39008562732E+02  0.12394326983E+03  0.14032849162E+03  0.00000000000E+00 0.  1.
         11    1    1    2    0    0  0.39111462021E+02  0.27192233481E+02  0.79405796053E+02  0.92598080271E+02  0.00000000000E+00 0. -1.
<mgrwt>
<rscale>  0 0.15050180E+03</rscale>
<asrwt>0</asrwt>
<pdfrwt beam="1">  1        1 0.12184548E+00 0.16529835E+03</pdfrwt>
<pdfrwt beam="2">  1       -1 0.41064927E-02 0.16529835E+03</pdfrwt>
<totfact> 0.54175907E+03</totfact>
</mgrwt>
</event>
<event>
 7    1  0.8165933E-006  0.1482812E+03  0.7546771E-02  0.1213123E+00
          1   -1    0    0  501    0  0.00000000000E+00  0.00000000000E+00  0.45295379567E+02  0.45295379567E+02  0.00000000000E+00 0. -1.
         -1   -1    0    0    0  501 -0.00000000000E+00 -0.00000000000E+00 -0.39268398649E+03  0.39268398649E+03  0.00000000000E+00 0.  1.
         23    2    1    2    0    0 -0.53550291468E+02 -0.68573496756E+02 -0.18698850411E+03  0.23864619752E+03  0.12007226471E+03 0.  0.
          5    1    3    3  502    0  0.82689623041E+01  0.28880742050E+02 -0.23291768470E+02  0.38302342975E+02  0.47000000000E+01 0. -1.
         -5    1    3    3    0  502 -0.61819253772E+02 -0.97454238806E+02 -0.16369673564E+03  0.20034385455E+03  0.47000000000E+01 0.  1.
        -11    1    1    2    0    0  0.54873219854E+02  0.78906754158E+02 -0.10253362715E+03  0.14053643943E+03  0.00000000000E+00 0.  1.
         11    1    1    2    0    0 -0.13229283862E+01 -0.10333257401E+02 -0.57866475663E+02  0.58796729107E+02  0.00000000000E+00 0. -1.
<mgrwt>
<rscale>  0 0.14015284E+03</rscale>
<asrwt>0</asrwt>
<pdfrwt beam="1">  1        1 0.69685197E-02 0.14828118E+03</pdfrwt>
<pdfrwt beam="2">  1       -1 0.60412923E-01 0.14828118E+03</pdfrwt>
<totfact> 0.29206635E+03</totfact>
</mgrwt>
</event>
<event>
 7    1  0.8165933E-006  0.2060247E+03  0.7546771E-02  0.1148747E+00
          2   -1    0    0  501    0  0.00000000000E+00  0.00000000000E+00  0.30424691084E+03  0.30424691084E+03  0.00000000000E+00 0. -1.
         -2   -1    0    0    0  501 -0.00000000000E+00 -0.00000000000E+00 -0.16897816206E+03  0.16897816206E+03  0.00000000000E+00 0.  1.
         23    2    1    2    0    0 -0.91562199624E+02 -0.13575054998E+03  0.18769934839E+03  0.27870635664E+03  0.12503735293E+03 0.  0.
          5    1    3    3  502    0 -0.98779369590E+02 -0.69958646007E+02  0.60869958107E+02  0.13556849858E+03  0.47000000000E+01 0. -1.
         -5    1    3    3    0  502  0.72171699659E+01 -0.65791903970E+02  0.12682939028E+03  0.14313785806E+03  0.47000000000E+01 0. -1.
        -11    1    1    2    0    0  0.43029843811E+02  0.17705083349E+02  0.16614424481E+02  0.49407251853E+02  0.00000000000E+00 0. -1.
         11    1    1    2    0    0  0.48532355812E+02  0.11804546663E+03 -0.69045024086E+02  0.14511146441E+03  0.00000000000E+00 0.  1.
<mgrwt>
<rscale>  0 0.20118019E+03</rscale>
<asrwt>0</asrwt>
<pdfrwt beam="1">  1        2 0.46807217E-01 0.20602473E+03</pdfrwt>
<pdfrwt beam="2">  1       -2 0.25996640E-01 0.20602473E+03</pdfrwt>
<totfact> 0.14187344E+03</totfact>
</mgrwt>
</event>
<event>
 7    1  0.8165933E-006  0.1337174E+03  0.7546771E-02  0.1234707E+00
          2   -1    0    0  501    0  0.00000000000E+00  0.00000000000E+00  0.47089155452E+03  0.47089155452E+03  0.00000000000E+00 0. -1.
         -2   -1    0    0    0  501 -0.00000000000E+00 -0.00000000000E+00 -0.29782108037E+02  0.29782108037E+02  0.00000000000E+00 0.  1.
         23    2    1    2    0    0  0.45843388938E+02  0.17607929054E+02  0.23770014866E+03  0.27273008564E+03  0.12437316216E+03 0.  0.
          5    1    3    3  502    0 -0.20501636625E+02 -0.80283931152E+01  0.17894329597E+03  0.18035400016E+03  0.47000000000E+01 0. -1.
         -5    1    3    3    0  502  0.66345025563E+02  0.25636322169E+02  0.58756852685E+02  0.92376085481E+02  0.47000000000E+01 0.  1.
        -11    1    1    2    0    0  0.25315848565E+02  0.77844160568E+01  0.40859558004E+02  0.48692841385E+02  0.00000000000E+00 0.  1.
         11    1    1    2    0    0 -0.71159237503E+02 -0.25392345111E+02  0.16254973982E+03  0.17925073553E+03  0.00000000000E+00 0. -1.
<mgrwt>
<rscale>  0 0.12523239E+03</rscale>
<asrwt>0</asrwt>
<pdfrwt beam="1">  1        2 0.72444849E-01 0.13371738E+03</pdfrwt>
<pdfrwt beam="2">  1       -2 0.45818631E-02 0.13371738E+03</pdfrwt>
<totfact> 0.14073412E+04</totfact>
</mgrwt>
</event>
<event>
 6    1  0.8165933E-006  0.1598014E+03  0.7546771E-02  0.1211211E+00
         -2   -1    0    0    0  501 -0.00000000000E+00  0.00000000000E+00  0.11438910963E+02  0.11438910963E+02  0.00000000000E+00 0.  1.
          2   -1    0    0  501    0  0.00000000000E+00 -0.00000000000E+00 -0.23926294921E+04  0.23926294921E+04  0.00000000000E+00 0. -1.
          5    1    1    2  502    0 -0.50896703284E+02  0.38085321485E+02 -0.76130813062E+03  0.76397194050E+03  0.47000000000E+01 0. -1.
         -5    1    1    2    0  502  0.70534888811E+02 -0.64316101116E+02 -0.13398315540E+04  0.13432358000E+04  0.47000000000E+01 0.  1.
        -11    1    1    2    0    0 -0.60849820128E+01 -0.34745731662E+02 -0.11908642552E+03  0.12420092438E+03  0.00000000000E+00 0. -1.
         11    1    1    2    0    0 -0.13553203514E+02  0.60976511292E+02 -0.16096447105E+03  0.17265973820E+03  0.00000000000E+00 0.  1.
<mgrwt>
<rscale>  0 0.14158567E+03</rscale>
<asrwt>0</asrwt>
<pdfrwt beam="2">  1        2 0.36809617E+00 0.15980140E+03</pdfrwt>
<pdfrwt beam="1">  1       -2 0.17598357E-02 0.15980140E+03</pdfrwt>
<totfact> 0.42911656E+03</totfact>
</mgrwt>
</event>
<event>
 7    1  0.8165933E-006  0.1259497E+03  0.7546771E-02  0.1248118E+00
         -1   -1    0    0    0  501 -0.00000000000E+00  0.00000000000E+00  0.75128746846E+02  0.75128746846E+02  0.00000000000E+00 0.  1.
          1   -1    0    0  501    0  0.00000000000E+00 -0.00000000000E+00 -0.16110287477E+03  0.16110287477E+03  0.00000000000E+00 0. -1.
         23    2    1    2    0    0 -0.15037616942E+02 -0.34347203900E+01 -0.55042547258E+02  0.13745180171E+03  0.12500155421E+03 0.  0.
          5    1    3    3  502    0 -0.32267234869E+00  0.39593914683E+02  0.23710785188E+02  0.46390446555E+02  0.47000000000E+01 0.  1.
         -5    1    3    3    0  502 -0.14714944593E+02 -0.43028635073E+02 -0.78753332446E+02  0.91061355151E+02  0.47000000000E+01 0.  1.
        -11    1    1    2    0    0 -0.14393135317E+02 -0.42400053174E+01 -0.56863995738E+02  0.58810322229E+02  0.00000000000E+00 0. -1.
         11    1    1    2    0    0  0.29430752259E+02  0.76747257074E+01  0.25932415074E+02  0.39969497680E+02  0.00000000000E+00 0.  1.
<mgrwt>
<rscale>  0 0.11700713E+03</rscale>
<asrwt>0</asrwt>
<pdfrwt beam="2">  1        1 0.24785057E-01 0.12594966E+03</pdfrwt>
<pdfrwt beam="1">  1       -1 0.11558269E-01 0.12594966E+03</pdfrwt>
<totfact> 0.88209438E+03</totfact>
</mgrwt>
</event>
<event>
 7    1  0.8165933E-006  0.1272301E+03  0.7546771E-02  0.1245918E+00
          2   -1    0    0  501    0  0.00000000000E+00  0.00000000000E+00  0.16404748326E+03  0.16404748326E+03  0.00000000000E+00 0. -1.
         -2   -1    0    0    0  501 -0.00000000000E+00 -0.00000000000E+00 -0.77011069784E+02  0.77011069784E+02  0.00000000000E+00 0.  1.
         23    2    1    2    0    0 -0.11363628420E+02  0.20817858845E+02  0.67235482548E+02  0.14390309784E+03  0.12499990463E+03 0.  0.
          5    1    3    3  502    0  0.56463186894E+01  0.72365060068E+02  0.37606075313E+02  0.81883391074E+02  0.47000000000E+01 0.  1.
         -5    1    3    3    0  502 -0.17009947109E+02 -0.51547201223E+02  0.29629407234E+02  0.62019706768E+02  0.47000000000E+01 0.  1.
        -11    1    1    2    0    0  0.37478754430E+00 -0.14970883107E+02 -0.36522190313E+02  0.39473259201E+02  0.00000000000E+00 0.  1.
         11    1    1    2    0    0  0.10988840875E+02 -0.58469757383E+01  0.56323121246E+02  0.57682196005E+02  0.00000000000E+00 0. -1.
<mgrwt>
<rscale>  0 0.11830580E+03</rscale>
<asrwt>0</asrwt>
<pdfrwt beam="1">  1        2 0.25238074E-01 0.12723007E+03</pdfrwt>
<pdfrwt beam="2">  1       -2 0.11847857E-01 0.12723007E+03</pdfrwt>
<totfact> 0.10062731E+04</totfact>
</mgrwt>
</event>
<event>
 7    1  0.8165933E-006  0.1707752E+03  0.7546771E-02  0.1183611E+00
         -2   -1    0    0    0  501 -0.00000000000E+00  0.00000000000E+00  0.54051853927E+02  0.54051853927E+02  0.00000000000E+00 0.  1.
          2   -1    0    0  501    0  0.00000000000E+00 -0.00000000000E+00 -0.47448572158E+03  0.47448572158E+03  0.00000000000E+00 0. -1.
         23    2    1    2    0    0  0.50496442673E+02 -0.10482846519E+03 -0.25613820739E+03  0.30784889416E+03  0.12500105007E+03 0.  0.
          5    1    3    3  502    0  0.92057482575E+02 -0.63849412328E+02 -0.17294130106E+03  0.20611188991E+03  0.47000000000E+01 0. -1.
         -5    1    3    3    0  502 -0.41561039901E+02 -0.40979052857E+02 -0.83196906332E+02  0.10173700425E+03  0.47000000000E+01 0. -1.
        -11    1    1    2    0    0 -0.67333489152E+02  0.38729846083E+02 -0.10282546106E+03  0.12886766538E+03  0.00000000000E+00 0. -1.
         11    1    1    2    0    0  0.16837046479E+02  0.66098619102E+02 -0.61470199202E+02  0.91821015957E+02  0.00000000000E+00 0.  1.
<mgrwt>
<rscale>  0 0.16458949E+03</rscale>
<asrwt>0</asrwt>
<pdfrwt beam="2">  1        2 0.72997800E-01 0.17077517E+03</pdfrwt>
<pdfrwt beam="1">  1       -2 0.83156702E-02 0.17077517E+03</pdfrwt>
<totfact> 0.57169636E+03</totfact>
</mgrwt>
</event>
<event>
 7    1  0.8165933E-006  0.1635534E+03  0.7546771E-02  0.1192073E+00
          2   -1    0    0  501    0  0.00000000000E+00  0.00000000000E+00  0.84443481962E+03  0.84443481962E+03  0.00000000000E+00 0. -1.
         -2   -1    0    0    0  501 -0.00000000000E+00 -0.00000000000E+00 -0.29002596756E+02  0.29002596756E+02  0.00000000000E+00 0.  1.
         23    2    1    2    0    0  0.90078533108E+02 -0.54869828355E+02  0.54990171127E+03  0.57370863613E+03  0.12499946769E+03 0.  0.
          5    1    3    3  502    0  0.47683694213E+02 -0.91385704616E+02  0.41397658648E+03  0.42664245670E+03  0.47000000000E+01 0. -1.
         -5    1    3    3    0  502  0.42394838895E+02  0.36515876262E+02  0.13592512479E+03  0.14706617943E+03  0.47000000000E+01 0. -1.
        -11    1    1    2    0    0 -0.60353898107E+02  0.78101310334E+02  0.21585490944E+03  0.23735153175E+03  0.00000000000E+00 0.  1.
         11    1    1    2    0    0 -0.29724635001E+02 -0.23231481980E+02  0.49675602148E+02  0.62377248494E+02  0.00000000000E+00 0. -1.
<mgrwt>
<rscale>  0 0.15704572E+03</rscale>
<asrwt>0</asrwt>
<pdfrwt beam="1">  1        2 0.12991303E+00 0.16355338E+03</pdfrwt>
<pdfrwt beam="2">  1       -2 0.44619386E-02 0.16355338E+03</pdfrwt>
<totfact> 0.75093609E+03</totfact>
</mgrwt>
</event>
<event>
 7    1  0.8165933E-006  0.2000744E+03  0.7546771E-02  0.1153971E+00
         -2   -1    0    0    0  501 -0.00000000000E+00  0.00000000000E+00  0.15909732315E+03  0.15909732315E+03  0.00000000000E+00 0.  1.
          2   -1    0    0  501    0  0.00000000000E+00 -0.00000000000E+00 -0.30113276268E+03  0.30113276268E+03  0.00000000000E+00 0. -1.
         23    2    1    2    0    0  0.10540143073E+03  0.11530249374E+03 -0.18709437407E+03  0.27392350601E+03  0.12500262267E+03 0.  0.
          5    1    3    3  502    0  0.30881330010E+01  0.57851953859E+02 -0.13195428911E+03  0.14418879827E+03  0.47000000000E+01 0. -1.
         -5    1    3    3    0  502  0.10231329773E+03  0.57450539885E+02 -0.55140084959E+02  0.12973470775E+03  0.47000000000E+01 0. -1.
        -11    1    1    2    0    0 -0.66352315720E+02 -0.68084630445E+02  0.72114948151E+02  0.11932607616E+03  0.00000000000E+00 0.  1.
         11    1    1    2    0    0 -0.39049115008E+02 -0.47217863299E+02 -0.27056013608E+02  0.66980503654E+02  0.00000000000E+00 0. -1.
<mgrwt>
<rscale>  0 0.19506470E+03</rscale>
<asrwt>0</asrwt>
<pdfrwt beam="2">  1        2 0.46328117E-01 0.20007444E+03</pdfrwt>
<pdfrwt beam="1">  1       -2 0.24476511E-01 0.20007444E+03</pdfrwt>
<totfact> 0.15942617E+03</totfact>
</mgrwt>
</event>
<event>
 6    1  0.8165933E-006  0.2272590E+03  0.7546771E-02  0.1133702E+00
          1   -1    0    0  501    0  0.00000000000E+00  0.00000000000E+00  0.95607317205E+03  0.95607317205E+03  0.00000000000E+00 0. -1.
         -1   -1    0    0    0  501 -0.00000000000E+00 -0.00000000000E+00 -0.57513303507E+02  0.57513303507E+02  0.00000000000E+00 0.  1.
          5    1    1    2  502    0 -0.10109125647E+03  0.60801899594E+02  0.49227814426E+03  0.50623727090E+03  0.47000000000E+01 0. -1.
         -5    1    1    2    0  502  0.12842442432E+02  0.94797967258E+02  0.18791517704E+03  0.21091653963E+03  0.47000000000E+01 0.  1.
        -11    1    1    2    0    0  0.85828922121E+01 -0.26480782673E+02  0.10057574761E+03  0.10435697819E+03  0.00000000000E+00 0. -1.
         11    1    1    2    0    0  0.79665921830E+02 -0.12911908418E+03  0.11779079963E+03  0.19207568685E+03  0.00000000000E+00 0.  1.
<mgrwt>
<rscale>  0 0.22024361E+03</rscale>
<asrwt>0</asrwt>
<pdfrwt beam="1">  1        1 0.14708817E+00 0.22725896E+03</pdfrwt>
<pdfrwt beam="2">  1       -1 0.88482012E-02 0.22725896E+03</pdfrwt>
<totfact> 0.12741813E+03</totfact>
</mgrwt>
</event>
<event>
 7    1  0.8165933E-006  0.1398156E+03  0.7546771E-02  0.1224938E+00
         -1   -1    0    0    0  501 -0.00000000000E+00  0.00000000000E+00  0.10452010041E+02  0.10452010041E+02  0.00000000000E+00 0.  1.
          1   -1    0    0  501    0  0.00000000000E+00 -0.00000000000E+00 -0.19376059997E+04  0.19376059997E+04  0.00000000000E+00 0. -1.
         23    2    1    2    0    0 -0.35995579809E+02  0.51277280670E+02 -0.15153736553E+04  0.15218100160E+04  0.12499347318E+03 0.  0.
          5    1    3    3  502    0 -0.77878968219E+02  0.57854502149E+02 -0.10386687388E+04  0.10432004199E+04  0.47000000000E+01 0. -1.
         -5    1    3    3    0  502  0.41883388410E+02 -0.65772214786E+01 -0.47670491652E+03  0.47860959612E+03  0.47000000000E+01 0. -1.
        -11    1    1    2    0    0  0.30163954243E+02  0.19334192903E+02 -0.92401389767E+02  0.99104449858E+02  0.00000000000E+00 0.  1.
         11    1    1    2    0    0  0.58316255656E+01 -0.70611473573E+02 -0.31937894461E+03  0.32714354390E+03  0.00000000000E+00 0. -1.
<mgrwt>
<rscale>  0 0.13171156E+03</rscale>
<asrwt>0</asrwt>
<pdfrwt beam="2">  1        1 0.29809311E+00 0.13981563E+03</pdfrwt>
<pdfrwt beam="1">  1       -1 0.16080022E-02 0.13981563E+03</pdfrwt>
<totfact> 0.34725918E+03</totfact>
</mgrwt>
</event>
<event>
 7    1  0.8165933E-006  0.1301890E+03  0.7546771E-02  0.1240688E+00
          4   -1    0    0  501    0  0.00000000000E+00  0.00000000000E+00  0.30078079777E+03  0.30078079777E+03  0.00000000000E+00 0. -1.
         -4   -1    0    0    0  501 -0.00000000000E+00 -0.00000000000E+00 -0.48000530328E+02  0.48000530328E+02  0.00000000000E+00 0.  1.
         23    2    1    2    0    0  0.34729645647E+02  0.10822764705E+02  0.19491459148E+03  0.23439467152E+03  0.12500353414E+03 0.  0.
          5    1    3    3  502    0 -0.34034712649E+02  0.23013931176E+02  0.13835970783E+03  0.14440741478E+03  0.47000000000E+01 0. -1.
         -5    1    3    3    0  502  0.68764358295E+02 -0.12191166471E+02  0.56554883643E+02  0.89987256740E+02  0.47000000000E+01 0. -1.
        -11    1    1    2    0    0  0.87726258912E+01  0.14702726853E+02 -0.16992322914E+02  0.24121943951E+02  0.00000000000E+00 0.  1.
         11    1    1    2    0    0 -0.43502271538E+02 -0.25525491558E+02  0.74857998878E+02  0.90264712619E+02  0.00000000000E+00 0. -1.
<mgrwt>
<rscale>  0 0.12147236E+03</rscale>
<asrwt>0</asrwt>
<pdfrwt beam="1">  1        4 0.46273968E-01 0.13018896E+03</pdfrwt>
<pdfrwt beam="2">  1       -4 0.73846972E-02 0.13018896E+03</pdfrwt>
<totfact> 0.93858708E+02</totfact>
</mgrwt>
</event>
<event>
 7    1  0.8165933E-006  0.1569399E+03  0.7546771E-02  0.1200422E+00
         -1   -1    0    0    0  501 -0.00000000000E+00  0.00000000000E+00  0.32135126213E+02  0.32135126213E+02  0.00000000000E+00 0.  1.
          1   -1    0    0  501    0  0.00000000000E+00 -0.00000000000E+00 -0.76138505323E+03  0.76138505323E+03  0.00000000000E+00 0. -1.
         23    2    1    2    0    0 -0.45324325953E+02 -0.83419765753E+02 -0.54659316149E+03  0.56867761138E+03  0.12496795451E+03 0.  0.
          5    1    3    3  502    0  0.32079809312E+01 -0.23879580197E+02 -0.98584765533E+01  0.26453828683E+02  0.47000000000E+01 0.  1.
         -5    1    3    3    0  502 -0.48532306884E+02 -0.59540185556E+02 -0.53673468493E+03  0.54222378269E+03  0.47000000000E+01 0.  1.
        -11    1    1    2    0    0  0.73358284318E+01  0.23169075097E+02 -0.13941459661E+03  0.14151696071E+03  0.00000000000E+00 0. -1.
         11    1    1    2    0    0  0.37988497521E+02  0.60250690656E+02 -0.43242168912E+02  0.83325607352E+02  0.00000000000E+00 0.  1.
<mgrwt>
<rscale>  0 0.15004162E+03</rscale>
<asrwt>0</asrwt>
<pdfrwt beam="2">  1        1 0.11713616E+00 0.15693993E+03</pdfrwt>
<pdfrwt beam="1">  1       -1 0.49438655E-02 0.15693993E+03</pdfrwt>
<totfact> 0.43572098E+03</totfact>
</mgrwt>
</event>
<event>
 7    1  0.8165933E-006  0.2446694E+03  0.7546771E-02  0.1119187E+00
         -1   -1    0    0    0  501 -0.00000000000E+00  0.00000000000E+00  0.14314811728E+03  0.14314811728E+03  0.00000000000E+00 0.  1.
          1   -1    0    0  501    0  0.00000000000E+00 -0.00000000000E+00 -0.42674394787E+03  0.42674394787E+03  0.00000000000E+00 0. -1.
         23    2    1    2    0    0  0.15228408521E+03 -0.14507744994E+03 -0.22538369700E+03  0.33265739217E+03  0.12500088243E+03 0.  0.
          5    1    3    3  502    0  0.11058147148E+03 -0.10158550977E+03 -0.22698439210E+03  0.27219824004E+03  0.47000000000E+01 0.  1.
         -5    1    3    3    0  502  0.41702613730E+02 -0.43491940169E+02  0.16006950926E+01  0.60459152131E+02  0.47000000000E+01 0.  1.
        -11    1    1    2    0    0 -0.90069218683E+02  0.27489957397E+02 -0.42366896521E+02  0.10326236407E+03  0.00000000000E+00 0.  1.
         11    1    1    2    0    0 -0.62214866523E+02  0.11758749254E+03 -0.15845237063E+02  0.13397230891E+03  0.00000000000E+00 0. -1.
<mgrwt>
<rscale>  0 0.24091185E+03</rscale>
<asrwt>0</asrwt>
<pdfrwt beam="2">  1        1 0.65652917E-01 0.24466943E+03</pdfrwt>
<pdfrwt beam="1">  1       -1 0.22022787E-01 0.24466943E+03</pdfrwt>
<totfact> 0.95946536E+02</totfact>
</mgrwt>
</event>
<event>
 7    1  0.8165933E-006  0.2415477E+03  0.7546771E-02  0.1121671E+00
          3   -1    0    0  501    0  0.00000000000E+00  0.00000000000E+00  0.15094357846E+04  0.15094357846E+04  0.00000000000E+00 0. -1.
         -3   -1    0    0    0  501 -0.00000000000E+00 -0.00000000000E+00 -0.36251372388E+02  0.36251372388E+02  0.00000000000E+00 0.  1.
         23    2    1    2    0    0 -0.20448765602E+03  0.30089350297E+02  0.69802051181E+03  0.73863246740E+03  0.12499886610E+03 0.  0.
          5    1    3    3  502    0 -0.12923936026E+03  0.68250447749E+02  0.53985322129E+03  0.55930718429E+03  0.47000000000E+01 0.  1.
         -5    1    3    3    0  502 -0.75248295760E+02 -0.38161097452E+02  0.15816729051E+03  0.17932528311E+03  0.47000000000E+01 0.  1.
        -11    1    1    2    0    0  0.15796270690E+03  0.41130131689E+01  0.65422582243E+03  0.67303830529E+03  0.00000000000E+00 0. -1.
         11    1    1    2    0    0  0.46524949122E+02 -0.34202363466E+02  0.12093807799E+03  0.13401638432E+03  0.00000000000E+00 0.  1.
<mgrwt>
<rscale>  0 0.23720216E+03</rscale>
<asrwt>0</asrwt>
<pdfrwt beam="1">  1        3 0.23222084E+00 0.24154769E+03</pdfrwt>
<pdfrwt beam="2">  1       -3 0.55771354E-02 0.24154769E+03</pdfrwt>
<totfact> 0.49492687E+01</totfact>
</mgrwt>
</event>
<event>
 7    1  0.8165933E-006  0.1386622E+03  0.7546771E-02  0.1221991E+00
         -1   -1    0    0    0  501 -0.00000000000E+00  0.00000000000E+00  0.29604139704E+02  0.29604139704E+02  0.00000000000E+00 0.  1.
          1   -1    0    0  501    0  0.00000000000E+00 -0.00000000000E+00 -0.61724437783E+03  0.61724437783E+03  0.00000000000E+00 0. -1.
         23    2    1    2    0    0  0.30970631804E+02  0.51443328663E+02 -0.40687653837E+03  0.42985546597E+03  0.12498643144E+03 0.  0.
          5    1    3    3  502    0  0.34987703338E+02  0.89451898903E+02 -0.23905530342E+03  0.25767287342E+03  0.47000000000E+01 0.  1.
         -5    1    3    3    0  502 -0.40170715338E+01 -0.38008570241E+02 -0.16782123496E+03  0.17218259255E+03  0.47000000000E+01 0.  1.
        -11    1    1    2    0    0 -0.36479953233E+02 -0.51460192531E+01 -0.75403447412E+01  0.37604857410E+02  0.00000000000E+00 0.  1.
         11    1    1    2    0    0  0.55093214288E+01 -0.46297309410E+02 -0.17322335501E+03  0.17938819416E+03  0.00000000000E+00 0. -1.
<mgrwt>
<rscale>  0 0.13375293E+03</rscale>
<asrwt>0</asrwt>
<pdfrwt beam="2">  1        1 0.94960666E-01 0.13866219E+03</pdfrwt>
<pdfrwt beam="1">  1       -1 0.45544834E-02 0.13866219E+03</pdfrwt>
<totfact> 0.65957689E+03</totfact>
</mgrwt>
</event>
<event>
 7    1  0.8165933E-006  0.2312664E+03  0.7546771E-02  0.1128627E+00
          2   -1    0    0  501    0  0.00000000000E+00  0.00000000000E+00  0.12153085752E+04  0.12153085752E+04  0.00000000000E+00 0. -1.
         -2   -1    0    0    0  501 -0.00000000000E+00 -0.00000000000E+00 -0.41965243286E+02  0.41965243286E+02  0.00000000000E+00 0.  1.
         23    2    1    2    0    0  0.66530507120E+02  0.18284303044E+03  0.70008908275E+03  0.73729836699E+03  0.12500510394E+03 0.  0.
          5    1    3    3  502    0  0.21677392184E+02  0.18170690354E+03  0.60430501538E+03  0.63142216444E+03  0.47000000000E+01 0.  1.
         -5    1    3    3    0  502  0.44853114936E+02  0.11361268939E+01  0.95784067374E+02  0.10587620255E+03  0.47000000000E+01 0.  1.
        -11    1    1    2    0    0 -0.34487533925E+02 -0.10464400191E+03  0.15163019603E+03  0.18743391764E+03  0.00000000000E+00 0.  1.
         11    1    1    2    0    0 -0.32042973195E+02 -0.78199028528E+02  0.32162405315E+03  0.33254153388E+03  0.00000000000E+00 0. -1.
<mgrwt>
<rscale>  0 0.22719821E+03</rscale>
<asrwt>0</asrwt>
<pdfrwt beam="1">  1        2 0.18697052E+00 0.23126642E+03</pdfrwt>
<pdfrwt beam="2">  1       -2 0.64561922E-02 0.23126642E+03</pdfrwt>
<totfact> 0.25834992E+03</totfact>
</mgrwt>
</event>
<event>
 7    1  0.8165933E-006  0.1423610E+03  0.7546771E-02  0.1220965E+00
          1   -1    0    0  501    0  0.00000000000E+00  0.00000000000E+00  0.14563270823E+04  0.14563270823E+04  0.00000000000E+00 0. -1.
         -1   -1    0    0    0  501 -0.00000000000E+00 -0.00000000000E+00 -0.13437752911E+02  0.13437752911E+02  0.00000000000E+00 0.  1.
         23    2    1    2    0    0 -0.17835727954E+02  0.65715234555E+02  0.10865273973E+04  0.10958140512E+04  0.12502017624E+03 0.  0.
          5    1    3    3  502    0  0.50172597082E+02  0.46641358217E+02  0.42515813669E+03  0.43066719980E+03  0.47000000000E+01 0.  1.
         -5    1    3    3    0  502 -0.68008325035E+02  0.19073876338E+02  0.66136926060E+03  0.66514685138E+03  0.47000000000E+01 0.  1.
        -11    1    1    2    0    0  0.50959125119E+02 -0.31328024078E+02  0.25477304748E+03  0.26170132451E+03  0.00000000000E+00 0. -1.
         11    1    1    2    0    0 -0.33123397165E+02 -0.34387210478E+02  0.10158888459E+03  0.11224945949E+03  0.00000000000E+00 0.  1.
<mgrwt>
<rscale>  0 0.13447344E+03</rscale>
<asrwt>0</asrwt>
<pdfrwt beam="1">  1        1 0.22405020E+00 0.14236098E+03</pdfrwt>
<pdfrwt beam="2">  1       -1 0.20673478E-02 0.14236098E+03</pdfrwt>
<totfact> 0.49203709E+03</totfact>
</mgrwt>
</event>
<event>
 7    1  0.8165933E-006  0.1807565E+03  0.7546771E-02  0.1172455E+00
          3   -1    0    0  501    0  0.00000000000E+00  0.00000000000E+00  0.47517579002E+02  0.47517579002E+02  0.00000000000E+00 0. -1.
         -3   -1    0    0    0  501 -0.00000000000E+00 -0.00000000000E+00 -0.66069472283E+03  0.66069472283E+03  0.00000000000E+00 0.  1.
         23    2    1    2    0    0 -0.96226881218E+02  0.88264533494E+02 -0.22631094343E+03  0.28963690750E+03  0.12499061776E+03 0.  0.
          5    1    3    3  502    0 -0.11129178573E+03  0.77317450693E+02 -0.11834614758E+03  0.17997708298E+03  0.47000000000E+01 0.  1.
         -5    1    3    3    0  502  0.15064904507E+02  0.10947082801E+02 -0.10796479586E+03  0.10965982452E+03  0.47000000000E+01 0.  1.
        -11    1    1    2    0    0  0.69247211047E+01  0.18961078803E+02 -0.53532824225E+02  0.57212214965E+02  0.00000000000E+00 0.  1.
         11    1    1    2    0    0  0.89302160113E+02 -0.10722561230E+03 -0.33333337618E+03  0.36136317937E+03  0.00000000000E+00 0. -1.
<mgrwt>
<rscale>  0 0.17527613E+03</rscale>
<asrwt>0</asrwt>
<pdfrwt beam="1">  1        3 0.73103967E-02 0.18075645E+03</pdfrwt>
<pdfrwt beam="2">  1       -3 0.10164534E+00 0.18075645E+03</pdfrwt>
<totfact> 0.26023630E+02</totfact>
</mgrwt>
</event>
<event>
 7    1  0.8165933E-006  0.1538017E+03  0.7546771E-02  0.1204702E+00
          1   -1    0    0  501    0  0.00000000000E+00  0.00000000000E+00  0.62112523504E+02  0.62112523504E+02  0.00000000000E+00 0. -1.
         -1   -1    0    0    0  501 -0.00000000000E+00 -0.00000000000E+00 -0.35297657581E+03  0.35297657581E+03  0.00000000000E+00 0.  1.
         23    2    1    2    0    0  0.83453576336E+02 -0.32621912616E+02 -0.92242995398E+02  0.17934246097E+03  0.12500503799E+03 0.  0.
          5    1    3    3  502    0  0.11239656657E+03 -0.46001203448E+02 -0.74444278703E+02  0.14252417173E+03  0.47000000000E+01 0. -1.
         -5    1    3    3    0  502 -0.28942990234E+02  0.13379290833E+02 -0.17798716695E+02  0.36818289244E+02  0.47000000000E+01 0. -1.
        -11    1    1    2    0    0 -0.59156874628E+02  0.10088521559E+01 -0.38155169787E+02  0.70401495580E+02  0.00000000000E+00 0. -1.
         11    1    1    2    0    0 -0.24296701707E+02  0.31613060460E+02 -0.16046588712E+03  0.16534514276E+03  0.00000000000E+00 0.  1.
<mgrwt>
<rscale>  0 0.14660949E+03</rscale>
<asrwt>0</asrwt>
<pdfrwt beam="1">  1        1 0.95557728E-02 0.15380165E+03</pdfrwt>
<pdfrwt beam="2">  1       -1 0.54304089E-01 0.15380165E+03</pdfrwt>
<totfact> 0.23401107E+03</totfact>
</mgrwt>
</event>
<event>
 7    1  0.8165933E-006  0.1303482E+03  0.7546771E-02  0.1240428E+00
         -4   -1    0    0    0  501 -0.00000000000E+00  0.00000000000E+00  0.70105626498E+02  0.70105626498E+02  0.00000000000E+00 0.  1.
          4   -1    0    0  501    0  0.00000000000E+00 -0.00000000000E+00 -0.20245790025E+03  0.20245790025E+03  0.00000000000E+00 0. -1.
         23    2    1    2    0    0  0.44603325452E+01 -0.36608607636E+02 -0.11156224577E+03  0.17157148693E+03  0.12502222093E+03 0.  0.
          5    1    3    3  502    0  0.11947367904E+02 -0.43662484058E+01  0.26366175548E+02  0.29649096749E+02  0.47000000000E+01 0.  1.
         -5    1    3    3    0  502 -0.74870353592E+01 -0.32242359230E+02 -0.13792842132E+03  0.14192239018E+03  0.47000000000E+01 0.  1.
        -11    1    1    2    0    0 -0.20032922057E+02  0.60975370328E+02  0.19385701803E+01  0.64211150178E+02  0.00000000000E+00 0.  1.
         11    1    1    2    0    0  0.15572589512E+02 -0.24366762692E+02 -0.22728598158E+02  0.36780889636E+02  0.00000000000E+00 0. -1.
<mgrwt>
<rscale>  0 0.12163253E+03</rscale>
<asrwt>0</asrwt>
<pdfrwt beam="2">  1        4 0.31147369E-01 0.13034815E+03</pdfrwt>
<pdfrwt beam="1">  1       -4 0.10785481E-01 0.13034815E+03</pdfrwt>
<totfact> 0.10804315E+03</totfact>
</mgrwt>
</event>
<event>
 7    1  0.8165933E-006  0.1365641E+03  0.7546771E-02  0.1229487E+00
          2   -1    0    0  501    0  0.00000000000E+00  0.00000000000E+00  0.89635799042E+03  0.89635799042E+03  0.00000000000E+00 0. -1.
         -2   -1    0    0    0  501 -0.00000000000E+00 -0.00000000000E+00 -0.20727879806E+02  0.20727879806E+02  0.00000000000E+00 0.  1.
         23    2    1    2    0    0 -0.10304945367E+02  0.54031936345E+02  0.68261920573E+03  0.69614563073E+03  0.12499646837E+03 0.  0.
          5    1    3    3  502    0 -0.61192972883E+02  0.52696170106E+01  0.40619452291E+03  0.41083869004E+03  0.47000000000E+01 0.  1.
         -5    1    3    3    0  502  0.50888027516E+02  0.48762319334E+02  0.27642468283E+03  0.28530694069E+03  0.47000000000E+01 0.  1.
        -11    1    1    2    0    0  0.46865812342E+02 -0.62517303299E+01  0.89166116254E+02  0.10092613530E+03  0.00000000000E+00 0. -1.
         11    1    1    2    0    0 -0.36560866975E+02 -0.47780206015E+02  0.10384478863E+03  0.12001410420E+03  0.00000000000E+00 0.  1.
<mgrwt>
<rscale>  0 0.12864078E+03</rscale>
<asrwt>0</asrwt>
<pdfrwt beam="1">  1        2 0.13790120E+00 0.13656412E+03</pdfrwt>
<pdfrwt beam="2">  1       -2 0.31889053E-02 0.13656412E+03</pdfrwt>
<totfact> 0.11341169E+04</totfact>
</mgrwt>
</event>
<event>
 7    1  0.8165933E-006  0.1343956E+03  0.7546771E-02  0.1233472E+00
         -2   -1    0    0    0  501 -0.00000000000E+00  0.00000000000E+00  0.49367355484E+02  0.49367355484E+02  0.00000000000E+00 0.  1.
          2   -1    0    0  501    0  0.00000000000E+00 -0.00000000000E+00 -0.68421393090E+03  0.68421393090E+03  0.00000000000E+00 0. -1.
         23    2    1    2    0    0 -0.26037938524E+02  0.42050125012E+02 -0.61277589993E+03  0.62734079601E+03  0.12496392899E+03 0.  0.
          5    1    3    3  502    0 -0.51188473599E+02  0.57909929627E+02 -0.56881316813E+03  0.57405951783E+03  0.47000000000E+01 0. -1.
         -5    1    3    3    0  502  0.25150535075E+02 -0.15859804615E+02 -0.43962731807E+02  0.53281278184E+02  0.47000000000E+01 0. -1.
        -11    1    1    2    0    0 -0.11466721812E+02 -0.44699747709E+02 -0.43114429788E+02  0.63153837653E+02  0.00000000000E+00 0.  1.
         11    1    1    2    0    0  0.37504660336E+02  0.26496226972E+01  0.21043754303E+02  0.43086652718E+02  0.00000000000E+00 0. -1.
<mgrwt>
<rscale>  0 0.12602779E+03</rscale>
<asrwt>0</asrwt>
<pdfrwt beam="2">  1        2 0.10526368E+00 0.13439558E+03</pdfrwt>
<pdfrwt beam="1">  1       -2 0.75949779E-02 0.13439558E+03</pdfrwt>
<totfact> 0.42972947E+03</totfact>
</mgrwt>
</event>
<event>
 7    1  0.8165933E-006  0.2096467E+03  0.7546771E-02  0.1145711E+00
         -1   -1    0    0    0  501 -0.00000000000E+00  0.00000000000E+00  0.39020063883E+02  0.39020063883E+02  0.00000000000E+00 0.  1.
          1   -1    0    0  501    0  0.00000000000E+00 -0.00000000000E+00 -0.14342745118E+04  0.14342745118E+04  0.00000000000E+00 0. -1.
         23    2    1    2    0    0  0.66685332972E+02 -0.15453217781E+03 -0.11120684047E+04  0.11316571312E+04  0.12499839258E+03 0.  0.
          5    1    3    3  502    0 -0.18447444831E+02 -0.11333417769E+03 -0.61932911924E+03  0.62990125575E+03  0.47000000000E+01 0. -1.
         -5    1    3    3    0  502  0.85132777803E+02 -0.41198000127E+02 -0.49273928549E+03  0.50175587544E+03  0.47000000000E+01 0. -1.
        -11    1    1    2    0    0 -0.64230452378E+01  0.93417736534E+02 -0.20568288487E+03  0.22599464183E+03  0.00000000000E+00 0. -1.
         11    1    1    2    0    0 -0.60262287734E+02  0.61114441278E+02 -0.77503158275E+02  0.11564280262E+03  0.00000000000E+00 0.  1.
<mgrwt>
<rscale>  0 0.20484955E+03</rscale>
<asrwt>0</asrwt>
<pdfrwt beam="2">  1        1 0.22065765E+00 0.20964667E+03</pdfrwt>
<pdfrwt beam="1">  1       -1 0.60030860E-02 0.20964667E+03</pdfrwt>
<totfact> 0.10614153E+03</totfact>
</mgrwt>
</event>
<event>
 7    1  0.8165933E-006  0.1296931E+03  0.7546771E-02  0.1242448E+00
         -1   -1    0    0    0  501 -0.00000000000E+00  0.00000000000E+00  0.34306003255E+02  0.34306003255E+02  0.00000000000E+00 0.  1.
          1   -1    0    0  501    0  0.00000000000E+00 -0.00000000000E+00 -0.41882977131E+03  0.41882977131E+03  0.00000000000E+00 0. -1.
         23    2    1    2    0    0 -0.30640977971E+02 -0.15954903061E+02 -0.29234458598E+03  0.31982129629E+03  0.12500750437E+03 0.  0.
          5    1    3    3  502    0  0.45976845117E+02  0.10961127153E+02 -0.12592713895E+03  0.13458733566E+03  0.47000000000E+01 0. -1.
         -5    1    3    3    0  502 -0.76617823087E+02 -0.26916030214E+02 -0.16641744703E+03  0.18523396064E+03  0.47000000000E+01 0. -1.
        -11    1    1    2    0    0  0.61275080739E+02 -0.13937791578E+00 -0.64847880205E+02  0.89218285754E+02  0.00000000000E+00 0. -1.
         11    1    1    2    0    0 -0.30634102768E+02  0.16094280976E+02 -0.27331301868E+02  0.44096192516E+02  0.00000000000E+00 0.  1.
<mgrwt>
<rscale>  0 0.12039441E+03</rscale>
<asrwt>0</asrwt>
<pdfrwt beam="2">  1        1 0.64435349E-01 0.12969312E+03</pdfrwt>
<pdfrwt beam="1">  1       -1 0.52778467E-02 0.12969312E+03</pdfrwt>
<totfact> 0.87851845E+03</totfact>
</mgrwt>
</event>
<event>
 7    1  0.8165933E-006  0.2003146E+03  0.7546771E-02  0.1153417E+00
          2   -1    0    0  501    0  0.00000000000E+00  0.00000000000E+00  0.32968649560E+03  0.32968649560E+03  0.00000000000E+00 0. -1.
         -2   -1    0    0    0  501 -0.00000000000E+00 -0.00000000000E+00 -0.14011658177E+03  0.14011658177E+03  0.00000000000E+00 0.  1.
         23    2    1    2    0    0  0.65081794395E+02 -0.14236760409E+03  0.20505376297E+03  0.28665833628E+03  0.12498712491E+03 0.  0.
          5    1    3    3  502    0 -0.10555022493E+02 -0.64329013276E+02  0.15236202282E+03  0.16578874041E+03  0.47000000000E+01 0. -1.
         -5    1    3    3    0  502  0.75636816888E+02 -0.78038590810E+02  0.52691740149E+02  0.12086959587E+03  0.47000000000E+01 0. -1.
        -11    1    1    2    0    0 -0.37517394006E+02  0.13593148611E+03 -0.39041117675E+02  0.14631859977E+03  0.00000000000E+00 0.  1.
         11    1    1    2    0    0 -0.27564400388E+02  0.64361179716E+01  0.23557268539E+02  0.36826141317E+02  0.00000000000E+00 0. -1.
<mgrwt>
<rscale>  0 0.19570130E+03</rscale>
<asrwt>0</asrwt>
<pdfrwt beam="1">  1        2 0.50720999E-01 0.20031464E+03</pdfrwt>
<pdfrwt beam="2">  1       -2 0.21556397E-01 0.20031464E+03</pdfrwt>
<totfact> 0.18043535E+03</totfact>
</mgrwt>
</event>
<event>
 7    1  0.8165933E-006  0.1560163E+03  0.7546771E-02  0.1201230E+00
          2   -1    0    0  501    0  0.00000000000E+00  0.00000000000E+00  0.89820226354E+02  0.89820226354E+02  0.00000000000E+00 0. -1.
         -2   -1    0    0    0  501 -0.00000000000E+00 -0.00000000000E+00 -0.24985116386E+03  0.24985116386E+03  0.00000000000E+00 0.  1.
         23    2    1    2    0    0  0.32922492884E+02  0.87339084908E+02 -0.38084853014E+02  0.16059747797E+03  0.12501634937E+03 0.  0.
          5    1    3    3  502    0  0.90328849035E+01  0.56760049498E+02 -0.82993157403E+02  0.10106062737E+03  0.47000000000E+01 0. -1.
         -5    1    3    3    0  502  0.23889607980E+02  0.30579035410E+02  0.44908304390E+02  0.59536850599E+02  0.47000000000E+01 0. -1.
        -11    1    1    2    0    0 -0.44913425657E+02 -0.10077440486E+03 -0.89918164957E+02  0.14233050575E+03  0.00000000000E+00 0.  1.
         11    1    1    2    0    0  0.11990932773E+02  0.13435319949E+02 -0.32027919536E+02  0.36743406493E+02  0.00000000000E+00 0. -1.
<mgrwt>
<rscale>  0 0.14938532E+03</rscale>
<asrwt>0</asrwt>
<pdfrwt beam="1">  1        2 0.13818497E-01 0.15601633E+03</pdfrwt>
<pdfrwt beam="2">  1       -2 0.38438640E-01 0.15601633E+03</pdfrwt>
<totfact> 0.26854911E+03</totfact>
</mgrwt>
</event>
<event>
 6    1  0.8165933E-006  0.1591748E+03  0.7546771E-02  0.1210309E+00
         -2   -1    0    0    0  501 -0.00000000000E+00  0.00000000000E+00  0.16561929421E+03  0.16561929421E+03  0.00000000000E+00 0.  1.
          2   -1    0    0  501    0  0.00000000000E+00 -0.00000000000E+00 -0.13608033338E+03  0.13608033338E+03  0.00000000000E+00 0. -1.
          5    1    1    2  502    0 -0.22789947342E+02  0.43609316473E+02 -0.64245775709E+02  0.81060248455E+02  0.47000000000E+01 0. -1.
         -5    1    1    2    0  502  0.60393143907E+02 -0.62948281445E+02  0.80789146203E+01  0.87733555891E+02  0.47000000000E+01 0.  1.
        -11    1    1    2    0    0 -0.51307907263E+02  0.47715277980E+02  0.58795416827E+02  0.91466661360E+02  0.00000000000E+00 0.  1.
         11    1    1    2    0    0  0.13704710698E+02 -0.28376313009E+02  0.26910405096E+02  0.41439161885E+02  0.00000000000E+00 0. -1.
<mgrwt>
<rscale>  0 0.14226817E+03</rscale>
<asrwt>0</asrwt>
<pdfrwt beam="2">  1        2 0.20935436E-01 0.15917485E+03</pdfrwt>
<pdfrwt beam="1">  1       -2 0.25479891E-01 0.15917485E+03</pdfrwt>
<totfact> 0.35087358E+03</totfact>
</mgrwt>
</event>
<event>
 7    1  0.8165933E-006  0.1278135E+03  0.7546771E-02  0.1245220E+00
         -2   -1    0    0    0  501 -0.00000000000E+00  0.00000000000E+00  0.17711848121E+02  0.17711848121E+02  0.00000000000E+00 0.  1.
          2   -1    0    0  501    0  0.00000000000E+00 -0.00000000000E+00 -0.81401839545E+03  0.81401839545E+03  0.00000000000E+00 0. -1.
         23    2    1    2    0    0  0.21459939954E+01 -0.26640580718E+02 -0.60149000156E+03  0.61491992404E+03  0.12498786013E+03 0.  0.
          5    1    3    3  502    0  0.81154212584E+00 -0.14252712156E+02 -0.60141541422E+03  0.60160318223E+03  0.47000000000E+01 0. -1.
         -5    1    3    3    0  502  0.13344518695E+01 -0.12387868563E+02 -0.74587337295E-01  0.13316741816E+02  0.47000000000E+01 0. -1.
        -11    1    1    2    0    0 -0.23386675071E+02 -0.27582374515E+02 -0.88213953053E+02  0.95338478423E+02  0.00000000000E+00 0. -1.
         11    1    1    2    0    0  0.21240681076E+02  0.54222955233E+02 -0.10660259271E+03  0.12147184110E+03  0.00000000000E+00 0.  1.
<mgrwt>
<rscale>  0 0.11872249E+03</rscale>
<asrwt>0</asrwt>
<pdfrwt beam="2">  1        2 0.12523360E+00 0.12781350E+03</pdfrwt>
<pdfrwt beam="1">  1       -2 0.27248997E-02 0.12781350E+03</pdfrwt>
<totfact> 0.16082418E+04</totfact>
</mgrwt>
</event>
<event>
 7    1  0.8165933E-006  0.1369217E+03  0.7546771E-02  0.1228911E+00
          2   -1    0    0  501    0  0.00000000000E+00  0.00000000000E+00  0.30500670041E+03  0.30500670041E+03  0.00000000000E+00 0. -1.
         -2   -1    0    0    0  501 -0.00000000000E+00 -0.00000000000E+00 -0.49152762673E+02  0.49152762673E+02  0.00000000000E+00 0.  1.
         23    2    1    2    0    0  0.12513234863E+02 -0.54512338988E+02  0.14361119047E+03  0.19842312961E+03  0.12497755072E+03 0.  0.
          5    1    3    3  502    0  0.22163878140E+02  0.19855490938E+02  0.11357675226E+03  0.11750424107E+03  0.47000000000E+01 0.  1.
         -5    1    3    3    0  502 -0.96506432765E+01 -0.74367829926E+02  0.30034438211E+02  0.80918888538E+02  0.47000000000E+01 0.  1.
        -11    1    1    2    0    0 -0.24076240882E+02  0.65785727489E+02  0.37876855747E+02  0.79637199332E+02  0.00000000000E+00 0.  1.
         11    1    1    2    0    0  0.11563006019E+02 -0.11273388501E+02  0.74365891515E+02  0.76099134143E+02  0.00000000000E+00 0. -1.
<mgrwt>
<rscale>  0 0.12902388E+03</rscale>
<asrwt>0</asrwt>
<pdfrwt beam="1">  1        2 0.46924107E-01 0.13692175E+03</pdfrwt>
<pdfrwt beam="2">  1       -2 0.75619636E-02 0.13692175E+03</pdfrwt>
<totfact> 0.10494454E+04</totfact>
</mgrwt>
</event>
<event>
 7    1  0.8165933E-006  0.1403103E+03  0.7546771E-02  0.1218168E+00
         -2   -1    0    0    0  501 -0.00000000000E+00  0.00000000000E+00  0.11969774543E+02  0.11969774543E+02  0.00000000000E+00 0.  1.
          2   -1    0    0  501    0  0.00000000000E+00 -0.00000000000E+00 -0.16002602427E+04  0.16002602427E+04  0.00000000000E+00 0. -1.
         23    2    1    2    0    0 -0.43775343497E+01 -0.63585718589E+02 -0.10589595459E+04  0.10682145444E+04  0.12499874594E+03 0.  0.
          5    1    3    3  502    0  0.37419021616E+02  0.99938173556E+01 -0.13937366997E+03  0.14473136994E+03  0.47000000000E+01 0.  1.
         -5    1    3    3    0  502 -0.41796555966E+02 -0.73579535945E+02 -0.91958587596E+03  0.92348317444E+03  0.47000000000E+01 0.  1.
        -11    1    1    2    0    0 -0.26346278371E+02 -0.12057694225E+02 -0.50062951539E+02  0.57843007277E+02  0.00000000000E+00 0.  1.
         11    1    1    2    0    0  0.30723812721E+02  0.75643412815E+02 -0.47926797066E+03  0.48617246556E+03  0.00000000000E+00 0. -1.
<mgrwt>
<rscale>  0 0.13646376E+03</rscale>
<asrwt>0</asrwt>
<pdfrwt beam="2">  1        2 0.24619386E+00 0.14031034E+03</pdfrwt>
<pdfrwt beam="1">  1       -2 0.18415040E-02 0.14031034E+03</pdfrwt>
<totfact> 0.10295521E+04</totfact>
</mgrwt>
</event>
<event>
 7    1  0.8165933E-006  0.2377261E+03  0.7546771E-02  0.1124122E+00
         -2   -1    0    0    0  501 -0.00000000000E+00  0.00000000000E+00  0.95632766303E+02  0.95632766303E+02  0.00000000000E+00 0.  1.
          2   -1    0    0  501    0  0.00000000000E+00 -0.00000000000E+00 -0.56530378212E+03  0.56530378212E+03  0.00000000000E+00 0. -1.
         23    2    1    2    0    0  0.91162815321E+02  0.18049191553E+03 -0.29393530500E+03  0.37803658542E+03  0.12500282367E+03 0.  0.
          5    1    3    3  502    0  0.43767941156E+02  0.13310638266E+03 -0.27428431010E+03  0.30803719669E+03  0.47000000000E+01 0. -1.
         -5    1    3    3    0  502  0.47394874165E+02  0.47385532872E+02 -0.19650994900E+02  0.69999388735E+02  0.47000000000E+01 0. -1.
        -11    1    1    2    0    0 -0.59150154330E+02 -0.16113497310E+03 -0.10057440580E+03  0.19894328693E+03  0.00000000000E+00 0.  1.
         11    1    1    2    0    0 -0.32012660991E+02 -0.19356942432E+02 -0.75161305020E+02  0.83956676068E+02  0.00000000000E+00 0. -1.
<mgrwt>
<rscale>  0 0.23361319E+03</rscale>
<asrwt>0</asrwt>
<pdfrwt beam="2">  1        2 0.86969812E-01 0.23772610E+03</pdfrwt>
<pdfrwt beam="1">  1       -2 0.14712733E-01 0.23772610E+03</pdfrwt>
<totfact> 0.19054376E+03</totfact>
</mgrwt>
</event>
<event>
 7    1  0.8165933E-006  0.1791035E+03  0.7546771E-02  0.1173085E+00
         -2   -1    0    0    0  501 -0.00000000000E+00  0.00000000000E+00  0.29080682561E+03  0.29080682561E+03  0.00000000000E+00 0. -1.
          2   -1    0    0  501    0  0.00000000000E+00 -0.00000000000E+00 -0.10172984283E+03  0.10172984283E+03  0.00000000000E+00 0.  1.
         23    2    1    2    0    0  0.11939474525E+03 -0.46883865571E+02  0.73569095331E+02  0.19362460282E+03  0.12499949195E+03 0.  0.
          5    1    3    3  502    0  0.11931545381E+03 -0.22992929316E+02  0.59408985604E+01  0.12174660813E+03  0.47000000000E+01 0.  1.
         -5    1    3    3    0  502  0.79291438731E-01 -0.23890936254E+02  0.67628196771E+02  0.71877994690E+02  0.47000000000E+01 0.  1.
        -11    1    1    2    0    0 -0.53360532640E+02  0.34137746614E+02  0.11541807770E+03  0.13165889581E+03  0.00000000000E+00 0. -1.
         11    1    1    2    0    0 -0.66034212606E+02  0.12746118957E+02  0.89809747439E-01  0.67253169804E+02  0.00000000000E+00 0.  1.
<mgrwt>
<rscale>  0 0.17464870E+03</rscale>
<asrwt>0</asrwt>
<pdfrwt beam="2">  1        2 0.15650745E-01 0.17910353E+03</pdfrwt>
<pdfrwt beam="1">  1       -2 0.44739511E-01 0.17910353E+03</pdfrwt>
<totfact> 0.17447319E+03</totfact>
</mgrwt>
</event>
<event>
 7    1  0.8165933E-006  0.1286110E+03  0.7546771E-02  0.1293336E+00
         -1   -1    0    0    0  501 -0.00000000000E+00  0.00000000000E+00  0.10119842022E+02  0.10119842022E+02  0.00000000000E+00 0.  1.
          1   -1    0    0  501    0  0.00000000000E+00 -0.00000000000E+00 -0.69279486675E+03  0.69279486675E+03  0.00000000000E+00 0. -1.
         23    2    1    2    0    0  0.25983402057E+00  0.30255168345E+02 -0.48006037016E+03  0.49698967738E+03  0.12500135081E+03 0.  0.
          5    1    3    3  502    0 -0.41696481717E+02 -0.21153740663E+02 -0.92395190321E+02  0.10365827765E+03  0.47000000000E+01 0.  1.
         -5    1    3    3    0  502  0.41956315738E+02  0.51408909008E+02 -0.38766517983E+03  0.39333139973E+03  0.47000000000E+01 0.  1.
        -11    1    1    2    0    0 -0.10393861777E+02 -0.12551896687E+02 -0.96774457190E+02  0.98137037033E+02  0.00000000000E+00 0. -1.
         11    1    1    2    0    0  0.10134027757E+02 -0.17703271658E+02 -0.10584019738E+03  0.10778799436E+03  0.00000000000E+00 0.  1.
<mgrwt>
<rscale>  0 0.94047544E+02</rscale>
<asrwt>0</asrwt>
<pdfrwt beam="2">  1        1 0.10658384E+00 0.12861097E+03</pdfrwt>
<pdfrwt beam="1">  1       -1 0.15568985E-02 0.12861097E+03</pdfrwt>
<totfact> 0.26535769E+04</totfact>
</mgrwt>
</event>
<event>
 7    1  0.8165933E-006  0.1540105E+03  0.7546771E-02  0.1204288E+00
         -1   -1    0    0    0  501 -0.00000000000E+00  0.00000000000E+00  0.31535902859E+02  0.31535902859E+02  0.00000000000E+00 0.  1.
          1   -1    0    0  501    0  0.00000000000E+00 -0.00000000000E+00 -0.63216167548E+03  0.63216167548E+03  0.00000000000E+00 0. -1.
         23    2    1    2    0    0 -0.87263563106E+02 -0.21859573791E+02 -0.30391532669E+03  0.34071065103E+03  0.12500580593E+03 0.  0.
          5    1    3    3  502    0 -0.11196842390E+02  0.23917133336E+02 -0.20880021401E+03  0.21051607519E+03  0.47000000000E+01 0.  1.
         -5    1    3    3    0  502 -0.76066720716E+02 -0.45776707128E+02 -0.95115112689E+02  0.13019457584E+03  0.47000000000E+01 0.  1.
        -11    1    1    2    0    0  0.87856546261E+02 -0.13600816382E+02 -0.24173341985E+03  0.25756319846E+03  0.00000000000E+00 0.  1.
         11    1    1    2    0    0 -0.59298315455E+00  0.35460390173E+02 -0.54977026079E+02  0.65423728851E+02  0.00000000000E+00 0. -1.
<mgrwt>
<rscale>  0 0.14693695E+03</rscale>
<asrwt>0</asrwt>
<pdfrwt beam="2">  1        1 0.97255630E-01 0.15401046E+03</pdfrwt>
<pdfrwt beam="1">  1       -1 0.48516780E-02 0.15401046E+03</pdfrwt>
<totfact> 0.58444909E+03</totfact>
</mgrwt>
</event>
<event>
 7    1  0.8165933E-006  0.1696502E+03  0.7546771E-02  0.1184787E+00
         -1   -1    0    0    0  501 -0.00000000000E+00  0.00000000000E+00  0.35759576384E+02  0.35759576384E+02  0.00000000000E+00 0.  1.
          1   -1    0    0  501    0  0.00000000000E+00 -0.00000000000E+00 -0.81999226908E+03  0.81999226908E+03  0.00000000000E+00 0. -1.
         23    2    1    2    0    0 -0.11468873871E+03 -0.15563747278E+01 -0.58111155365E+03  0.60536917747E+03  0.12500109666E+03 0.  0.
          5    1    3    3  502    0 -0.84500427330E+02 -0.58099141179E+02 -0.40789007779E+03  0.42060936507E+03  0.47000000000E+01 0.  1.
         -5    1    3    3    0  502 -0.30188311384E+02  0.56542766452E+02 -0.17322147585E+03  0.18475981240E+03  0.47000000000E+01 0.  1.
        -11    1    1    2    0    0  0.25602837109E+02 -0.86449210312E+01 -0.13525331963E+03  0.13792643111E+03  0.00000000000E+00 0. -1.
         11    1    1    2    0    0  0.89085901606E+02  0.10201295759E+02 -0.67867819416E+02  0.11245623688E+03  0.00000000000E+00 0.  1.
<mgrwt>
<rscale>  0 0.16351287E+03</rscale>
<asrwt>0</asrwt>
<pdfrwt beam="2">  1        1 0.12615264E+00 0.16965024E+03</pdfrwt>
<pdfrwt beam="1">  1       -1 0.55014740E-02 0.16965024E+03</pdfrwt>
<totfact> 0.33315595E+03</totfact>
</mgrwt>
</event>
<event>
 7    1  0.8165933E-006  0.1507458E+03  0.7546771E-02  0.1210114E+00
          2   -1    0    0  501    0  0.00000000000E+00  0.00000000000E+00  0.13043574016E+04  0.13043574016E+04  0.00000000000E+00 0. -1.
         -2   -1    0    0    0  501 -0.00000000000E+00 -0.00000000000E+00 -0.14370422331E+02  0.14370422331E+02  0.00000000000E+00 0.  1.
         23    2    1    2    0    0  0.42336585994E+02  0.72846592238E+02  0.81289263717E+03  0.82675191679E+03  0.12500111932E+03 0.  0.
          5    1    3    3  502    0 -0.39406154176E+02  0.36322704475E+02  0.19107436623E+03  0.19850362031E+03  0.47000000000E+01 0.  1.
         -5    1    3    3    0  502  0.81742740170E+02  0.36523887763E+02  0.62181827094E+03  0.62824829648E+03  0.47000000000E+01 0.  1.
        -11    1    1    2    0    0 -0.43374235801E+02 -0.21485267279E+01  0.11254366268E+03  0.12063173923E+03  0.00000000000E+00 0.  1.
         11    1    1    2    0    0  0.10376498066E+01 -0.70698065510E+02  0.36455067938E+03  0.37134416789E+03  0.00000000000E+00 0. -1.
<mgrwt>
<rscale>  0 0.14241619E+03</rscale>
<asrwt>0</asrwt>
<pdfrwt beam="1">  1        2 0.20067028E+00 0.15074579E+03</pdfrwt>
<pdfrwt beam="2">  1       -2 0.22108352E-02 0.15074579E+03</pdfrwt>
<totfact> 0.11334617E+04</totfact>
</mgrwt>
</event>
<event>
 7    1  0.8165933E-006  0.1798627E+03  0.7546771E-02  0.1173533E+00
          2   -1    0    0  501    0  0.00000000000E+00  0.00000000000E+00  0.21585464907E+04  0.21585464907E+04  0.00000000000E+00 0. -1.
         -2   -1    0    0    0  501 -0.00000000000E+00 -0.00000000000E+00 -0.15733131343E+02  0.15733131343E+02  0.00000000000E+00 0.  1.
         23    2    1    2    0    0  0.11733215158E+03 -0.54397671133E+02  0.15607854165E+04  0.15711147961E+04  0.12499858255E+03 0.  0.
          5    1    3    3  502    0  0.17889582059E+01  0.18629963428E+02  0.63386449375E+03  0.63415815248E+03  0.47000000000E+01 0. -1.
         -5    1    3    3    0  502  0.11554319338E+03 -0.73027634562E+02  0.92692092277E+03  0.93695664362E+03  0.47000000000E+01 0. -1.
        -11    1    1    2    0    0 -0.67952372022E+02 -0.46898068265E+01  0.39622362755E+03  0.40203567277E+03  0.00000000000E+00 0. -1.
         11    1    1    2    0    0 -0.49379779562E+02  0.59087477960E+02  0.18580431526E+03  0.20112915316E+03  0.00000000000E+00 0.  1.
<mgrwt>
<rscale>  0 0.17420457E+03</rscale>
<asrwt>0</asrwt>
<pdfrwt beam="1">  1        2 0.33208384E+00 0.17986269E+03</pdfrwt>
<pdfrwt beam="2">  1       -2 0.24204835E-02 0.17986269E+03</pdfrwt>
<totfact> 0.35759372E+03</totfact>
</mgrwt>
</event>
<event>
 7    1  0.8165933E-006  0.1367439E+03  0.7546771E-02  0.1229453E+00
         -1   -1    0    0    0  501 -0.00000000000E+00  0.00000000000E+00  0.30250496691E+02  0.30250496691E+02  0.00000000000E+00 0.  1.
          1   -1    0    0  501    0  0.00000000000E+00 -0.00000000000E+00 -0.49290964574E+03  0.49290964574E+03  0.00000000000E+00 0. -1.
         23    2    1    2    0    0 -0.52656413712E+02  0.17280149038E+02 -0.27217649077E+03  0.30459634105E+03  0.12501034915E+03 0.  0.
          5    1    3    3  502    0 -0.28929029991E+02  0.60700026757E+02 -0.73205329556E+02  0.99511267201E+02  0.47000000000E+01 0.  1.
         -5    1    3    3    0  502 -0.23727383720E+02 -0.43419877719E+02 -0.19897116122E+03  0.20508507385E+03  0.47000000000E+01 0.  1.
        -11    1    1    2    0    0  0.15636669995E+02  0.36878133808E+02 -0.55067207514E+02  0.68094783538E+02  0.00000000000E+00 0.  1.
         11    1    1    2    0    0  0.37019743716E+02 -0.54158282846E+02 -0.13541545076E+03  0.15046901785E+03  0.00000000000E+00 0. -1.
<mgrwt>
<rscale>  0 0.12866320E+03</rscale>
<asrwt>0</asrwt>
<pdfrwt beam="2">  1        1 0.75832261E-01 0.13674388E+03</pdfrwt>
<pdfrwt beam="1">  1       -1 0.46539221E-02 0.13674388E+03</pdfrwt>
<totfact> 0.86178331E+03</totfact>
</mgrwt>
</event>
<event>
 7    1  0.8165933E-006  0.1317772E+03  0.7546771E-02  0.1238114E+00
         -1   -1    0    0    0  501 -0.00000000000E+00  0.00000000000E+00  0.48666623798E+02  0.48666623798E+02  0.00000000000E+00 0.  1.
          1   -1    0    0  501    0  0.00000000000E+00 -0.00000000000E+00 -0.28950269078E+03  0.28950269078E+03  0.00000000000E+00 0. -1.
         23    2    1    2    0    0 -0.27470426075E+02  0.31416417256E+02 -0.17146548177E+03  0.21625364977E+03  0.12499445596E+03 0.  0.
          5    1    3    3  502    0 -0.61065714331E+02  0.52823829367E+02 -0.69343815552E+02  0.10653653444E+03  0.47000000000E+01 0.  1.
         -5    1    3    3    0  502  0.33595288255E+02 -0.21407412111E+02 -0.10212166621E+03  0.10971711533E+03  0.47000000000E+01 0.  1.
        -11    1    1    2    0    0 -0.23934884943E+02 -0.39636538422E+02 -0.44506264967E+02  0.64224150572E+02  0.00000000000E+00 0. -1.
         11    1    1    2    0    0  0.51405311019E+02  0.82201211664E+01 -0.24864320249E+02  0.57691514232E+02  0.00000000000E+00 0.  1.
<mgrwt>
<rscale>  0 0.12307141E+03</rscale>
<asrwt>0</asrwt>
<pdfrwt beam="2">  1        1 0.44538876E-01 0.13177720E+03</pdfrwt>
<pdfrwt beam="1">  1       -1 0.74871729E-02 0.13177720E+03</pdfrwt>
<totfact> 0.82751936E+03</totfact>
</mgrwt>
</event>
<event>
 7    1  0.8165933E-006  0.1542616E+03  0.7546771E-02  0.1203362E+00
          2   -1    0    0  501    0  0.00000000000E+00  0.00000000000E+00  0.34735054809E+03  0.34735054809E+03  0.00000000000E+00 0. -1.
         -2   -1    0    0    0  501 -0.00000000000E+00 -0.00000000000E+00 -0.58589620524E+02  0.58589620524E+02  0.00000000000E+00 0.  1.
         23    2    1    2    0    0 -0.21335711810E+01  0.90365022802E+02  0.13608213678E+03  0.20570608557E+03  0.12500502477E+03 0.  0.
          5    1    3    3  502    0  0.44584764770E+02  0.59040367157E+02  0.12904788151E+03  0.14882544112E+03  0.47000000000E+01 0. -1.
         -5    1    3    3    0  502 -0.46718335951E+02  0.31324655645E+02  0.70342552683E+01  0.56880644445E+02  0.47000000000E+01 0. -1.
        -11    1    1    2    0    0 -0.16006167453E+02 -0.75042813201E+02  0.15822618848E+03  0.17584978798E+03  0.00000000000E+00 0. -1.
         11    1    1    2    0    0  0.18139738634E+02 -0.15322209601E+02 -0.55473976946E+01  0.24384295068E+02  0.00000000000E+00 0.  1.
<mgrwt>
<rscale>  0 0.14767320E+03</rscale>
<asrwt>0</asrwt>
<pdfrwt beam="1">  1        2 0.53438545E-01 0.15426161E+03</pdfrwt>
<pdfrwt beam="2">  1       -2 0.90137880E-02 0.15426161E+03</pdfrwt>
<totfact> 0.70183104E+03</totfact>
</mgrwt>
</event>
<event>
 7    1  0.8165933E-006  0.1915773E+03  0.7546771E-02  0.1161711E+00
         -2   -1    0    0    0  501 -0.00000000000E+00  0.00000000000E+00  0.70801439254E+02  0.70801439254E+02  0.00000000000E+00 0.  1.
          2   -1    0    0  501    0  0.00000000000E+00 -0.00000000000E+00 -0.56580891783E+03  0.56580891783E+03  0.00000000000E+00 0. -1.
         23    2    1    2    0    0 -0.52479161596E+02 -0.13536270150E+03 -0.39186874235E+03  0.43619142500E+03  0.12499889862E+03 0.  0.
          5    1    3    3  502    0 -0.38665332432E+02 -0.18054433172E+02 -0.23963407559E+03  0.24344927741E+03  0.47000000000E+01 0. -1.
         -5    1    3    3    0  502 -0.13813829164E+02 -0.11730826833E+03 -0.15223466676E+03  0.19274214759E+03  0.47000000000E+01 0. -1.
        -11    1    1    2    0    0 -0.24769320410E+02  0.43011682316E+02 -0.17337674284E+02  0.52574889432E+02  0.00000000000E+00 0. -1.
         11    1    1    2    0    0  0.77248482005E+02  0.92351019183E+02 -0.85801061942E+02  0.14784404265E+03  0.00000000000E+00 0.  1.
<mgrwt>
<rscale>  0 0.18644090E+03</rscale>
<asrwt>0</asrwt>
<pdfrwt beam="2">  1        2 0.87047527E-01 0.19157726E+03</pdfrwt>
<pdfrwt beam="1">  1       -2 0.10892529E-01 0.19157726E+03</pdfrwt>
<totfact> 0.30838692E+03</totfact>
</mgrwt>
</event>
<event>
 7    1  0.8165933E-006  0.1815023E+03  0.7546771E-02  0.1171693E+00
         -2   -1    0    0    0  501 -0.00000000000E+00  0.00000000000E+00  0.73369106341E+02  0.73369106341E+02  0.00000000000E+00 0. -1.
          2   -1    0    0  501    0  0.00000000000E+00 -0.00000000000E+00 -0.40341581031E+03  0.40341581031E+03  0.00000000000E+00 0.  1.
         23    2    1    2    0    0  0.12323830469E+03  0.46101385531E+02 -0.20039872163E+03  0.27037517872E+03  0.12502028696E+03 0.  0.
          5    1    3    3  502    0  0.32161156071E+02  0.77944294349E+02 -0.10305470748E+03  0.13323669057E+03  0.47000000000E+01 0.  1.
         -5    1    3    3    0  502  0.91077148614E+02 -0.31842908817E+02 -0.97344014146E+02  0.13713848815E+03  0.47000000000E+01 0.  1.
        -11    1    1    2    0    0 -0.85421161367E+02 -0.26154829783E+02 -0.13647366644E+03  0.16311318636E+03  0.00000000000E+00 0.  1.
         11    1    1    2    0    0 -0.37817143318E+02 -0.19946555749E+02  0.68256840979E+01  0.43296551576E+02  0.00000000000E+00 0. -1.
<mgrwt>
<rscale>  0 0.17603802E+03</rscale>
<asrwt>0</asrwt>
<pdfrwt beam="2">  1        2 0.62063969E-01 0.18150231E+03</pdfrwt>
<pdfrwt beam="1">  1       -2 0.11287555E-01 0.18150231E+03</pdfrwt>
<totfact> 0.42250646E+03</totfact>
</mgrwt>
</event>
<event>
 7    1  0.8165933E-006  0.1591599E+03  0.7546771E-02  0.1197600E+00
         -1   -1    0    0    0  501 -0.00000000000E+00  0.00000000000E+00  0.21188837251E+02  0.21188837251E+02  0.00000000000E+00 0.  1.
          1   -1    0    0  501    0  0.00000000000E+00 -0.00000000000E+00 -0.14984840372E+04  0.14984840372E+04  0.00000000000E+00 0. -1.
         23    2    1    2    0    0 -0.95956264220E+02 -0.22326215365E+02 -0.12140421870E+04  0.12244306105E+04  0.12500329364E+03 0.  0.
          5    1    3    3  502    0 -0.83528419328E+02  0.25913793281E+02 -0.10297122832E+04  0.10334302094E+04  0.47000000000E+01 0.  1.
         -5    1    3    3    0  502 -0.12427844893E+02 -0.48240008646E+02 -0.18432990380E+03  0.19100040104E+03  0.47000000000E+01 0.  1.
        -11    1    1    2    0    0  0.42855822414E+02 -0.64085830892E+01 -0.21097103487E+03  0.21537518196E+03  0.00000000000E+00 0. -1.
         11    1    1    2    0    0  0.53100441806E+02  0.28734798454E+02 -0.52281978054E+02  0.79867082026E+02  0.00000000000E+00 0.  1.
<mgrwt>
<rscale>  0 0.15236257E+03</rscale>
<asrwt>0</asrwt>
<pdfrwt beam="2">  1        1 0.23053614E+00 0.15915994E+03</pdfrwt>
<pdfrwt beam="1">  1       -1 0.32598192E-02 0.15915994E+03</pdfrwt>
<totfact> 0.23858610E+03</totfact>
</mgrwt>
</event>
<event>
 7    1  0.8165933E-006  0.1953387E+03  0.7546771E-02  0.1158166E+00
          2   -1    0    0  501    0  0.00000000000E+00  0.00000000000E+00  0.19886299256E+04  0.19886299256E+04  0.00000000000E+00 0. -1.
         -2   -1    0    0    0  501 -0.00000000000E+00 -0.00000000000E+00 -0.17738623960E+02  0.17738623960E+02  0.00000000000E+00 0.  1.
         23    2    1    2    0    0 -0.13180295415E+03 -0.71890068056E+02  0.11856485206E+04  0.12016320605E+04  0.12496797106E+03 0.  0.
          5    1    3    3  502    0  0.10885438013E+02 -0.43242135268E+02  0.40907343619E+03  0.41152343946E+03  0.47000000000E+01 0.  1.
         -5    1    3    3    0  502 -0.14268839216E+03 -0.28647932788E+02  0.77657508441E+03  0.79010862104E+03  0.47000000000E+01 0.  1.
        -11    1    1    2    0    0  0.13646635997E+02  0.38997021126E+02  0.93742030986E+02  0.10244299246E+03  0.00000000000E+00 0.  1.
         11    1    1    2    0    0  0.11815631815E+03  0.32893046930E+02  0.69150075007E+03  0.70229349663E+03  0.00000000000E+00 0. -1.
<mgrwt>
<rscale>  0 0.19032766E+03</rscale>
<asrwt>0</asrwt>
<pdfrwt beam="1">  1        2 0.30594289E+00 0.19533867E+03</pdfrwt>
<pdfrwt beam="2">  1       -2 0.27290206E-02 0.19533867E+03</pdfrwt>
<totfact> 0.36730104E+03</totfact>
</mgrwt>
</event>
<event>
 7    1  0.8165933E-006  0.1498095E+03  0.7546771E-02  0.1209887E+00
         -1   -1    0    0    0  501 -0.00000000000E+00  0.00000000000E+00  0.16678732088E+02  0.16678732088E+02  0.00000000000E+00 0.  1.
          1   -1    0    0  501    0  0.00000000000E+00 -0.00000000000E+00 -0.13564731569E+04  0.13564731569E+04  0.00000000000E+00 0. -1.
         23    2    1    2    0    0 -0.52585292538E+02  0.63698742511E+02 -0.10125580449E+04  0.10235803306E+04  0.12498062256E+03 0.  0.
          5    1    3    3  502    0 -0.76614928323E+02  0.41418148357E+01 -0.37625208099E+03  0.38402437465E+03  0.47000000000E+01 0.  1.
         -5    1    3    3    0  502  0.24029635785E+02  0.59556927676E+02 -0.63630596395E+03  0.63955595595E+03  0.47000000000E+01 0.  1.
        -11    1    1    2    0    0  0.76281641835E+02 -0.32773622202E+02 -0.20138648029E+03  0.21782909272E+03  0.00000000000E+00 0.  1.
         11    1    1    2    0    0 -0.23696349297E+02 -0.30925120309E+02 -0.12584989956E+03  0.13174246565E+03  0.00000000000E+00 0. -1.
<mgrwt>
<rscale>  0 0.14258915E+03</rscale>
<asrwt>0</asrwt>
<pdfrwt beam="2">  1        1 0.20868816E+00 0.14980954E+03</pdfrwt>
<pdfrwt beam="1">  1       -1 0.25659590E-02 0.14980954E+03</pdfrwt>
<totfact> 0.41906868E+03</totfact>
</mgrwt>
</event>
<event>
 7    1  0.8165933E-006  0.1485264E+03  0.7546771E-02  0.1212090E+00
         -2   -1    0    0    0  501 -0.00000000000E+00  0.00000000000E+00  0.17146262643E+03  0.17146262643E+03  0.00000000000E+00 0.  1.
          2   -1    0    0  501    0  0.00000000000E+00 -0.00000000000E+00 -0.14695128334E+03  0.14695128334E+03  0.00000000000E+00 0. -1.
         23    2    1    2    0    0  0.44060821868E+02  0.67090893958E+02 -0.71119754369E+02  0.16467580731E+03  0.12497022836E+03 0.  0.
          5    1    3    3  502    0 -0.32967921524E+02  0.57039074817E+02 -0.12443512851E+02  0.67210645866E+02  0.47000000000E+01 0.  1.
         -5    1    3    3    0  502  0.77028743392E+02  0.10051819140E+02 -0.58676241518E+02  0.97465161443E+02  0.47000000000E+01 0.  1.
        -11    1    1    2    0    0  0.23353178272E+02 -0.42601611243E+02  0.41162592772E+02  0.63675955113E+02  0.00000000000E+00 0. -1.
         11    1    1    2    0    0 -0.67414000140E+02 -0.24489282715E+02  0.54468504690E+02  0.90062147354E+02  0.00000000000E+00 0.  1.
<mgrwt>
<rscale>  0 0.14092457E+03</rscale>
<asrwt>0</asrwt>
<pdfrwt beam="2">  1        2 0.22607890E-01 0.14852644E+03</pdfrwt>
<pdfrwt beam="1">  1       -2 0.26378866E-01 0.14852644E+03</pdfrwt>
<totfact> 0.30168571E+03</totfact>
</mgrwt>
</event>
<event>
 6    1  0.8165933E-006  0.1551449E+03  0.7546771E-02  0.1217312E+00
         -1   -1    0    0    0  501 -0.00000000000E+00  0.00000000000E+00  0.14881004593E+03  0.14881004593E+03  0.00000000000E+00 0.  1.
          1   -1    0    0  501    0  0.00000000000E+00 -0.00000000000E+00 -0.10762991346E+03  0.10762991346E+03  0.00000000000E+00 0. -1.
          5    1    1    2  502    0 -0.34948005881E+01  0.79982687816E+02 -0.24782845631E+02  0.83938807586E+02  0.47000000000E+01 0. -1.
         -5    1    1    2    0  502 -0.86762236606E+01 -0.63973510598E+02  0.29870034721E+02  0.71289521597E+02  0.47000000000E+01 0.  1.
        -11    1    1    2    0    0 -0.10427607508E+02  0.31922706012E+02 -0.52622983232E+01  0.33992439470E+02  0.00000000000E+00 0. -1.
         11    1    1    2    0    0  0.22598631756E+02 -0.47931883230E+02  0.41355241705E+02  0.67219190740E+02  0.00000000000E+00 0.  1.
<mgrwt>
<rscale>  0 0.13708093E+03</rscale>
<asrwt>0</asrwt>
<pdfrwt beam="2">  1        1 0.16558448E-01 0.15514495E+03</pdfrwt>
<pdfrwt beam="1">  1       -1 0.22893853E-01 0.15514495E+03</pdfrwt>
<totfact> 0.50756167E+03</totfact>
</mgrwt>
</event>
<event>
 7    1  0.8165933E-006  0.2103692E+03  0.7546771E-02  0.1143232E+00
         -1   -1    0    0    0  501 -0.00000000000E+00  0.00000000000E+00  0.14304402441E+03  0.14304402441E+03  0.00000000000E+00 0.  1.
          1   -1    0    0  501    0  0.00000000000E+00 -0.00000000000E+00 -0.31256670812E+03  0.31256670812E+03  0.00000000000E+00 0. -1.
         23    2    1    2    0    0  0.16873034731E+03 -0.12694288627E+02 -0.14013380151E+03  0.25277001916E+03  0.12499650073E+03 0.  0.
          5    1    3    3  502    0  0.18079446927E+02 -0.51377178817E+02 -0.33175209445E+02  0.63946582599E+02  0.47000000000E+01 0.  1.
         -5    1    3    3    0  502  0.15065090038E+03  0.38682890189E+02 -0.10695859207E+03  0.18882343657E+03  0.47000000000E+01 0.  1.
        -11    1    1    2    0    0 -0.64330983066E+02  0.31066452194E+02  0.34224700862E+02  0.79214455646E+02  0.00000000000E+00 0.  1.
         11    1    1    2    0    0 -0.10439936424E+03 -0.18372163567E+02 -0.63613583058E+02  0.12362625772E+03  0.00000000000E+00 0. -1.
<mgrwt>
<rscale>  0 0.20790918E+03</rscale>
<asrwt>0</asrwt>
<pdfrwt beam="2">  1        1 0.48087186E-01 0.21036920E+03</pdfrwt>
<pdfrwt beam="1">  1       -1 0.22006773E-01 0.21036920E+03</pdfrwt>
<totfact> 0.14254369E+03</totfact>
</mgrwt>
</event>
<event>
 7    1  0.8165933E-006  0.1292038E+03  0.7546771E-02  0.1239878E+00
          1   -1    0    0  501    0  0.00000000000E+00  0.00000000000E+00  0.31289619402E+03  0.31289619402E+03  0.00000000000E+00 0. -1.
         -1   -1    0    0    0  501 -0.00000000000E+00 -0.00000000000E+00 -0.44281609603E+02  0.44281609603E+02  0.00000000000E+00 0.  1.
         23    2    1    2    0    0  0.32658470395E+02 -0.15679344693E+01  0.18014384843E+03  0.22168769508E+03  0.12499837565E+03 0.  0.
          5    1    3    3  502    0  0.24455432786E+01 -0.37647385250E+02  0.16883326858E+03  0.17306088200E+03  0.47000000000E+01 0. -1.
         -5    1    3    3    0  502  0.30212927117E+02  0.36079450780E+02  0.11310579843E+02  0.48626813076E+02  0.47000000000E+01 0. -1.
        -11    1    1    2    0    0 -0.46813626709E+02  0.31238170709E+02  0.85663355605E+02  0.10249658262E+03  0.00000000000E+00 0. -1.
         11    1    1    2    0    0  0.14155156314E+02 -0.29670236239E+02  0.28073803886E+01  0.32993525932E+02  0.00000000000E+00 0.  1.
<mgrwt>
<rscale>  0 0.12197270E+03</rscale>
<asrwt>0</asrwt>
<pdfrwt beam="1">  1        1 0.48137875E-01 0.12920382E+03</pdfrwt>
<pdfrwt beam="2">  1       -1 0.68125555E-02 0.12920382E+03</pdfrwt>
<totfact> 0.86476353E+03</totfact>
</mgrwt>
</event>
<event>
 7    1  0.8165933E-006  0.1496041E+03  0.7546771E-02  0.1209537E+00
         -2   -1    0    0    0  501 -0.00000000000E+00  0.00000000000E+00  0.16482969633E+02  0.16482969633E+02  0.00000000000E+00 0.  1.
          2   -1    0    0  501    0  0.00000000000E+00 -0.00000000000E+00 -0.13138446067E+04  0.13138446067E+04  0.00000000000E+00 0. -1.
         23    2    1    2    0    0 -0.51804286686E+02  0.63839037393E+02 -0.94247030931E+03  0.95427023465E+03  0.12498915951E+03 0.  0.
          5    1    3    3  502    0 -0.15751567390E+02  0.45439438479E+02 -0.86830067487E+03  0.86964418381E+03  0.47000000000E+01 0. -1.
         -5    1    3    3    0  502 -0.36052719296E+02  0.18399598914E+02 -0.74169634439E+02  0.84626050845E+02  0.47000000000E+01 0. -1.
        -11    1    1    2    0    0  0.62507392054E+02 -0.65269037233E+02 -0.35385093551E+03  0.36520912618E+03  0.00000000000E+00 0. -1.
         11    1    1    2    0    0 -0.10703105368E+02  0.14299998395E+01 -0.10403922695E+01  0.10848215527E+02  0.00000000000E+00 0.  1.
<mgrwt>
<rscale>  0 0.14285598E+03</rscale>
<asrwt>0</asrwt>
<pdfrwt beam="2">  1        2 0.20212997E+00 0.14960413E+03</pdfrwt>
<pdfrwt beam="1">  1       -2 0.25358411E-02 0.14960413E+03</pdfrwt>
<totfact> 0.91626019E+03</totfact>
</mgrwt>
</event>
<event>
 7    1  0.8165933E-006  0.1426410E+03  0.7546771E-02  0.1225600E+00
         -1   -1    0    0    0  501 -0.00000000000E+00  0.00000000000E+00  0.38610270411E+02  0.38610270411E+02  0.00000000000E+00 0.  1.
          1   -1    0    0  501    0  0.00000000000E+00 -0.00000000000E+00 -0.43536464239E+03  0.43536464239E+03  0.00000000000E+00 0. -1.
         23    2    1    2    0    0 -0.51427211131E+02  0.45632497192E+02 -0.30443029280E+03  0.33619080075E+03  0.12497747193E+03 0.  0.
          5    1    3    3  502    0 -0.24388775990E+02  0.87473249339E+02 -0.21992419458E+03  0.23798135033E+03  0.47000000000E+01 0.  1.
         -5    1    3    3    0  502 -0.27038435140E+02 -0.41840752147E+02 -0.84506098218E+02  0.98209450417E+02  0.47000000000E+01 0.  1.
        -11    1    1    2    0    0  0.58210633219E+02 -0.12666175156E+02 -0.29418713182E+02  0.66440729211E+02  0.00000000000E+00 0.  1.
         11    1    1    2    0    0 -0.67834220881E+01 -0.32966322037E+02 -0.62905366000E+02  0.71343382843E+02  0.00000000000E+00 0. -1.
<mgrwt>
<rscale>  0 0.13125882E+03</rscale>
<asrwt>0</asrwt>
<pdfrwt beam="2">  1        1 0.66979176E-01 0.14264099E+03</pdfrwt>
<pdfrwt beam="1">  1       -1 0.59400416E-02 0.14264099E+03</pdfrwt>
<totfact> 0.70602517E+03</totfact>
</mgrwt>
</event>
<event>
 7    1  0.8165933E-006  0.1373672E+03  0.7546771E-02  0.1230768E+00
          1   -1    0    0  501    0  0.00000000000E+00  0.00000000000E+00  0.38835261629E+03  0.38835261629E+03  0.00000000000E+00 0. -1.
         -1   -1    0    0    0  501 -0.00000000000E+00 -0.00000000000E+00 -0.38768499015E+02  0.38768499015E+02  0.00000000000E+00 0.  1.
         23    2    1    2    0    0 -0.52865503508E+02 -0.21214134099E+02  0.24191121364E+03  0.27819197540E+03  0.12499975580E+03 0.  0.
          5    1    3    3  502    0 -0.50227089151E+01  0.44339747192E+02  0.14455697700E+03  0.15136066327E+03  0.47000000000E+01 0. -1.
         -5    1    3    3    0  502 -0.47842794593E+02 -0.65553881291E+02  0.97354236636E+02  0.12683131213E+03  0.47000000000E+01 0. -1.
        -11    1    1    2    0    0  0.15986966332E+02  0.34187782556E+02  0.10282890736E+03  0.10953616643E+03  0.00000000000E+00 0. -1.
         11    1    1    2    0    0  0.36878537176E+02 -0.12973648457E+02  0.48439962797E+01  0.39392973466E+02  0.00000000000E+00 0.  1.
<mgrwt>
<rscale>  0 0.12779267E+03</rscale>
<asrwt>0</asrwt>
<pdfrwt beam="1">  1        1 0.59746554E-01 0.13736717E+03</pdfrwt>
<pdfrwt beam="2">  1       -1 0.59643847E-02 0.13736717E+03</pdfrwt>
<totfact> 0.80904855E+03</totfact>
</mgrwt>
</event>
<event>
 7    1  0.8165933E-006  0.1337530E+03  0.7546771E-02  0.1238220E+00
         -2   -1    0    0    0  501 -0.00000000000E+00  0.00000000000E+00  0.24077659307E+03  0.24077659307E+03  0.00000000000E+00 0.  1.
          2   -1    0    0  501    0  0.00000000000E+00 -0.00000000000E+00 -0.65224452046E+02  0.65224452046E+02  0.00000000000E+00 0. -1.
         23    2    1    2    0    0 -0.46549857307E+02  0.98070168035E+01  0.39100062628E+02  0.13935093003E+03  0.12500719983E+03 0.  0.
          5    1    3    3  502    0 -0.11973707851E+01 -0.31959454298E+02  0.64779674112E+02  0.72397075866E+02  0.47000000000E+01 0. -1.
         -5    1    3    3    0  502 -0.45352486522E+02  0.41766471101E+02 -0.25679611484E+02  0.66953854168E+02  0.47000000000E+01 0. -1.
        -11    1    1    2    0    0  0.90372194036E+01  0.51046414096E+01 -0.10194798335E+02  0.14548629198E+02  0.00000000000E+00 0. -1.
         11    1    1    2    0    0  0.37512637904E+02 -0.14911658213E+02  0.14664687673E+03  0.15210148588E+03  0.00000000000E+00 0.  1.
<mgrwt>
<rscale>  0 0.12300525E+03</rscale>
<asrwt>0</asrwt>
<pdfrwt beam="2">  1        2 0.10034531E-01 0.13375301E+03</pdfrwt>
<pdfrwt beam="1">  1       -2 0.37042552E-01 0.13375301E+03</pdfrwt>
<totfact> 0.41965631E+03</totfact>
</mgrwt>
</event>
<event>
 7    1  0.8165933E-006  0.1269830E+03  0.7546771E-02  0.1246354E+00
          2   -1    0    0  501    0  0.00000000000E+00  0.00000000000E+00  0.12309166263E+03  0.12309166263E+03  0.00000000000E+00 0. -1.
         -2   -1    0    0    0  501 -0.00000000000E+00 -0.00000000000E+00 -0.11324301527E+03  0.11324301527E+03  0.00000000000E+00 0.  1.
         23    2    1    2    0    0 -0.11313528414E+02 -0.21406263643E+02  0.45686649281E+02  0.13495169247E+03  0.12465338074E+03 0.  0.
          5    1    3    3  502    0 -0.15159188278E+02 -0.30975693898E+02 -0.37403496962E+02  0.51092134294E+02  0.47000000000E+01 0.  1.
         -5    1    3    3    0  502  0.38456598634E+01  0.95694302557E+01  0.83090146243E+02  0.83859558178E+02  0.47000000000E+01 0.  1.
        -11    1    1    2    0    0  0.23559308802E+02  0.46495886894E+01  0.26452052438E+02  0.35726331807E+02  0.00000000000E+00 0. -1.
         11    1    1    2    0    0 -0.12245780388E+02  0.16756674953E+02 -0.62290054358E+02  0.65656653621E+02  0.00000000000E+00 0.  1.
<mgrwt>
<rscale>  0 0.11804681E+03</rscale>
<asrwt>0</asrwt>
<pdfrwt beam="1">  1        2 0.18937179E-01 0.12698303E+03</pdfrwt>
<pdfrwt beam="2">  1       -2 0.17422002E-01 0.12698303E+03</pdfrwt>
<totfact> 0.74128443E+03</totfact>
</mgrwt>
</event>
<event>
 6    1  0.8165933E-006  0.3267362E+03  0.7546771E-02  0.1119223E+00
          2   -1    0    0  501    0  0.00000000000E+00  0.00000000000E+00  0.99350111454E+03  0.99350111454E+03  0.00000000000E+00 0. -1.
         -2   -1    0    0    0  501 -0.00000000000E+00 -0.00000000000E+00 -0.64329298250E+02  0.64329298250E+02  0.00000000000E+00 0.  1.
          5    1    1    2  502    0  0.41440702514E+01 -0.16896891089E+03  0.63721039457E+03  0.65926234772E+03  0.47000000000E+01 0. -1.
         -5    1    1    2    0  502 -0.36189372023E+01  0.14075813407E+03  0.26211126792E+03  0.29757411814E+03  0.47000000000E+01 0.  1.
        -11    1    1    2    0    0 -0.52875402896E+01  0.39171008760E+02 -0.23726534089E+02  0.46100698796E+02  0.00000000000E+00 0.  1.
         11    1    1    2    0    0  0.47624072405E+01 -0.10960231943E+02  0.53576687876E+02  0.54893248134E+02  0.00000000000E+00 0. -1.
<mgrwt>
<rscale>  0 0.24085706E+03</rscale>
<asrwt>0</asrwt>
<pdfrwt beam="1">  1        2 0.15284631E+00 0.32673624E+03</pdfrwt>
<pdfrwt beam="2">  1       -2 0.98968158E-02 0.32673624E+03</pdfrwt>
<totfact> 0.17878096E+03</totfact>
</mgrwt>
</event>
<event>
 7    1  0.8165933E-006  0.1328001E+03  0.7546771E-02  0.1236454E+00
         -2   -1    0    0    0  501 -0.00000000000E+00  0.00000000000E+00  0.40932273753E+02  0.40932273753E+02  0.00000000000E+00 0.  1.
          2   -1    0    0  501    0  0.00000000000E+00 -0.00000000000E+00 -0.34152322691E+03  0.34152322691E+03  0.00000000000E+00 0. -1.
         23    2    1    2    0    0 -0.40006877328E+02 -0.20134886400E+02 -0.19667630378E+03  0.23731294381E+03  0.12501960225E+03 0.  0.
          5    1    3    3  502    0 -0.37914208034E+02 -0.57562913291E+02 -0.18544907324E+03  0.19790003771E+03  0.47000000000E+01 0.  1.
         -5    1    3    3    0  502 -0.20926692937E+01  0.37428026891E+02 -0.11227230535E+02  0.39412906100E+02  0.47000000000E+01 0.  1.
        -11    1    1    2    0    0  0.64691246665E+02  0.14491493145E+02 -0.99312330413E+02  0.11940644765E+03  0.00000000000E+00 0. -1.
         11    1    1    2    0    0 -0.24684369337E+02  0.56433932554E+01 -0.46023189620E+01  0.25736109201E+02  0.00000000000E+00 0.  1.
<mgrwt>
<rscale>  0 0.12411809E+03</rscale>
<asrwt>0</asrwt>
<pdfrwt beam="2">  1        2 0.52542035E-01 0.13280009E+03</pdfrwt>
<pdfrwt beam="1">  1       -2 0.62972728E-02 0.13280009E+03</pdfrwt>
<totfact> 0.12286595E+04</totfact>
</mgrwt>
</event>
<event>
 7    1  0.8165933E-006  0.1468724E+03  0.7546771E-02  0.1214533E+00
         -2   -1    0    0    0  501 -0.00000000000E+00  0.00000000000E+00  0.24008928937E+03  0.24008928937E+03  0.00000000000E+00 0.  1.
          2   -1    0    0  501    0  0.00000000000E+00 -0.00000000000E+00 -0.73316215422E+02  0.73316215422E+02  0.00000000000E+00 0. -1.
         23    2    1    2    0    0 -0.65984521663E+01 -0.76829737708E+02  0.99552844777E+02  0.17743241708E+03  0.12500058224E+03 0.  0.
          5    1    3    3  502    0  0.56399592950E+02 -0.32386009742E+02  0.67362361281E+02  0.93752575588E+02  0.47000000000E+01 0.  1.
         -5    1    3    3    0  502 -0.62998045117E+02 -0.44443727966E+02  0.32190483496E+02  0.83679841490E+02  0.47000000000E+01 0.  1.
        -11    1    1    2    0    0  0.21081318214E+02  0.65792228959E+02  0.85666194562E+02  0.11005333371E+03  0.00000000000E+00 0.  1.
         11    1    1    2    0    0 -0.14482866047E+02  0.11037508749E+02 -0.18445965395E+02  0.25919754005E+02  0.00000000000E+00 0. -1.
<mgrwt>
<rscale>  0 0.13910896E+03</rscale>
<asrwt>0</asrwt>
<pdfrwt beam="2">  1        2 0.11279418E-01 0.14687237E+03</pdfrwt>
<pdfrwt beam="1">  1       -2 0.36936814E-01 0.14687237E+03</pdfrwt>
<totfact> 0.36798344E+03</totfact>
</mgrwt>
</event>
<event>
 7    1  0.8165933E-006  0.1720093E+03  0.7546771E-02  0.1182380E+00
         -1   -1    0    0    0  501 -0.00000000000E+00  0.00000000000E+00  0.97634724780E+02  0.97634724780E+02  0.00000000000E+00 0.  1.
          1   -1    0    0  501    0  0.00000000000E+00 -0.00000000000E+00 -0.28106346418E+03  0.28106346418E+03  0.00000000000E+00 0. -1.
         23    2    1    2    0    0  0.88472334399E+02 -0.78314705352E+02 -0.14651803729E+03  0.22595291642E+03  0.12500655245E+03 0.  0.
          5    1    3    3  502    0  0.23022963604E+02  0.19073683244E+01  0.19261311767E+02  0.30443111503E+02  0.47000000000E+01 0.  1.
         -5    1    3    3    0  502  0.65449370795E+02 -0.80222073676E+02 -0.16577934906E+03  0.19550980491E+03  0.47000000000E+01 0.  1.
        -11    1    1    2    0    0 -0.31401894687E+02 -0.17992705122E+02 -0.11184211164E+02  0.37880113608E+02  0.00000000000E+00 0. -1.
         11    1    1    2    0    0 -0.57070439712E+02  0.96307410474E+02 -0.25726490942E+02  0.11486515894E+03  0.00000000000E+00 0.  1.
<mgrwt>
<rscale>  0 0.16572555E+03</rscale>
<asrwt>0</asrwt>
<pdfrwt beam="2">  1        1 0.43240533E-01 0.17200926E+03</pdfrwt>
<pdfrwt beam="1">  1       -1 0.15020727E-01 0.17200926E+03</pdfrwt>
<totfact> 0.29884547E+03</totfact>
</mgrwt>
</event>
<event>
 7    1  0.8165933E-006  0.2696710E+03  0.7546771E-02  0.1103585E+00
         -1   -1    0    0    0  501 -0.00000000000E+00  0.00000000000E+00  0.61022812399E+03  0.61022812399E+03  0.00000000000E+00 0.  1.
          1   -1    0    0  501    0  0.00000000000E+00 -0.00000000000E+00 -0.11577602417E+03  0.11577602417E+03  0.00000000000E+00 0. -1.
         23    2    1    2    0    0  0.22969007865E+03 -0.65876496162E+02  0.31084660725E+03  0.41151923774E+03  0.12500089926E+03 0.  0.
          5    1    3    3  502    0  0.55210254674E+02  0.26529503623E+02  0.12977150913E+03  0.14357827609E+03  0.47000000000E+01 0. -1.
         -5    1    3    3    0  502  0.17447982397E+03 -0.92405999784E+02  0.18107509812E+03  0.26794096165E+03  0.47000000000E+01 0. -1.
        -11    1    1    2    0    0 -0.12816870105E+03  0.87794840554E+01  0.51613949801E+02  0.13844961207E+03  0.00000000000E+00 0. -1.
         11    1    1    2    0    0 -0.10152137760E+03  0.57097012106E+02  0.13199154276E+03  0.17603529834E+03  0.00000000000E+00 0.  1.
<mgrwt>
<rscale>  0 0.26601013E+03</rscale>
<asrwt>0</asrwt>
<pdfrwt beam="2">  1        1 0.17811696E-01 0.26967104E+03</pdfrwt>
<pdfrwt beam="1">  1       -1 0.93881248E-01 0.26967104E+03</pdfrwt>
<totfact> 0.34547925E+02</totfact>
</mgrwt>
</event>
<event>
 7    1  0.8165933E-006  0.2218532E+03  0.7546771E-02  0.1135462E+00
          2   -1    0    0  501    0  0.00000000000E+00  0.00000000000E+00  0.61125906357E+03  0.61125906357E+03  0.00000000000E+00 0.  1.
         -2   -1    0    0    0  501 -0.00000000000E+00 -0.00000000000E+00 -0.80158986213E+02  0.80158986213E+02  0.00000000000E+00 0. -1.
         23    2    1    2    0    0 -0.15810360341E+03  0.92713457663E+02  0.36194951159E+03  0.42453068782E+03  0.12500528515E+03 0.  0.
          5    1    3    3  502    0 -0.45282812698E+02  0.51498366986E+02  0.37003319519E+02  0.78063759732E+02  0.47000000000E+01 0.  1.
         -5    1    3    3    0  502 -0.11282079072E+03  0.41215090677E+02  0.32494619207E+03  0.34646692809E+03  0.47000000000E+01 0.  1.
        -11    1    1    2    0    0  0.59235779781E+02 -0.87000661662E+02  0.10631441966E+03  0.14960196711E+03  0.00000000000E+00 0. -1.
         11    1    1    2    0    0  0.98867823633E+02 -0.57127960013E+01  0.62836146113E+02  0.11728539486E+03  0.00000000000E+00 0.  1.
<mgrwt>
<rscale>  0 0.21789492E+03</rscale>
<asrwt>0</asrwt>
<pdfrwt beam="1">  1        2 0.94039853E-01 0.22185323E+03</pdfrwt>
<pdfrwt beam="2">  1       -2 0.12332152E-01 0.22185323E+03</pdfrwt>
<totfact> 0.23200769E+03</totfact>
</mgrwt>
</event>
<event>
 7    1  0.8165933E-006  0.1356038E+03  0.7546771E-02  0.1232885E+00
         -2   -1    0    0    0  501 -0.00000000000E+00  0.00000000000E+00  0.22356207186E+02  0.22356207186E+02  0.00000000000E+00 0.  1.
          2   -1    0    0  501    0  0.00000000000E+00 -0.00000000000E+00 -0.13918543373E+04  0.13918543373E+04  0.00000000000E+00 0. -1.
         23    2    1    2    0    0 -0.58363557368E+01 -0.52242246382E+02 -0.12478839731E+04  0.12552301823E+04  0.12500033974E+03 0.  0.
          5    1    3    3  502    0  0.51627438209E+02 -0.36049754176E+02 -0.90140172587E+03  0.90361061224E+03  0.47000000000E+01 0.  1.
         -5    1    3    3    0  502 -0.57463793946E+02 -0.16192492206E+02 -0.34648224725E+03  0.35161957010E+03  0.47000000000E+01 0.  1.
        -11    1    1    2    0    0  0.14760764672E+02  0.45552668388E+01  0.10206868157E+02  0.18515150209E+02  0.00000000000E+00 0.  1.
         11    1    1    2    0    0 -0.89244089353E+01  0.47686979543E+02 -0.13182102518E+03  0.14046521196E+03  0.00000000000E+00 0. -1.
<mgrwt>
<rscale>  0 0.12640777E+03</rscale>
<asrwt>0</asrwt>
<pdfrwt beam="2">  1        2 0.21413148E+00 0.13560384E+03</pdfrwt>
<pdfrwt beam="1">  1       -2 0.34394159E-02 0.13560384E+03</pdfrwt>
<totfact> 0.52981127E+03</totfact>
</mgrwt>
</event>
<event>
 7    1  0.8165933E-006  0.1279212E+03  0.7546771E-02  0.1247200E+00
         -1   -1    0    0    0  501 -0.00000000000E+00  0.00000000000E+00  0.63151788182E+02  0.63151788182E+02  0.00000000000E+00 0.  1.
          1   -1    0    0  501    0  0.00000000000E+00 -0.00000000000E+00 -0.20253677600E+03  0.20253677600E+03  0.00000000000E+00 0. -1.
         23    2    1    2    0    0  0.10678717865E+02  0.10580920801E+01 -0.11316109275E+03  0.17079010570E+03  0.12747028171E+03 0.  0.
          5    1    3    3  502    0 -0.38497379947E+02 -0.43145158465E+02 -0.73145959715E+02  0.93359382948E+02  0.47000000000E+01 0. -1.
         -5    1    3    3    0  502  0.49176097812E+02  0.44203250545E+02 -0.40015133033E+02  0.77430722755E+02  0.47000000000E+01 0.  1.
        -11    1    1    2    0    0  0.29568228883E+02 -0.28961660708E+02 -0.18435798604E+02  0.45309343632E+02  0.00000000000E+00 0. -1.
         11    1    1    2    0    0 -0.40246946747E+02  0.27903568628E+02 -0.77880964644E+01  0.49589114846E+02  0.00000000000E+00 0.  1.
<mgrwt>
<rscale>  0 0.11754641E+03</rscale>
<asrwt>0</asrwt>
<pdfrwt beam="2">  1        1 0.31159504E-01 0.12792118E+03</pdfrwt>
<pdfrwt beam="1">  1       -1 0.97156598E-02 0.12792118E+03</pdfrwt>
<totfact> 0.86596437E+03</totfact>
</mgrwt>
</event>
<event>
 7    1  0.8165933E-006  0.1259657E+03  0.7546771E-02  0.1256045E+00
          3   -1    0    0  501    0  0.00000000000E+00  0.00000000000E+00  0.74048233928E+03  0.74048233928E+03  0.00000000000E+00 0. -1.
         -3   -1    0    0    0  501 -0.00000000000E+00 -0.00000000000E+00 -0.15296037076E+02  0.15296037076E+02  0.00000000000E+00 0.  1.
         23    2    1    2    0    0  0.15545214228E+02  0.55498754575E-01  0.53079760836E+03  0.54553959776E+03  0.12500277964E+03 0.  0.
          5    1    3    3  502    0 -0.93219725413E+01  0.54271401889E+02  0.36737209277E+03  0.37150589333E+03  0.47000000000E+01 0. -1.
         -5    1    3    3    0  502  0.24867186769E+02 -0.54215903135E+02  0.16342551559E+03  0.17403370442E+03  0.47000000000E+01 0. -1.
        -11    1    1    2    0    0  0.24947150884E+02  0.66420204757E+01  0.24957992466E+02  0.35907912236E+02  0.00000000000E+00 0.  1.
         11    1    1    2    0    0 -0.40492365112E+02 -0.66975192302E+01  0.16943070138E+03  0.17433086636E+03  0.00000000000E+00 0. -1.
<mgrwt>
<rscale>  0 0.11247993E+03</rscale>
<asrwt>0</asrwt>
<pdfrwt beam="1">  1        3 0.11392033E+00 0.12596568E+03</pdfrwt>
<pdfrwt beam="2">  1       -3 0.23532370E-02 0.12596568E+03</pdfrwt>
<totfact> 0.11342650E+03</totfact>
</mgrwt>
</event>
<event>
 7    1  0.8165933E-006  0.1864062E+03  0.7546771E-02  0.1167115E+00
         -2   -1    0    0    0  501 -0.00000000000E+00  0.00000000000E+00  0.11287108341E+03  0.11287108341E+03  0.00000000000E+00 0. -1.
          2   -1    0    0  501    0  0.00000000000E+00 -0.00000000000E+00 -0.27323410042E+03  0.27323410042E+03  0.00000000000E+00 0.  1.
         23    2    1    2    0    0  0.77990892965E+02 -0.11418908592E+03 -0.79221876869E+02  0.20254231491E+03  0.12500222728E+03 0.  0.
          5    1    3    3  502    0  0.52210729425E+00 -0.12328124127E+02 -0.73157584356E+02  0.74339608482E+02  0.47000000000E+01 0. -1.
         -5    1    3    3    0  502  0.77468785671E+02 -0.10186096179E+03 -0.60642925139E+01  0.12820270642E+03  0.47000000000E+01 0. -1.
        -11    1    1    2    0    0 -0.39288592722E+01  0.22988524179E+02  0.18298938837E+02  0.29643875281E+02  0.00000000000E+00 0. -1.
         11    1    1    2    0    0 -0.74062033693E+02  0.91200561742E+02 -0.99440078976E+02  0.15391899364E+03  0.00000000000E+00 0.  1.
<mgrwt>
<rscale>  0 0.18071300E+03</rscale>
<asrwt>0</asrwt>
<pdfrwt beam="2">  1        2 0.42036015E-01 0.18640623E+03</pdfrwt>
<pdfrwt beam="1">  1       -2 0.17364782E-01 0.18640623E+03</pdfrwt>
<totfact> 0.31781047E+03</totfact>
</mgrwt>
</event>
<event>
 7    1  0.8165933E-006  0.1574583E+03  0.7546771E-02  0.1199545E+00
         -2   -1    0    0    0  501 -0.00000000000E+00  0.00000000000E+00  0.45418808286E+02  0.45418808286E+02  0.00000000000E+00 0.  1.
          2   -1    0    0  501    0  0.00000000000E+00 -0.00000000000E+00 -0.48516611798E+03  0.48516611798E+03  0.00000000000E+00 0. -1.
         23    2    1    2    0    0 -0.84560752875E+02  0.44901862161E+02 -0.29556053140E+03  0.33488675083E+03  0.12500563992E+03 0.  0.
          5    1    3    3  502    0  0.13430237554E+02  0.86497282878E+01 -0.17286059286E+03  0.17366077175E+03  0.47000000000E+01 0.  1.
         -5    1    3    3    0  502 -0.97990990428E+02  0.36252133874E+02 -0.12269993854E+03  0.16122597909E+03  0.47000000000E+01 0.  1.
        -11    1    1    2    0    0  0.43684017745E+02 -0.21225173272E+02 -0.51311058797E+01  0.48837788999E+02  0.00000000000E+00 0.  1.
         11    1    1    2    0    0  0.40876735129E+02 -0.23676688889E+02 -0.13905567242E+03  0.14686038643E+03  0.00000000000E+00 0. -1.
<mgrwt>
<rscale>  0 0.15075736E+03</rscale>
<asrwt>0</asrwt>
<pdfrwt beam="2">  1        2 0.74640942E-01 0.15745827E+03</pdfrwt>
<pdfrwt beam="1">  1       -2 0.69875088E-02 0.15745827E+03</pdfrwt>
<totfact> 0.72696994E+03</totfact>
</mgrwt>
</event>
<event>
 6    1  0.8165933E-006  0.1579455E+03  0.7546771E-02  0.1206729E+00
         -1   -1    0    0    0  501 -0.00000000000E+00  0.00000000000E+00  0.97401475468E+02  0.97401475468E+02  0.00000000000E+00 0.  1.
          1   -1    0    0  501    0  0.00000000000E+00 -0.00000000000E+00 -0.18920109023E+03  0.18920109023E+03  0.00000000000E+00 0. -1.
          5    1    1    2  502    0  0.55104102524E+02 -0.43226032515E+02  0.56812621940E+01  0.70422430675E+02  0.47000000000E+01 0. -1.
         -5    1    1    2    0  502 -0.66138276953E+02 -0.22875185918E+02 -0.73107468166E+02  0.10131306782E+03  0.47000000000E+01 0.  1.
        -11    1    1    2    0    0 -0.31814047158E+02  0.37847400120E+02  0.13299537177E+02  0.51199970523E+02  0.00000000000E+00 0.  1.
         11    1    1    2    0    0  0.42848221586E+02  0.28253818314E+02 -0.37672945971E+02  0.63667096687E+02  0.00000000000E+00 0. -1.
<mgrwt>
<rscale>  0 0.14502018E+03</rscale>
<asrwt>0</asrwt>
<pdfrwt beam="2">  1        1 0.29107859E-01 0.15794552E+03</pdfrwt>
<pdfrwt beam="1">  1       -1 0.14984843E-01 0.15794552E+03</pdfrwt>
<totfact> 0.48921058E+03</totfact>
</mgrwt>
</event>
<event>
 7    1  0.8165933E-006  0.2394151E+03  0.7546771E-02  0.1123124E+00
         -2   -1    0    0    0  501 -0.00000000000E+00  0.00000000000E+00  0.91972748279E+02  0.91972748279E+02  0.00000000000E+00 0.  1.
          2   -1    0    0  501    0  0.00000000000E+00 -0.00000000000E+00 -0.58442103692E+03  0.58442103692E+03  0.00000000000E+00 0. -1.
         23    2    1    2    0    0  0.13720082885E+03  0.15119639160E+03 -0.22559519791E+03  0.32895711072E+03  0.12504067779E+03 0.  0.
          5    1    3    3  502    0  0.14847717385E+03  0.15876076658E+03 -0.18360253893E+03  0.28457412824E+03  0.47000000000E+01 0. -1.
         -5    1    3    3    0  502 -0.11276345003E+02 -0.75643749825E+01 -0.41992658980E+02  0.44382982479E+02  0.47000000000E+01 0. -1.
        -11    1    1    2    0    0 -0.72762498520E+02 -0.64617803643E+02 -0.60563574842E+02  0.11462019166E+03  0.00000000000E+00 0.  1.
         11    1    1    2    0    0 -0.64438330327E+02 -0.86578587958E+02 -0.20628951588E+03  0.23281648282E+03  0.00000000000E+00 0. -1.
<mgrwt>
<rscale>  0 0.23506671E+03</rscale>
<asrwt>0</asrwt>
<pdfrwt beam="2">  1        2 0.89910933E-01 0.23941509E+03</pdfrwt>
<pdfrwt beam="1">  1       -2 0.14149653E-01 0.23941509E+03</pdfrwt>
<totfact> 0.19559136E+03</totfact>
</mgrwt>
</event>
<event>
 6    1  0.8165933E-006  0.2319856E+03  0.7546771E-02  0.1158856E+00
          2   -1    0    0  501    0  0.00000000000E+00  0.00000000000E+00  0.19846699480E+03  0.19846699480E+03  0.00000000000E+00 0. -1.
         -2   -1    0    0    0  501 -0.00000000000E+00 -0.00000000000E+00 -0.19422175568E+03  0.19422175568E+03  0.00000000000E+00 0.  1.
          5    1    1    2  502    0 -0.18289113797E+02  0.94963600589E+02  0.70264607879E+02  0.11963186131E+03  0.47000000000E+01 0. -1.
         -5    1    1    2    0  502 -0.83013402452E+02 -0.99250915663E+02  0.28915285308E+02  0.13266556814E+03  0.47000000000E+01 0.  1.
        -11    1    1    2    0    0  0.40036174910E+02  0.47942317635E+01 -0.50920713498E+02  0.64952282660E+02  0.00000000000E+00 0. -1.
         11    1    1    2    0    0  0.61266341339E+02 -0.50691668991E+00 -0.44013940565E+02  0.75439038366E+02  0.00000000000E+00 0.  1.
<mgrwt>
<rscale>  0 0.18956331E+03</rscale>
<asrwt>0</asrwt>
<pdfrwt beam="1">  1        2 0.30533384E-01 0.23198565E+03</pdfrwt>
<pdfrwt beam="2">  1       -2 0.29880270E-01 0.23198565E+03</pdfrwt>
<totfact> 0.17606023E+03</totfact>
</mgrwt>
</event>
<event>
 7    1  0.8165933E-006  0.1211234E+03  0.7546771E-02  0.1249784E+00
         -1   -1    0    0    0  501 -0.00000000000E+00  0.00000000000E+00  0.30809199333E+02  0.30809199333E+02  0.00000000000E+00 0.  1.
          1   -1    0    0  501    0  0.00000000000E+00 -0.00000000000E+00 -0.41892903327E+03  0.41892903327E+03  0.00000000000E+00 0. -1.
         23    2    1    2    0    0 -0.43596355753E+02 -0.25514640741E+01 -0.16784232197E+03  0.20698293409E+03  0.11297671335E+03 0.  0.
          5    1    3    3  502    0  0.17678881254E+02  0.41124462006E+02 -0.52090724840E+02  0.68842558291E+02  0.47000000000E+01 0. -1.
         -5    1    3    3    0  502 -0.61275237007E+02 -0.43675926080E+02 -0.11575159713E+03  0.13814037580E+03  0.47000000000E+01 0.  1.
        -11    1    1    2    0    0 -0.83086844173E+01  0.38111375642E+02 -0.89442129924E+02  0.97577691075E+02  0.00000000000E+00 0.  1.
         11    1    1    2    0    0  0.51905040170E+02 -0.35559911568E+02 -0.13083538204E+03  0.14517760743E+03  0.00000000000E+00 0. -1.
<mgrwt>
<rscale>  0 0.11603576E+03</rscale>
<asrwt>0</asrwt>
<pdfrwt beam="2">  1        1 0.64450615E-01 0.12112345E+03</pdfrwt>
<pdfrwt beam="1">  1       -1 0.47398772E-02 0.12112345E+03</pdfrwt>
<totfact> 0.10241514E+04</totfact>
</mgrwt>
</event>
<event>
 7    1  0.8165933E-006  0.2075526E+03  0.7546771E-02  0.1147546E+00
         -1   -1    0    0    0  501 -0.00000000000E+00  0.00000000000E+00  0.31674275591E+02  0.31674275591E+02  0.00000000000E+00 0.  1.
          1   -1    0    0  501    0  0.00000000000E+00 -0.00000000000E+00 -0.12745254746E+04  0.12745254746E+04  0.00000000000E+00 0. -1.
         23    2    1    2    0    0  0.89475204763E+02  0.13945266584E+03 -0.76062554844E+03  0.78843471107E+03  0.12500084160E+03 0.  0.
          5    1    3    3  502    0  0.33716881662E+02  0.12402489805E+03 -0.33448316633E+03  0.35835747795E+03  0.47000000000E+01 0.  1.
         -5    1    3    3    0  502  0.55758323101E+02  0.15427767782E+02 -0.42614238211E+03  0.43007723312E+03  0.47000000000E+01 0.  1.
        -11    1    1    2    0    0 -0.10072803303E+02 -0.41428056021E+02 -0.42100651981E+02  0.59918361870E+02  0.00000000000E+00 0.  1.
         11    1    1    2    0    0 -0.79402401460E+02 -0.98024609815E+02 -0.44012499854E+03  0.45784667720E+03  0.00000000000E+00 0. -1.
<mgrwt>
<rscale>  0 0.20262094E+03</rscale>
<asrwt>0</asrwt>
<pdfrwt beam="2">  1        1 0.19608081E+00 0.20755257E+03</pdfrwt>
<pdfrwt beam="1">  1       -1 0.48729662E-02 0.20755257E+03</pdfrwt>
<totfact> 0.18584416E+03</totfact>
</mgrwt>
</event>
<event>
 7    1  0.8165933E-006  0.1366710E+03  0.7546771E-02  0.1229762E+00
          1   -1    0    0  501    0  0.00000000000E+00  0.00000000000E+00  0.84224862806E+02  0.84224862806E+02  0.00000000000E+00 0. -1.
         -1   -1    0    0    0  501 -0.00000000000E+00 -0.00000000000E+00 -0.17676915713E+03  0.17676915713E+03  0.00000000000E+00 0.  1.
         23    2    1    2    0    0  0.51832072835E+00  0.55258356663E+02 -0.61759036781E+02  0.14997709013E+03  0.12500077721E+03 0.  0.
          5    1    3    3  502    0  0.30594406616E+02 -0.22613416714E+02 -0.53701149590E+02  0.65979449823E+02  0.47000000000E+01 0. -1.
         -5    1    3    3    0  502 -0.30076085887E+02  0.77871773378E+02 -0.80578871904E+01  0.83997640308E+02  0.47000000000E+01 0. -1.
        -11    1    1    2    0    0 -0.50834115456E+01 -0.80353244191E+02 -0.18070734297E+02  0.82516885321E+02  0.00000000000E+00 0.  1.
         11    1    1    2    0    0  0.45650908172E+01  0.25094887528E+02 -0.12714523246E+02  0.28500044484E+02  0.00000000000E+00 0. -1.
<mgrwt>
<rscale>  0 0.12845788E+03</rscale>
<asrwt>0</asrwt>
<pdfrwt beam="1">  1        1 0.12957671E-01 0.13667095E+03</pdfrwt>
<pdfrwt beam="2">  1       -1 0.27195254E-01 0.13667095E+03</pdfrwt>
<totfact> 0.52155819E+03</totfact>
</mgrwt>
</event>
<event>
 7    1  0.8165933E-006  0.1464059E+03  0.7546771E-02  0.1215260E+00
         -2   -1    0    0    0  501 -0.00000000000E+00  0.00000000000E+00  0.25201596836E+02  0.25201596836E+02  0.00000000000E+00 0. -1.
          2   -1    0    0  501    0  0.00000000000E+00 -0.00000000000E+00 -0.79359936012E+03  0.79359936012E+03  0.00000000000E+00 0.  1.
         23    2    1    2    0    0 -0.74160224630E+02  0.17570854774E+02 -0.56732309621E+03  0.58590969858E+03  0.12500482207E+03 0.  0.
          5    1    3    3  502    0  0.16250925007E+02  0.42273186184E+02 -0.27922374104E+03  0.28291182795E+03  0.47000000000E+01 0. -1.
         -5    1    3    3    0  502 -0.90411149637E+02 -0.24702331411E+02 -0.28809935517E+03  0.30299787062E+03  0.47000000000E+01 0. -1.
        -11    1    1    2    0    0  0.64540981738E+02  0.23181932467E+02 -0.83316586053E+02  0.10791011921E+03  0.00000000000E+00 0.  1.
         11    1    1    2    0    0  0.96192428918E+01 -0.40752787240E+02 -0.11775808102E+03  0.12498113917E+03  0.00000000000E+00 0. -1.
<mgrwt>
<rscale>  0 0.13857425E+03</rscale>
<asrwt>0</asrwt>
<pdfrwt beam="2">  1        2 0.12209219E+00 0.14640587E+03</pdfrwt>
<pdfrwt beam="1">  1       -2 0.38771694E-02 0.14640587E+03</pdfrwt>
<totfact> 0.99580752E+03</totfact>
</mgrwt>
</event>
<event>
 7    1  0.8165933E-006  0.1324541E+03  0.7546771E-02  0.1236577E+00
          1   -1    0    0  501    0  0.00000000000E+00  0.00000000000E+00  0.12476428395E+03  0.12476428395E+03  0.00000000000E+00 0. -1.
         -1   -1    0    0    0  501 -0.00000000000E+00 -0.00000000000E+00 -0.11106540653E+03  0.11106540653E+03  0.00000000000E+00 0.  1.
         23    2    1    2    0    0  0.43680273480E+02 -0.33255945730E+01  0.19050376705E+02  0.13381710111E+03  0.12500029531E+03 0.  0.
          5    1    3    3  502    0  0.36588796249E+01 -0.46217130636E+02  0.49138203360E+02  0.67720481346E+02  0.47000000000E+01 0.  1.
         -5    1    3    3    0  502  0.40021393855E+02  0.42891536063E+02 -0.30087826655E+02  0.66096619768E+02  0.47000000000E+01 0.  1.
        -11    1    1    2    0    0 -0.48095297441E+02  0.36204914745E+02 -0.22990842375E+02  0.64440145257E+02  0.00000000000E+00 0.  1.
         11    1    1    2    0    0  0.44150239616E+01 -0.32879320172E+02  0.17639343096E+02  0.37572444110E+02  0.00000000000E+00 0. -1.
<mgrwt>
<rscale>  0 0.12404035E+03</rscale>
<asrwt>0</asrwt>
<pdfrwt beam="1">  1        1 0.19194505E-01 0.13245414E+03</pdfrwt>
<pdfrwt beam="2">  1       -1 0.17086986E-01 0.13245414E+03</pdfrwt>
<totfact> 0.66502947E+03</totfact>
</mgrwt>
</event>
<event>
 7    1  0.8165933E-006  0.1342109E+03  0.7546771E-02  0.1239898E+00
          3   -1    0    0  501    0  0.00000000000E+00  0.00000000000E+00  0.77890435235E+03  0.77890435235E+03  0.00000000000E+00 0.  1.
         -3   -1    0    0    0  501 -0.00000000000E+00 -0.00000000000E+00 -0.25250618224E+02  0.25250618224E+02  0.00000000000E+00 0. -1.
         23    2    1    2    0    0  0.83357418787E+01 -0.48152763446E+02  0.65886515196E+03  0.67239560914E+03  0.12499757403E+03 0.  0.
          5    1    3    3  502    0  0.27066361250E+02  0.37087688639E+02  0.26028944376E+03  0.26434970984E+03  0.47000000000E+01 0.  1.
         -5    1    3    3    0  502 -0.18730619371E+02 -0.85240452086E+02  0.39857570820E+03  0.40804589931E+03  0.47000000000E+01 0.  1.
        -11    1    1    2    0    0 -0.39188858949E+02  0.43797723396E+02  0.49792386687E+02  0.77027845695E+02  0.00000000000E+00 0. -1.
         11    1    1    2    0    0  0.30853117071E+02  0.43550400507E+01  0.44996195484E+02  0.54731515737E+02  0.00000000000E+00 0.  1.
<mgrwt>
<rscale>  0 0.12196022E+03</rscale>
<asrwt>0</asrwt>
<pdfrwt beam="1">  1        3 0.11983142E+00 0.13421090E+03</pdfrwt>
<pdfrwt beam="2">  1       -3 0.38847111E-02 0.13421090E+03</pdfrwt>
<totfact> 0.46926606E+02</totfact>
</mgrwt>
</event>
<event>
 6    1  0.8165933E-006  0.1739287E+03  0.7546771E-02  0.1234757E+00
         -2   -1    0    0    0  501 -0.00000000000E+00  0.00000000000E+00  0.21328679637E+02  0.21328679637E+02  0.00000000000E+00 0.  1.
          2   -1    0    0  501    0  0.00000000000E+00 -0.00000000000E+00 -0.76075316156E+03  0.76075316156E+03  0.00000000000E+00 0. -1.
          5    1    1    2  502    0  0.27005693738E+02  0.34065735965E+02 -0.55124288969E+03  0.55297431704E+03  0.47000000000E+01 0. -1.
         -5    1    1    2    0  502 -0.70631932270E+02 -0.34054488234E+02 -0.14776669219E+03  0.16734892693E+03  0.47000000000E+01 0.  1.
        -11    1    1    2    0    0  0.13509322592E+02  0.72485281946E+01 -0.17234661085E+02  0.23066783491E+02  0.00000000000E+00 0.  1.
         11    1    1    2    0    0  0.30116915940E+02 -0.72597759258E+01 -0.23180238950E+02  0.38691813734E+02  0.00000000000E+00 0. -1.
<mgrwt>
<rscale>  0 0.12520001E+03</rscale>
<asrwt>0</asrwt>
<pdfrwt beam="2">  1        2 0.11703896E+00 0.17392866E+03</pdfrwt>
<pdfrwt beam="1">  1       -2 0.32813349E-02 0.17392866E+03</pdfrwt>
<totfact> 0.13586105E+04</totfact>
</mgrwt>
</event>
<event>
 7    1  0.8165933E-006  0.2145316E+03  0.7546771E-02  0.1141599E+00
          1   -1    0    0  501    0  0.00000000000E+00  0.00000000000E+00  0.68354539541E+03  0.68354539541E+03  0.00000000000E+00 0. -1.
         -1   -1    0    0    0  501 -0.00000000000E+00 -0.00000000000E+00 -0.63280788846E+02  0.63280788846E+02  0.00000000000E+00 0.  1.
         23    2    1    2    0    0  0.15422141380E+03 -0.81327111176E+02  0.26779685548E+03  0.34313111451E+03  0.12500184981E+03 0.  0.
          5    1    3    3  502    0  0.13500919310E+03 -0.11310419156E+03  0.20806803318E+03  0.27264342428E+03  0.47000000000E+01 0. -1.
         -5    1    3    3    0  502  0.19212220692E+02  0.31777080381E+02  0.59728822300E+02  0.70487690236E+02  0.47000000000E+01 0. -1.
        -11    1    1    2    0    0 -0.10593786297E+03  0.71929060234E+02  0.32023072132E+03  0.34488307496E+03  0.00000000000E+00 0. -1.
         11    1    1    2    0    0 -0.48283550830E+02  0.93980509421E+01  0.32237029761E+02  0.58811994781E+02  0.00000000000E+00 0.  1.
<mgrwt>
<rscale>  0 0.20995831E+03</rscale>
<asrwt>0</asrwt>
<pdfrwt beam="1">  1        1 0.10516083E+00 0.21453160E+03</pdfrwt>
<pdfrwt beam="2">  1       -1 0.97355064E-02 0.21453160E+03</pdfrwt>
<totfact> 0.18476044E+03</totfact>
</mgrwt>
</event>
<event>
 7    1  0.8165933E-006  0.2437746E+03  0.7546771E-02  0.1119861E+00
          1   -1    0    0  501    0  0.00000000000E+00  0.00000000000E+00  0.13724785478E+04  0.13724785478E+04  0.00000000000E+00 0. -1.
         -1   -1    0    0    0  501 -0.00000000000E+00 -0.00000000000E+00 -0.42924329057E+02  0.42924329057E+02  0.00000000000E+00 0.  1.
         23    2    1    2    0    0  0.71573486628E+02  0.19667237662E+03  0.84774082458E+03  0.88209441183E+03  0.12499303179E+03 0.  0.
          5    1    3    3  502    0 -0.34282025303E+02  0.27849236009E+02  0.16044160237E+03  0.16647652981E+03  0.47000000000E+01 0. -1.
         -5    1    3    3    0  502  0.10585551193E+03  0.16882314061E+03  0.68729922221E+03  0.71561788202E+03  0.47000000000E+01 0. -1.
        -11    1    1    2    0    0 -0.18818640120E+02  0.26413238226E+01  0.20147134132E+02  0.27695212966E+02  0.00000000000E+00 0.  1.
         11    1    1    2    0    0 -0.52754846508E+02 -0.19931370044E+03  0.46166625999E+03  0.50561325203E+03  0.00000000000E+00 0. -1.
<mgrwt>
<rscale>  0 0.23989809E+03</rscale>
<asrwt>0</asrwt>
<pdfrwt beam="1">  1        1 0.21115051E+00 0.24377458E+03</pdfrwt>
<pdfrwt beam="2">  1       -1 0.66037440E-02 0.24377458E+03</pdfrwt>
<totfact> 0.10084565E+03</totfact>
</mgrwt>
</event>
<event>
 7    1  0.8165933E-006  0.1884914E+03  0.7546771E-02  0.1165014E+00
         -1   -1    0    0    0  501 -0.00000000000E+00  0.00000000000E+00  0.52660539739E+02  0.52660539739E+02  0.00000000000E+00 0.  1.
          1   -1    0    0  501    0  0.00000000000E+00 -0.00000000000E+00 -0.61645721660E+03  0.61645721660E+03  0.00000000000E+00 0. -1.
         23    2    1    2    0    0 -0.11911299753E+03 -0.75603760378E+02 -0.35221920305E+03  0.39948390311E+03  0.12500074835E+03 0.  0.
          5    1    3    3  502    0 -0.27405040372E+02  0.34969495186E+02 -0.88641975791E+02  0.99264251890E+02  0.47000000000E+01 0.  1.
         -5    1    3    3    0  502 -0.91707957155E+02 -0.11057325556E+03 -0.26357722726E+03  0.30021965122E+03  0.47000000000E+01 0.  1.
        -11    1    1    2    0    0  0.24088464206E+02  0.50215277828E+02 -0.13147547406E+03  0.14278525314E+03  0.00000000000E+00 0.  1.
         11    1    1    2    0    0  0.95024533320E+02  0.25388482550E+02 -0.80101999748E+02  0.12684860008E+03  0.00000000000E+00 0. -1.
<mgrwt>
<rscale>  0 0.18291189E+03</rscale>
<asrwt>0</asrwt>
<pdfrwt beam="2">  1        1 0.94839578E-01 0.18849144E+03</pdfrwt>
<pdfrwt beam="1">  1       -1 0.81016210E-02 0.18849144E+03</pdfrwt>
<totfact> 0.28251145E+03</totfact>
</mgrwt>
</event>
<event>
 7    1  0.8165933E-006  0.1803348E+03  0.7546771E-02  0.1173242E+00
         -2   -1    0    0    0  501 -0.00000000000E+00  0.00000000000E+00  0.52927343238E+02  0.52927343238E+02  0.00000000000E+00 0.  1.
          2   -1    0    0  501    0  0.00000000000E+00 -0.00000000000E+00 -0.66802566392E+03  0.66802566392E+03  0.00000000000E+00 0. -1.
         23    2    1    2    0    0  0.12914479963E+03  0.12818985639E+02 -0.48087708783E+03  0.51357900993E+03  0.12521150176E+03 0.  0.
          5    1    3    3  502    0  0.11137324572E+03  0.50765889422E+02 -0.24444551987E+03  0.27341703965E+03  0.47000000000E+01 0.  1.
         -5    1    3    3    0  502  0.17771553910E+02 -0.37946903782E+02 -0.23643156797E+03  0.24016197027E+03  0.47000000000E+01 0.  1.
        -11    1    1    2    0    0 -0.57999560274E+02  0.28425940238E+02 -0.21975279585E+02  0.68226798131E+02  0.00000000000E+00 0.  1.
         11    1    1    2    0    0 -0.71145239352E+02 -0.41244925877E+02 -0.11224595326E+03  0.13914719910E+03  0.00000000000E+00 0. -1.
<mgrwt>
<rscale>  0 0.17449276E+03</rscale>
<asrwt>0</asrwt>
<pdfrwt beam="2">  1        2 0.10277318E+00 0.18033476E+03</pdfrwt>
<pdfrwt beam="1">  1       -2 0.81426684E-02 0.18033476E+03</pdfrwt>
<totfact> 0.40147333E+03</totfact>
</mgrwt>
</event>
<event>
 7    1  0.8165933E-006  0.1677288E+03  0.7546771E-02  0.1187317E+00
          1   -1    0    0  501    0  0.00000000000E+00  0.00000000000E+00  0.16947204693E+03  0.16947204693E+03  0.00000000000E+00 0. -1.
         -1   -1    0    0    0  501 -0.00000000000E+00 -0.00000000000E+00 -0.15459315995E+03  0.15459315995E+03  0.00000000000E+00 0.  1.
         23    2    1    2    0    0 -0.11158233387E+03 -0.77567865392E+01  0.52953887443E+02  0.17588931189E+03  0.12498860296E+03 0.  0.
          5    1    3    3  502    0 -0.10108087531E+01 -0.47872283800E+02  0.27617682373E+02  0.55476154068E+02  0.47000000000E+01 0.  1.
         -5    1    3    3    0  502 -0.11057152512E+03  0.40115497261E+02  0.25336205070E+02  0.12041315782E+03  0.47000000000E+01 0.  1.
        -11    1    1    2    0    0  0.54308183518E+02  0.47380266663E+02 -0.29996605009E+02  0.78064491148E+02  0.00000000000E+00 0.  1.
         11    1    1    2    0    0  0.57274150356E+02 -0.39623480124E+02 -0.80783954484E+01  0.70111403845E+02  0.00000000000E+00 0. -1.
<mgrwt>
<rscale>  0 0.16122849E+03</rscale>
<asrwt>0</asrwt>
<pdfrwt beam="1">  1        1 0.26072622E-01 0.16772876E+03</pdfrwt>
<pdfrwt beam="2">  1       -1 0.23783563E-01 0.16772876E+03</pdfrwt>
<totfact> 0.26835307E+03</totfact>
</mgrwt>
</event>
<event>
 7    1  0.8165933E-006  0.1296943E+03  0.7546771E-02  0.1249927E+00
         -1   -1    0    0    0  501 -0.00000000000E+00  0.00000000000E+00  0.20405020051E+02  0.20405020051E+02  0.00000000000E+00 0.  1.
          1   -1    0    0  501    0  0.00000000000E+00 -0.00000000000E+00 -0.56697135874E+03  0.56697135874E+03  0.00000000000E+00 0. -1.
         23    2    1    2    0    0 -0.29747115391E+02  0.17648419023E+02 -0.37616604710E+03  0.39789635319E+03  0.12499702123E+03 0.  0.
          5    1    3    3  502    0  0.75712989910E+01 -0.13878790883E+02 -0.33033261748E+03  0.33074412100E+03  0.47000000000E+01 0. -1.
         -5    1    3    3    0  502 -0.37318414382E+02  0.31527209906E+02 -0.45833429625E+02  0.67152232186E+02  0.47000000000E+01 0. -1.
        -11    1    1    2    0    0  0.21683197937E+02  0.27770367422E+02 -0.56399575669E+02  0.66500124174E+02  0.00000000000E+00 0.  1.
         11    1    1    2    0    0  0.80639174539E+01 -0.45418786445E+02 -0.11400071591E+03  0.12297990143E+03  0.00000000000E+00 0. -1.
<mgrwt>
<rscale>  0 0.11595300E+03</rscale>
<asrwt>0</asrwt>
<pdfrwt beam="2">  1        1 0.87226352E-01 0.12969431E+03</pdfrwt>
<pdfrwt beam="1">  1       -1 0.31392342E-02 0.12969431E+03</pdfrwt>
<totfact> 0.12712010E+04</totfact>
</mgrwt>
</event>
<event>
 7    1  0.8165933E-006  0.1338310E+03  0.7546771E-02  0.1234336E+00
          1   -1    0    0  501    0  0.00000000000E+00  0.00000000000E+00  0.34297785276E+03  0.34297785276E+03  0.00000000000E+00 0. -1.
         -1   -1    0    0    0  501 -0.00000000000E+00 -0.00000000000E+00 -0.41021713544E+02  0.41021713544E+02  0.00000000000E+00 0.  1.
         23    2    1    2    0    0  0.35781098598E+02 -0.31708193114E+02  0.16902823138E+03  0.21559515030E+03  0.12500011722E+03 0.  0.
          5    1    3    3  502    0  0.44304496542E+02 -0.43272425464E+02  0.18407300199E+03  0.19426876043E+03  0.47000000000E+01 0.  1.
         -5    1    3    3    0  502 -0.85233979449E+01  0.11564232350E+02 -0.15044770608E+02  0.21326389873E+02  0.47000000000E+01 0.  1.
        -11    1    1    2    0    0 -0.45580504409E+02 -0.14359440697E+02  0.10031628384E+03  0.11111765261E+03  0.00000000000E+00 0. -1.
         11    1    1    2    0    0  0.97994058114E+01  0.46067633810E+02  0.32611623998E+02  0.57286763383E+02  0.00000000000E+00 0.  1.
<mgrwt>
<rscale>  0 0.12547025E+03</rscale>
<asrwt>0</asrwt>
<pdfrwt beam="1">  1        1 0.52765822E-01 0.13383096E+03</pdfrwt>
<pdfrwt beam="2">  1       -1 0.63110331E-02 0.13383096E+03</pdfrwt>
<totfact> 0.86722677E+03</totfact>
</mgrwt>
</event>
<event>
 7    1  0.8165933E-006  0.2918512E+03  0.7546771E-02  0.1091125E+00
          2   -1    0    0  501    0  0.00000000000E+00  0.00000000000E+00  0.10917451300E+03  0.10917451300E+03  0.00000000000E+00 0. -1.
         -2   -1    0    0    0  501 -0.00000000000E+00 -0.00000000000E+00 -0.74566700956E+03  0.74566700956E+03  0.00000000000E+00 0.  1.
         23    2    1    2    0    0  0.15122357670E+02  0.26328524436E+03 -0.33053859801E+03  0.44094542070E+03  0.12501717346E+03 0.  0.
          5    1    3    3  502    0  0.10971898822E+02  0.27668005608E+03 -0.31647943087E+03  0.42053960118E+03  0.47000000000E+01 0. -1.
         -5    1    3    3    0  502  0.41504588474E+01 -0.13394811716E+02 -0.14059167138E+02  0.20405819517E+02  0.47000000000E+01 0. -1.
        -11    1    1    2    0    0 -0.33967370478E+02 -0.17460057740E+03 -0.14636657150E+03  0.23035259308E+03  0.00000000000E+00 0.  1.
         11    1    1    2    0    0  0.18845012808E+02 -0.88684666961E+02 -0.15958732704E+03  0.18354350878E+03  0.00000000000E+00 0. -1.
<mgrwt>
<rscale>  0 0.28851954E+03</rscale>
<asrwt>0</asrwt>
<pdfrwt beam="1">  1        2 0.16796079E-01 0.29185116E+03</pdfrwt>
<pdfrwt beam="2">  1       -2 0.11471800E+00 0.29185116E+03</pdfrwt>
<totfact> 0.21149537E+02</totfact>
</mgrwt>
</event>
<event>
 7    1  0.8165933E-006  0.1281632E+03  0.7546771E-02  0.1244595E+00
         -1   -1    0    0    0  501 -0.00000000000E+00  0.00000000000E+00  0.34999370689E+03  0.34999370689E+03  0.00000000000E+00 0.  1.
          1   -1    0    0  501    0  0.00000000000E+00 -0.00000000000E+00 -0.46110470186E+02  0.46110470186E+02  0.00000000000E+00 0. -1.
         23    2    1    2    0    0  0.13474937734E+02  0.24848041748E+02  0.76023165643E+02  0.14901450655E+03  0.12500720909E+03 0.  0.
          5    1    3    3  502    0  0.45320378608E+02  0.40313686836E+02 -0.44222665573E+01  0.60998168046E+02  0.47000000000E+01 0.  1.
         -5    1    3    3    0  502 -0.31845440875E+02 -0.15465645088E+02  0.80445432201E+02  0.88016338509E+02  0.47000000000E+01 0.  1.
        -11    1    1    2    0    0 -0.44010250341E+02  0.45010807239E+01  0.63709276569E+02  0.77563095502E+02  0.00000000000E+00 0. -1.
         11    1    1    2    0    0  0.30535312608E+02 -0.29349122472E+02  0.16415079449E+03  0.16952657502E+03  0.00000000000E+00 0.  1.
<mgrwt>
<rscale>  0 0.11909669E+03</rscale>
<asrwt>0</asrwt>
<pdfrwt beam="2">  1        1 0.70939187E-02 0.12816318E+03</pdfrwt>
<pdfrwt beam="1">  1       -1 0.53845184E-01 0.12816318E+03</pdfrwt>
<totfact> 0.35105281E+03</totfact>
</mgrwt>
</event>
<event>
 7    1  0.8165933E-006  0.1423608E+03  0.7546771E-02  0.1220756E+00
          1   -1    0    0  501    0  0.00000000000E+00  0.00000000000E+00  0.22561721219E+03  0.22561721219E+03  0.00000000000E+00 0. -1.
         -1   -1    0    0    0  501 -0.00000000000E+00 -0.00000000000E+00 -0.76234310340E+02  0.76234310340E+02  0.00000000000E+00 0.  1.
         23    2    1    2    0    0  0.43519888332E+02  0.52414272096E+02  0.11479507035E+03  0.18287837511E+03  0.12500142122E+03 0.  0.
          5    1    3    3  502    0  0.13624392841E+02  0.75442567355E+02  0.12200937089E+03  0.14417205566E+03  0.47000000000E+01 0. -1.
         -5    1    3    3    0  502  0.29895495491E+02 -0.23028295259E+02 -0.72143005348E+01  0.38706319450E+02  0.47000000000E+01 0. -1.
        -11    1    1    2    0    0 -0.16834920798E+01 -0.14202788010E+02 -0.29891052942E+02  0.33136511265E+02  0.00000000000E+00 0.  1.
         11    1    1    2    0    0 -0.41836396253E+02 -0.38211484087E+02  0.64478884445E+02  0.85836636157E+02  0.00000000000E+00 0. -1.
<mgrwt>
<rscale>  0 0.13462051E+03</rscale>
<asrwt>0</asrwt>
<pdfrwt beam="1">  1        1 0.34710340E-01 0.14236078E+03</pdfrwt>
<pdfrwt beam="2">  1       -1 0.11728356E-01 0.14236078E+03</pdfrwt>
<totfact> 0.57190631E+03</totfact>
</mgrwt>
</event>
<event>
 7    1  0.8165933E-006  0.1883100E+03  0.7546771E-02  0.1164739E+00
         -2   -1    0    0    0  501 -0.00000000000E+00  0.00000000000E+00  0.13817189948E+03  0.13817189948E+03  0.00000000000E+00 0.  1.
          2   -1    0    0  501    0  0.00000000000E+00 -0.00000000000E+00 -0.30232989302E+03  0.30232989302E+03  0.00000000000E+00 0. -1.
         23    2    1    2    0    0 -0.13373831172E+03  0.44165789736E+02 -0.19266972247E+03  0.26941096741E+03  0.12499637754E+03 0.  0.
          5    1    3    3  502    0 -0.82209664373E+02  0.34700088476E+02 -0.23704608110E+02  0.92447409386E+02  0.47000000000E+01 0.  1.
         -5    1    3    3    0  502 -0.51528647345E+02  0.94657012603E+01 -0.16896511436E+03  0.17696355802E+03  0.47000000000E+01 0.  1.
        -11    1    1    2    0    0  0.10181949337E+03 -0.71884552144E+02  0.31976853401E+02  0.12867446220E+03  0.00000000000E+00 0.  1.
         11    1    1    2    0    0  0.31918818344E+02  0.27718762408E+02 -0.34651244733E+01  0.42416362898E+02  0.00000000000E+00 0. -1.
<mgrwt>
<rscale>  0 0.18320307E+03</rscale>
<asrwt>0</asrwt>
<pdfrwt beam="2">  1        2 0.46512291E-01 0.18830998E+03</pdfrwt>
<pdfrwt beam="1">  1       -2 0.21257215E-01 0.18830998E+03</pdfrwt>
<totfact> 0.20246328E+03</totfact>
</mgrwt>
</event>
<event>
 6    1  0.8165933E-006  0.3582480E+03  0.7546771E-02  0.1095781E+00
         -2   -1    0    0    0  501 -0.00000000000E+00  0.00000000000E+00  0.10196052353E+03  0.10196052353E+03  0.00000000000E+00 0.  1.
          2   -1    0    0  501    0  0.00000000000E+00 -0.00000000000E+00 -0.59360694278E+03  0.59360694278E+03  0.00000000000E+00 0. -1.
          5    1    1    2  502    0 -0.17116796665E+02  0.67766880578E+02 -0.34218713946E+03  0.34928421556E+03  0.47000000000E+01 0. -1.
         -5    1    1    2    0  502 -0.48434764823E+02 -0.13998804108E+03 -0.30444533457E+01  0.14823608463E+03  0.47000000000E+01 0.  1.
        -11    1    1    2    0    0  0.34030640433E+02 -0.16520987280E+02 -0.29812631944E+02  0.48164515283E+02  0.00000000000E+00 0.  1.
         11    1    1    2    0    0  0.31520921055E+02  0.88742147786E+02 -0.11660219451E+03  0.14988265084E+03  0.00000000000E+00 0. -1.
<mgrwt>
<rscale>  0 0.27983091E+03</rscale>
<asrwt>0</asrwt>
<pdfrwt beam="2">  1        2 0.91324145E-01 0.35824795E+03</pdfrwt>
<pdfrwt beam="1">  1       -2 0.15686234E-01 0.35824795E+03</pdfrwt>
<totfact> 0.16267916E+03</totfact>
</mgrwt>
</event>
<event>
 7    1  0.8165933E-006  0.1999025E+03  0.7546771E-02  0.1154417E+00
         -3   -1    0    0    0  501 -0.00000000000E+00  0.00000000000E+00  0.50589078172E+02  0.50589078172E+02  0.00000000000E+00 0.  1.
          3   -1    0    0  501    0  0.00000000000E+00 -0.00000000000E+00 -0.71371926571E+03  0.71371926571E+03  0.00000000000E+00 0. -1.
         23    2    1    2    0    0 -0.10805271059E+03  0.11266874881E+03 -0.37388762087E+03  0.42397281284E+03  0.12486535853E+03 0.  0.
          5    1    3    3  502    0  0.16195039401E+02  0.15874427244E+02 -0.14035364839E+03  0.14225158473E+03  0.47000000000E+01 0.  1.
         -5    1    3    3    0  502 -0.12424774999E+03  0.96794321568E+02 -0.23353397249E+03  0.28172122812E+03  0.47000000000E+01 0.  1.
        -11    1    1    2    0    0  0.54244626141E+02 -0.11056887760E+03 -0.17448541164E+03  0.21357227122E+03  0.00000000000E+00 0.  1.
         11    1    1    2    0    0  0.53808084449E+02 -0.20998712169E+01 -0.11475715502E+03  0.12676325982E+03  0.00000000000E+00 0. -1.
<mgrwt>
<rscale>  0 0.19455390E+03</rscale>
<asrwt>0</asrwt>
<pdfrwt beam="2">  1        3 0.10980296E+00 0.19990246E+03</pdfrwt>
<pdfrwt beam="1">  1       -3 0.77829354E-02 0.19990246E+03</pdfrwt>
<totfact> 0.19911487E+02</totfact>
</mgrwt>
</event>
<event>
 7    1  0.8165933E-006  0.1289096E+03  0.7546771E-02  0.1244164E+00
         -1   -1    0    0    0  501 -0.00000000000E+00  0.00000000000E+00  0.78668730920E+03  0.78668730920E+03  0.00000000000E+00 0.  1.
          1   -1    0    0  501    0  0.00000000000E+00 -0.00000000000E+00 -0.18059314868E+02  0.18059314868E+02  0.00000000000E+00 0. -1.
         23    2    1    2    0    0 -0.30665897517E+02 -0.72542902368E+01  0.29814253565E+03  0.32481787512E+03  0.12499863373E+03 0.  0.
          5    1    3    3  502    0 -0.39906406694E+02 -0.19625977295E+02  0.25066447403E+02  0.51265164249E+02  0.47000000000E+01 0. -1.
         -5    1    3    3    0  502  0.92405091778E+01  0.12371687058E+02  0.27307608825E+03  0.27355271087E+03  0.47000000000E+01 0. -1.
        -11    1    1    2    0    0  0.35519950383E+02 -0.36035965518E+02  0.27896271766E+03  0.28351447147E+03  0.00000000000E+00 0.  1.
         11    1    1    2    0    0 -0.48540528664E+01  0.43290255755E+02  0.19152274102E+03  0.19641427749E+03  0.00000000000E+00 0. -1.
<mgrwt>
<rscale>  0 0.11935577E+03</rscale>
<asrwt>0</asrwt>
<pdfrwt beam="2">  1        1 0.27783567E-02 0.12890958E+03</pdfrwt>
<pdfrwt beam="1">  1       -1 0.12102879E+00 0.12890958E+03</pdfrwt>
<totfact> 0.23735283E+03</totfact>
</mgrwt>
</event>
<event>
 7    1  0.8165933E-006  0.1716561E+03  0.7546771E-02  0.1182613E+00
          1   -1    0    0  501    0  0.00000000000E+00  0.00000000000E+00  0.22233202874E+04  0.22233202874E+04  0.00000000000E+00 0. -1.
         -1   -1    0    0    0  501 -0.00000000000E+00 -0.00000000000E+00 -0.13279819403E+02  0.13279819403E+02  0.00000000000E+00 0.  1.
         23    2    1    2    0    0 -0.98503875356E+02 -0.64320383711E+02  0.15814543237E+04  0.15907430944E+04  0.12500275609E+03 0.  0.
          5    1    3    3  502    0 -0.77690979865E+02 -0.48542474034E+02  0.15309126333E+04  0.15336583195E+04  0.47000000000E+01 0.  1.
         -5    1    3    3    0  502 -0.20812895491E+02 -0.15777909677E+02  0.50541690462E+02  0.57084774916E+02  0.47000000000E+01 0.  1.
        -11    1    1    2    0    0  0.66095759693E+02 -0.95549162792E+01  0.32053069592E+03  0.32741391678E+03  0.00000000000E+00 0. -1.
         11    1    1    2    0    0  0.32408115663E+02  0.73875299990E+02  0.30805544830E+03  0.31844309560E+03  0.00000000000E+00 0.  1.
<mgrwt>
<rscale>  0 0.16550981E+03</rscale>
<asrwt>0</asrwt>
<pdfrwt beam="1">  1        1 0.34204898E+00 0.17165609E+03</pdfrwt>
<pdfrwt beam="2">  1       -1 0.20430509E-02 0.17165609E+03</pdfrwt>
<totfact> 0.16131610E+03</totfact>
</mgrwt>
</event>
<event>
 7    1  0.8165933E-006  0.1543928E+03  0.7546771E-02  0.1203717E+00
          1   -1    0    0  501    0  0.00000000000E+00  0.00000000000E+00  0.21921269054E+04  0.21921269054E+04  0.00000000000E+00 0. -1.
         -1   -1    0    0    0  501 -0.00000000000E+00 -0.00000000000E+00 -0.12372079885E+02  0.12372079885E+02  0.00000000000E+00 0.  1.
         23    2    1    2    0    0 -0.41925107719E+02  0.80338936977E+02  0.17283992531E+04  0.17352812751E+04  0.12500026552E+03 0.  0.
          5    1    3    3  502    0  0.43768699744E+02  0.39494055412E+02  0.70707234962E+03  0.70954131457E+03  0.47000000000E+01 0.  1.
         -5    1    3    3    0  502 -0.85693807463E+02  0.40844881564E+02  0.10213269034E+04  0.10257399606E+04  0.47000000000E+01 0.  1.
        -11    1    1    2    0    0 -0.13176776807E+02 -0.63487669090E+02  0.30728636546E+03  0.31405289677E+03  0.00000000000E+00 0. -1.
         11    1    1    2    0    0  0.55101884527E+02 -0.16851267887E+02  0.14406920697E+03  0.15516481336E+03  0.00000000000E+00 0.  1.
<mgrwt>
<rscale>  0 0.14739040E+03</rscale>
<asrwt>0</asrwt>
<pdfrwt beam="1">  1        1 0.33724998E+00 0.15439276E+03</pdfrwt>
<pdfrwt beam="2">  1       -1 0.19033986E-02 0.15439276E+03</pdfrwt>
<totfact> 0.18737150E+03</totfact>
</mgrwt>
</event>
<event>
 7    1  0.8165933E-006  0.1423768E+03  0.7546771E-02  0.1220892E+00
         -2   -1    0    0    0  501 -0.00000000000E+00  0.00000000000E+00  0.62596766493E+02  0.62596766493E+02  0.00000000000E+00 0.  1.
          2   -1    0    0  501    0  0.00000000000E+00 -0.00000000000E+00 -0.41684643798E+03  0.41684643798E+03  0.00000000000E+00 0. -1.
         23    2    1    2    0    0 -0.59705924977E+02  0.32888220877E+02 -0.33546047162E+03  0.36442405536E+03  0.12499892621E+03 0.  0.
          5    1    3    3  502    0 -0.69793781248E+02  0.30878785280E+02 -0.87486299059E+02  0.11619214175E+03  0.47000000000E+01 0.  1.
         -5    1    3    3    0  502  0.10087856271E+02  0.20094355970E+01 -0.24797417256E+03  0.24823191361E+03  0.47000000000E+01 0.  1.
        -11    1    1    2    0    0  0.12466734175E+02  0.27881390871E+02 -0.22537958225E+02  0.37957225647E+02  0.00000000000E+00 0. -1.
         11    1    1    2    0    0  0.47239190802E+02 -0.60769611748E+02  0.37487583577E+01  0.77061923470E+02  0.00000000000E+00 0.  1.
<mgrwt>
<rscale>  0 0.13452521E+03</rscale>
<asrwt>0</asrwt>
<pdfrwt beam="2">  1        2 0.64130223E-01 0.14237684E+03</pdfrwt>
<pdfrwt beam="1">  1       -2 0.96302716E-02 0.14237684E+03</pdfrwt>
<totfact> 0.51823118E+03</totfact>
</mgrwt>
</event>
<event>
 7    1  0.8165933E-006  0.1564329E+03  0.7546771E-02  0.1200572E+00
          1   -1    0    0  501    0  0.00000000000E+00  0.00000000000E+00  0.43925580359E+03  0.43925580359E+03  0.00000000000E+00 0. -1.
         -1   -1    0    0    0  501 -0.00000000000E+00 -0.00000000000E+00 -0.50165055015E+02  0.50165055015E+02  0.00000000000E+00 0.  1.
         23    2    1    2    0    0  0.75222275972E+02 -0.56452331769E+02  0.26802761280E+03  0.31033861786E+03  0.12500399972E+03 0.  0.
          5    1    3    3  502    0 -0.62236284695E+01 -0.27279091211E+02  0.19492252725E+03  0.19697655697E+03  0.47000000000E+01 0. -1.
         -5    1    3    3    0  502  0.81445904442E+02 -0.29173240558E+02  0.73105085557E+02  0.11336206089E+03  0.47000000000E+01 0. -1.
        -11    1    1    2    0    0 -0.90863433816E+02  0.61626256660E+02  0.11989037112E+03  0.16256586420E+03  0.00000000000E+00 0. -1.
         11    1    1    2    0    0  0.15641157844E+02 -0.51739248911E+01  0.11727646579E+01  0.16516376552E+02  0.00000000000E+00 0.  1.
<mgrwt>
<rscale>  0 0.14991978E+03</rscale>
<asrwt>0</asrwt>
<pdfrwt beam="1">  1        1 0.67577813E-01 0.15643291E+03</pdfrwt>
<pdfrwt beam="2">  1       -1 0.77177011E-02 0.15643291E+03</pdfrwt>
<totfact> 0.47364862E+03</totfact>
</mgrwt>
</event>
<event>
 7    1  0.8165933E-006  0.1395857E+03  0.7546771E-02  0.1229936E+00
         -2   -1    0    0    0  501 -0.00000000000E+00  0.00000000000E+00  0.45396193956E+02  0.45396193956E+02  0.00000000000E+00 0.  1.
          2   -1    0    0  501    0  0.00000000000E+00 -0.00000000000E+00 -0.39252040528E+03  0.39252040528E+03  0.00000000000E+00 0. -1.
         23    2    1    2    0    0  0.40009879540E+02 -0.47267102725E+02 -0.29268825659E+03  0.32426929489E+03  0.12509672500E+03 0.  0.
          5    1    3    3  502    0 -0.26404345051E+02 -0.28248484198E+02 -0.22172604929E+03  0.22512151658E+03  0.47000000000E+01 0. -1.
         -5    1    3    3    0  502  0.66414224592E+02 -0.19018618527E+02 -0.70962207301E+02  0.99147778310E+02  0.47000000000E+01 0. -1.
        -11    1    1    2    0    0 -0.46805096116E+02  0.55021660487E+02 -0.16180032601E+02  0.74026303434E+02  0.00000000000E+00 0.  1.
         11    1    1    2    0    0  0.67952165751E+01 -0.77545577622E+01 -0.38255922141E+02  0.39621000912E+02  0.00000000000E+00 0. -1.
<mgrwt>
<rscale>  0 0.12834289E+03</rscale>
<asrwt>0</asrwt>
<pdfrwt beam="2">  1        2 0.60387754E-01 0.13958567E+03</pdfrwt>
<pdfrwt beam="1">  1       -2 0.69840299E-02 0.13958567E+03</pdfrwt>
<totfact> 0.90803398E+03</totfact>
</mgrwt>
</event>
<event>
 7    1  0.8165933E-006  0.1311587E+03  0.7546771E-02  0.1241539E+00
          1   -1    0    0  501    0  0.00000000000E+00  0.00000000000E+00  0.34962154691E+03  0.34962154691E+03  0.00000000000E+00 0. -1.
         -1   -1    0    0    0  501 -0.00000000000E+00 -0.00000000000E+00 -0.36868456072E+02  0.36868456072E+02  0.00000000000E+00 0.  1.
         23    2    1    2    0    0 -0.65330849500E+01  0.39199627282E+02  0.19969915355E+03  0.23891914966E+03  0.12499326448E+03 0.  0.
          5    1    3    3  502    0 -0.40360155174E+02 -0.26918323593E+02  0.12178427929E+03  0.13117560350E+03  0.47000000000E+01 0. -1.
         -5    1    3    3    0  502  0.33827070224E+02  0.66117950876E+02  0.77914874260E+02  0.10774354616E+03  0.47000000000E+01 0. -1.
        -11    1    1    2    0    0  0.33160473327E+02 -0.19940538276E+02  0.10810437978E+02  0.40175958324E+02  0.00000000000E+00 0.  1.
         11    1    1    2    0    0 -0.26627388377E+02 -0.19259089006E+02  0.10224349931E+03  0.10739489500E+03  0.00000000000E+00 0. -1.
<mgrwt>
<rscale>  0 0.12094943E+03</rscale>
<asrwt>0</asrwt>
<pdfrwt beam="1">  1        1 0.53787928E-01 0.13115871E+03</pdfrwt>
<pdfrwt beam="2">  1       -1 0.56720704E-02 0.13115871E+03</pdfrwt>
<totfact> 0.99110333E+03</totfact>
</mgrwt>
</event>
<event>
 7    1  0.8165933E-006  0.1477060E+03  0.7546771E-02  0.1213127E+00
         -2   -1    0    0    0  501 -0.00000000000E+00  0.00000000000E+00  0.12209983350E+02  0.12209983350E+02  0.00000000000E+00 0.  1.
          2   -1    0    0  501    0  0.00000000000E+00 -0.00000000000E+00 -0.14731216034E+04  0.14731216034E+04  0.00000000000E+00 0. -1.
         23    2    1    2    0    0 -0.73154443444E+02 -0.29025396950E+02 -0.86341536636E+03  0.87595842296E+03  0.12499207023E+03 0.  0.
          5    1    3    3  502    0 -0.77712794284E+02  0.14246318995E+02 -0.28194676163E+03  0.29284518503E+03  0.47000000000E+01 0.  1.
         -5    1    3    3    0  502  0.45583508401E+01 -0.43271715945E+02 -0.58146860473E+03  0.58311323793E+03  0.47000000000E+01 0.  1.
        -11    1    1    2    0    0 -0.12081974928E+02  0.27364443738E+02 -0.92071024023E+02  0.96808369287E+02  0.00000000000E+00 0.  1.
         11    1    1    2    0    0  0.85236418372E+02  0.16609532122E+01 -0.50542522962E+03  0.51256479446E+03  0.00000000000E+00 0. -1.
<mgrwt>
<rscale>  0 0.14015032E+03</rscale>
<asrwt>0</asrwt>
<pdfrwt beam="2">  1        2 0.22663404E+00 0.14770600E+03</pdfrwt>
<pdfrwt beam="1">  1       -2 0.18784594E-02 0.14770600E+03</pdfrwt>
<totfact> 0.11673705E+04</totfact>
</mgrwt>
</event>
<event>
 7    1  0.8165933E-006  0.1761751E+03  0.7546771E-02  0.1178909E+00
         -3   -1    0    0    0  501 -0.00000000000E+00  0.00000000000E+00  0.42471876521E+03  0.42471876521E+03  0.00000000000E+00 0.  1.
          3   -1    0    0  501    0  0.00000000000E+00 -0.00000000000E+00 -0.63503137119E+02  0.63503137119E+02  0.00000000000E+00 0. -1.
         23    2    1    2    0    0 -0.58614741689E+02  0.10945433808E+03  0.22894798055E+03  0.28888549964E+03  0.12498685545E+03 0.  0.
          5    1    3    3  502    0 -0.36030494330E+02  0.13539023797E+03  0.16856732551E+03  0.21923901635E+03  0.47000000000E+01 0. -1.
         -5    1    3    3    0  502 -0.22584247358E+02 -0.25935899887E+02  0.60380655039E+02  0.69646483289E+02  0.47000000000E+01 0. -1.
        -11    1    1    2    0    0 -0.82954172771E+01 -0.13392230000E+02  0.59376146805E+02  0.61430388095E+02  0.00000000000E+00 0.  1.
         11    1    1    2    0    0  0.66910158966E+02 -0.96062108085E+02  0.72891500742E+02  0.13790601460E+03  0.00000000000E+00 0. -1.
<mgrwt>
<rscale>  0 0.16898605E+03</rscale>
<asrwt>0</asrwt>
<pdfrwt beam="2">  1        3 0.97697136E-02 0.17617507E+03</pdfrwt>
<pdfrwt beam="1">  1       -3 0.65341347E-01 0.17617507E+03</pdfrwt>
<totfact> 0.42463674E+02</totfact>
</mgrwt>
</event>
<event>
 7    1  0.8165933E-006  0.1284758E+03  0.7546771E-02  0.1244557E+00
          2   -1    0    0  501    0  0.00000000000E+00  0.00000000000E+00  0.78801326910E+03  0.78801326910E+03  0.00000000000E+00 0. -1.
         -2   -1    0    0    0  501 -0.00000000000E+00 -0.00000000000E+00 -0.16708495246E+02  0.16708495246E+02  0.00000000000E+00 0.  1.
         23    2    1    2    0    0  0.25723051032E+02 -0.14840017958E+02  0.53147415054E+03  0.54678222828E+03  0.12499652391E+03 0.  0.
          5    1    3    3  502    0  0.56541941633E+02 -0.10313463849E+02  0.11060159511E+03  0.12473235964E+03  0.47000000000E+01 0.  1.
         -5    1    3    3    0  502 -0.30818890601E+02 -0.45265541091E+01  0.42087255543E+03  0.42204986864E+03  0.47000000000E+01 0.  1.
        -11    1    1    2    0    0  0.13026991210E+02  0.35362554562E+02  0.47292691398E+02  0.60471575346E+02  0.00000000000E+00 0. -1.
         11    1    1    2    0    0 -0.38750042242E+02 -0.20522536605E+02  0.19253793192E+03  0.19746796072E+03  0.00000000000E+00 0.  1.
<mgrwt>
<rscale>  0 0.11911903E+03</rscale>
<asrwt>0</asrwt>
<pdfrwt beam="1">  1        2 0.12123278E+00 0.12847581E+03</pdfrwt>
<pdfrwt beam="2">  1       -2 0.25705383E-02 0.12847581E+03</pdfrwt>
<totfact> 0.18240498E+04</totfact>
</mgrwt>
</event>
<event>
 7    1  0.8165933E-006  0.1714803E+03  0.7546771E-02  0.1183006E+00
          1   -1    0    0  501    0  0.00000000000E+00  0.00000000000E+00  0.50688205998E+03  0.50688205998E+03  0.00000000000E+00 0. -1.
         -1   -1    0    0    0  501 -0.00000000000E+00 -0.00000000000E+00 -0.50863805263E+02  0.50863805263E+02  0.00000000000E+00 0.  1.
         23    2    1    2    0    0  0.11732822411E+03 -0.36133270278E+01  0.27695680292E+03  0.32574616185E+03  0.12500609175E+03 0.  0.
          5    1    3    3  502    0  0.14100778685E+03  0.13644038242E+02  0.23222481815E+03  0.27206582272E+03  0.47000000000E+01 0. -1.
         -5    1    3    3    0  502 -0.23679562737E+02 -0.17257365270E+02  0.44731984770E+02  0.53680339128E+02  0.47000000000E+01 0. -1.
        -11    1    1    2    0    0 -0.10613647314E+03 -0.28987150892E+02  0.15451641680E+03  0.18968534184E+03  0.00000000000E+00 0. -1.
         11    1    1    2    0    0 -0.11191750973E+02  0.32600477920E+02  0.24545034997E+02  0.42314361551E+02  0.00000000000E+00 0.  1.
<mgrwt>
<rscale>  0 0.16514680E+03</rscale>
<asrwt>0</asrwt>
<pdfrwt beam="1">  1        1 0.77981852E-01 0.17148029E+03</pdfrwt>
<pdfrwt beam="2">  1       -1 0.78252012E-02 0.17148029E+03</pdfrwt>
<totfact> 0.38667061E+03</totfact>
</mgrwt>
</event>
<event>
 7    1  0.8165933E-006  0.3413849E+03  0.7546771E-02  0.1067276E+00
         -2   -1    0    0    0  501 -0.00000000000E+00  0.00000000000E+00  0.53777534053E+03  0.53777534053E+03  0.00000000000E+00 0. -1.
          2   -1    0    0  501    0  0.00000000000E+00 -0.00000000000E+00 -0.33102229959E+03  0.33102229959E+03  0.00000000000E+00 0.  1.
         23    2    1    2    0    0  0.30777199120E+03 -0.78702532905E+02 -0.15779535349E+03  0.37608915010E+03  0.12500395186E+03 0.  0.
          5    1    3    3  502    0  0.25412111106E+03 -0.53200997627E+02 -0.17609861661E+03  0.31375260638E+03  0.47000000000E+01 0. -1.
         -5    1    3    3    0  502  0.53650880146E+02 -0.25501535277E+02  0.18303263122E+02  0.62336543719E+02  0.47000000000E+01 0. -1.
        -11    1    1    2    0    0 -0.10195339644E+03  0.40529645164E+02  0.19325958589E+03  0.22223054408E+03  0.00000000000E+00 0. -1.
         11    1    1    2    0    0 -0.20581859476E+03  0.38172887740E+02  0.17128880854E+03  0.27047794594E+03  0.00000000000E+00 0.  1.
<mgrwt>
<rscale>  0 0.33887634E+03</rscale>
<asrwt>0</asrwt>
<pdfrwt beam="2">  1        2 0.50926508E-01 0.34138494E+03</pdfrwt>
<pdfrwt beam="1">  1       -2 0.82734668E-01 0.34138494E+03</pdfrwt>
<totfact> 0.13017248E+02</totfact>
</mgrwt>
</event>
<event>
 6    1  0.8165933E-006  0.1890513E+03  0.7546771E-02  0.1188482E+00
         -2   -1    0    0    0  501 -0.00000000000E+00  0.00000000000E+00  0.26530577439E+03  0.26530577439E+03  0.00000000000E+00 0.  1.
          2   -1    0    0  501    0  0.00000000000E+00 -0.00000000000E+00 -0.85417308993E+02  0.85417308993E+02  0.00000000000E+00 0. -1.
          5    1    1    2  502    0 -0.45417885874E+02 -0.53872605300E+02 -0.12401628306E+02  0.71700295283E+02  0.47000000000E+01 0. -1.
         -5    1    1    2    0  502  0.63412304046E+02  0.80184521355E+02  0.77048867813E+02  0.12809877361E+03  0.47000000000E+01 0.  1.
        -11    1    1    2    0    0  0.33700999261E+02 -0.39877456624E+00  0.19119754530E+02  0.38748953349E+02  0.00000000000E+00 0.  1.
         11    1    1    2    0    0 -0.51695417434E+02 -0.25913141488E+02  0.96121471365E+02  0.11217506114E+03  0.00000000000E+00 0. -1.
<mgrwt>
<rscale>  0 0.16019024E+03</rscale>
<asrwt>0</asrwt>
<pdfrwt beam="2">  1        2 0.13141125E-01 0.18905132E+03</pdfrwt>
<pdfrwt beam="1">  1       -2 0.40816273E-01 0.18905132E+03</pdfrwt>
<totfact> 0.25685884E+03</totfact>
</mgrwt>
</event>
<event>
 7    1  0.8165933E-006  0.1399935E+03  0.7546771E-02  0.1223772E+00
          1   -1    0    0  501    0  0.00000000000E+00  0.00000000000E+00  0.16837619548E+03  0.16837619548E+03  0.00000000000E+00 0. -1.
         -1   -1    0    0    0  501 -0.00000000000E+00 -0.00000000000E+00 -0.98042477310E+02  0.98042477310E+02  0.00000000000E+00 0.  1.
         23    2    1    2    0    0 -0.13165030553E+02 -0.61687569216E+02  0.13976620594E+02  0.14068943558E+03  0.12497798661E+03 0.  0.
          5    1    3    3  502    0  0.10876821327E+02 -0.21850154374E+02  0.66125093226E+02  0.70642426646E+02  0.47000000000E+01 0.  1.
         -5    1    3    3    0  502 -0.24041851880E+02 -0.39837414843E+02 -0.52148472631E+02  0.70047008936E+02  0.47000000000E+01 0.  1.
        -11    1    1    2    0    0  0.33476019492E+02  0.57612875231E+02  0.10184345895E+01  0.66640261722E+02  0.00000000000E+00 0.  1.
         11    1    1    2    0    0 -0.20310988940E+02  0.40746939858E+01  0.55338662988E+02  0.59088975487E+02  0.00000000000E+00 0. -1.
<mgrwt>
<rscale>  0 0.13251457E+03</rscale>
<asrwt>0</asrwt>
<pdfrwt beam="1">  1        1 0.25904030E-01 0.13999347E+03</pdfrwt>
<pdfrwt beam="2">  1       -1 0.15083458E-01 0.13999347E+03</pdfrwt>
<totfact> 0.55626755E+03</totfact>
</mgrwt>
</event>
<event>
 7    1  0.8165933E-006  0.1315292E+03  0.7546771E-02  0.1239367E+00
          1   -1    0    0  501    0  0.00000000000E+00  0.00000000000E+00  0.27994924360E+03  0.27994924360E+03  0.00000000000E+00 0. -1.
         -1   -1    0    0    0  501 -0.00000000000E+00 -0.00000000000E+00 -0.17397518195E+03  0.17397518195E+03  0.00000000000E+00 0.  1.
         23    2    1    2    0    0 -0.40748796195E+02 -0.38151233137E+01  0.24828501757E+03  0.28097218809E+03  0.12499960391E+03 0.  0.
          5    1    3    3  502    0  0.29860473955E+02 -0.39256036372E+02  0.12509668010E+03  0.13455093337E+03  0.47000000000E+01 0. -1.
         -5    1    3    3    0  502 -0.70609270150E+02  0.35440913058E+02  0.12318833746E+03  0.14642125473E+03  0.47000000000E+01 0. -1.
        -11    1    1    2    0    0  0.27059701398E+02 -0.25441004613E+02 -0.12508052846E+02  0.39190860433E+02  0.00000000000E+00 0.  1.
         11    1    1    2    0    0  0.13689094797E+02  0.29256127927E+02 -0.12980290307E+03  0.13376137703E+03  0.00000000000E+00 0. -1.
<mgrwt>
<rscale>  0 0.12228947E+03</rscale>
<asrwt>0</asrwt>
<pdfrwt beam="1">  1        1 0.43069114E-01 0.13152916E+03</pdfrwt>
<pdfrwt beam="2">  1       -1 0.26765413E-01 0.13152916E+03</pdfrwt>
<totfact> 0.11738840E+03</totfact>
</mgrwt>
</event>
<event>
 7    1  0.8165933E-006  0.1793684E+03  0.7546771E-02  0.1178092E+00
         -2   -1    0    0    0  501 -0.00000000000E+00  0.00000000000E+00  0.86606075421E+02  0.86606075421E+02  0.00000000000E+00 0.  1.
          2   -1    0    0  501    0  0.00000000000E+00 -0.00000000000E+00 -0.80814717494E+03  0.80814717494E+03  0.00000000000E+00 0. -1.
         23    2    1    2    0    0  0.13300674058E+02 -0.12794703930E+03 -0.72888625417E+03  0.75063186194E+03  0.12500267132E+03 0.  0.
          5    1    3    3  502    0  0.52835490901E+02 -0.11881021464E+03 -0.63580620458E+03  0.64898310916E+03  0.47000000000E+01 0.  1.
         -5    1    3    3    0  502 -0.39534816843E+02 -0.91368246658E+01 -0.93080049595E+02  0.10164875277E+03  0.47000000000E+01 0.  1.
        -11    1    1    2    0    0 -0.21801459089E+02  0.11948512356E+03 -0.11266842629E+02  0.12197926100E+03  0.00000000000E+00 0. -1.
         11    1    1    2    0    0  0.85007850308E+01  0.84619157437E+01  0.18611997282E+02  0.22142127427E+02  0.00000000000E+00 0.  1.
<mgrwt>
<rscale>  0 0.16976586E+03</rscale>
<asrwt>0</asrwt>
<pdfrwt beam="2">  1        2 0.12433034E+00 0.17936839E+03</pdfrwt>
<pdfrwt beam="1">  1       -2 0.13324011E-01 0.17936839E+03</pdfrwt>
<totfact> 0.14552815E+03</totfact>
</mgrwt>
</event>
<event>
 7    1  0.8165933E-006  0.1341042E+03  0.7546771E-02  0.1233948E+00
          2   -1    0    0  501    0  0.00000000000E+00  0.00000000000E+00  0.28704163066E+03  0.28704163066E+03  0.00000000000E+00 0. -1.
         -2   -1    0    0    0  501 -0.00000000000E+00 -0.00000000000E+00 -0.49794256501E+02  0.49794256501E+02  0.00000000000E+00 0.  1.
         23    2    1    2    0    0 -0.31130955414E+02  0.37326546118E+02  0.15183862562E+03  0.20258060070E+03  0.12498609571E+03 0.  0.
          5    1    3    3  502    0 -0.44989598009E+02 -0.98963706190E+01  0.37481103230E+01  0.46455789860E+02  0.47000000000E+01 0. -1.
         -5    1    3    3    0  502  0.13858642596E+02  0.47222916737E+02  0.14809051530E+03  0.15612481084E+03  0.47000000000E+01 0. -1.
        -11    1    1    2    0    0  0.63866225340E+02 -0.24978145646E+02  0.55270031912E+02  0.88077119200E+02  0.00000000000E+00 0. -1.
         11    1    1    2    0    0 -0.32735269926E+02 -0.12348400472E+02  0.30138716625E+02  0.46178167257E+02  0.00000000000E+00 0.  1.
<mgrwt>
<rscale>  0 0.12572042E+03</rscale>
<asrwt>0</asrwt>
<pdfrwt beam="1">  1        2 0.44160250E-01 0.13410418E+03</pdfrwt>
<pdfrwt beam="2">  1       -2 0.76606550E-02 0.13410418E+03</pdfrwt>
<totfact> 0.10953319E+04</totfact>
</mgrwt>
</event>
<event>
 7    1  0.8165933E-006  0.1289608E+03  0.7546771E-02  0.1239163E+00
         -2   -1    0    0    0  501 -0.00000000000E+00  0.00000000000E+00  0.10926873879E+02  0.10926873879E+02  0.00000000000E+00 0.  1.
          2   -1    0    0  501    0  0.00000000000E+00 -0.00000000000E+00 -0.14996513335E+04  0.14996513335E+04  0.00000000000E+00 0. -1.
         23    2    1    2    0    0 -0.11490154832E+02 -0.29532277137E+02 -0.11159540105E+04  0.11233807143E+04  0.12500678669E+03 0.  0.
          5    1    3    3  502    0  0.23768552006E+02  0.36055680437E+02 -0.21512994054E+03  0.21947195144E+03  0.47000000000E+01 0. -1.
         -5    1    3    3    0  502 -0.35258706838E+02 -0.65587957574E+02 -0.90082406998E+03  0.90390876289E+03  0.47000000000E+01 0. -1.
        -11    1    1    2    0    0 -0.19007724266E+02  0.56319127133E+02 -0.27472322944E+03  0.28108004279E+03  0.00000000000E+00 0. -1.
         11    1    1    2    0    0  0.30497879098E+02 -0.26786849996E+02 -0.98047219663E+02  0.10611745024E+03  0.00000000000E+00 0.  1.
<mgrwt>
<rscale>  0 0.12241644E+03</rscale>
<asrwt>0</asrwt>
<pdfrwt beam="2">  1        2 0.23071563E+00 0.12896075E+03</pdfrwt>
<pdfrwt beam="1">  1       -2 0.16810572E-02 0.12896075E+03</pdfrwt>
<totfact> 0.13193279E+04</totfact>
</mgrwt>
</event>
<event>
 7    1  0.8165933E-006  0.1469402E+03  0.7546771E-02  0.1213795E+00
         -2   -1    0    0    0  501 -0.00000000000E+00  0.00000000000E+00  0.15538146433E+03  0.15538146433E+03  0.00000000000E+00 0.  1.
          2   -1    0    0  501    0  0.00000000000E+00 -0.00000000000E+00 -0.12266011476E+03  0.12266011476E+03  0.00000000000E+00 0. -1.
         23    2    1    2    0    0  0.73418931481E+02  0.24041611066E+02 -0.17649961171E+02  0.14799642115E+03  0.12499232368E+03 0.  0.
          5    1    3    3  502    0  0.51022237794E+02 -0.45135397919E+02 -0.29123972316E+02  0.74234551647E+02  0.47000000000E+01 0.  1.
         -5    1    3    3    0  502  0.22396693687E+02  0.69177008985E+02  0.11474011145E+02  0.73761869499E+02  0.47000000000E+01 0.  1.
        -11    1    1    2    0    0  0.75380812615E+01 -0.25028321324E+02 -0.11092093589E+02  0.28394965709E+02  0.00000000000E+00 0. -1.
         11    1    1    2    0    0 -0.80957012742E+02  0.98671025773E+00  0.61463404337E+02  0.10165019224E+03  0.00000000000E+00 0.  1.
<mgrwt>
<rscale>  0 0.13965434E+03</rscale>
<asrwt>0</asrwt>
<pdfrwt beam="2">  1        2 0.18870787E-01 0.14694019E+03</pdfrwt>
<pdfrwt beam="1">  1       -2 0.23904841E-01 0.14694019E+03</pdfrwt>
<totfact> 0.43932145E+03</totfact>
</mgrwt>
</event>
<event>
 7    1  0.8165933E-006  0.1297229E+03  0.7546771E-02  0.1241700E+00
          2   -1    0    0  501    0  0.00000000000E+00  0.00000000000E+00  0.16390545878E+03  0.16390545878E+03  0.00000000000E+00 0. -1.
         -2   -1    0    0    0  501 -0.00000000000E+00 -0.00000000000E+00 -0.88788723682E+02  0.88788723682E+02  0.00000000000E+00 0.  1.
         23    2    1    2    0    0 -0.24083097495E+02  0.24842704891E+02  0.84052988591E+02  0.15457341241E+03  0.12502351524E+03 0.  0.
          5    1    3    3  502    0  0.10475868751E+02 -0.26273909655E+02 -0.18979741566E+02  0.34385792772E+02  0.47000000000E+01 0.  1.
         -5    1    3    3    0  502 -0.34558966246E+02  0.51116614546E+02  0.10303273016E+03  0.12018761964E+03  0.47000000000E+01 0.  1.
        -11    1    1    2    0    0  0.75109676677E+01 -0.11892638367E+02  0.41316057177E+02  0.43644771317E+02  0.00000000000E+00 0. -1.
         11    1    1    2    0    0  0.16572129828E+02 -0.12950066524E+02 -0.50252310672E+02  0.54475998732E+02  0.00000000000E+00 0.  1.
<mgrwt>
<rscale>  0 0.12085110E+03</rscale>
<asrwt>0</asrwt>
<pdfrwt beam="1">  1        2 0.25216224E-01 0.12972292E+03</pdfrwt>
<pdfrwt beam="2">  1       -2 0.13659804E-01 0.12972292E+03</pdfrwt>
<totfact> 0.80292442E+03</totfact>
</mgrwt>
</event>
<event>
 7    1  0.8165933E-006  0.1684429E+03  0.7546771E-02  0.1185348E+00
          4   -1    0    0  501    0  0.00000000000E+00  0.00000000000E+00  0.63477786154E+03  0.63477786154E+03  0.00000000000E+00 0. -1.
         -4   -1    0    0    0  501 -0.00000000000E+00 -0.00000000000E+00 -0.39434436959E+02  0.39434436959E+02  0.00000000000E+00 0.  1.
         23    2    1    2    0    0  0.15519299723E+02 -0.11184647028E+03  0.33118471567E+03  0.37155930549E+03  0.12499007971E+03 0.  0.
          5    1    3    3  502    0  0.42012438241E+02 -0.16409843363E+02  0.29752212389E+02  0.54236630317E+02  0.47000000000E+01 0. -1.
         -5    1    3    3    0  502 -0.26493138518E+02 -0.95436626918E+02  0.30143250328E+03  0.31732267518E+03  0.47000000000E+01 0. -1.
        -11    1    1    2    0    0 -0.32859251706E+02  0.53801883113E+02  0.21673876306E+03  0.22572120959E+03  0.00000000000E+00 0. -1.
         11    1    1    2    0    0  0.17339951983E+02  0.58044587168E+02  0.47419945857E+02  0.76931783415E+02  0.00000000000E+00 0.  1.
<mgrwt>
<rscale>  0 0.16300235E+03</rscale>
<asrwt>0</asrwt>
<pdfrwt beam="1">  1        4 0.97658125E-01 0.16844287E+03</pdfrwt>
<pdfrwt beam="2">  1       -4 0.60668369E-02 0.16844287E+03</pdfrwt>
<totfact> 0.27289404E+02</totfact>
</mgrwt>
</event>
<event>
 6    1  0.8165933E-006  0.1714485E+03  0.7546771E-02  0.1201345E+00
          1   -1    0    0  501    0  0.00000000000E+00  0.00000000000E+00  0.42663142286E+03  0.42663142286E+03  0.00000000000E+00 0. -1.
         -1   -1    0    0    0  501 -0.00000000000E+00 -0.00000000000E+00 -0.13464765239E+03  0.13464765239E+03  0.00000000000E+00 0.  1.
          5    1    1    2  502    0  0.65148066398E+02 -0.70404798406E+02  0.27591199791E+03  0.29214829587E+03  0.47000000000E+01 0. -1.
         -5    1    1    2    0  502 -0.58013046430E+02  0.38451707653E+02  0.11176655028E+03  0.13174938003E+03  0.47000000000E+01 0.  1.
        -11    1    1    2    0    0 -0.46340267982E+02 -0.23341278131E+01 -0.42188458611E+02  0.62711519111E+02  0.00000000000E+00 0.  1.
         11    1    1    2    0    0  0.39205248013E+02  0.34287218566E+02 -0.53506319111E+02  0.74669880230E+02  0.00000000000E+00 0. -1.
<mgrwt>
<rscale>  0 0.14929218E+03</rscale>
<asrwt>0</asrwt>
<pdfrwt beam="1">  1        1 0.65635603E-01 0.17144848E+03</pdfrwt>
<pdfrwt beam="2">  1       -1 0.20715024E-01 0.17144848E+03</pdfrwt>
<totfact> 0.10578100E+03</totfact>
</mgrwt>
</event>
<event>
 7    1  0.8165933E-006  0.1554224E+03  0.7546771E-02  0.1203123E+00
          1   -1    0    0  501    0  0.00000000000E+00  0.00000000000E+00  0.29359072488E+03  0.29359072488E+03  0.00000000000E+00 0. -1.
         -1   -1    0    0    0  501 -0.00000000000E+00 -0.00000000000E+00 -0.96109012483E+02  0.96109012483E+02  0.00000000000E+00 0.  1.
         23    2    1    2    0    0 -0.15615043482E+01 -0.92349553710E+02  0.21055776018E+03  0.26170726667E+03  0.12500097875E+03 0.  0.
          5    1    3    3  502    0 -0.47564948214E+02 -0.26301198225E+02  0.26263728260E+02  0.60547921094E+02  0.47000000000E+01 0. -1.
         -5    1    3    3    0  502  0.46003443866E+02 -0.66048355485E+02  0.18429403192E+03  0.20115934557E+03  0.47000000000E+01 0. -1.
        -11    1    1    2    0    0  0.62936821946E+01  0.37964833773E+02  0.37385202049E+02  0.53652515050E+02  0.00000000000E+00 0. -1.
         11    1    1    2    0    0 -0.47321778464E+01  0.54384719938E+02 -0.50461249836E+02  0.74339955642E+02  0.00000000000E+00 0.  1.
<mgrwt>
<rscale>  0 0.14786376E+03</rscale>
<asrwt>0</asrwt>
<pdfrwt beam="1">  1        1 0.45167803E-01 0.15542240E+03</pdfrwt>
<pdfrwt beam="2">  1       -1 0.14786002E-01 0.15542240E+03</pdfrwt>
<totfact> 0.28899315E+03</totfact>
</mgrwt>
</event>
<event>
 7    1  0.9035582E-006  0.2116691E+03  0.7546771E-02  0.1143975E+00
         -1   -1    0    0    0  501 -0.00000000000E+00  0.00000000000E+00  0.57383769309E+02  0.57383769309E+02  0.00000000000E+00 0.  1.
          1   -1    0    0  501    0  0.00000000000E+00 -0.00000000000E+00 -0.87860352680E+03  0.87860352680E+03  0.00000000000E+00 0. -1.
         23    2    1    2    0    0  0.17081030009E+03  0.18473073401E+01 -0.62711243560E+03  0.66187145247E+03  0.12499696616E+03 0.  0.
          5    1    3    3  502    0 -0.14618551361E+02  0.34452173282E+01 -0.13578976429E+03  0.13669865271E+03  0.47000000000E+01 0.  1.
         -5    1    3    3    0  502  0.18542885145E+03 -0.15979099881E+01 -0.49132267131E+03  0.52517279976E+03  0.47000000000E+01 0.  1.
        -11    1    1    2    0    0 -0.11122779835E+03 -0.24737369119E+02 -0.17248736716E+03  0.20672554846E+03  0.00000000000E+00 0. -1.
         11    1    1    2    0    0 -0.59582501738E+02  0.22890061779E+02 -0.21619954735E+02  0.67390295179E+02  0.00000000000E+00 0.  1.
<mgrwt>
<rscale>  0 0.20698637E+03</rscale>
<asrwt>0</asrwt>
<pdfrwt beam="2">  1        1 0.13516976E+00 0.21166911E+03</pdfrwt>
<pdfrwt beam="1">  1       -1 0.88282729E-02 0.21166911E+03</pdfrwt>
<totfact> 0.14680373E+03</totfact>
</mgrwt>
</event>
<event>
 7    1  0.8165933E-006  0.1163842E+03  0.7546771E-02  0.1261551E+00
          2   -1    0    0  501    0  0.00000000000E+00  0.00000000000E+00  0.41293031853E+02  0.41293031853E+02  0.00000000000E+00 0. -1.
         -2   -1    0    0    0  501 -0.00000000000E+00 -0.00000000000E+00 -0.28748081560E+03  0.28748081560E+03  0.00000000000E+00 0.  1.
         23    2    1    2    0    0  0.65936702757E+01 -0.97308955785E+01 -0.86804058494E+02  0.14519031289E+03  0.11578909953E+03 0.  0.
          5    1    3    3  502    0 -0.33568019641E+01  0.29514858907E+02  0.16381141044E+02  0.34246558916E+02  0.47000000000E+01 0. -1.
         -5    1    3    3    0  502  0.99504722398E+01 -0.39245754485E+02 -0.10318519954E+03  0.11094375398E+03  0.47000000000E+01 0.  1.
        -11    1    1    2    0    0  0.28106978988E+01  0.39248230664E+02 -0.27241143286E+02  0.47858160438E+02  0.00000000000E+00 0. -1.
         11    1    1    2    0    0 -0.94043681746E+01 -0.29517335086E+02 -0.13214258197E+03  0.13572537412E+03  0.00000000000E+00 0.  1.
<mgrwt>
<rscale>  0 0.10947214E+03</rscale>
<asrwt>0</asrwt>
<pdfrwt beam="1">  1        2 0.63527741E-02 0.11638420E+03</pdfrwt>
<pdfrwt beam="2">  1       -2 0.44227818E-01 0.11638420E+03</pdfrwt>
<totfact> 0.52619257E+03</totfact>
</mgrwt>
</event>
<event>
 7    1  0.8165933E-006  0.1421040E+03  0.7546771E-02  0.1220832E+00
         -4   -1    0    0    0  501 -0.00000000000E+00  0.00000000000E+00  0.14590294910E+03  0.14590294910E+03  0.00000000000E+00 0.  1.
          4   -1    0    0  501    0  0.00000000000E+00 -0.00000000000E+00 -0.11643129000E+03  0.11643129000E+03  0.00000000000E+00 0. -1.
         23    2    1    2    0    0  0.64044058259E+02  0.21639066894E+02 -0.73033423918E+01  0.14229152183E+03  0.12499459093E+03 0.  0.
          5    1    3    3  502    0  0.70326913088E+02  0.22355971339E+02 -0.56128921146E+02  0.92834314496E+02  0.47000000000E+01 0.  1.
         -5    1    3    3    0  502 -0.62828548287E+01 -0.71690444425E+00  0.48825578755E+02  0.49457207336E+02  0.47000000000E+01 0.  1.
        -11    1    1    2    0    0 -0.60312356241E+02  0.19788296868E+02 -0.15340762821E+01  0.63494176098E+02  0.00000000000E+00 0.  1.
         11    1    1    2    0    0 -0.37317020178E+01 -0.41427363763E+02  0.38309077773E+02  0.56548541167E+02  0.00000000000E+00 0. -1.
<mgrwt>
<rscale>  0 0.13456702E+03</rscale>
<asrwt>0</asrwt>
<pdfrwt beam="2">  1        4 0.17912506E-01 0.14210397E+03</pdfrwt>
<pdfrwt beam="1">  1       -4 0.22446608E-01 0.14210397E+03</pdfrwt>
<totfact> 0.83910918E+02</totfact>
</mgrwt>
</event>
<event>
 7    1  0.8165933E-006  0.1374678E+03  0.7546771E-02  0.1228229E+00
         -1   -1    0    0    0  501 -0.00000000000E+00  0.00000000000E+00  0.67809455734E+02  0.67809455734E+02  0.00000000000E+00 0.  1.
          1   -1    0    0  501    0  0.00000000000E+00 -0.00000000000E+00 -0.24509707709E+03  0.24509707709E+03  0.00000000000E+00 0. -1.
         23    2    1    2    0    0  0.43404627243E+02 -0.37260880647E+02 -0.14542816291E+03  0.20011685898E+03  0.12500028716E+03 0.  0.
          5    1    3    3  502    0 -0.21344378861E+02 -0.56779430160E+02 -0.10452566673E+03  0.12094292540E+03  0.47000000000E+01 0.  1.
         -5    1    3    3    0  502  0.64749006104E+02  0.19518549513E+02 -0.40902496176E+02  0.79173933589E+02  0.47000000000E+01 0.  1.
        -11    1    1    2    0    0 -0.22201256887E+02  0.64667560508E+02 -0.37027900343E+02  0.77755093680E+02  0.00000000000E+00 0. -1.
         11    1    1    2    0    0 -0.21203370356E+02 -0.27406679861E+02  0.51684418910E+01  0.35034580161E+02  0.00000000000E+00 0.  1.
<mgrwt>
<rscale>  0 0.12948043E+03</rscale>
<asrwt>0</asrwt>
<pdfrwt beam="2">  1        1 0.37707242E-01 0.13746784E+03</pdfrwt>
<pdfrwt beam="1">  1       -1 0.10432224E-01 0.13746784E+03</pdfrwt>
<totfact> 0.61654287E+03</totfact>
</mgrwt>
</event>
<event>
 7    1  0.8165933E-006  0.1460533E+03  0.7546771E-02  0.1214829E+00
         -2   -1    0    0    0  501 -0.00000000000E+00  0.00000000000E+00  0.24519470885E+03  0.24519470885E+03  0.00000000000E+00 0. -1.
          2   -1    0    0  501    0  0.00000000000E+00 -0.00000000000E+00 -0.72816625517E+02  0.72816625517E+02  0.00000000000E+00 0.  1.
         23    2    1    2    0    0  0.32622362230E+02 -0.68128628511E+02  0.76672318066E+02  0.16495518086E+03  0.12500335514E+03 0.  0.
          5    1    3    3  502    0  0.27111393610E+02 -0.80651427120E+02  0.10374697338E+03  0.13425797870E+03  0.47000000000E+01 0.  1.
         -5    1    3    3    0  502  0.55109686202E+01  0.12522798608E+02 -0.27074655313E+02  0.30697202160E+02  0.47000000000E+01 0.  1.
        -11    1    1    2    0    0  0.40979763059E+01 -0.11173401848E+02 -0.10252682728E+02  0.15708463381E+02  0.00000000000E+00 0.  1.
         11    1    1    2    0    0 -0.36720338536E+02  0.79302030359E+02  0.10595844800E+03  0.13734769013E+03  0.00000000000E+00 0. -1.
<mgrwt>
<rscale>  0 0.13889083E+03</rscale>
<asrwt>0</asrwt>
<pdfrwt beam="2">  1        2 0.11202558E-01 0.14605330E+03</pdfrwt>
<pdfrwt beam="1">  1       -2 0.37722263E-01 0.14605330E+03</pdfrwt>
<totfact> 0.35660611E+03</totfact>
</mgrwt>
</event>
<event>
 7    1  0.8165933E-006  0.1254362E+03  0.7546771E-02  0.1250056E+00
          4   -1    0    0  501    0  0.00000000000E+00  0.00000000000E+00  0.17159995301E+03  0.17159995301E+03  0.00000000000E+00 0. -1.
         -4   -1    0    0    0  501 -0.00000000000E+00 -0.00000000000E+00 -0.10940872601E+03  0.10940872601E+03  0.00000000000E+00 0.  1.
         23    2    1    2    0    0  0.78118231504E+01  0.69823271491E+01  0.11943311096E+03  0.17320079231E+03  0.12499787595E+03 0.  0.
          5    1    3    3  502    0 -0.35870362517E+02 -0.43821487516E+02  0.67913841897E+02  0.88551598497E+02  0.47000000000E+01 0. -1.
         -5    1    3    3    0  502  0.43682185668E+02  0.50803814665E+02  0.51519269062E+02  0.84649193817E+02  0.47000000000E+01 0. -1.
        -11    1    1    2    0    0  0.14425467458E+02  0.38271700318E+02 -0.27088144928E+02  0.49056954168E+02  0.00000000000E+00 0.  1.
         11    1    1    2    0    0 -0.22237290608E+02 -0.45254027467E+02 -0.30153739035E+02  0.58750932531E+02  0.00000000000E+00 0. -1.
<mgrwt>
<rscale>  0 0.11587812E+03</rscale>
<asrwt>0</asrwt>
<pdfrwt beam="1">  1        4 0.26399993E-01 0.12543622E+03</pdfrwt>
<pdfrwt beam="2">  1       -4 0.16832112E-01 0.12543622E+03</pdfrwt>
<totfact> 0.67758849E+02</totfact>
</mgrwt>
</event>
<event>
 7    1  0.8165933E-006  0.2324802E+03  0.7546771E-02  0.1127798E+00
         -1   -1    0    0    0  501 -0.00000000000E+00  0.00000000000E+00  0.11728492881E+03  0.11728492881E+03  0.00000000000E+00 0.  1.
          1   -1    0    0  501    0  0.00000000000E+00 -0.00000000000E+00 -0.63800777539E+03  0.63800777539E+03  0.00000000000E+00 0. -1.
         23    2    1    2    0    0  0.12248832541E+03 -0.15302845459E+03 -0.48238810589E+03  0.53548605046E+03  0.12500371100E+03 0.  0.
          5    1    3    3  502    0  0.77195112711E+02 -0.48921636490E+01 -0.16319039662E+03  0.18065495908E+03  0.47000000000E+01 0. -1.
         -5    1    3    3    0  502  0.45293212698E+02 -0.14813629094E+03 -0.31919770927E+03  0.35483109138E+03  0.47000000000E+01 0. -1.
        -11    1    1    2    0    0 -0.48986229085E+02  0.34659016172E+01 -0.14737408653E+01  0.49130795089E+02  0.00000000000E+00 0.  1.
         11    1    1    2    0    0 -0.73502096324E+02  0.14956255297E+03 -0.36860999829E+02  0.17067585864E+03  0.00000000000E+00 0. -1.
<mgrwt>
<rscale>  0 0.22836146E+03</rscale>
<asrwt>0</asrwt>
<pdfrwt beam="2">  1        1 0.98155041E-01 0.23248016E+03</pdfrwt>
<pdfrwt beam="1">  1       -1 0.18043835E-01 0.23248016E+03</pdfrwt>
<totfact> 0.77243622E+02</totfact>
</mgrwt>
</event>
<event>
 7    1  0.8165933E-006  0.1525709E+03  0.7546771E-02  0.1206219E+00
         -1   -1    0    0    0  501 -0.00000000000E+00  0.00000000000E+00  0.32662099949E+02  0.32662099949E+02  0.00000000000E+00 0.  1.
          1   -1    0    0  501    0  0.00000000000E+00 -0.00000000000E+00 -0.60301233708E+03  0.60301233708E+03  0.00000000000E+00 0. -1.
         23    2    1    2    0    0  0.61011730442E+02 -0.62701099767E+02 -0.35159677725E+03  0.38327297909E+03  0.12499609421E+03 0.  0.
          5    1    3    3  502    0 -0.30171565307E+02 -0.51774565533E+02 -0.15448586834E+03  0.16576761597E+03  0.47000000000E+01 0.  1.
         -5    1    3    3    0  502  0.91183295749E+02 -0.10926534234E+02 -0.19711090891E+03  0.21750536312E+03  0.47000000000E+01 0.  1.
        -11    1    1    2    0    0 -0.24359700997E+02  0.77949709338E+02 -0.17620080483E+03  0.19420678629E+03  0.00000000000E+00 0. -1.
         11    1    1    2    0    0 -0.36652029445E+02 -0.15248609570E+02 -0.42552655061E+02  0.58194671655E+02  0.00000000000E+00 0.  1.
<mgrwt>
<rscale>  0 0.14541834E+03</rscale>
<asrwt>0</asrwt>
<pdfrwt beam="2">  1        1 0.92771126E-01 0.15257091E+03</pdfrwt>
<pdfrwt beam="1">  1       -1 0.50249386E-02 0.15257091E+03</pdfrwt>
<totfact> 0.59183195E+03</totfact>
</mgrwt>
</event>
<event>
 7    1  0.8165933E-006  0.2019983E+03  0.7546771E-02  0.1152118E+00
          2   -1    0    0  501    0  0.00000000000E+00  0.00000000000E+00  0.49508389496E+03  0.49508389496E+03  0.00000000000E+00 0. -1.
         -2   -1    0    0    0  501 -0.00000000000E+00 -0.00000000000E+00 -0.78936852158E+02  0.78936852158E+02  0.00000000000E+00 0.  1.
         23    2    1    2    0    0  0.95756243709E+02 -0.12652659578E+03  0.28125046650E+03  0.34627323498E+03  0.12500036282E+03 0.  0.
          5    1    3    3  502    0  0.27154824382E+01  0.64470036467E+01  0.10988620437E+03  0.11020891803E+03  0.47000000000E+01 0. -1.
         -5    1    3    3    0  502  0.93040761271E+02 -0.13297359943E+03  0.17136426213E+03  0.23606431695E+03  0.47000000000E+01 0. -1.
        -11    1    1    2    0    0 -0.23273909077E+01  0.69689568724E+02  0.77464902333E+02  0.10422506335E+03  0.00000000000E+00 0. -1.
         11    1    1    2    0    0 -0.93428852802E+02  0.56837027056E+02  0.57431673972E+02  0.12352244879E+03  0.00000000000E+00 0.  1.
<mgrwt>
<rscale>  0 0.19720558E+03</rscale>
<asrwt>0</asrwt>
<pdfrwt beam="1">  1        2 0.76166751E-01 0.20199834E+03</pdfrwt>
<pdfrwt beam="2">  1       -2 0.12144131E-01 0.20199834E+03</pdfrwt>
<totfact> 0.30146446E+03</totfact>
</mgrwt>
</event>
<event>
 7    1  0.8165933E-006  0.1299203E+03  0.7546771E-02  0.1241705E+00
         -1   -1    0    0    0  501 -0.00000000000E+00  0.00000000000E+00  0.16315718137E+02  0.16315718137E+02  0.00000000000E+00 0.  1.
          1   -1    0    0  501    0  0.00000000000E+00 -0.00000000000E+00 -0.79828408891E+03  0.79828408891E+03  0.00000000000E+00 0. -1.
         23    2    1    2    0    0  0.31360888238E+02 -0.16424715828E+02 -0.48570911516E+03  0.50278487492E+03  0.12500403714E+03 0.  0.
          5    1    3    3  502    0  0.75290982623E+02 -0.33044288763E+02 -0.29039203924E+03  0.30184480041E+03  0.47000000000E+01 0. -1.
         -5    1    3    3    0  502 -0.43930094385E+02  0.16619572935E+02 -0.19531707593E+03  0.20094007451E+03  0.47000000000E+01 0. -1.
        -11    1    1    2    0    0 -0.10813679218E+02  0.51327724708E+02 -0.21103263482E+03  0.21745400420E+03  0.00000000000E+00 0. -1.
         11    1    1    2    0    0 -0.20547209020E+02 -0.34903008880E+02 -0.85226620792E+02  0.94360927926E+02  0.00000000000E+00 0.  1.
<mgrwt>
<rscale>  0 0.12084772E+03</rscale>
<asrwt>0</asrwt>
<pdfrwt beam="2">  1        1 0.12281294E+00 0.12992031E+03</pdfrwt>
<pdfrwt beam="1">  1       -1 0.25101103E-02 0.12992031E+03</pdfrwt>
<totfact> 0.10852264E+04</totfact>
</mgrwt>
</event>
<event>
 7    1  0.8165933E-006  0.1342737E+03  0.7546771E-02  0.1233652E+00
         -1   -1    0    0    0  501 -0.00000000000E+00  0.00000000000E+00  0.76341200220E+02  0.76341200220E+02  0.00000000000E+00 0.  1.
          1   -1    0    0  501    0  0.00000000000E+00 -0.00000000000E+00 -0.27112952649E+03  0.27112952649E+03  0.00000000000E+00 0. -1.
         23    2    1    2    0    0  0.37518824346E+02 -0.31600739155E+02 -0.20292912498E+03  0.24333035460E+03  0.12499265100E+03 0.  0.
          5    1    3    3  502    0  0.73051708378E+02 -0.12194625585E+02 -0.62241001172E+02  0.96857076235E+02  0.47000000000E+01 0. -1.
         -5    1    3    3    0  502 -0.35532884031E+02 -0.19406113571E+02 -0.14068812381E+03  0.14647327836E+03  0.47000000000E+01 0. -1.
        -11    1    1    2    0    0  0.30180020710E+02  0.37904660560E+01  0.54570582005E+01  0.30902763099E+02  0.00000000000E+00 0.  1.
         11    1    1    2    0    0 -0.67698845056E+02  0.27810273100E+02  0.26837405104E+01  0.73237609019E+02  0.00000000000E+00 0. -1.
<mgrwt>
<rscale>  0 0.12591147E+03</rscale>
<asrwt>0</asrwt>
<pdfrwt beam="2">  1        1 0.41712234E-01 0.13427372E+03</pdfrwt>
<pdfrwt beam="1">  1       -1 0.11744800E-01 0.13427372E+03</pdfrwt>
<totfact> 0.45306783E+03</totfact>
</mgrwt>
</event>
<event>
 7    1  0.8165933E-006  0.1422880E+03  0.7546771E-02  0.1220455E+00
         -4   -1    0    0    0  501 -0.00000000000E+00  0.00000000000E+00  0.25790193228E+03  0.25790193228E+03  0.00000000000E+00 0.  1.
          4   -1    0    0  501    0  0.00000000000E+00 -0.00000000000E+00 -0.70416565129E+02  0.70416565129E+02  0.00000000000E+00 0. -1.
         23    2    1    2    0    0  0.66995309067E+02  0.11542544369E+02  0.53724054427E+02  0.15209260923E+03  0.12499714393E+03 0.  0.
          5    1    3    3  502    0  0.58855642713E+02 -0.38244660304E+02 -0.95938767485E+01  0.70998402742E+02  0.47000000000E+01 0. -1.
         -5    1    3    3    0  502  0.81396663545E+01  0.49787204673E+02  0.63317931175E+02  0.81094206488E+02  0.47000000000E+01 0. -1.
        -11    1    1    2    0    0 -0.69470260883E+02  0.24811618353E+02  0.11095335241E+03  0.13323805749E+03  0.00000000000E+00 0. -1.
         11    1    1    2    0    0  0.24749518161E+01 -0.36354162722E+02  0.22807960315E+02  0.42987830690E+02  0.00000000000E+00 0.  1.
<mgrwt>
<rscale>  0 0.13483344E+03</rscale>
<asrwt>0</asrwt>
<pdfrwt beam="2">  1        4 0.10833318E-01 0.14228805E+03</pdfrwt>
<pdfrwt beam="1">  1       -4 0.39677220E-01 0.14228805E+03</pdfrwt>
<totfact> 0.68399956E+02</totfact>
</mgrwt>
</event>
<event>
 7    1  0.8165933E-006  0.1433516E+03  0.7546771E-02  0.1221715E+00
         -1   -1    0    0    0  501 -0.00000000000E+00  0.00000000000E+00  0.48351189888E+02  0.48351189888E+02  0.00000000000E+00 0.  1.
          1   -1    0    0  501    0  0.00000000000E+00 -0.00000000000E+00 -0.33136543914E+03  0.33136543914E+03  0.00000000000E+00 0. -1.
         23    2    1    2    0    0 -0.70163393560E+02 -0.46503539574E+00 -0.17267477774E+03  0.22442426572E+03  0.12500621634E+03 0.  0.
          5    1    3    3  502    0 -0.65819595752E+02 -0.14336137172E+02 -0.18981258278E+03  0.20146625175E+03  0.47000000000E+01 0. -1.
         -5    1    3    3    0  502 -0.43437978087E+01  0.13871101776E+02  0.17137805039E+02  0.22958013970E+02  0.47000000000E+01 0. -1.
        -11    1    1    2    0    0  0.82559924117E+02  0.11808070265E+02 -0.61443875037E+02  0.10359016060E+03  0.00000000000E+00 0.  1.
         11    1    1    2    0    0 -0.12396530556E+02 -0.11343034869E+02 -0.48895596477E+02  0.51702202707E+02  0.00000000000E+00 0. -1.
<mgrwt>
<rscale>  0 0.13394656E+03</rscale>
<asrwt>0</asrwt>
<pdfrwt beam="2">  1        1 0.50979299E-01 0.14335157E+03</pdfrwt>
<pdfrwt beam="1">  1       -1 0.74386445E-02 0.14335157E+03</pdfrwt>
<totfact> 0.71080165E+03</totfact>
</mgrwt>
</event>
<event>
 7    1  0.8165933E-006  0.1497372E+03  0.7546771E-02  0.1211681E+00
          2   -1    0    0  501    0  0.00000000000E+00  0.00000000000E+00  0.43641538675E+03  0.43641538675E+03  0.00000000000E+00 0. -1.
         -2   -1    0    0    0  501 -0.00000000000E+00 -0.00000000000E+00 -0.44630251902E+02  0.44630251902E+02  0.00000000000E+00 0.  1.
         23    2    1    2    0    0 -0.16900734660E+02  0.80692359103E+02  0.28303197773E+03  0.32020047339E+03  0.12499740433E+03 0.  0.
          5    1    3    3  502    0 -0.40237319379E+02  0.34224792114E+02  0.25594567490E+03  0.26138220438E+03  0.47000000000E+01 0.  1.
         -5    1    3    3    0  502  0.23336584719E+02  0.46467566989E+02  0.27086302832E+02  0.58818269010E+02  0.47000000000E+01 0.  1.
        -11    1    1    2    0    0  0.12603378439E+01  0.18182449504E+02  0.20037475233E+02  0.27086718796E+02  0.00000000000E+00 0. -1.
         11    1    1    2    0    0  0.15640396816E+02 -0.98874808607E+02  0.88715681891E+02  0.13375844647E+03  0.00000000000E+00 0.  1.
<mgrwt>
<rscale>  0 0.14123210E+03</rscale>
<asrwt>0</asrwt>
<pdfrwt beam="1">  1        2 0.67140826E-01 0.14973725E+03</pdfrwt>
<pdfrwt beam="2">  1       -2 0.68661929E-02 0.14973725E+03</pdfrwt>
<totfact> 0.83554002E+03</totfact>
</mgrwt>
</event>
<event>
 7    1  0.8165933E-006  0.1374496E+03  0.7546771E-02  0.1229460E+00
         -1   -1    0    0    0  501 -0.00000000000E+00  0.00000000000E+00  0.18000155885E+03  0.18000155885E+03  0.00000000000E+00 0.  1.
          1   -1    0    0  501    0  0.00000000000E+00 -0.00000000000E+00 -0.89901791802E+02  0.89901791802E+02  0.00000000000E+00 0. -1.
         23    2    1    2    0    0 -0.52142310524E+02 -0.23470213221E+02  0.10731142092E+02  0.13786791861E+03  0.12499093613E+03 0.  0.
          5    1    3    3  502    0  0.10172778636E+02 -0.61082714131E+02 -0.78606703037E+01  0.62597631971E+02  0.47000000000E+01 0. -1.
         -5    1    3    3    0  502 -0.62315089160E+02  0.37612500910E+02  0.18591812396E+02  0.75270286634E+02  0.47000000000E+01 0. -1.
        -11    1    1    2    0    0 -0.28545836526E+01  0.36271559609E+02  0.63826697242E+02  0.73468510024E+02  0.00000000000E+00 0.  1.
         11    1    1    2    0    0  0.54996894177E+02 -0.12801346388E+02  0.15541927717E+02  0.58566922026E+02  0.00000000000E+00 0. -1.
<mgrwt>
<rscale>  0 0.12865866E+03</rscale>
<asrwt>0</asrwt>
<pdfrwt beam="2">  1        1 0.13831045E-01 0.13744965E+03</pdfrwt>
<pdfrwt beam="1">  1       -1 0.27692547E-01 0.13744965E+03</pdfrwt>
<totfact> 0.46499467E+03</totfact>
</mgrwt>
</event>
<event>
 7    1  0.8165934E-006  0.1637136E+03  0.7546771E-02  0.1192163E+00
          1   -1    0    0  501    0  0.00000000000E+00  0.00000000000E+00  0.11440194833E+03  0.11440194833E+03  0.00000000000E+00 0. -1.
         -1   -1    0    0    0  501 -0.00000000000E+00 -0.00000000000E+00 -0.23080389107E+03  0.23080389107E+03  0.00000000000E+00 0.  1.
         23    2    1    2    0    0  0.76776201049E+01 -0.10544158586E+03  0.10568948647E+01  0.16371703204E+03  0.12500110269E+03 0.  0.
          5    1    3    3  502    0  0.48964245317E+02 -0.76650170552E+02  0.40423676110E+02  0.99643913790E+02  0.47000000000E+01 0.  1.
         -5    1    3    3    0  502 -0.41286625212E+02 -0.28791415313E+02 -0.39366781245E+02  0.64073118254E+02  0.47000000000E+01 0.  1.
        -11    1    1    2    0    0  0.22325986156E+02  0.82756615966E+02 -0.11549025801E+03  0.14382317907E+03  0.00000000000E+00 0.  1.
         11    1    1    2    0    0 -0.30003606261E+02  0.22684969899E+02 -0.19685796006E+01  0.37665628278E+02  0.00000000000E+00 0. -1.
<mgrwt>
<rscale>  0 0.15696792E+03</rscale>
<asrwt>0</asrwt>
<pdfrwt beam="1">  1        1 0.17600300E-01 0.16371362E+03</pdfrwt>
<pdfrwt beam="2">  1       -1 0.35508291E-01 0.16371362E+03</pdfrwt>
<totfact> 0.22532652E+03</totfact>
</mgrwt>
</event>
<event>
 7    1  0.8165933E-006  0.1274354E+03  0.7546771E-02  0.1241878E+00
         -2   -1    0    0    0  501 -0.00000000000E+00  0.00000000000E+00  0.64841910870E+02  0.64841910870E+02  0.00000000000E+00 0.  1.
          2   -1    0    0  501    0  0.00000000000E+00 -0.00000000000E+00 -0.28095070382E+03  0.28095070382E+03  0.00000000000E+00 0. -1.
         23    2    1    2    0    0 -0.45656506077E+02  0.29598367771E+02 -0.20648532425E+03  0.24264372604E+03  0.11523544913E+03 0.  0.
          5    1    3    3  502    0 -0.10965334477E+02  0.71670552469E+02 -0.12099718080E+03  0.14113580131E+03  0.47000000000E+01 0. -1.
         -5    1    3    3    0  502 -0.34691171600E+02 -0.42072184698E+02 -0.85488143449E+02  0.10150792473E+03  0.47000000000E+01 0.  1.
        -11    1    1    2    0    0  0.59031784827E+02  0.18767735413E+01  0.15085175513E+02  0.60957660872E+02  0.00000000000E+00 0.  1.
         11    1    1    2    0    0 -0.13375278750E+02 -0.31475141313E+02 -0.24708644215E+02  0.42191227776E+02  0.00000000000E+00 0. -1.
<mgrwt>
<rscale>  0 0.12074223E+03</rscale>
<asrwt>0</asrwt>
<pdfrwt beam="2">  1        2 0.43223185E-01 0.12743543E+03</pdfrwt>
<pdfrwt beam="1">  1       -2 0.99756787E-02 0.12743543E+03</pdfrwt>
<totfact> 0.74069720E+03</totfact>
</mgrwt>
</event>
<event>
 7    1  0.8165933E-006  0.1285556E+03  0.7546771E-02  0.1244355E+00
          1   -1    0    0  501    0  0.00000000000E+00  0.00000000000E+00  0.16721276910E+03  0.16721276910E+03  0.00000000000E+00 0. -1.
         -1   -1    0    0    0  501 -0.00000000000E+00 -0.00000000000E+00 -0.79686840458E+02  0.79686840458E+02  0.00000000000E+00 0.  1.
         23    2    1    2    0    0 -0.18292311516E+02  0.23828558974E+02  0.80077275338E+02  0.15145600761E+03  0.12499657329E+03 0.  0.
          5    1    3    3  502    0 -0.64915183095E+02 -0.62149774872E+01  0.17455367546E+02  0.67671166664E+02  0.47000000000E+01 0. -1.
         -5    1    3    3    0  502  0.46622871579E+02  0.30043536461E+02  0.62621907792E+02  0.83784840949E+02  0.47000000000E+01 0. -1.
        -11    1    1    2    0    0 -0.14875032084E+02 -0.29613655276E+02  0.37690375420E+02  0.50187643475E+02  0.00000000000E+00 0. -1.
         11    1    1    2    0    0  0.33167343600E+02  0.57850963019E+01 -0.30241722115E+02  0.45255958472E+02  0.00000000000E+00 0.  1.
<mgrwt>
<rscale>  0 0.11924039E+03</rscale>
<asrwt>0</asrwt>
<pdfrwt beam="1">  1        1 0.25725041E-01 0.12855564E+03</pdfrwt>
<pdfrwt beam="2">  1       -1 0.12259514E-01 0.12855564E+03</pdfrwt>
<totfact> 0.77015633E+03</totfact>
</mgrwt>
</event>
<event>
 7    1  0.8165933E-006  0.2253709E+03  0.7546771E-02  0.1133028E+00
          2   -1    0    0  501    0  0.00000000000E+00  0.00000000000E+00  0.16854014246E+04  0.16854014246E+04  0.00000000000E+00 0. -1.
         -2   -1    0    0    0  501 -0.00000000000E+00 -0.00000000000E+00 -0.46528624706E+02  0.46528624706E+02  0.00000000000E+00 0.  1.
         23    2    1    2    0    0  0.18640996098E+03  0.20493762918E+02  0.13845597922E+04  0.14027821810E+04  0.12499344416E+03 0.  0.
          5    1    3    3  502    0  0.65119041106E+02 -0.30692575589E+02  0.23839305352E+03  0.24906999353E+03  0.47000000000E+01 0. -1.
         -5    1    3    3    0  502  0.12129091988E+03  0.51186338507E+02  0.11461667387E+04  0.11537121874E+04  0.47000000000E+01 0. -1.
        -11    1    1    2    0    0 -0.52372212926E+02 -0.47433573649E+02  0.10642316314E+03  0.12774459773E+03  0.00000000000E+00 0. -1.
         11    1    1    2    0    0 -0.13403774806E+03  0.26939810730E+02  0.14788984455E+03  0.20140327065E+03  0.00000000000E+00 0.  1.
<mgrwt>
<rscale>  0 0.22115043E+03</rscale>
<asrwt>0</asrwt>
<pdfrwt beam="1">  1        2 0.25929248E+00 0.22537087E+03</pdfrwt>
<pdfrwt beam="2">  1       -2 0.71582513E-02 0.22537087E+03</pdfrwt>
<totfact> 0.12293219E+03</totfact>
</mgrwt>
</event>
<event>
 7    1  0.8165933E-006  0.2814196E+03  0.7546771E-02  0.1097176E+00
         -3   -1    0    0    0  501 -0.00000000000E+00  0.00000000000E+00  0.86781535299E+03  0.86781535299E+03  0.00000000000E+00 0.  1.
          3   -1    0    0  501    0  0.00000000000E+00 -0.00000000000E+00 -0.86214039189E+02  0.86214039189E+02  0.00000000000E+00 0. -1.
         23    2    1    2    0    0 -0.23202883722E+03 -0.98668789785E+02  0.38496551596E+03  0.47685997816E+03  0.12499631561E+03 0.  0.
          5    1    3    3  502    0 -0.15896033917E+03 -0.67220466028E+02  0.14987101028E+03  0.22862718606E+03  0.47000000000E+01 0.  1.
         -5    1    3    3    0  502 -0.73068498047E+02 -0.31448323757E+02  0.23509450568E+03  0.24823279211E+03  0.47000000000E+01 0.  1.
        -11    1    1    2    0    0  0.19142380219E+03  0.11015148914E+03  0.30797418699E+03  0.37897826119E+03  0.00000000000E+00 0.  1.
         11    1    1    2    0    0  0.40605035033E+02 -0.11482699350E+02  0.88661610853E+02  0.98191152827E+02  0.00000000000E+00 0. -1.
<mgrwt>
<rscale>  0 0.27729353E+03</rscale>
<asrwt>0</asrwt>
<pdfrwt beam="2">  1        3 0.13263699E-01 0.28141960E+03</pdfrwt>
<pdfrwt beam="1">  1       -3 0.13351005E+00 0.28141960E+03</pdfrwt>
<totfact> 0.52370776E+01</totfact>
</mgrwt>
</event>
<event>
 7    1  0.8165933E-006  0.1155560E+03  0.7546771E-02  0.1258921E+00
          3   -1    0    0  501    0  0.00000000000E+00  0.00000000000E+00  0.45580743044E+03  0.45580743044E+03  0.00000000000E+00 0. -1.
         -3   -1    0    0    0  501 -0.00000000000E+00 -0.00000000000E+00 -0.25074834157E+02  0.25074834157E+02  0.00000000000E+00 0.  1.
         23    2    1    2    0    0 -0.14326089244E+02 -0.30577200196E+02  0.24459448168E+03  0.27051739371E+03  0.11051243291E+03 0.  0.
          5    1    3    3  502    0  0.55608037021E+01  0.19465300791E+02  0.19819073698E+03  0.19927739134E+03  0.47000000000E+01 0. -1.
         -5    1    3    3    0  502 -0.19886892946E+02 -0.50042500987E+02  0.46403744696E+02  0.71240002371E+02  0.47000000000E+01 0.  1.
        -11    1    1    2    0    0  0.50664501562E+02  0.25763098615E+02  0.14223358065E+03  0.15316990707E+03  0.00000000000E+00 0. -1.
         11    1    1    2    0    0 -0.36338412318E+02  0.48141015810E+01  0.43904533952E+02  0.57194963811E+02  0.00000000000E+00 0.  1.
<mgrwt>
<rscale>  0 0.11089507E+03</rscale>
<asrwt>0</asrwt>
<pdfrwt beam="1">  1        3 0.70124214E-01 0.11555605E+03</pdfrwt>
<pdfrwt beam="2">  1       -3 0.38576671E-02 0.11555605E+03</pdfrwt>
<totfact> 0.15250886E+03</totfact>
</mgrwt>
</event>
<event>
 7    1  0.8165933E-006  0.1288395E+03  0.7546771E-02  0.1239034E+00
         -1   -1    0    0    0  501 -0.00000000000E+00  0.00000000000E+00  0.10012549726E+03  0.10012549726E+03  0.00000000000E+00 0.  1.
          1   -1    0    0  501    0  0.00000000000E+00 -0.00000000000E+00 -0.24323190779E+03  0.24323190779E+03  0.00000000000E+00 0. -1.
         23    2    1    2    0    0  0.50151270248E+02  0.18453478563E+02 -0.18881220831E+03  0.22858188507E+03  0.11723458278E+03 0.  0.
          5    1    3    3  502    0  0.47891937620E+02  0.73226481221E+01 -0.20360845518E+03  0.20934600995E+03  0.47000000000E+01 0. -1.
         -5    1    3    3    0  502  0.22593326287E+01  0.11130830441E+02  0.14796246869E+02  0.19235875121E+02  0.47000000000E+01 0.  1.
        -11    1    1    2    0    0 -0.65896817626E+02 -0.48518394523E+01  0.60225103246E+02  0.89403545681E+02  0.00000000000E+00 0.  1.
         11    1    1    2    0    0  0.15745547378E+02 -0.13601639111E+02 -0.14519305469E+02  0.25371974303E+02  0.00000000000E+00 0. -1.
<mgrwt>
<rscale>  0 0.12249713E+03</rscale>
<asrwt>0</asrwt>
<pdfrwt beam="2">  1        1 0.37420293E-01 0.12883954E+03</pdfrwt>
<pdfrwt beam="1">  1       -1 0.15403923E-01 0.12883954E+03</pdfrwt>
<totfact> 0.33917617E+03</totfact>
</mgrwt>
</event>
<event>
 7    1  0.8165933E-006  0.1551921E+03  0.7546771E-02  0.1203495E+00
         -1   -1    0    0    0  501 -0.00000000000E+00  0.00000000000E+00  0.39300075720E+03  0.39300075720E+03  0.00000000000E+00 0.  1.
          1   -1    0    0  501    0  0.00000000000E+00 -0.00000000000E+00 -0.51995395889E+02  0.51995395889E+02  0.00000000000E+00 0. -1.
         23    2    1    2    0    0 -0.91971329927E+02 -0.10993357582E+01  0.15101332753E+03  0.21654009361E+03  0.12499861191E+03 0.  0.
          5    1    3    3  502    0 -0.69175618637E+02  0.19233583981E+02  0.16692961965E+03  0.18177674462E+03  0.47000000000E+01 0. -1.
         -5    1    3    3    0  502 -0.22795711290E+02 -0.20332919739E+02 -0.15916292118E+02  0.34763348991E+02  0.47000000000E+01 0. -1.
        -11    1    1    2    0    0  0.26739132671E+01  0.22411054432E+02  0.68408107202E+01  0.23583932332E+02  0.00000000000E+00 0. -1.
         11    1    1    2    0    0  0.89297416660E+02 -0.21311718674E+02  0.18315122306E+03  0.20487212715E+03  0.00000000000E+00 0.  1.
<mgrwt>
<rscale>  0 0.14756700E+03</rscale>
<asrwt>0</asrwt>
<pdfrwt beam="2">  1        1 0.79992920E-02 0.15519210E+03</pdfrwt>
<pdfrwt beam="1">  1       -1 0.60461653E-01 0.15519210E+03</pdfrwt>
<totfact> 0.24262633E+03</totfact>
</mgrwt>
</event>
<event>
 6    1  0.8165933E-006  0.1592221E+03  0.7546771E-02  0.1200262E+00
          1   -1    0    0  501    0  0.00000000000E+00  0.00000000000E+00  0.11689313714E+03  0.11689313714E+03  0.00000000000E+00 0. -1.
         -1   -1    0    0    0  501 -0.00000000000E+00 -0.00000000000E+00 -0.32968622488E+03  0.32968622488E+03  0.00000000000E+00 0.  1.
          5    1    1    2  502    0 -0.51582259552E+02 -0.10897038441E+03  0.43413936541E+02  0.12822688511E+03  0.47000000000E+01 0. -1.
         -5    1    1    2    0  502 -0.21672071552E+01  0.35391578359E+02 -0.34499320955E+01  0.35934003911E+02  0.47000000000E+01 0.  1.
        -11    1    1    2    0    0  0.72522794899E+02  0.49699484074E+02 -0.13733128021E+03  0.16306279472E+03  0.00000000000E+00 0. -1.
         11    1    1    2    0    0 -0.18773328191E+02  0.23879321973E+02 -0.11542581197E+03  0.11935567828E+03  0.00000000000E+00 0.  1.
<mgrwt>
<rscale>  0 0.15017182E+03</rscale>
<asrwt>0</asrwt>
<pdfrwt beam="1">  1        1 0.17983559E-01 0.15922210E+03</pdfrwt>
<pdfrwt beam="2">  1       -1 0.50720958E-01 0.15922210E+03</pdfrwt>
<totfact> 0.11609051E+03</totfact>
</mgrwt>
</event>
<event>
 7    1  0.8165933E-006  0.1834735E+03  0.7546771E-02  0.1170942E+00
          1   -1    0    0  501    0  0.00000000000E+00  0.00000000000E+00  0.24613454297E+03  0.24613454297E+03  0.00000000000E+00 0. -1.
         -1   -1    0    0    0  501 -0.00000000000E+00 -0.00000000000E+00 -0.14293410346E+03  0.14293410346E+03  0.00000000000E+00 0.  1.
         23    2    1    2    0    0  0.43001398524E+02 -0.12723832678E+03  0.13491666794E+03  0.22773894409E+03  0.12499522906E+03 0.  0.
          5    1    3    3  502    0  0.70739727870E+02 -0.98952071559E+02  0.14219852176E+03  0.18718475140E+03  0.47000000000E+01 0. -1.
         -5    1    3    3    0  502 -0.27738329347E+02 -0.28286255223E+02 -0.72818538180E+01  0.40554192687E+02  0.47000000000E+01 0. -1.
        -11    1    1    2    0    0 -0.14841390744E+00  0.44046441375E+02 -0.49301328177E+02  0.66111511740E+02  0.00000000000E+00 0.  1.
         11    1    1    2    0    0 -0.42852984616E+02  0.83191885407E+02  0.17585099742E+02  0.95218190599E+02  0.00000000000E+00 0. -1.
<mgrwt>
<rscale>  0 0.17679453E+03</rscale>
<asrwt>0</asrwt>
<pdfrwt beam="1">  1        1 0.37866853E-01 0.18347348E+03</pdfrwt>
<pdfrwt beam="2">  1       -1 0.21989862E-01 0.18347348E+03</pdfrwt>
<totfact> 0.19181451E+03</totfact>
</mgrwt>
</event>
<event>
 7    1  0.8165933E-006  0.1318451E+03  0.7546771E-02  0.1236219E+00
          2   -1    0    0  501    0  0.00000000000E+00  0.00000000000E+00  0.75187146817E+03  0.75187146817E+03  0.00000000000E+00 0. -1.
         -2   -1    0    0    0  501 -0.00000000000E+00 -0.00000000000E+00 -0.18505898048E+02  0.18505898048E+02  0.00000000000E+00 0.  1.
         23    2    1    2    0    0 -0.32822798435E+02  0.26092134141E+02  0.41524875693E+03  0.43567723191E+03  0.12499993885E+03 0.  0.
          5    1    3    3  502    0  0.38251828869E+02 -0.16978815792E+02  0.21019507433E+03  0.21437243729E+03  0.47000000000E+01 0. -1.
         -5    1    3    3    0  502 -0.71074627304E+02  0.43070949934E+02  0.20505368260E+03  0.22130479462E+03  0.47000000000E+01 0. -1.
        -11    1    1    2    0    0 -0.84622531389E+01  0.23639224317E+02  0.28606525976E+02  0.38062527280E+02  0.00000000000E+00 0.  1.
         11    1    1    2    0    0  0.41285051574E+02 -0.49731358459E+02  0.28951028722E+03  0.29663760703E+03  0.00000000000E+00 0. -1.
<mgrwt>
<rscale>  0 0.12426699E+03</rscale>
<asrwt>0</asrwt>
<pdfrwt beam="1">  1        2 0.11567251E+00 0.13184506E+03</pdfrwt>
<pdfrwt beam="2">  1       -2 0.28470618E-02 0.13184506E+03</pdfrwt>
<totfact> 0.16670315E+04</totfact>
</mgrwt>
</event>
<event>
 7    1  0.8165933E-006  0.1304662E+03  0.7546771E-02  0.1240668E+00
          2   -1    0    0  501    0  0.00000000000E+00  0.00000000000E+00  0.59262233038E+03  0.59262233038E+03  0.00000000000E+00 0. -1.
         -2   -1    0    0    0  501 -0.00000000000E+00 -0.00000000000E+00 -0.22456533840E+02  0.22456533840E+02  0.00000000000E+00 0.  1.
         23    2    1    2    0    0  0.36511845427E+02  0.80077941129E+01  0.36642057169E+03  0.38895431067E+03  0.12499672318E+03 0.  0.
          5    1    3    3  502    0  0.73369356253E+02 -0.26783104999E+02  0.24818537734E+03  0.26022772465E+03  0.47000000000E+01 0. -1.
         -5    1    3    3    0  502 -0.36857510826E+02  0.34790899112E+02  0.11823519435E+03  0.12872658602E+03  0.47000000000E+01 0. -1.
        -11    1    1    2    0    0 -0.12780264403E+02 -0.48842496300E+02  0.95491910106E+02  0.10801680193E+03  0.00000000000E+00 0.  1.
         11    1    1    2    0    0 -0.23731581024E+02  0.40834702188E+02  0.10825331474E+03  0.11810775162E+03  0.00000000000E+00 0. -1.
<mgrwt>
<rscale>  0 0.12148465E+03</rscale>
<asrwt>0</asrwt>
<pdfrwt beam="1">  1        2 0.91172655E-01 0.13046617E+03</pdfrwt>
<pdfrwt beam="2">  1       -2 0.34548518E-02 0.13046617E+03</pdfrwt>
<totfact> 0.16555926E+04</totfact>
</mgrwt>
</event>
<event>
 7    1  0.8165933E-006  0.1571602E+03  0.7546771E-02  0.1200085E+00
          1   -1    0    0  501    0  0.00000000000E+00  0.00000000000E+00  0.34755191499E+03  0.34755191499E+03  0.00000000000E+00 0. -1.
         -1   -1    0    0    0  501 -0.00000000000E+00 -0.00000000000E+00 -0.77389839092E+02  0.77389839092E+02  0.00000000000E+00 0.  1.
         23    2    1    2    0    0 -0.23673590566E+02 -0.92269875358E+02  0.24493928443E+03  0.29102331974E+03  0.12500060314E+03 0.  0.
          5    1    3    3  502    0 -0.71818450803E+02 -0.79029807283E+02  0.16143345937E+03  0.19361418367E+03  0.47000000000E+01 0.  1.
         -5    1    3    3    0  502  0.48144860237E+02 -0.13240068075E+02  0.83505825060E+02  0.97409136064E+02  0.47000000000E+01 0.  1.
        -11    1    1    2    0    0 -0.30036494664E+02  0.82094351222E+01  0.48248297120E+00  0.31141911093E+02  0.00000000000E+00 0. -1.
         11    1    1    2    0    0  0.53710085230E+02  0.84060440236E+02  0.24740308503E+02  0.10277652326E+03  0.00000000000E+00 0.  1.
<mgrwt>
<rscale>  0 0.15031635E+03</rscale>
<asrwt>0</asrwt>
<pdfrwt beam="1">  1        1 0.53469524E-01 0.15716017E+03</pdfrwt>
<pdfrwt beam="2">  1       -1 0.11906129E-01 0.15716017E+03</pdfrwt>
<totfact> 0.32839321E+03</totfact>
</mgrwt>
</event>
<event>
 7    1  0.8165933E-006  0.1423495E+03  0.7546771E-02  0.1224070E+00
          2   -1    0    0  501    0  0.00000000000E+00  0.00000000000E+00  0.67668195073E+03  0.67668195073E+03  0.00000000000E+00 0. -1.
         -2   -1    0    0    0  501 -0.00000000000E+00 -0.00000000000E+00 -0.28836987081E+02  0.28836987081E+02  0.00000000000E+00 0.  1.
         23    2    1    2    0    0  0.44502890035E+02  0.51569459977E+02  0.52081693126E+03  0.53992004206E+03  0.12499383787E+03 0.  0.
          5    1    3    3  502    0 -0.15350287501E+02 -0.33702546538E+02  0.11442818679E+03  0.12036358627E+03  0.47000000000E+01 0. -1.
         -5    1    3    3    0  502  0.59853177536E+02  0.85272006515E+02  0.40638874448E+03  0.41955645579E+03  0.47000000000E+01 0. -1.
        -11    1    1    2    0    0 -0.42972355559E+02  0.56353460515E+01  0.29187859803E+02  0.52252383938E+02  0.00000000000E+00 0. -1.
         11    1    1    2    0    0 -0.15305344764E+01 -0.57204806028E+02  0.97840172581E+02  0.11334651181E+03  0.00000000000E+00 0.  1.
<mgrwt>
<rscale>  0 0.13230877E+03</rscale>
<asrwt>0</asrwt>
<pdfrwt beam="1">  1        2 0.10410490E+00 0.14234949E+03</pdfrwt>
<pdfrwt beam="2">  1       -2 0.44364601E-02 0.14234949E+03</pdfrwt>
<totfact> 0.98598896E+03</totfact>
</mgrwt>
</event>
<event>
 7    1  0.8165933E-006  0.1812979E+03  0.7546771E-02  0.1172090E+00
         -1   -1    0    0    0  501 -0.00000000000E+00  0.00000000000E+00  0.12636408968E+04  0.12636408968E+04  0.00000000000E+00 0.  1.
          1   -1    0    0  501    0  0.00000000000E+00 -0.00000000000E+00 -0.23061390104E+02  0.23061390104E+02  0.00000000000E+00 0. -1.
         23    2    1    2    0    0  0.29553629336E+02 -0.12794586318E+03  0.69096976856E+03  0.71435854864E+03  0.12500141618E+03 0.  0.
          5    1    3    3  502    0  0.35112985669E+02 -0.14977267981E+03  0.64290873108E+03  0.66107375071E+03  0.47000000000E+01 0.  1.
         -5    1    3    3    0  502 -0.55593563332E+01  0.21826816633E+02  0.48061037474E+02  0.53284797928E+02  0.47000000000E+01 0.  1.
        -11    1    1    2    0    0 -0.42543002367E+02  0.17149282428E+02  0.20734052005E+03  0.21235370539E+03  0.00000000000E+00 0.  1.
         11    1    1    2    0    0  0.12989373032E+02  0.11079658075E+03  0.34226921812E+03  0.35999003290E+03  0.00000000000E+00 0. -1.
<mgrwt>
<rscale>  0 0.17564098E+03</rscale>
<asrwt>0</asrwt>
<pdfrwt beam="2">  1        1 0.35479072E-02 0.18129786E+03</pdfrwt>
<pdfrwt beam="1">  1       -1 0.19440624E+00 0.18129786E+03</pdfrwt>
<totfact> 0.48870437E+02</totfact>
</mgrwt>
</event>
<event>
 7    1  0.8165933E-006  0.1788940E+03  0.7546771E-02  0.1174245E+00
         -1   -1    0    0    0  501 -0.00000000000E+00  0.00000000000E+00  0.13072102468E+03  0.13072102468E+03  0.00000000000E+00 0.  1.
          1   -1    0    0  501    0  0.00000000000E+00 -0.00000000000E+00 -0.25365170924E+03  0.25365170924E+03  0.00000000000E+00 0. -1.
         23    2    1    2    0    0  0.91770480247E+02  0.89191262308E+02 -0.13720469890E+03  0.22545109575E+03  0.12500465935E+03 0.  0.
          5    1    3    3  502    0  0.48251249845E+02 -0.26319720891E+02 -0.37441847788E+02  0.66670029137E+02  0.47000000000E+01 0. -1.
         -5    1    3    3    0  502  0.43519230403E+02  0.11551098320E+03 -0.99762851108E+02  0.15878106662E+03  0.47000000000E+01 0. -1.
        -11    1    1    2    0    0 -0.25711524698E+02 -0.81004800749E+02 -0.14832169545E+02  0.86271974013E+02  0.00000000000E+00 0.  1.
         11    1    1    2    0    0 -0.66058955550E+02 -0.81864615595E+01  0.29106183887E+02  0.72649664154E+02  0.00000000000E+00 0. -1.
<mgrwt>
<rscale>  0 0.17350136E+03</rscale>
<asrwt>0</asrwt>
<pdfrwt beam="2">  1        1 0.39023340E-01 0.17889401E+03</pdfrwt>
<pdfrwt beam="1">  1       -1 0.20110927E-01 0.17889401E+03</pdfrwt>
<totfact> 0.21343855E+03</totfact>
</mgrwt>
</event>
<event>
 7    1  0.8165933E-006  0.1308384E+03  0.7546771E-02  0.1240378E+00
         -2   -1    0    0    0  501 -0.00000000000E+00  0.00000000000E+00  0.33565662794E+02  0.33565662794E+02  0.00000000000E+00 0.  1.
          2   -1    0    0  501    0  0.00000000000E+00 -0.00000000000E+00 -0.39353166037E+03  0.39353166037E+03  0.00000000000E+00 0. -1.
         23    2    1    2    0    0 -0.35189627151E+02  0.16043929546E+02 -0.22729069189E+03  0.26225892205E+03  0.12499186391E+03 0.  0.
          5    1    3    3  502    0 -0.66504380132E+02  0.46264586932E+02 -0.10728258641E+03  0.13451724026E+03  0.47000000000E+01 0.  1.
         -5    1    3    3    0  502  0.31314752981E+02 -0.30220657385E+02 -0.12000810548E+03  0.12774168179E+03  0.47000000000E+01 0.  1.
        -11    1    1    2    0    0  0.79518833169E+01  0.32801672231E+02 -0.20487016354E+02  0.39482907549E+02  0.00000000000E+00 0.  1.
         11    1    1    2    0    0  0.27237743834E+02 -0.48845601777E+02 -0.11218828934E+03  0.12535549356E+03  0.00000000000E+00 0. -1.
<mgrwt>
<rscale>  0 0.12166327E+03</rscale>
<asrwt>0</asrwt>
<pdfrwt beam="2">  1        2 0.60543334E-01 0.13083839E+03</pdfrwt>
<pdfrwt beam="1">  1       -2 0.51639480E-02 0.13083839E+03</pdfrwt>
<totfact> 0.14244577E+04</totfact>
</mgrwt>
</event>
<event>
 7    1  0.8165933E-006  0.1339210E+03  0.7546771E-02  0.1234988E+00
         -2   -1    0    0    0  501 -0.00000000000E+00  0.00000000000E+00  0.48219707846E+02  0.48219707846E+02  0.00000000000E+00 0.  1.
          2   -1    0    0  501    0  0.00000000000E+00 -0.00000000000E+00 -0.30214108210E+03  0.30214108210E+03  0.00000000000E+00 0. -1.
         23    2    1    2    0    0  0.45398943306E+02  0.15699552234E+02 -0.10604372983E+03  0.17082186099E+03  0.12500918191E+03 0.  0.
          5    1    3    3  502    0  0.74099789516E+02 -0.20213646337E+02 -0.31569970575E+02  0.83175256818E+02  0.47000000000E+01 0.  1.
         -5    1    3    3    0  502 -0.28700846210E+02  0.35913198571E+02 -0.74473759257E+02  0.87646604171E+02  0.47000000000E+01 0.  1.
        -11    1    1    2    0    0 -0.23208004309E+01 -0.44205413407E+02 -0.38863630502E+02  0.58905742207E+02  0.00000000000E+00 0.  1.
         11    1    1    2    0    0 -0.43078142875E+02  0.28505861173E+02 -0.10901401392E+03  0.12063318675E+03  0.00000000000E+00 0. -1.
<mgrwt>
<rscale>  0 0.12505187E+03</rscale>
<asrwt>0</asrwt>
<pdfrwt beam="2">  1        2 0.46483243E-01 0.13392100E+03</pdfrwt>
<pdfrwt beam="1">  1       -2 0.74184166E-02 0.13392100E+03</pdfrwt>
<totfact> 0.10898779E+04</totfact>
</mgrwt>
</event>
<event>
 7    1  0.8165933E-006  0.1902512E+03  0.7546771E-02  0.1162018E+00
         -2   -1    0    0    0  501 -0.00000000000E+00  0.00000000000E+00  0.28805450358E+03  0.28805450358E+03  0.00000000000E+00 0.  1.
          2   -1    0    0  501    0  0.00000000000E+00 -0.00000000000E+00 -0.16034984713E+03  0.16034984713E+03  0.00000000000E+00 0. -1.
         23    2    1    2    0    0  0.12416666799E+03 -0.73016287602E+02 -0.52899282729E+02  0.19746858590E+03  0.12428502971E+03 0.  0.
          5    1    3    3  502    0  0.14869904718E+03 -0.71648083937E+02 -0.48169077810E+02  0.17200931551E+03  0.47000000000E+01 0. -1.
         -5    1    3    3    0  502 -0.24532379195E+02 -0.13682036652E+01 -0.47302049189E+01  0.25459270390E+02  0.47000000000E+01 0.  1.
        -11    1    1    2    0    0 -0.13080919231E+03  0.44494982730E+02  0.17157142591E+03  0.22028981473E+03  0.00000000000E+00 0.  1.
         11    1    1    2    0    0  0.66425243247E+01  0.28521304872E+02  0.90325132619E+01  0.30645950089E+02  0.00000000000E+00 0. -1.
<mgrwt>
<rscale>  0 0.18610888E+03</rscale>
<asrwt>0</asrwt>
<pdfrwt beam="2">  1        2 0.24669207E-01 0.19025117E+03</pdfrwt>
<pdfrwt beam="1">  1       -2 0.44316078E-01 0.19025117E+03</pdfrwt>
<totfact> 0.10582567E+03</totfact>
</mgrwt>
</event>
<event>
 7    1  0.8165933E-006  0.1339770E+03  0.7546771E-02  0.1236242E+00
          2   -1    0    0  501    0  0.00000000000E+00  0.00000000000E+00  0.55577697658E+02  0.55577697658E+02  0.00000000000E+00 0. -1.
         -2   -1    0    0    0  501 -0.00000000000E+00 -0.00000000000E+00 -0.24837396433E+03  0.24837396433E+03  0.00000000000E+00 0.  1.
         23    2    1    2    0    0 -0.48148726749E+02  0.25702603042E+01 -0.12962053022E+03  0.18641705675E+03  0.12499972426E+03 0.  0.
          5    1    3    3  502    0  0.21032320997E+02  0.21197512621E+02 -0.10692598759E+03  0.11111682991E+03  0.47000000000E+01 0.  1.
         -5    1    3    3    0  502 -0.69181047747E+02 -0.18627252317E+02 -0.22694542638E+02  0.75300226837E+02  0.47000000000E+01 0.  1.
        -11    1    1    2    0    0  0.12411976810E+02  0.12657658211E+02 -0.74890970316E+02  0.76960580264E+02  0.00000000000E+00 0.  1.
         11    1    1    2    0    0  0.35736749939E+02 -0.15227918515E+02  0.11715233867E+02  0.40574024980E+02  0.00000000000E+00 0. -1.
<mgrwt>
<rscale>  0 0.12425228E+03</rscale>
<asrwt>0</asrwt>
<pdfrwt beam="1">  1        2 0.85504150E-02 0.13397700E+03</pdfrwt>
<pdfrwt beam="2">  1       -2 0.38211379E-01 0.13397700E+03</pdfrwt>
<totfact> 0.48266170E+03</totfact>
</mgrwt>
</event>
<event>
 7    1  0.8165933E-006  0.1298119E+03  0.7546771E-02  0.1241987E+00
         -2   -1    0    0    0  501 -0.00000000000E+00  0.00000000000E+00  0.24687553850E+03  0.24687553850E+03  0.00000000000E+00 0.  1.
          2   -1    0    0  501    0  0.00000000000E+00 -0.00000000000E+00 -0.52144867534E+02  0.52144867534E+02  0.00000000000E+00 0. -1.
         23    2    1    2    0    0 -0.30108871182E+02  0.17919950727E+02  0.11706298489E+03  0.17479951426E+03  0.12499383584E+03 0.  0.
          5    1    3    3  502    0 -0.20649129162E+02 -0.24166152718E+02  0.12639544540E+03  0.13041582761E+03  0.47000000000E+01 0. -1.
         -5    1    3    3    0  502 -0.94597420201E+01  0.42086103444E+02 -0.93324605078E+01  0.44383686658E+02  0.47000000000E+01 0. -1.
        -11    1    1    2    0    0  0.45457279495E+02 -0.16530214126E+02  0.91509253546E+02  0.10350630765E+03  0.00000000000E+00 0.  1.
         11    1    1    2    0    0 -0.15348408313E+02 -0.13897366007E+01 -0.13841567468E+02  0.20714584127E+02  0.00000000000E+00 0. -1.
<mgrwt>
<rscale>  0 0.12067534E+03</rscale>
<asrwt>0</asrwt>
<pdfrwt beam="2">  1        2 0.80222875E-02 0.12981189E+03</pdfrwt>
<pdfrwt beam="1">  1       -2 0.37980851E-01 0.12981189E+03</pdfrwt>
<totfact> 0.52743068E+03</totfact>
</mgrwt>
</event>
<event>
 7    1  0.8165933E-006  0.1877957E+03  0.7546771E-02  0.1166237E+00
         -1   -1    0    0    0  501 -0.00000000000E+00  0.00000000000E+00  0.45152647929E+02  0.45152647929E+02  0.00000000000E+00 0.  1.
          1   -1    0    0  501    0  0.00000000000E+00 -0.00000000000E+00 -0.72238074597E+03  0.72238074597E+03  0.00000000000E+00 0. -1.
         23    2    1    2    0    0 -0.21031635664E+02 -0.13856338214E+03 -0.44547302529E+03  0.48343919768E+03  0.12500040407E+03 0.  0.
          5    1    3    3  502    0 -0.46755793589E+02 -0.46423068624E+02 -0.31343912806E+03  0.32032387131E+03  0.47000000000E+01 0. -1.
         -5    1    3    3    0  502  0.25724157924E+02 -0.92140313516E+02 -0.13203389723E+03  0.16311532636E+03  0.47000000000E+01 0. -1.
        -11    1    1    2    0    0 -0.26542998598E+01  0.64956099544E+02 -0.37582828383E+02  0.75092004668E+02  0.00000000000E+00 0.  1.
         11    1    1    2    0    0  0.23685935524E+02  0.73607282596E+02 -0.19417224436E+03  0.20900219155E+03  0.00000000000E+00 0. -1.
<mgrwt>
<rscale>  0 0.18162807E+03</rscale>
<asrwt>0</asrwt>
<pdfrwt beam="2">  1        1 0.11113550E+00 0.18779574E+03</pdfrwt>
<pdfrwt beam="1">  1       -1 0.69465614E-02 0.18779574E+03</pdfrwt>
<totfact> 0.28459243E+03</totfact>
</mgrwt>
</event>
<event>
 7    1  0.8165933E-006  0.2645772E+03  0.7546771E-02  0.1106686E+00
          2   -1    0    0  501    0  0.00000000000E+00  0.00000000000E+00  0.16879371730E+04  0.16879371730E+04  0.00000000000E+00 0. -1.
         -2   -1    0    0    0  501 -0.00000000000E+00 -0.00000000000E+00 -0.39169381980E+02  0.39169381980E+02  0.00000000000E+00 0.  1.
         23    2    1    2    0    0 -0.23239608538E+03 -0.19451344395E+02  0.85855830579E+03  0.89840049038E+03  0.12495911882E+03 0.  0.
          5    1    3    3  502    0 -0.12934124206E+03  0.29349855286E+02  0.61874337233E+03  0.63281594616E+03  0.47000000000E+01 0. -1.
         -5    1    3    3    0  502 -0.10305484332E+03 -0.48801199680E+02  0.23981493345E+03  0.26558454422E+03  0.47000000000E+01 0. -1.
        -11    1    1    2    0    0  0.12724817372E+03  0.24783695018E+02  0.29185651967E+03  0.31935334244E+03  0.00000000000E+00 0.  1.
         11    1    1    2    0    0  0.10514791166E+03 -0.53323506228E+01  0.49835296554E+03  0.50935272215E+03  0.00000000000E+00 0. -1.
<mgrwt>
<rscale>  0 0.26076246E+03</rscale>
<asrwt>0</asrwt>
<pdfrwt beam="1">  1        2 0.25968259E+00 0.26457717E+03</pdfrwt>
<pdfrwt beam="2">  1       -2 0.60260601E-02 0.26457717E+03</pdfrwt>
<totfact> 0.15947248E+03</totfact>
</mgrwt>
</event>
<event>
 7    1  0.8165933E-006  0.1307403E+03  0.7546771E-02  0.1239735E+00
         -3   -1    0    0    0  501 -0.00000000000E+00  0.00000000000E+00  0.27529994758E+03  0.27529994758E+03  0.00000000000E+00 0.  1.
          3   -1    0    0  501    0  0.00000000000E+00 -0.00000000000E+00 -0.50017931185E+02  0.50017931185E+02  0.00000000000E+00 0. -1.
         23    2    1    2    0    0 -0.30736217237E+02 -0.22846042771E+02  0.15924787125E+03  0.20604104169E+03  0.12500547846E+03 0.  0.
          5    1    3    3  502    0 -0.54931638044E+02 -0.49845937363E+02  0.46877042733E+02  0.87872916562E+02  0.47000000000E+01 0.  1.
         -5    1    3    3    0  502  0.24195420807E+02  0.26999894591E+02  0.11237082851E+03  0.11816812513E+03  0.47000000000E+01 0.  1.
        -11    1    1    2    0    0 -0.21176968728E+02 -0.19635767759E+02  0.34970281244E+02  0.45353588064E+02  0.00000000000E+00 0. -1.
         11    1    1    2    0    0  0.51913185965E+02  0.42481810531E+02  0.31063863901E+02  0.73923249005E+02  0.00000000000E+00 0.  1.
<mgrwt>
<rscale>  0 0.12206109E+03</rscale>
<asrwt>0</asrwt>
<pdfrwt beam="2">  1        3 0.76950665E-02 0.13074030E+03</pdfrwt>
<pdfrwt beam="1">  1       -3 0.42353837E-01 0.13074030E+03</pdfrwt>
<totfact> 0.14429132E+03</totfact>
</mgrwt>
</event>
<event>
 7    1  0.8165933E-006  0.1513177E+03  0.7546771E-02  0.1207453E+00
          2   -1    0    0  501    0  0.00000000000E+00  0.00000000000E+00  0.20627177359E+03  0.20627177359E+03  0.00000000000E+00 0.  1.
         -2   -1    0    0    0  501 -0.00000000000E+00 -0.00000000000E+00 -0.12840414952E+03  0.12840414952E+03  0.00000000000E+00 0. -1.
         23    2    1    2    0    0  0.69917561291E+02 -0.48821486166E+02  0.12913812747E+03  0.19893140179E+03  0.12500017505E+03 0.  0.
          5    1    3    3  502    0  0.32267295482E+02  0.36754034856E+02  0.15117628868E+02  0.51406907498E+02  0.47000000000E+01 0.  1.
         -5    1    3    3    0  502  0.37650265808E+02 -0.85575521022E+02  0.11402049860E+03  0.14752449429E+03  0.47000000000E+01 0.  1.
        -11    1    1    2    0    0  0.19515577198E+02  0.64709543429E+01  0.59932100824E+01  0.21416105402E+02  0.00000000000E+00 0.  1.
         11    1    1    2    0    0 -0.89433138489E+02  0.42350531823E+02 -0.57263713481E+02  0.11432841592E+03  0.00000000000E+00 0. -1.
<mgrwt>
<rscale>  0 0.14445822E+03</rscale>
<asrwt>0</asrwt>
<pdfrwt beam="1">  1        2 0.31734119E-01 0.15131770E+03</pdfrwt>
<pdfrwt beam="2">  1       -2 0.19754485E-01 0.15131770E+03</pdfrwt>
<totfact> 0.34286448E+03</totfact>
</mgrwt>
</event>
<event>
 7    1  0.8165933E-006  0.1523317E+03  0.7546771E-02  0.1206667E+00
          2   -1    0    0  501    0  0.00000000000E+00  0.00000000000E+00  0.32547673633E+03  0.32547673633E+03  0.00000000000E+00 0. -1.
         -2   -1    0    0    0  501 -0.00000000000E+00 -0.00000000000E+00 -0.89405565286E+02  0.89405565286E+02  0.00000000000E+00 0.  1.
         23    2    1    2    0    0 -0.74155452296E+02  0.45599860218E+02  0.24583920611E+03  0.28920900679E+03  0.12500622381E+03 0.  0.
          5    1    3    3  502    0 -0.37086562752E+02  0.87207734654E+02  0.13430451321E+03  0.16443963752E+03  0.47000000000E+01 0. -1.
         -5    1    3    3    0  502 -0.37068889544E+02 -0.41607874436E+02  0.11153469290E+03  0.12476936927E+03  0.47000000000E+01 0. -1.
        -11    1    1    2    0    0  0.52018739970E+02 -0.13282725323E+02  0.36598014297E+02  0.64975339557E+02  0.00000000000E+00 0. -1.
         11    1    1    2    0    0  0.22136712326E+02 -0.32317134895E+02 -0.46366049362E+02  0.60697955269E+02  0.00000000000E+00 0.  1.
<mgrwt>
<rscale>  0 0.14506894E+03</rscale>
<asrwt>0</asrwt>
<pdfrwt beam="1">  1        2 0.50073343E-01 0.15233166E+03</pdfrwt>
<pdfrwt beam="2">  1       -2 0.13754703E-01 0.15233166E+03</pdfrwt>
<totfact> 0.38365697E+03</totfact>
</mgrwt>
</event>
<event>
 6    1  0.8165933E-006  0.1604933E+03  0.7546771E-02  0.1200062E+00
         -1   -1    0    0    0  501 -0.00000000000E+00  0.00000000000E+00  0.51470606098E+02  0.51470606098E+02  0.00000000000E+00 0.  1.
          1   -1    0    0  501    0  0.00000000000E+00 -0.00000000000E+00 -0.11779218845E+04  0.11779218845E+04  0.00000000000E+00 0. -1.
          5    1    1    2  502    0 -0.80305644463E+02  0.83903923333E+02 -0.98033761279E+03  0.98720453298E+03  0.47000000000E+01 0. -1.
         -5    1    1    2    0  502  0.17142163161E+02 -0.27694607779E+02 -0.10797541491E+03  0.11287880794E+03  0.47000000000E+01 0.  1.
        -11    1    1    2    0    0 -0.20732312156E+02  0.21071246572E+01 -0.20058178496E+01  0.20935425645E+02  0.00000000000E+00 0. -1.
         11    1    1    2    0    0  0.83895793459E+02 -0.58316440212E+02 -0.36132432869E+02  0.10837372405E+03  0.00000000000E+00 0.  1.
<mgrwt>
<rscale>  0 0.15033482E+03</rscale>
<asrwt>0</asrwt>
<pdfrwt beam="2">  1        1 0.18121874E+00 0.16049334E+03</pdfrwt>
<pdfrwt beam="1">  1       -1 0.79185553E-02 0.16049334E+03</pdfrwt>
<totfact> 0.10442282E+03</totfact>
</mgrwt>
</event>
<event>
 7    1  0.8165933E-006  0.2243120E+03  0.7546771E-02  0.1134115E+00
          2   -1    0    0  501    0  0.00000000000E+00  0.00000000000E+00  0.29110056003E+04  0.29110056003E+04  0.00000000000E+00 0.  1.
         -2   -1    0    0    0  501 -0.00000000000E+00 -0.00000000000E+00 -0.20424959663E+02  0.20424959663E+02  0.00000000000E+00 0. -1.
         23    2    1    2    0    0 -0.11642741958E+03  0.14518205040E+03  0.21792567029E+04  0.21907705587E+04  0.12523055396E+03 0.  0.
          5    1    3    3  502    0 -0.59456727796E+02 -0.84817834941E+01  0.61753862998E+03  0.62047005782E+03  0.47000000000E+01 0.  1.
         -5    1    3    3    0  502 -0.56970691779E+02  0.15366383390E+03  0.15617180729E+04  0.15703005008E+04  0.47000000000E+01 0.  1.
        -11    1    1    2    0    0  0.10967554181E+03 -0.10652175425E+03  0.65085780274E+03  0.66857422026E+03  0.00000000000E+00 0.  1.
         11    1    1    2    0    0  0.67518777629E+01 -0.38660296155E+02  0.60466134989E+02  0.72085781071E+02  0.00000000000E+00 0. -1.
<mgrwt>
<rscale>  0 0.21968976E+03</rscale>
<asrwt>0</asrwt>
<pdfrwt beam="1">  1        2 0.44784669E+00 0.22431198E+03</pdfrwt>
<pdfrwt beam="2">  1       -2 0.31423038E-02 0.22431198E+03</pdfrwt>
<totfact> 0.93727301E+02</totfact>
</mgrwt>
</event>
<event>
 7    1  0.8165933E-006  0.1261704E+03  0.7546771E-02  0.1248965E+00
          4   -1    0    0  501    0  0.00000000000E+00  0.00000000000E+00  0.25412369768E+03  0.25412369768E+03  0.00000000000E+00 0. -1.
         -4   -1    0    0    0  501 -0.00000000000E+00 -0.00000000000E+00 -0.10369361471E+03  0.10369361471E+03  0.00000000000E+00 0.  1.
         23    2    1    2    0    0 -0.43633096346E+01  0.16557245219E+02  0.21243643051E+03  0.24707933929E+03  0.12500312818E+03 0.  0.
          5    1    3    3  502    0 -0.28994741294E+02  0.40979179894E+00  0.21513596351E+03  0.21713230010E+03  0.47000000000E+01 0.  1.
         -5    1    3    3    0  502  0.24631431659E+02  0.16147453420E+02 -0.26995330023E+01  0.29947039185E+02  0.47000000000E+01 0.  1.
        -11    1    1    2    0    0  0.50904707752E+01  0.31986964568E+02 -0.51841089731E+00  0.32393634326E+02  0.00000000000E+00 0. -1.
         11    1    1    2    0    0 -0.72716114066E+00 -0.48544209787E+02 -0.61487936637E+02  0.78344338781E+02  0.00000000000E+00 0.  1.
<mgrwt>
<rscale>  0 0.11651179E+03</rscale>
<asrwt>0</asrwt>
<pdfrwt beam="1">  1        4 0.39095953E-01 0.12617037E+03</pdfrwt>
<pdfrwt beam="2">  1       -4 0.15952864E-01 0.12617037E+03</pdfrwt>
<totfact> 0.35283973E+02</totfact>
</mgrwt>
</event>
<event>
 7    1  0.8165933E-006  0.2595384E+03  0.7546771E-02  0.1109855E+00
         -2   -1    0    0    0  501 -0.00000000000E+00  0.00000000000E+00  0.81150881492E+02  0.81150881492E+02  0.00000000000E+00 0.  1.
          2   -1    0    0  501    0  0.00000000000E+00 -0.00000000000E+00 -0.90281774920E+03  0.90281774920E+03  0.00000000000E+00 0. -1.
         23    2    1    2    0    0 -0.78775013408E+02 -0.21337534046E+03 -0.60267651036E+03  0.65618531794E+03  0.12500262672E+03 0.  0.
          5    1    3    3  502    0  0.26603995147E+01 -0.15490779637E+02 -0.19543678160E+03  0.19612411270E+03  0.47000000000E+01 0.  1.
         -5    1    3    3    0  502 -0.81435412922E+02 -0.19788456082E+03 -0.40723972876E+03  0.46006120524E+03  0.47000000000E+01 0.  1.
        -11    1    1    2    0    0  0.75795952869E+02  0.19606098959E+03 -0.22620232969E+03  0.30879189120E+03  0.00000000000E+00 0. -1.
         11    1    1    2    0    0  0.29790605384E+01  0.17314350865E+02  0.72119723455E+01  0.18991421555E+02  0.00000000000E+00 0.  1.
<mgrwt>
<rscale>  0 0.25553612E+03</rscale>
<asrwt>0</asrwt>
<pdfrwt beam="2">  1        2 0.13889504E+00 0.25953843E+03</pdfrwt>
<pdfrwt beam="1">  1       -2 0.12484751E-01 0.25953843E+03</pdfrwt>
<totfact> 0.14025644E+03</totfact>
</mgrwt>
</event>
<event>
 6    1  0.8165933E-006  0.1957287E+03  0.7546771E-02  0.1157749E+00
         -2   -1    0    0    0  501 -0.00000000000E+00  0.00000000000E+00  0.93235868639E+02  0.93235868639E+02  0.00000000000E+00 0.  1.
          2   -1    0    0  501    0  0.00000000000E+00 -0.00000000000E+00 -0.50693609514E+03  0.50693609514E+03  0.00000000000E+00 0. -1.
          5    1    1    2  502    0 -0.40639839453E+01  0.48587172521E+02 -0.21515358767E+03  0.22065898030E+03  0.47000000000E+01 0. -1.
         -5    1    1    2    0  502  0.11270660770E+03  0.49421177400E+02 -0.15414578560E+03  0.19730242121E+03  0.47000000000E+01 0.  1.
        -11    1    1    2    0    0  0.17895831653E+00 -0.61498752609E+02 -0.94235332320E+01  0.62216811049E+02  0.00000000000E+00 0.  1.
         11    1    1    2    0    0 -0.10882158207E+03 -0.36509597312E+02 -0.34977320001E+02  0.11999375123E+03  0.00000000000E+00 0. -1.
<mgrwt>
<rscale>  0 0.19079237E+03</rscale>
<asrwt>0</asrwt>
<pdfrwt beam="2">  1        2 0.77990169E-01 0.19572865E+03</pdfrwt>
<pdfrwt beam="1">  1       -2 0.14343980E-01 0.19572865E+03</pdfrwt>
<totfact> 0.22377931E+03</totfact>
</mgrwt>
</event>
<event>
 7    1  0.8165933E-006  0.1275535E+03  0.7546771E-02  0.1246024E+00
         -1   -1    0    0    0  501 -0.00000000000E+00  0.00000000000E+00  0.13990610132E+03  0.13990610132E+03  0.00000000000E+00 0.  1.
          1   -1    0    0  501    0  0.00000000000E+00 -0.00000000000E+00 -0.87977534133E+02  0.87977534133E+02  0.00000000000E+00 0. -1.
         23    2    1    2    0    0 -0.47453142924E+01  0.24899362022E+02  0.33862767679E+02  0.13197188999E+03  0.12500958553E+03 0.  0.
          5    1    3    3  502    0 -0.24144477452E+01 -0.26091254424E+02 -0.36339542353E+02  0.45047036015E+02  0.47000000000E+01 0. -1.
         -5    1    3    3    0  502 -0.23308665472E+01  0.50990616446E+02  0.70202310032E+02  0.86924853973E+02  0.47000000000E+01 0. -1.
        -11    1    1    2    0    0  0.14042250572E+02  0.32083661561E+02  0.14984696768E+02  0.38093139507E+02  0.00000000000E+00 0.  1.
         11    1    1    2    0    0 -0.92969362792E+01 -0.56983023583E+02  0.30811027395E+01  0.57818605958E+02  0.00000000000E+00 0. -1.
<mgrwt>
<rscale>  0 0.11824320E+03</rscale>
<asrwt>0</asrwt>
<pdfrwt beam="2">  1        1 0.13535005E-01 0.12755349E+03</pdfrwt>
<pdfrwt beam="1">  1       -1 0.21524016E-01 0.12755349E+03</pdfrwt>
<totfact> 0.71891788E+03</totfact>
</mgrwt>
</event>
<event>
 7    1  0.8165933E-006  0.1481574E+03  0.7546771E-02  0.1209573E+00
          2   -1    0    0  501    0  0.00000000000E+00  0.00000000000E+00  0.13515845794E+03  0.13515845794E+03  0.00000000000E+00 0. -1.
         -2   -1    0    0    0  501 -0.00000000000E+00 -0.00000000000E+00 -0.17389577141E+03  0.17389577141E+03  0.00000000000E+00 0.  1.
         23    2    1    2    0    0 -0.10273534758E+02 -0.78873336092E+02  0.46519385776E+02  0.15528900277E+03  0.12499628980E+03 0.  0.
          5    1    3    3  502    0 -0.45603378187E+02 -0.93465871242E+02  0.14310309076E+02  0.10508288222E+03  0.47000000000E+01 0. -1.
         -5    1    3    3    0  502  0.35329843430E+02  0.14592535149E+02  0.32209076700E+02  0.50206120550E+02  0.47000000000E+01 0. -1.
        -11    1    1    2    0    0 -0.20314127726E+02 -0.48045875148E+01  0.10163952074E+02  0.23217531484E+02  0.00000000000E+00 0. -1.
         11    1    1    2    0    0  0.30587662484E+02  0.83677923607E+02 -0.95420651318E+02  0.13054769509E+03  0.00000000000E+00 0.  1.
<mgrwt>
<rscale>  0 0.14282866E+03</rscale>
<asrwt>0</asrwt>
<pdfrwt beam="1">  1        2 0.20793609E-01 0.14815742E+03</pdfrwt>
<pdfrwt beam="2">  1       -2 0.26753196E-01 0.14815742E+03</pdfrwt>
<totfact> 0.32321747E+03</totfact>
</mgrwt>
</event>
<event>
 7    1  0.8165933E-006  0.1369057E+03  0.7546771E-02  0.1229294E+00
         -4   -1    0    0    0  501 -0.00000000000E+00  0.00000000000E+00  0.42968122017E+02  0.42968122017E+02  0.00000000000E+00 0.  1.
          4   -1    0    0  501    0  0.00000000000E+00 -0.00000000000E+00 -0.41232703221E+03  0.41232703221E+03  0.00000000000E+00 0. -1.
         23    2    1    2    0    0 -0.13569183996E+02 -0.54157070044E+02 -0.29396473334E+03  0.32428142921E+03  0.12500427949E+03 0.  0.
          5    1    3    3  502    0  0.25297519496E+00  0.29708128852E+02 -0.17745702251E+03  0.17998811559E+03  0.47000000000E+01 0. -1.
         -5    1    3    3    0  502 -0.13822159191E+02 -0.83865198896E+02 -0.11650771083E+03  0.14429331361E+03  0.47000000000E+01 0. -1.
        -11    1    1    2    0    0  0.46169419734E+02  0.51489600792E+01 -0.45381347397E+02  0.64943004243E+02  0.00000000000E+00 0.  1.
         11    1    1    2    0    0 -0.32600235737E+02  0.49008109965E+02 -0.30012829457E+02  0.66070720781E+02  0.00000000000E+00 0. -1.
<mgrwt>
<rscale>  0 0.12876874E+03</rscale>
<asrwt>0</asrwt>
<pdfrwt beam="2">  1        4 0.63434930E-01 0.13690574E+03</pdfrwt>
<pdfrwt beam="1">  1       -4 0.66104801E-02 0.13690574E+03</pdfrwt>
<totfact> 0.59306195E+02</totfact>
</mgrwt>
</event>
<event>
 7    1  0.8165933E-006  0.1496359E+03  0.7546771E-02  0.1214956E+00
         -2   -1    0    0    0  501 -0.00000000000E+00  0.00000000000E+00  0.17039176423E+02  0.17039176423E+02  0.00000000000E+00 0. -1.
          2   -1    0    0  501    0  0.00000000000E+00 -0.00000000000E+00 -0.13616261815E+04  0.13616261815E+04  0.00000000000E+00 0.  1.
         23    2    1    2    0    0  0.49304254434E+01 -0.82107004197E+02 -0.11004214875E+04  0.11105486754E+04  0.12500016360E+03 0.  0.
          5    1    3    3  502    0  0.40386715329E+02 -0.11947681472E+02 -0.75819569993E+03  0.75937911695E+03  0.47000000000E+01 0.  1.
         -5    1    3    3    0  502 -0.35456289886E+02 -0.70159322726E+02 -0.34222578760E+03  0.35116955841E+03  0.47000000000E+01 0.  1.
        -11    1    1    2    0    0 -0.59876686782E+01  0.16193598556E+02 -0.22871263622E+01  0.17415962717E+02  0.00000000000E+00 0. -1.
         11    1    1    2    0    0  0.10572432349E+01  0.65913405642E+02 -0.24187839116E+03  0.25070071982E+03  0.00000000000E+00 0.  1.
<mgrwt>
<rscale>  0 0.13879742E+03</rscale>
<asrwt>0</asrwt>
<pdfrwt beam="2">  1        2 0.20948098E+00 0.14963593E+03</pdfrwt>
<pdfrwt beam="1">  1       -2 0.26214114E-02 0.14963593E+03</pdfrwt>
<totfact> 0.82267631E+03</totfact>
</mgrwt>
</event>
<event>
 7    1  0.8165933E-006  0.1534749E+03  0.7546771E-02  0.1204780E+00
          2   -1    0    0  501    0  0.00000000000E+00  0.00000000000E+00  0.70792551460E+02  0.70792551460E+02  0.00000000000E+00 0. -1.
         -2   -1    0    0    0  501 -0.00000000000E+00 -0.00000000000E+00 -0.30386191020E+03  0.30386191020E+03  0.00000000000E+00 0.  1.
         23    2    1    2    0    0 -0.16088408389E+02  0.87578244550E+02 -0.72982152119E+02  0.16994394897E+03  0.12500306180E+03 0.  0.
          5    1    3    3  502    0 -0.60295000251E+02  0.33095973912E+02 -0.71908005485E+02  0.99617678137E+02  0.47000000000E+01 0. -1.
         -5    1    3    3    0  502  0.44206591862E+02  0.54482270638E+02 -0.10741466345E+01  0.70326270830E+02  0.47000000000E+01 0. -1.
        -11    1    1    2    0    0 -0.17010682339E+02 -0.71532632200E+02 -0.50722038246E+02  0.89325281679E+02  0.00000000000E+00 0. -1.
         11    1    1    2    0    0  0.33099090728E+02 -0.16045612350E+02 -0.10936516837E+03  0.11538523101E+03  0.00000000000E+00 0.  1.
<mgrwt>
<rscale>  0 0.14654797E+03</rscale>
<asrwt>0</asrwt>
<pdfrwt beam="1">  1        2 0.10891162E-01 0.15347492E+03</pdfrwt>
<pdfrwt beam="2">  1       -2 0.46747984E-01 0.15347492E+03</pdfrwt>
<totfact> 0.24545841E+03</totfact>
</mgrwt>
</event>
<event>
 7    1  0.8165933E-006  0.1638406E+03  0.7546771E-02  0.1191498E+00
          4   -1    0    0  501    0  0.00000000000E+00  0.00000000000E+00  0.70312343238E+03  0.70312343238E+03  0.00000000000E+00 0. -1.
         -4   -1    0    0    0  501 -0.00000000000E+00 -0.00000000000E+00 -0.36558730483E+02  0.36558730483E+02  0.00000000000E+00 0.  1.
         23    2    1    2    0    0 -0.92875842111E+02 -0.50910852411E+02  0.47433901046E+03  0.50183787015E+03  0.12500365647E+03 0.  0.
          5    1    3    3  502    0 -0.48638020727E+02 -0.25189882716E+02  0.49729893703E+02  0.74130557662E+02  0.47000000000E+01 0. -1.
         -5    1    3    3    0  502 -0.44237821384E+02 -0.25720969695E+02  0.42460911675E+03  0.42770731248E+03  0.47000000000E+01 0. -1.
        -11    1    1    2    0    0  0.16900653538E+02  0.59967553453E+02  0.70667725309E+02  0.94210758184E+02  0.00000000000E+00 0.  1.
         11    1    1    2    0    0  0.75975188573E+02 -0.90567010425E+01  0.12155796613E+03  0.14363353453E+03  0.00000000000E+00 0. -1.
<mgrwt>
<rscale>  0 0.15754381E+03</rscale>
<asrwt>0</asrwt>
<pdfrwt beam="1">  1        4 0.10817283E+00 0.16384063E+03</pdfrwt>
<pdfrwt beam="2">  1       -4 0.56244206E-02 0.16384063E+03</pdfrwt>
<totfact> 0.24196179E+02</totfact>
</mgrwt>
</event>
<event>
 7    1  0.8165933E-006  0.1325479E+03  0.7546771E-02  0.1230834E+00
          1   -1    0    0  501    0  0.00000000000E+00  0.00000000000E+00  0.20078393432E+03  0.20078393432E+03  0.00000000000E+00 0. -1.
         -1   -1    0    0    0  501 -0.00000000000E+00 -0.00000000000E+00 -0.85725935631E+02  0.85725935631E+02  0.00000000000E+00 0.  1.
         23    2    1    2    0    0 -0.57707912646E+02  0.37363035661E+02  0.10962904812E+03  0.17201007534E+03  0.11332580559E+03 0.  0.
          5    1    3    3  502    0 -0.90636626811E+02  0.14941527350E+02  0.69644886664E+02  0.11537221328E+03  0.47000000000E+01 0. -1.
         -5    1    3    3    0  502  0.32928714165E+02  0.22421508312E+02  0.39984161453E+02  0.56637862059E+02  0.47000000000E+01 0.  1.
        -11    1    1    2    0    0 -0.17598007742E+02 -0.13116711750E+02 -0.21699929223E+02  0.30864622659E+02  0.00000000000E+00 0. -1.
         11    1    1    2    0    0  0.75305920388E+02 -0.24246323911E+02  0.27128879799E+02  0.83635171954E+02  0.00000000000E+00 0.  1.
<mgrwt>
<rscale>  0 0.12774931E+03</rscale>
<asrwt>0</asrwt>
<pdfrwt beam="1">  1        1 0.30889836E-01 0.13254787E+03</pdfrwt>
<pdfrwt beam="2">  1       -1 0.13188606E-01 0.13254787E+03</pdfrwt>
<totfact> 0.54881442E+03</totfact>
</mgrwt>
</event>
<event>
 7    1  0.8165933E-006  0.1971111E+03  0.7546771E-02  0.1156420E+00
         -2   -1    0    0    0  501 -0.00000000000E+00  0.00000000000E+00  0.42204734776E+02  0.42204734776E+02  0.00000000000E+00 0.  1.
          2   -1    0    0  501    0  0.00000000000E+00 -0.00000000000E+00 -0.12283458740E+04  0.12283458740E+04  0.00000000000E+00 0. -1.
         23    2    1    2    0    0 -0.33187555821E+02  0.14874963447E+03 -0.97195894462E+03  0.99174441997E+03  0.12499974757E+03 0.  0.
          5    1    3    3  502    0 -0.52620969718E+01  0.81487219963E+02 -0.80979320130E+03  0.81391337103E+03  0.47000000000E+01 0.  1.
         -5    1    3    3    0  502 -0.27925458849E+02  0.67262414506E+02 -0.16216574332E+03  0.17783104893E+03  0.47000000000E+01 0.  1.
        -11    1    1    2    0    0  0.14079635700E+02 -0.87796574975E+02 -0.48607580293E+02  0.10133692111E+03  0.00000000000E+00 0.  1.
         11    1    1    2    0    0  0.19107920121E+02 -0.60953059495E+02 -0.16557461434E+03  0.17746926773E+03  0.00000000000E+00 0. -1.
<mgrwt>
<rscale>  0 0.19228137E+03</rscale>
<asrwt>0</asrwt>
<pdfrwt beam="2">  1        2 0.18897630E+00 0.19711115E+03</pdfrwt>
<pdfrwt beam="1">  1       -2 0.64930357E-02 0.19711115E+03</pdfrwt>
<totfact> 0.25149344E+03</totfact>
</mgrwt>
</event>
<event>
 7    1  0.8165933E-006  0.1580974E+03  0.7546771E-02  0.1197844E+00
          2   -1    0    0  501    0  0.00000000000E+00  0.00000000000E+00  0.83807717592E+03  0.83807717592E+03  0.00000000000E+00 0. -1.
         -2   -1    0    0    0  501 -0.00000000000E+00 -0.00000000000E+00 -0.34065083774E+02  0.34065083774E+02  0.00000000000E+00 0.  1.
         23    2    1    2    0    0  0.17762022366E+02  0.95154011962E+02  0.64031088255E+03  0.65953984482E+03  0.12500002066E+03 0.  0.
          5    1    3    3  502    0 -0.34118448983E+02 -0.13940038884E+02  0.14365288393E+03  0.14838003339E+03  0.47000000000E+01 0. -1.
         -5    1    3    3    0  502  0.51880471349E+02  0.10909405085E+03  0.49665799862E+03  0.51115981144E+03  0.47000000000E+01 0. -1.
        -11    1    1    2    0    0  0.12529477486E+02 -0.85658759486E+02  0.15826619417E+03  0.18039567372E+03  0.00000000000E+00 0.  1.
         11    1    1    2    0    0 -0.30291499853E+02 -0.94952524762E+01  0.54350154352E+01  0.32206741153E+02  0.00000000000E+00 0. -1.
<mgrwt>
<rscale>  0 0.15216009E+03</rscale>
<asrwt>0</asrwt>
<pdfrwt beam="1">  1        2 0.12893493E+00 0.15809738E+03</pdfrwt>
<pdfrwt beam="2">  1       -2 0.52407827E-02 0.15809738E+03</pdfrwt>
<totfact> 0.59421386E+03</totfact>
</mgrwt>
</event>
<event>
 7    1  0.8165933E-006  0.1847872E+03  0.7546771E-02  0.1168713E+00
         -2   -1    0    0    0  501 -0.00000000000E+00  0.00000000000E+00  0.89786808953E+02  0.89786808953E+02  0.00000000000E+00 0.  1.
          2   -1    0    0  501    0  0.00000000000E+00 -0.00000000000E+00 -0.33715613350E+03  0.33715613350E+03  0.00000000000E+00 0. -1.
         23    2    1    2    0    0  0.11624617670E+03  0.70758913114E+02 -0.12322178644E+03  0.22210343243E+03  0.12500531452E+03 0.  0.
          5    1    3    3  502    0  0.13617125684E+03  0.62769647929E+02 -0.13062316557E+03  0.19891490963E+03  0.47000000000E+01 0.  1.
         -5    1    3    3    0  502 -0.19925080138E+02  0.79892651850E+01  0.74013791223E+01  0.23188522799E+02  0.47000000000E+01 0.  1.
        -11    1    1    2    0    0 -0.28532525921E+02 -0.45539234359E+02 -0.39029484893E+01  0.53880979096E+02  0.00000000000E+00 0.  1.
         11    1    1    2    0    0 -0.87713650777E+02 -0.25219678755E+02 -0.12024458961E+03  0.15095853093E+03  0.00000000000E+00 0. -1.
<mgrwt>
<rscale>  0 0.17906270E+03</rscale>
<asrwt>0</asrwt>
<pdfrwt beam="2">  1        2 0.51870174E-01 0.18478725E+03</pdfrwt>
<pdfrwt beam="1">  1       -2 0.13813355E-01 0.18478725E+03</pdfrwt>
<totfact> 0.37016617E+03</totfact>
</mgrwt>
</event>
<event>
 7    1  0.8165933E-006  0.1377143E+03  0.7546771E-02  0.1227532E+00
         -1   -1    0    0    0  501 -0.00000000000E+00  0.00000000000E+00  0.14541051423E+02  0.14541051423E+02  0.00000000000E+00 0.  1.
          1   -1    0    0  501    0  0.00000000000E+00 -0.00000000000E+00 -0.10480458878E+04  0.10480458878E+04  0.00000000000E+00 0. -1.
         23    2    1    2    0    0 -0.51768082335E+02  0.25708230879E+02 -0.57468120704E+03  0.59095153372E+03  0.12499751195E+03 0.  0.
          5    1    3    3  502    0  0.38464708876E+02 -0.61954920978E+01 -0.22414336322E+03  0.22755275262E+03  0.47000000000E+01 0. -1.
         -5    1    3    3    0  502 -0.90232791211E+02  0.31903722977E+02 -0.35053784382E+03  0.36339878109E+03  0.47000000000E+01 0.  1.
        -11    1    1    2    0    0 -0.25663860459E+02  0.45211062606E+01 -0.10947284581E+03  0.11253167601E+03  0.00000000000E+00 0.  1.
         11    1    1    2    0    0  0.77431942794E+02 -0.30229337140E+02 -0.34935078354E+03  0.35910372951E+03  0.00000000000E+00 0. -1.
<mgrwt>
<rscale>  0 0.12994889E+03</rscale>
<asrwt>0</asrwt>
<pdfrwt beam="2">  1        1 0.16123776E+00 0.13771429E+03</pdfrwt>
<pdfrwt beam="1">  1       -1 0.22370858E-02 0.13771429E+03</pdfrwt>
<totfact> 0.83014310E+03</totfact>
</mgrwt>
</event>
<event>
 7    1  0.1072282E-005  0.2220540E+03  0.7546771E-02  0.1135628E+00
         -1   -1    0    0    0  501 -0.00000000000E+00  0.00000000000E+00  0.89520386882E+02  0.89520386882E+02  0.00000000000E+00 0.  1.
          1   -1    0    0  501    0  0.00000000000E+00 -0.00000000000E+00 -0.56824100156E+03  0.56824100156E+03  0.00000000000E+00 0. -1.
         23    2    1    2    0    0 -0.11908734732E+03  0.13964921625E+03 -0.35362723326E+03  0.41756460869E+03  0.12499712972E+03 0.  0.
          5    1    3    3  502    0 -0.78540711502E+02  0.15181371889E+03 -0.22855577709E+03  0.28543980424E+03  0.47000000000E+01 0. -1.
         -5    1    3    3    0  502 -0.40546635819E+02 -0.12164502645E+02 -0.12507145618E+03  0.13212480445E+03  0.47000000000E+01 0. -1.
        -11    1    1    2    0    0 -0.92953921823E+01 -0.43476570327E+02 -0.23030634126E+02  0.50070216611E+02  0.00000000000E+00 0. -1.
         11    1    1    2    0    0  0.12838273950E+03 -0.96172645920E+02 -0.10206274728E+03  0.19012656313E+03  0.00000000000E+00 0.  1.
<mgrwt>
<rscale>  0 0.21767559E+03</rscale>
<asrwt>0</asrwt>
<pdfrwt beam="2">  1        1 0.87421693E-01 0.22205401E+03</pdfrwt>
<pdfrwt beam="1">  1       -1 0.13772367E-01 0.22205401E+03</pdfrwt>
<totfact> 0.13948630E+03</totfact>
</mgrwt>
</event>
<event>
 7    1  0.8165933E-006  0.1300584E+03  0.7546771E-02  0.1240035E+00
         -1   -1    0    0    0  501 -0.00000000000E+00  0.00000000000E+00  0.70526383386E+02  0.70526383386E+02  0.00000000000E+00 0.  1.
          1   -1    0    0  501    0  0.00000000000E+00 -0.00000000000E+00 -0.42431468254E+03  0.42431468254E+03  0.00000000000E+00 0. -1.
         23    2    1    2    0    0 -0.23599790994E+02  0.27130367961E+02 -0.37095557787E+03  0.39309441246E+03  0.12498867690E+03 0.  0.
          5    1    3    3  502    0 -0.39956960220E+01 -0.49978453519E+02 -0.14345876177E+03  0.15204051345E+03  0.47000000000E+01 0.  1.
         -5    1    3    3    0  502 -0.19604094972E+02  0.77108821479E+02 -0.22749681610E+03  0.24105389900E+03  0.47000000000E+01 0.  1.
        -11    1    1    2    0    0  0.20492453515E+02 -0.59364776129E+02  0.26319619128E+02  0.68094343723E+02  0.00000000000E+00 0.  1.
         11    1    1    2    0    0  0.31073374787E+01  0.32234408169E+02 -0.91523404125E+01  0.33652309746E+02  0.00000000000E+00 0. -1.
<mgrwt>
<rscale>  0 0.12187534E+03</rscale>
<asrwt>0</asrwt>
<pdfrwt beam="2">  1        1 0.65279180E-01 0.13005836E+03</pdfrwt>
<pdfrwt beam="1">  1       -1 0.10850213E-01 0.13005836E+03</pdfrwt>
<totfact> 0.29239014E+03</totfact>
</mgrwt>
</event>
<event>
 7    1  0.8165933E-006  0.1405085E+03  0.7546771E-02  0.1223096E+00
          1   -1    0    0  501    0  0.00000000000E+00  0.00000000000E+00  0.29095556932E+03  0.29095556932E+03  0.00000000000E+00 0. -1.
         -1   -1    0    0    0  501 -0.00000000000E+00 -0.00000000000E+00 -0.56045709580E+02  0.56045709580E+02  0.00000000000E+00 0.  1.
         23    2    1    2    0    0  0.60514942308E+02  0.21315531164E+02  0.10779260820E+03  0.17709289117E+03  0.12500494234E+03 0.  0.
          5    1    3    3  502    0 -0.12461469394E+02  0.43864682606E+02  0.86114988169E+02  0.97556546612E+02  0.47000000000E+01 0. -1.
         -5    1    3    3    0  502  0.72976411702E+02 -0.22549151442E+02  0.21677620030E+02  0.79536344559E+02  0.47000000000E+01 0. -1.
        -11    1    1    2    0    0 -0.39135955685E+02  0.30997123724E+02  0.88009695468E+02  0.10118374970E+03  0.00000000000E+00 0. -1.
         11    1    1    2    0    0 -0.21378986623E+02 -0.52312654889E+02  0.39107556076E+02  0.68724638033E+02  0.00000000000E+00 0.  1.
<mgrwt>
<rscale>  0 0.13298280E+03</rscale>
<asrwt>0</asrwt>
<pdfrwt beam="1">  1        1 0.44762394E-01 0.14050853E+03</pdfrwt>
<pdfrwt beam="2">  1       -1 0.86224170E-02 0.14050853E+03</pdfrwt>
<totfact> 0.66747979E+03</totfact>
</mgrwt>
</event>
<event>
 7    1  0.8165933E-006  0.1508542E+03  0.7546771E-02  0.1208372E+00
         -1   -1    0    0    0  501 -0.00000000000E+00  0.00000000000E+00  0.10449068997E+03  0.10449068997E+03  0.00000000000E+00 0.  1.
          1   -1    0    0  501    0  0.00000000000E+00 -0.00000000000E+00 -0.18126498877E+03  0.18126498877E+03  0.00000000000E+00 0. -1.
         23    2    1    2    0    0 -0.45102989269E+02  0.71399135188E+02 -0.43634235774E+02  0.15703804976E+03  0.12499954557E+03 0.  0.
          5    1    3    3  502    0 -0.12795553958E+02 -0.34558055895E+02 -0.24566614373E+02  0.44537556850E+02  0.47000000000E+01 0. -1.
         -5    1    3    3    0  502 -0.32307435311E+02  0.10595719108E+03 -0.19067621400E+02  0.11250049291E+03  0.47000000000E+01 0. -1.
        -11    1    1    2    0    0 -0.77724936665E+01 -0.50135133380E+02 -0.47977538378E+02  0.69826839007E+02  0.00000000000E+00 0. -1.
         11    1    1    2    0    0  0.52875482935E+02 -0.21264001808E+02  0.14837475354E+02  0.58890789971E+02  0.00000000000E+00 0.  1.
<mgrwt>
<rscale>  0 0.14374883E+03</rscale>
<asrwt>0</asrwt>
<pdfrwt beam="2">  1        1 0.27886922E-01 0.15085424E+03</pdfrwt>
<pdfrwt beam="1">  1       -1 0.16075491E-01 0.15085424E+03</pdfrwt>
<totfact> 0.46082712E+03</totfact>
</mgrwt>
</event>
<event>
 7    1  0.8165933E-006  0.1394505E+03  0.7546771E-02  0.1222053E+00
         -1   -1    0    0    0  501 -0.00000000000E+00  0.00000000000E+00  0.16122874698E+03  0.16122874698E+03  0.00000000000E+00 0.  1.
          1   -1    0    0  501    0  0.00000000000E+00 -0.00000000000E+00 -0.10307276109E+03  0.10307276109E+03  0.00000000000E+00 0. -1.
         23    2    1    2    0    0 -0.14126055610E+02  0.60146905574E+02  0.23245249159E+02  0.14137464731E+03  0.12501701323E+03 0.  0.
          5    1    3    3  502    0 -0.76923496667E+01  0.77523881742E+02 -0.30910092325E+02  0.83944316611E+02  0.47000000000E+01 0. -1.
         -5    1    3    3    0  502 -0.64337059433E+01 -0.17376976168E+02  0.54155341484E+02  0.57430330698E+02  0.47000000000E+01 0. -1.
        -11    1    1    2    0    0 -0.71934198912E+01 -0.27566101223E+02  0.66785160189E+02  0.72607801563E+02  0.00000000000E+00 0.  1.
         11    1    1    2    0    0  0.21319475501E+02 -0.32580804350E+02 -0.31874423454E+02  0.50319059195E+02  0.00000000000E+00 0. -1.
<mgrwt>
<rscale>  0 0.13370933E+03</rscale>
<asrwt>0</asrwt>
<pdfrwt beam="2">  1        1 0.15857348E-01 0.13945053E+03</pdfrwt>
<pdfrwt beam="1">  1       -1 0.24804423E-01 0.13945053E+03</pdfrwt>
<totfact> 0.46764792E+03</totfact>
</mgrwt>
</event>
<event>
 7    1  0.8165933E-006  0.1557811E+03  0.7546771E-02  0.1201668E+00
         -2   -1    0    0    0  501 -0.00000000000E+00  0.00000000000E+00  0.65426145192E+02  0.65426145192E+02  0.00000000000E+00 0.  1.
          2   -1    0    0  501    0  0.00000000000E+00 -0.00000000000E+00 -0.32134108242E+03  0.32134108242E+03  0.00000000000E+00 0. -1.
         23    2    1    2    0    0  0.53751697752E+02 -0.75822343781E+02 -0.16975652284E+03  0.23040188823E+03  0.12501791961E+03 0.  0.
          5    1    3    3  502    0  0.22890611715E+02 -0.66363982946E+02 -0.18233772713E+03  0.19544128293E+03  0.47000000000E+01 0.  1.
         -5    1    3    3    0  502  0.30861086037E+02 -0.94583608344E+01  0.12581204295E+02  0.34960605294E+02  0.47000000000E+01 0.  1.
        -11    1    1    2    0    0 -0.28026273114E+02  0.93757076941E+02 -0.55454018762E+02  0.11247670718E+03  0.00000000000E+00 0. -1.
         11    1    1    2    0    0 -0.25725424638E+02 -0.17934733160E+02 -0.30704395632E+02  0.43888632212E+02  0.00000000000E+00 0.  1.
<mgrwt>
<rscale>  0 0.14903143E+03</rscale>
<asrwt>0</asrwt>
<pdfrwt beam="2">  1        2 0.49437089E-01 0.15578111E+03</pdfrwt>
<pdfrwt beam="1">  1       -2 0.10065561E-01 0.15578111E+03</pdfrwt>
<totfact> 0.64158809E+03</totfact>
</mgrwt>
</event>
<event>
 7    1  0.8165933E-006  0.2027824E+03  0.7546771E-02  0.1151368E+00
         -4   -1    0    0    0  501 -0.00000000000E+00  0.00000000000E+00  0.71068760186E+02  0.71068760186E+02  0.00000000000E+00 0.  1.
          4   -1    0    0  501    0  0.00000000000E+00 -0.00000000000E+00 -0.64141398976E+03  0.64141398976E+03  0.00000000000E+00 0. -1.
         23    2    1    2    0    0 -0.11593274719E+03  0.10979311903E+03 -0.44587943699E+03  0.48982564185E+03  0.12500302488E+03 0.  0.
          5    1    3    3  502    0 -0.39114473694E+02  0.91399195438E+02 -0.35796836373E+03  0.37154702853E+03  0.47000000000E+01 0.  1.
         -5    1    3    3    0  502 -0.76818273495E+02  0.18393923591E+02 -0.87911073261E+02  0.11827861332E+03  0.47000000000E+01 0.  1.
        -11    1    1    2    0    0  0.39048233959E+02 -0.72160226448E+02 -0.14528744453E+02  0.83324349813E+02  0.00000000000E+00 0. -1.
         11    1    1    2    0    0  0.76884513229E+02 -0.37632892581E+02 -0.10993704813E+03  0.13933275828E+03  0.00000000000E+00 0.  1.
<mgrwt>
<rscale>  0 0.19808071E+03</rscale>
<asrwt>0</asrwt>
<pdfrwt beam="2">  1        4 0.98679075E-01 0.20278236E+03</pdfrwt>
<pdfrwt beam="1">  1       -4 0.10933655E-01 0.20278236E+03</pdfrwt>
<totfact> 0.10238027E+02</totfact>
</mgrwt>
</event>
<event>
 7    1  0.8165933E-006  0.1664215E+03  0.7546771E-02  0.1188869E+00
         -1   -1    0    0    0  501 -0.00000000000E+00  0.00000000000E+00  0.25439059225E+03  0.25439059225E+03  0.00000000000E+00 0.  1.
          1   -1    0    0  501    0  0.00000000000E+00 -0.00000000000E+00 -0.93319537057E+02  0.93319537057E+02  0.00000000000E+00 0. -1.
         23    2    1    2    0    0  0.53101893798E+02  0.96129119902E+02  0.91202173773E+02  0.18977338600E+03  0.12504192383E+03 0.  0.
          5    1    3    3  502    0  0.80961445982E+02  0.81510091974E+02  0.26980124501E+02  0.11810447895E+03  0.47000000000E+01 0.  1.
         -5    1    3    3    0  502 -0.27859552184E+02  0.14619027927E+02  0.64222049272E+02  0.71668907053E+02  0.47000000000E+01 0.  1.
        -11    1    1    2    0    0 -0.23839590985E+02 -0.18948675490E+02  0.68966049913E+02  0.75390280817E+02  0.00000000000E+00 0.  1.
         11    1    1    2    0    0 -0.29262302813E+02 -0.77180444412E+02  0.90283151133E+00  0.82546462494E+02  0.00000000000E+00 0. -1.
<mgrwt>
<rscale>  0 0.15984709E+03</rscale>
<asrwt>0</asrwt>
<pdfrwt beam="2">  1        1 0.14356852E-01 0.16642146E+03</pdfrwt>
<pdfrwt beam="1">  1       -1 0.39137014E-01 0.16642146E+03</pdfrwt>
<totfact> 0.24788688E+03</totfact>
</mgrwt>
</event>
<event>
 7    1  0.8165933E-006  0.1361101E+03  0.7546771E-02  0.1230780E+00
          2   -1    0    0  501    0  0.00000000000E+00  0.00000000000E+00  0.42207492658E+03  0.42207492658E+03  0.00000000000E+00 0. -1.
         -2   -1    0    0    0  501 -0.00000000000E+00 -0.00000000000E+00 -0.38689107736E+02  0.38689107736E+02  0.00000000000E+00 0.  1.
         23    2    1    2    0    0  0.43927872422E+02  0.31167998271E+02  0.28719878553E+03  0.31781927194E+03  0.12499938047E+03 0.  0.
          5    1    3    3  502    0 -0.20908361733E+02  0.59996982600E+02  0.11408162698E+03  0.13066562335E+03  0.47000000000E+01 0.  1.
         -5    1    3    3    0  502  0.64836234154E+02 -0.28828984330E+02  0.17311715855E+03  0.18715364859E+03  0.47000000000E+01 0.  1.
        -11    1    1    2    0    0 -0.63436013240E+02 -0.21974752045E+02  0.30369103831E+02  0.73683783634E+02  0.00000000000E+00 0.  1.
         11    1    1    2    0    0  0.19508140818E+02 -0.91932462255E+01  0.65817929487E+02  0.69260978742E+02  0.00000000000E+00 0. -1.
<mgrwt>
<rscale>  0 0.12778474E+03</rscale>
<asrwt>0</asrwt>
<pdfrwt beam="1">  1        2 0.64934601E-01 0.13611006E+03</pdfrwt>
<pdfrwt beam="2">  1       -2 0.59521707E-02 0.13611006E+03</pdfrwt>
<totfact> 0.10699002E+04</totfact>
</mgrwt>
</event>
<event>
 6    1  0.8165933E-006  0.5055076E+03  0.7546771E-02  0.1066072E+00
          2   -1    0    0  501    0  0.00000000000E+00  0.00000000000E+00  0.49850342041E+03  0.49850342041E+03  0.00000000000E+00 0. -1.
         -2   -1    0    0    0  501 -0.00000000000E+00 -0.00000000000E+00 -0.19808083618E+03  0.19808083618E+03  0.00000000000E+00 0.  1.
          5    1    1    2  502    0 -0.24550516577E+01  0.12146433159E+03  0.42410372916E+03  0.44118666596E+03  0.47000000000E+01 0. -1.
         -5    1    1    2    0  502 -0.31991078938E+02 -0.86105565455E+02 -0.11812599737E+03  0.14971118458E+03  0.47000000000E+01 0.  1.
        -11    1    1    2    0    0  0.61009459741E+02 -0.10194448879E+02  0.15095809362E+02  0.63670750161E+02  0.00000000000E+00 0.  1.
         11    1    1    2    0    0 -0.26563329145E+02 -0.25164317254E+02 -0.20650956925E+02  0.42015655892E+02  0.00000000000E+00 0. -1.
<mgrwt>
<rscale>  0 0.34170421E+03</rscale>
<asrwt>0</asrwt>
<pdfrwt beam="1">  1        2 0.76692834E-01 0.50550756E+03</pdfrwt>
<pdfrwt beam="2">  1       -2 0.30473975E-01 0.50550756E+03</pdfrwt>
<totfact> 0.62044157E+02</totfact>
</mgrwt>
</event>
<event>
 7    1  0.8165933E-006  0.1267629E+03  0.7546771E-02  0.1247731E+00
          1   -1    0    0  501    0  0.00000000000E+00  0.00000000000E+00  0.87020655109E+02  0.87020655109E+02  0.00000000000E+00 0. -1.
         -1   -1    0    0    0  501 -0.00000000000E+00 -0.00000000000E+00 -0.15010667070E+03  0.15010667070E+03  0.00000000000E+00 0.  1.
         23    2    1    2    0    0 -0.27911570431E+01 -0.20943417907E+02 -0.33276523812E+01  0.12680655858E+03  0.12498965044E+03 0.  0.
          5    1    3    3  502    0  0.59228002846E+02 -0.21096914427E+02  0.81048229337E+01  0.63567399461E+02  0.47000000000E+01 0. -1.
         -5    1    3    3    0  502 -0.62019159889E+02  0.15349652018E+00 -0.11432475315E+02  0.63239159121E+02  0.47000000000E+01 0. -1.
        -11    1    1    2    0    0  0.40519486340E+02  0.81936753740E+01 -0.56983972525E+02  0.70399845271E+02  0.00000000000E+00 0.  1.
         11    1    1    2    0    0 -0.37728329297E+02  0.12749742533E+02 -0.27743906863E+01  0.39920921957E+02  0.00000000000E+00 0. -1.
<mgrwt>
<rscale>  0 0.11723410E+03</rscale>
<asrwt>0</asrwt>
<pdfrwt beam="1">  1        1 0.13387793E-01 0.12676289E+03</pdfrwt>
<pdfrwt beam="2">  1       -1 0.23093334E-01 0.12676289E+03</pdfrwt>
<totfact> 0.65033729E+03</totfact>
</mgrwt>
</event>
<event>
 7    1  0.8165933E-006  0.1151943E+03  0.7546771E-02  0.1261606E+00
         -1   -1    0    0    0  501 -0.00000000000E+00  0.00000000000E+00  0.28897151776E+03  0.28897151776E+03  0.00000000000E+00 0.  1.
          1   -1    0    0  501    0  0.00000000000E+00 -0.00000000000E+00 -0.52094890932E+02  0.52094890932E+02  0.00000000000E+00 0. -1.
         23    2    1    2    0    0  0.20418880480E+02  0.20074171619E+02  0.38243460619E+02  0.12137664753E+03  0.11157878490E+03 0.  0.
          5    1    3    3  502    0  0.37602437999E+02  0.59942381410E+02  0.17557560118E+02  0.73057445548E+02  0.47000000000E+01 0. -1.
         -5    1    3    3    0  502 -0.17183557519E+02 -0.39868209791E+02  0.20685900501E+02  0.48319201985E+02  0.47000000000E+01 0.  1.
        -11    1    1    2    0    0  0.27748357843E+02  0.54763537663E+00  0.21901243768E+02  0.35354430360E+02  0.00000000000E+00 0.  1.
         11    1    1    2    0    0 -0.48167238323E+02 -0.20621806996E+02  0.17673192244E+03  0.18433533080E+03  0.00000000000E+00 0. -1.
<mgrwt>
<rscale>  0 0.10944243E+03</rscale>
<asrwt>0</asrwt>
<pdfrwt beam="2">  1        1 0.80145988E-02 0.11519431E+03</pdfrwt>
<pdfrwt beam="1">  1       -1 0.44457156E-01 0.11519431E+03</pdfrwt>
<totfact> 0.41904162E+03</totfact>
</mgrwt>
</event>
<event>
 6    1  0.8165933E-006  0.1954773E+03  0.7546771E-02  0.1182944E+00
          2   -1    0    0  501    0  0.00000000000E+00  0.00000000000E+00  0.50651906102E+03  0.50651906102E+03  0.00000000000E+00 0. -1.
         -2   -1    0    0    0  501 -0.00000000000E+00 -0.00000000000E+00 -0.45092835131E+02  0.45092835131E+02  0.00000000000E+00 0.  1.
          5    1    1    2  502    0 -0.70409471901E+02  0.43520408432E+02  0.31727403649E+03  0.32792746746E+03  0.47000000000E+01 0. -1.
         -5    1    1    2    0  502  0.35659914070E+02 -0.58824483315E+02  0.41038906910E+02  0.80238589152E+02  0.47000000000E+01 0.  1.
        -11    1    1    2    0    0  0.65277759572E+02  0.17160681956E+01  0.77501012173E+02  0.10134366124E+03  0.00000000000E+00 0.  1.
         11    1    1    2    0    0 -0.30528201742E+02  0.13588006688E+02  0.25612270321E+02  0.42102178309E+02  0.00000000000E+00 0. -1.
<mgrwt>
<rscale>  0 0.16520352E+03</rscale>
<asrwt>0</asrwt>
<pdfrwt beam="1">  1        2 0.77926005E-01 0.19547727E+03</pdfrwt>
<pdfrwt beam="2">  1       -2 0.69373596E-02 0.19547727E+03</pdfrwt>
<totfact> 0.70921667E+03</totfact>
</mgrwt>
</event>
<event>
 7    1  0.8165933E-006  0.1705449E+03  0.7546771E-02  0.1183510E+00
          1   -1    0    0  501    0  0.00000000000E+00  0.00000000000E+00  0.26883505201E+03  0.26883505201E+03  0.00000000000E+00 0.  1.
         -1   -1    0    0    0  501 -0.00000000000E+00 -0.00000000000E+00 -0.10057920015E+03  0.10057920015E+03  0.00000000000E+00 0. -1.
         23    2    1    2    0    0  0.10688556392E+03 -0.45105169819E+02  0.13486758235E+03  0.21742775063E+03  0.12500624727E+03 0.  0.
          5    1    3    3  502    0  0.22595893318E+02 -0.76506933184E+02  0.54635725080E+02  0.96804120135E+02  0.47000000000E+01 0. -1.
         -5    1    3    3    0  502  0.84289670604E+02  0.31401763365E+02  0.80231857271E+02  0.12062363050E+03  0.47000000000E+01 0. -1.
        -11    1    1    2    0    0 -0.83017874339E+02  0.23330609958E+02 -0.20974459161E+02  0.88748029600E+02  0.00000000000E+00 0. -1.
         11    1    1    2    0    0 -0.23867689583E+02  0.21774559860E+02  0.54362728667E+02  0.63238471924E+02  0.00000000000E+00 0.  1.
<mgrwt>
<rscale>  0 0.16468163E+03</rscale>
<asrwt>0</asrwt>
<pdfrwt beam="1">  1        1 0.41359238E-01 0.17054490E+03</pdfrwt>
<pdfrwt beam="2">  1       -1 0.15473723E-01 0.17054490E+03</pdfrwt>
<totfact> 0.30128462E+03</totfact>
</mgrwt>
</event>
<event>
 7    1  0.8165933E-006  0.2840889E+03  0.7546771E-02  0.1095331E+00
         -2   -1    0    0    0  501 -0.00000000000E+00  0.00000000000E+00  0.80321428859E+03  0.80321428859E+03  0.00000000000E+00 0.  1.
          2   -1    0    0  501    0  0.00000000000E+00 -0.00000000000E+00 -0.10055060217E+03  0.10055060217E+03  0.00000000000E+00 0. -1.
         23    2    1    2    0    0 -0.24919112780E+03 -0.54640968170E+02  0.26094210201E+03  0.38574253596E+03  0.12499867949E+03 0.  0.
          5    1    3    3  502    0 -0.11229039194E+03 -0.77866223402E+02  0.17610837218E+03  0.22295409757E+03  0.47000000000E+01 0. -1.
         -5    1    3    3    0  502 -0.13690073586E+03  0.23225255232E+02  0.84833729824E+02  0.16278843840E+03  0.47000000000E+01 0. -1.
        -11    1    1    2    0    0  0.20126465321E+03  0.60266009265E+01  0.30983566107E+03  0.36951578778E+03  0.00000000000E+00 0.  1.
         11    1    1    2    0    0  0.47926474594E+02  0.48614367243E+02  0.13188592334E+03  0.14850656701E+03  0.00000000000E+00 0. -1.
<mgrwt>
<rscale>  0 0.28065726E+03</rscale>
<asrwt>0</asrwt>
<pdfrwt beam="2">  1        2 0.15469324E-01 0.28408894E+03</pdfrwt>
<pdfrwt beam="1">  1       -2 0.12357142E+00 0.28408894E+03</pdfrwt>
<totfact> 0.19461914E+02</totfact>
</mgrwt>
</event>
<event>
 7    1  0.8165933E-006  0.1278858E+03  0.7546771E-02  0.1244400E+00
          1   -1    0    0  501    0  0.00000000000E+00  0.00000000000E+00  0.78317695605E+03  0.78317695605E+03  0.00000000000E+00 0. -1.
         -1   -1    0    0    0  501 -0.00000000000E+00 -0.00000000000E+00 -0.18326205114E+02  0.18326205114E+02  0.00000000000E+00 0.  1.
         23    2    1    2    0    0 -0.21188790842E+02  0.16743237974E+02  0.56828691281E+03  0.58249875021E+03  0.12500191138E+03 0.  0.
          5    1    3    3  502    0 -0.67371741804E+02 -0.17968447997E+02  0.31755759088E+03  0.32515647040E+03  0.47000000000E+01 0. -1.
         -5    1    3    3    0  502  0.46182950962E+02  0.34711685971E+02  0.25072932193E+03  0.25734227981E+03  0.47000000000E+01 0. -1.
        -11    1    1    2    0    0 -0.33477222759E+02  0.25299377907E+01  0.10850810498E+03  0.11358315842E+03  0.00000000000E+00 0. -1.
         11    1    1    2    0    0  0.54666013601E+02 -0.19273175765E+02  0.88055733139E+02  0.10542125253E+03  0.00000000000E+00 0.  1.
<mgrwt>
<rscale>  0 0.11921373E+03</rscale>
<asrwt>0</asrwt>
<pdfrwt beam="1">  1        1 0.12048874E+00 0.12788580E+03</pdfrwt>
<pdfrwt beam="2">  1       -1 0.28194168E-02 0.12788580E+03</pdfrwt>
<totfact> 0.94261037E+03</totfact>
</mgrwt>
</event>
<event>
 7    1  0.8165933E-006  0.1284562E+03  0.7546771E-02  0.1238134E+00
          1   -1    0    0  501    0  0.00000000000E+00  0.00000000000E+00  0.69120433103E+03  0.69120433103E+03  0.00000000000E+00 0. -1.
         -1   -1    0    0    0  501 -0.00000000000E+00 -0.00000000000E+00 -0.57374859025E+02  0.57374859025E+02  0.00000000000E+00 0.  1.
         23    2    1    2    0    0 -0.58981140397E+02  0.22763054983E+02  0.62716328851E+03  0.64018339699E+03  0.11182155306E+03 0.  0.
          5    1    3    3  502    0 -0.88022194392E+02 -0.45847390093E+01  0.42541134293E+03  0.43447189464E+03  0.47000000000E+01 0. -1.
         -5    1    3    3    0  502  0.29041053995E+02  0.27347793992E+02  0.20175194558E+03  0.20571150235E+03  0.47000000000E+01 0.  1.
        -11    1    1    2    0    0  0.25444440559E+02  0.72264572234E+01 -0.37143769611E+02  0.45599351533E+02  0.00000000000E+00 0.  1.
         11    1    1    2    0    0  0.33536699838E+02 -0.29989512206E+02  0.43809953108E+02  0.62796441537E+02  0.00000000000E+00 0. -1.
<mgrwt>
<rscale>  0 0.12305908E+03</rscale>
<asrwt>0</asrwt>
<pdfrwt beam="1">  1        1 0.10633912E+00 0.12845618E+03</pdfrwt>
<pdfrwt beam="2">  1       -1 0.88269019E-02 0.12845618E+03</pdfrwt>
<totfact> 0.20905796E+03</totfact>
</mgrwt>
</event>
<event>
 7    1  0.8165933E-006  0.1351011E+03  0.7546771E-02  0.1233137E+00
          4   -1    0    0  501    0  0.00000000000E+00  0.00000000000E+00  0.95050160101E+02  0.95050160101E+02  0.00000000000E+00 0. -1.
         -4   -1    0    0    0  501 -0.00000000000E+00 -0.00000000000E+00 -0.17287199632E+03  0.17287199632E+03  0.00000000000E+00 0.  1.
         23    2    1    2    0    0 -0.38038817338E+02  0.34297269413E+02  0.58288801064E+01  0.13522674177E+03  0.12501616508E+03 0.  0.
          5    1    3    3  502    0  0.83467119440E+01 -0.12142054410E+02 -0.47861053535E+02  0.50297788530E+02  0.47000000000E+01 0. -1.
         -5    1    3    3    0  502 -0.46385529282E+02  0.46439323823E+02  0.53689933641E+02  0.84928953239E+02  0.47000000000E+01 0. -1.
        -11    1    1    2    0    0  0.54589090369E+02 -0.92336767808E+01 -0.86312228109E+02  0.10254282176E+03  0.00000000000E+00 0.  1.
         11    1    1    2    0    0 -0.16550273030E+02 -0.25063592633E+02  0.26615117812E+01  0.30152592890E+02  0.00000000000E+00 0. -1.
<mgrwt>
<rscale>  0 0.12624428E+03</rscale>
<asrwt>0</asrwt>
<pdfrwt beam="1">  1        4 0.14623102E-01 0.13510106E+03</pdfrwt>
<pdfrwt beam="2">  1       -4 0.26595691E-01 0.13510106E+03</pdfrwt>
<totfact> 0.86855643E+02</totfact>
</mgrwt>
</event>
<event>
 7    1  0.8165933E-006  0.1941189E+03  0.7546771E-02  0.1159455E+00
         -2   -1    0    0    0  501 -0.00000000000E+00  0.00000000000E+00  0.44991040797E+03  0.44991040797E+03  0.00000000000E+00 0. -1.
          2   -1    0    0  501    0  0.00000000000E+00 -0.00000000000E+00 -0.78195355402E+02  0.78195355402E+02  0.00000000000E+00 0.  1.
         23    2    1    2    0    0  0.67958699789E+02 -0.13205839556E+03  0.14513847653E+03  0.24237849346E+03  0.12499740800E+03 0.  0.
          5    1    3    3  502    0  0.58849902948E+01 -0.10510107993E+03  0.13877178282E+03  0.17424284152E+03  0.47000000000E+01 0.  1.
         -5    1    3    3    0  502  0.62073709494E+02 -0.26957315634E+02  0.63666937051E+01  0.68135651940E+02  0.47000000000E+01 0.  1.
        -11    1    1    2    0    0 -0.81993296260E+02  0.84949461281E+02  0.19282883056E+03  0.22610234297E+03  0.00000000000E+00 0. -1.
         11    1    1    2    0    0  0.14034596471E+02  0.47108934283E+02  0.33747745485E+02  0.59624926941E+02  0.00000000000E+00 0.  1.
<mgrwt>
<rscale>  0 0.18890212E+03</rscale>
<asrwt>0</asrwt>
<pdfrwt beam="2">  1        2 0.12030055E-01 0.19411892E+03</pdfrwt>
<pdfrwt beam="1">  1       -2 0.69216985E-01 0.19411892E+03</pdfrwt>
<totfact> 0.98559830E+02</totfact>
</mgrwt>
</event>
<event>
 7    1  0.8165933E-006  0.1636128E+03  0.7546771E-02  0.1191760E+00
         -1   -1    0    0    0  501 -0.00000000000E+00  0.00000000000E+00  0.12628931189E+03  0.12628931189E+03  0.00000000000E+00 0.  1.
          1   -1    0    0  501    0  0.00000000000E+00 -0.00000000000E+00 -0.25490599412E+03  0.25490599412E+03  0.00000000000E+00 0. -1.
         23    2    1    2    0    0 -0.10438649190E+03 -0.15712638543E+02 -0.16941380410E+03  0.23552107818E+03  0.12500285816E+03 0.  0.
          5    1    3    3  502    0 -0.43795320098E+02 -0.56453309888E+02 -0.29127284023E+02  0.77301325567E+02  0.47000000000E+01 0.  1.
         -5    1    3    3    0  502 -0.60591171802E+02  0.40740671345E+02 -0.14028652008E+03  0.15821975262E+03  0.47000000000E+01 0.  1.
        -11    1    1    2    0    0  0.49642955316E+02  0.21588261229E+02  0.65798932222E+02  0.85205489946E+02  0.00000000000E+00 0.  1.
         11    1    1    2    0    0  0.54743536585E+02 -0.58756226861E+01 -0.25001810349E+02  0.60468737877E+02  0.00000000000E+00 0. -1.
<mgrwt>
<rscale>  0 0.15731659E+03</rscale>
<asrwt>0</asrwt>
<pdfrwt beam="2">  1        1 0.39216307E-01 0.16361278E+03</pdfrwt>
<pdfrwt beam="1">  1       -1 0.19429125E-01 0.16361278E+03</pdfrwt>
<totfact> 0.22361135E+03</totfact>
</mgrwt>
</event>
<event>
 7    1  0.8165933E-006  0.1314011E+03  0.7546771E-02  0.1238561E+00
          2   -1    0    0  501    0  0.00000000000E+00  0.00000000000E+00  0.94547514336E+03  0.94547514336E+03  0.00000000000E+00 0. -1.
         -2   -1    0    0    0  501 -0.00000000000E+00 -0.00000000000E+00 -0.17031755544E+02  0.17031755544E+02  0.00000000000E+00 0.  1.
         23    2    1    2    0    0  0.13571423296E+02 -0.38280251954E+02  0.71161143174E+03  0.72364153727E+03  0.12496672940E+03 0.  0.
          5    1    3    3  502    0  0.18448300431E+02  0.44395840219E+02  0.24583758567E+03  0.25053849793E+03  0.47000000000E+01 0.  1.
         -5    1    3    3    0  502 -0.48768771356E+01 -0.82676092173E+02  0.46577384608E+03  0.47310303934E+03  0.47000000000E+01 0.  1.
        -11    1    1    2    0    0 -0.45438227583E+02  0.22141759433E+02  0.62133974278E+02  0.80096946236E+02  0.00000000000E+00 0.  1.
         11    1    1    2    0    0  0.31866804288E+02  0.16138492522E+02  0.15469798180E+03  0.15876841540E+03  0.00000000000E+00 0. -1.
<mgrwt>
<rscale>  0 0.12279169E+03</rscale>
<asrwt>0</asrwt>
<pdfrwt beam="1">  1        2 0.14545767E+00 0.13140108E+03</pdfrwt>
<pdfrwt beam="2">  1       -2 0.26202708E-02 0.13140108E+03</pdfrwt>
<totfact> 0.14066543E+04</totfact>
</mgrwt>
</event>
<event>
 7    1  0.8165933E-006  0.1649357E+03  0.7546771E-02  0.1189744E+00
         -1   -1    0    0    0  501 -0.00000000000E+00  0.00000000000E+00  0.41626724068E+03  0.41626724068E+03  0.00000000000E+00 0.  1.
          1   -1    0    0  501    0  0.00000000000E+00 -0.00000000000E+00 -0.56847763045E+02  0.56847763045E+02  0.00000000000E+00 0. -1.
         23    2    1    2    0    0 -0.67303133165E+02  0.83956243302E+02  0.19458231544E+03  0.25508049367E+03  0.12500167297E+03 0.  0.
          5    1    3    3  502    0 -0.97974536560E+02  0.40524116291E+02  0.96633556351E+02  0.14353169695E+03  0.47000000000E+01 0. -1.
         -5    1    3    3    0  502  0.30671403395E+02  0.43432127011E+02  0.97948759091E+02  0.11154879672E+03  0.47000000000E+01 0. -1.
        -11    1    1    2    0    0  0.23495312741E+02 -0.80460629978E+02  0.56396799636E+02  0.10102743047E+03  0.00000000000E+00 0. -1.
         11    1    1    2    0    0  0.43807820424E+02 -0.34956133241E+01  0.10844036256E+03  0.11700707959E+03  0.00000000000E+00 0.  1.
<mgrwt>
<rscale>  0 0.15907571E+03</rscale>
<asrwt>0</asrwt>
<pdfrwt beam="2">  1        1 0.87458100E-02 0.16493569E+03</pdfrwt>
<pdfrwt beam="1">  1       -1 0.64041112E-01 0.16493569E+03</pdfrwt>
<totfact> 0.19315584E+03</totfact>
</mgrwt>
</event>
<event>
 7    1  0.8165933E-006  0.2651594E+03  0.7546771E-02  0.1106445E+00
          1   -1    0    0  501    0  0.00000000000E+00  0.00000000000E+00  0.21788388350E+04  0.21788388350E+04  0.00000000000E+00 0. -1.
         -1   -1    0    0    0  501 -0.00000000000E+00 -0.00000000000E+00 -0.30398217403E+02  0.30398217403E+02  0.00000000000E+00 0.  1.
         23    2    1    2    0    0 -0.33714869540E+02  0.23140289514E+03  0.10985258411E+04  0.11300745674E+04  0.12500204837E+03 0.  0.
          5    1    3    3  502    0  0.36900543960E+02  0.80580661805E+02  0.53949712593E+03  0.54674869190E+03  0.47000000000E+01 0. -1.
         -5    1    3    3    0  502 -0.70615413500E+02  0.15082223334E+03  0.55902871513E+03  0.58332587550E+03  0.47000000000E+01 0. -1.
        -11    1    1    2    0    0  0.35209426750E+02 -0.32654463730E+02  0.14752957653E+03  0.15514829578E+03  0.00000000000E+00 0.  1.
         11    1    1    2    0    0 -0.14945572100E+01 -0.19874843141E+03  0.90238520001E+03  0.92401418922E+03  0.00000000000E+00 0. -1.
<mgrwt>
<rscale>  0 0.26116542E+03</rscale>
<asrwt>0</asrwt>
<pdfrwt beam="1">  1        1 0.33520585E+00 0.26515939E+03</pdfrwt>
<pdfrwt beam="2">  1       -1 0.46766505E-02 0.26515939E+03</pdfrwt>
<totfact> 0.50243981E+02</totfact>
</mgrwt>
</event>
<event>
 7    1  0.8165933E-006  0.1371087E+03  0.7546771E-02  0.1228930E+00
         -2   -1    0    0    0  501 -0.00000000000E+00  0.00000000000E+00  0.70296398281E+02  0.70296398281E+02  0.00000000000E+00 0.  1.
          2   -1    0    0  501    0  0.00000000000E+00 -0.00000000000E+00 -0.22150939792E+03  0.22150939792E+03  0.00000000000E+00 0. -1.
         23    2    1    2    0    0 -0.47767017528E+02  0.29865403557E+02 -0.11321312800E+03  0.17780894215E+03  0.12500070906E+03 0.  0.
          5    1    3    3  502    0 -0.48955104640E+02 -0.20734677817E+02  0.36616821502E+00  0.53373712759E+02  0.47000000000E+01 0. -1.
         -5    1    3    3    0  502  0.11880871115E+01  0.50600081374E+02 -0.11357929621E+03  0.12443522939E+03  0.47000000000E+01 0. -1.
        -11    1    1    2    0    0 -0.24543948117E+02 -0.22840832787E+02 -0.20392358386E+02  0.39242289843E+02  0.00000000000E+00 0.  1.
         11    1    1    2    0    0  0.72310965645E+02 -0.70245707692E+01 -0.17607513261E+02  0.74754564210E+02  0.00000000000E+00 0. -1.
<mgrwt>
<rscale>  0 0.12901128E+03</rscale>
<asrwt>0</asrwt>
<pdfrwt beam="2">  1        2 0.34078369E-01 0.13710874E+03</pdfrwt>
<pdfrwt beam="1">  1       -2 0.10814831E-01 0.13710874E+03</pdfrwt>
<totfact> 0.84444078E+03</totfact>
</mgrwt>
</event>
<event>
 7    1  0.8165933E-006  0.1438501E+03  0.7546771E-02  0.1217334E+00
          1   -1    0    0  501    0  0.00000000000E+00  0.00000000000E+00  0.17385248346E+03  0.17385248346E+03  0.00000000000E+00 0. -1.
         -1   -1    0    0    0  501 -0.00000000000E+00 -0.00000000000E+00 -0.99353735750E+02  0.99353735750E+02  0.00000000000E+00 0.  1.
         23    2    1    2    0    0  0.18628559580E+02 -0.68710545492E+02  0.48633169471E+02  0.15184870396E+03  0.12499872570E+03 0.  0.
          5    1    3    3  502    0 -0.11665779412E+02 -0.70510890949E+02 -0.21919035463E+02  0.74902671964E+02  0.47000000000E+01 0. -1.
         -5    1    3    3    0  502  0.30294338992E+02  0.18003454564E+01  0.70552204934E+02  0.76946031995E+02  0.47000000000E+01 0. -1.
        -11    1    1    2    0    0  0.26064449187E+02  0.45373144177E+02  0.43393443498E+02  0.67978442631E+02  0.00000000000E+00 0. -1.
         11    1    1    2    0    0 -0.44693008767E+02  0.23337401316E+02 -0.17527865262E+02  0.53379072617E+02  0.00000000000E+00 0.  1.
<mgrwt>
<rscale>  0 0.13706463E+03</rscale>
<asrwt>0</asrwt>
<pdfrwt beam="1">  1        1 0.26746536E-01 0.14385007E+03</pdfrwt>
<pdfrwt beam="2">  1       -1 0.15285190E-01 0.14385007E+03</pdfrwt>
<totfact> 0.52423274E+03</totfact>
</mgrwt>
</event>
<event>
 7    1  0.8165933E-006  0.1197639E+03  0.7546771E-02  0.1257088E+00
          1   -1    0    0  501    0  0.00000000000E+00  0.00000000000E+00  0.21841574452E+03  0.21841574452E+03  0.00000000000E+00 0. -1.
         -1   -1    0    0    0  501 -0.00000000000E+00 -0.00000000000E+00 -0.51367079406E+02  0.51367079406E+02  0.00000000000E+00 0.  1.
         23    2    1    2    0    0 -0.20215268950E+02  0.76775511316E+01  0.10632417091E+03  0.16015062609E+03  0.11779555096E+03 0.  0.
          5    1    3    3  502    0  0.24191755589E+02 -0.36060554826E+02  0.82327122060E+02  0.93195759987E+02  0.47000000000E+01 0. -1.
         -5    1    3    3    0  502 -0.44407024540E+02  0.43738105958E+02  0.23997048850E+02  0.66954866102E+02  0.47000000000E+01 0.  1.
        -11    1    1    2    0    0  0.10807228172E+01 -0.43665653748E+02  0.52070890509E+02  0.67964953597E+02  0.00000000000E+00 0.  1.
         11    1    1    2    0    0  0.19134546133E+02  0.35988102616E+02  0.86536036966E+01  0.41667244240E+02  0.00000000000E+00 0. -1.
<mgrwt>
<rscale>  0 0.11190166E+03</rscale>
<asrwt>0</asrwt>
<pdfrwt beam="1">  1        1 0.33602422E-01 0.11976391E+03</pdfrwt>
<pdfrwt beam="2">  1       -1 0.79026277E-02 0.11976391E+03</pdfrwt>
<totfact> 0.10721903E+04</totfact>
</mgrwt>
</event>
<event>
 7    1  0.8165933E-006  0.1183923E+03  0.7546771E-02  0.1257688E+00
         -1   -1    0    0    0  501 -0.00000000000E+00  0.00000000000E+00  0.10761268108E+03  0.10761268108E+03  0.00000000000E+00 0.  1.
          1   -1    0    0  501    0  0.00000000000E+00 -0.00000000000E+00 -0.13716531838E+03  0.13716531838E+03  0.00000000000E+00 0. -1.
         23    2    1    2    0    0  0.33730375738E+01  0.11173414526E+02 -0.75798162868E+02  0.14057775020E+03  0.11781561774E+03 0.  0.
          5    1    3    3  502    0  0.92921433715E+01 -0.47520355392E+02 -0.59182959411E+01  0.49006574374E+02  0.47000000000E+01 0. -1.
         -5    1    3    3    0  502 -0.59191057977E+01  0.58693769918E+02 -0.69879866927E+02  0.91571175827E+02  0.47000000000E+01 0.  1.
        -11    1    1    2    0    0  0.40719051349E+01  0.40000594733E+02  0.29412236312E+02  0.49816740513E+02  0.00000000000E+00 0.  1.
         11    1    1    2    0    0 -0.74449427086E+01 -0.51174009259E+02  0.16833289255E+02  0.54383508738E+02  0.00000000000E+00 0. -1.
<mgrwt>
<rscale>  0 0.11157098E+03</rscale>
<asrwt>0</asrwt>
<pdfrwt beam="2">  1        1 0.21102357E-01 0.11839232E+03</pdfrwt>
<pdfrwt beam="1">  1       -1 0.16555797E-01 0.11839232E+03</pdfrwt>
<totfact> 0.61492791E+03</totfact>
</mgrwt>
</event>
<event>
 7    1  0.8165933E-006  0.1505875E+03  0.7546771E-02  0.1206012E+00
          1   -1    0    0  501    0  0.00000000000E+00  0.00000000000E+00  0.18656256182E+03  0.18656256182E+03  0.00000000000E+00 0. -1.
         -1   -1    0    0    0  501 -0.00000000000E+00 -0.00000000000E+00 -0.10786393113E+03  0.10786393113E+03  0.00000000000E+00 0.  1.
         23    2    1    2    0    0 -0.49351448740E+02 -0.67916212606E+02  0.26440469098E+02  0.15289116322E+03  0.12501372707E+03 0.  0.
          5    1    3    3  502    0 -0.17892479563E+02 -0.68018276909E+02 -0.38689478586E+02  0.80408908535E+02  0.47000000000E+01 0. -1.
         -5    1    3    3    0  502 -0.31458969176E+02  0.10206430256E+00  0.65129947683E+02  0.72482254683E+02  0.47000000000E+01 0. -1.
        -11    1    1    2    0    0  0.37122355561E+02 -0.15836360301E+02 -0.29728531885E+01  0.40468474719E+02  0.00000000000E+00 0.  1.
         11    1    1    2    0    0  0.12229093178E+02  0.83752572906E+02  0.55231014787E+02  0.10106685502E+03  0.00000000000E+00 0. -1.
<mgrwt>
<rscale>  0 0.14558001E+03</rscale>
<asrwt>0</asrwt>
<pdfrwt beam="1">  1        1 0.28701932E-01 0.15058755E+03</pdfrwt>
<pdfrwt beam="2">  1       -1 0.16594451E-01 0.15058755E+03</pdfrwt>
<totfact> 0.42269387E+03</totfact>
</mgrwt>
</event>
<event>
 7    1  0.8165933E-006  0.1261785E+03  0.7546771E-02  0.1246238E+00
         -1   -1    0    0    0  501 -0.00000000000E+00  0.00000000000E+00  0.20401223588E+03  0.20401223588E+03  0.00000000000E+00 0.  1.
          1   -1    0    0  501    0  0.00000000000E+00 -0.00000000000E+00 -0.65307917873E+02  0.65307917873E+02  0.00000000000E+00 0. -1.
         23    2    1    2    0    0 -0.90944800167E+01 -0.13940784049E+02  0.43452779814E+02  0.13345096970E+03  0.12507582586E+03 0.  0.
          5    1    3    3  502    0  0.24153547260E+02  0.11767163915E+02  0.75574069294E+02  0.80345441324E+02  0.47000000000E+01 0.  1.
         -5    1    3    3    0  502 -0.33248027277E+02 -0.25707947964E+02 -0.32121289481E+02  0.53105528377E+02  0.47000000000E+01 0.  1.
        -11    1    1    2    0    0 -0.35929874948E+02  0.31483954921E+02  0.56047187866E+02  0.73644297803E+02  0.00000000000E+00 0.  1.
         11    1    1    2    0    0  0.45024354964E+02 -0.17543170872E+02  0.39204350329E+02  0.62224886251E+02  0.00000000000E+00 0. -1.
<mgrwt>
<rscale>  0 0.11811587E+03</rscale>
<asrwt>0</asrwt>
<pdfrwt beam="2">  1        1 0.10047372E-01 0.12617851E+03</pdfrwt>
<pdfrwt beam="1">  1       -1 0.31386498E-01 0.12617851E+03</pdfrwt>
<totfact> 0.57020074E+03</totfact>
</mgrwt>
</event>
<event>
 7    1  0.8165933E-006  0.1334427E+03  0.7546771E-02  0.1234959E+00
         -2   -1    0    0    0  501 -0.00000000000E+00  0.00000000000E+00  0.50114543121E+02  0.50114543121E+02  0.00000000000E+00 0.  1.
          2   -1    0    0  501    0  0.00000000000E+00 -0.00000000000E+00 -0.31326828036E+03  0.31326828036E+03  0.00000000000E+00 0. -1.
         23    2    1    2    0    0 -0.88405226811E+01  0.45881164232E+02 -0.20646128124E+03  0.24583165825E+03  0.12499482979E+03 0.  0.
          5    1    3    3  502    0 -0.60206267186E+02  0.34333393884E+02 -0.16374726952E+03  0.17787308627E+03  0.47000000000E+01 0.  1.
         -5    1    3    3    0  502  0.51365744505E+02  0.11547770348E+02 -0.42714011724E+02  0.67958571984E+02  0.47000000000E+01 0.  1.
        -11    1    1    2    0    0 -0.40956887353E+02 -0.12089976741E+02 -0.21079911752E+02  0.47623490409E+02  0.00000000000E+00 0.  1.
         11    1    1    2    0    0  0.49797410034E+02 -0.33791187491E+02 -0.35612544245E+02  0.69927674820E+02  0.00000000000E+00 0. -1.
<mgrwt>
<rscale>  0 0.12507081E+03</rscale>
<asrwt>0</asrwt>
<pdfrwt beam="2">  1        2 0.48195120E-01 0.13344266E+03</pdfrwt>
<pdfrwt beam="1">  1       -2 0.77099297E-02 0.13344266E+03</pdfrwt>
<totfact> 0.98830515E+03</totfact>
</mgrwt>
</event>
<event>
 7    1  0.8165933E-006  0.1497344E+03  0.7546771E-02  0.1209549E+00
         -1   -1    0    0    0  501 -0.00000000000E+00  0.00000000000E+00  0.70406803397E+02  0.70406803397E+02  0.00000000000E+00 0.  1.
          1   -1    0    0  501    0  0.00000000000E+00 -0.00000000000E+00 -0.26779324350E+03  0.26779324350E+03  0.00000000000E+00 0. -1.
         23    2    1    2    0    0  0.71236452993E+02 -0.41463076532E+02 -0.94584804078E+02  0.17710636773E+03  0.12500624536E+03 0.  0.
          5    1    3    3  502    0 -0.29740782411E+02 -0.24801303194E+02 -0.54658101410E+02  0.67150702367E+02  0.47000000000E+01 0.  1.
         -5    1    3    3    0  502  0.10097723540E+03 -0.16661773339E+02 -0.39926702667E+02  0.10995566537E+03  0.47000000000E+01 0.  1.
        -11    1    1    2    0    0 -0.20217200827E+02  0.31650335923E+02  0.82838672696E+01  0.38459087746E+02  0.00000000000E+00 0.  1.
         11    1    1    2    0    0 -0.51019252166E+02  0.98127406092E+01 -0.11108550329E+03  0.12263459141E+03  0.00000000000E+00 0. -1.
<mgrwt>
<rscale>  0 0.14284704E+03</rscale>
<asrwt>0</asrwt>
<pdfrwt beam="2">  1        1 0.41198961E-01 0.14973437E+03</pdfrwt>
<pdfrwt beam="1">  1       -1 0.10831816E-01 0.14973437E+03</pdfrwt>
<totfact> 0.52425710E+03</totfact>
</mgrwt>
</event>
<event>
 7    1  0.8165933E-006  0.1274877E+03  0.7546771E-02  0.1246186E+00
          1   -1    0    0  501    0  0.00000000000E+00  0.00000000000E+00  0.76524950633E+03  0.76524950633E+03  0.00000000000E+00 0. -1.
         -1   -1    0    0    0  501 -0.00000000000E+00 -0.00000000000E+00 -0.23517894583E+02  0.23517894583E+02  0.00000000000E+00 0.  1.
         23    2    1    2    0    0 -0.44445237763E+01 -0.24743869900E+02  0.62982358746E+03  0.64259697040E+03  0.12498440766E+03 0.  0.
          5    1    3    3  502    0  0.28417288256E+02 -0.14860684249E+02  0.38785632941E+02  0.50545005004E+02  0.47000000000E+01 0. -1.
         -5    1    3    3    0  502 -0.32861812033E+02 -0.98831856507E+01  0.59103795452E+03  0.59205196540E+03  0.47000000000E+01 0. -1.
        -11    1    1    2    0    0 -0.32896733256E+02  0.36733780402E+02  0.37112499670E+02  0.61716313186E+02  0.00000000000E+00 0.  1.
         11    1    1    2    0    0  0.37341257032E+02 -0.11989910502E+02  0.74795524614E+02  0.84454117324E+02  0.00000000000E+00 0. -1.
<mgrwt>
<rscale>  0 0.11814693E+03</rscale>
<asrwt>0</asrwt>
<pdfrwt beam="1">  1        1 0.11773067E+00 0.12748771E+03</pdfrwt>
<pdfrwt beam="2">  1       -1 0.36181382E-02 0.12748771E+03</pdfrwt>
<totfact> 0.67826413E+03</totfact>
</mgrwt>
</event>
<event>
 7    1  0.8165933E-006  0.1677957E+03  0.7546771E-02  0.1186888E+00
          2   -1    0    0  501    0  0.00000000000E+00  0.00000000000E+00  0.10622204212E+04  0.10622204212E+04  0.00000000000E+00 0. -1.
         -2   -1    0    0    0  501 -0.00000000000E+00 -0.00000000000E+00 -0.23957825859E+02  0.23957825859E+02  0.00000000000E+00 0.  1.
         23    2    1    2    0    0 -0.89591853973E+02 -0.67118274200E+02  0.66808247072E+03  0.68883203820E+03  0.12499530448E+03 0.  0.
          5    1    3    3  502    0 -0.10578827632E+03 -0.78634533084E+01  0.42064654305E+03  0.43384167329E+03  0.47000000000E+01 0.  1.
         -5    1    3    3    0  502  0.16196422347E+02 -0.59254820891E+02  0.24743592767E+03  0.25499036491E+03  0.47000000000E+01 0.  1.
        -11    1    1    2    0    0  0.19264796871E+02  0.53639000949E+02  0.25829703957E+03  0.26451018028E+03  0.00000000000E+00 0. -1.
         11    1    1    2    0    0  0.70327057102E+02  0.13479273250E+02  0.11188308507E+03  0.13283602860E+03  0.00000000000E+00 0.  1.
<mgrwt>
<rscale>  0 0.16161275E+03</rscale>
<asrwt>0</asrwt>
<pdfrwt beam="1">  1        2 0.16341849E+00 0.16779568E+03</pdfrwt>
<pdfrwt beam="2">  1       -2 0.36858202E-02 0.16779568E+03</pdfrwt>
<totfact> 0.73338560E+03</totfact>
</mgrwt>
</event>
<event>
 7    1  0.8165933E-006  0.2120402E+03  0.7546771E-02  0.1143849E+00
         -2   -1    0    0    0  501 -0.00000000000E+00  0.00000000000E+00  0.30451512455E+02  0.30451512455E+02  0.00000000000E+00 0.  1.
          2   -1    0    0  501    0  0.00000000000E+00 -0.00000000000E+00 -0.15357036848E+04  0.15357036848E+04  0.00000000000E+00 0. -1.
         23    2    1    2    0    0  0.97561695837E+02  0.14077584171E+03 -0.10572248200E+04  0.10782788946E+04  0.12499973002E+03 0.  0.
          5    1    3    3  502    0  0.11741437627E+03  0.14168748666E+03 -0.10127096904E+04  0.10293029129E+04  0.47000000000E+01 0.  1.
         -5    1    3    3    0  502 -0.19852680435E+02 -0.91164495806E+00 -0.44515129623E+02  0.48975981688E+02  0.47000000000E+01 0.  1.
        -11    1    1    2    0    0 -0.10340191629E+02 -0.90792662321E+02 -0.18622504086E+03  0.20743672032E+03  0.00000000000E+00 0. -1.
         11    1    1    2    0    0 -0.87221504207E+02 -0.49983179385E+02 -0.26180231152E+03  0.28043958233E+03  0.00000000000E+00 0.  1.
<mgrwt>
<rscale>  0 0.20714273E+03</rscale>
<asrwt>0</asrwt>
<pdfrwt beam="2">  1        2 0.23626214E+00 0.21204022E+03</pdfrwt>
<pdfrwt beam="1">  1       -2 0.46848475E-02 0.21204022E+03</pdfrwt>
<totfact> 0.28218050E+03</totfact>
</mgrwt>
</event>
<event>
 7    1  0.8165933E-006  0.2046406E+03  0.7546771E-02  0.1150142E+00
         -1   -1    0    0    0  501 -0.00000000000E+00  0.00000000000E+00  0.31291818877E+03  0.31291818877E+03  0.00000000000E+00 0.  1.
          1   -1    0    0  501    0  0.00000000000E+00 -0.00000000000E+00 -0.14157380434E+03  0.14157380434E+03  0.00000000000E+00 0. -1.
         23    2    1    2    0    0  0.14078619518E+03 -0.80202423243E+02  0.33709739193E+01  0.20466832213E+03  0.12499830868E+03 0.  0.
          5    1    3    3  502    0  0.10723592110E+03 -0.96832509594E+02 -0.37186419351E+02  0.14926820651E+03  0.47000000000E+01 0. -1.
         -5    1    3    3    0  502  0.33550274079E+02  0.16630086351E+02  0.40557393271E+02  0.55400115629E+02  0.47000000000E+01 0. -1.
        -11    1    1    2    0    0 -0.25839124940E+02  0.40931290945E+02  0.98844032313E+02  0.11005986407E+03  0.00000000000E+00 0.  1.
         11    1    1    2    0    0 -0.11494707024E+03  0.39271132299E+02  0.69129378197E+02  0.13976380690E+03  0.00000000000E+00 0. -1.
<mgrwt>
<rscale>  0 0.19952254E+03</rscale>
<asrwt>0</asrwt>
<pdfrwt beam="2">  1        1 0.21780585E-01 0.20464056E+03</pdfrwt>
<pdfrwt beam="1">  1       -1 0.48141260E-01 0.20464056E+03</pdfrwt>
<totfact> 0.10040679E+03</totfact>
</mgrwt>
</event>
<event>
 7    1  0.1501187E-005  0.2231814E+03  0.7546771E-02  0.1134892E+00
          1   -1    0    0  501    0  0.00000000000E+00  0.00000000000E+00  0.80250549259E+03  0.80250549259E+03  0.00000000000E+00 0. -1.
         -1   -1    0    0    0  501 -0.00000000000E+00 -0.00000000000E+00 -0.58872712418E+02  0.58872712418E+02  0.00000000000E+00 0.  1.
         23    2    1    2    0    0 -0.14769907580E+03 -0.11121564226E+03  0.45749407580E+03  0.50902924389E+03  0.12500402260E+03 0.  0.
          5    1    3    3  502    0 -0.82102081294E+02  0.12330788347E+02  0.16457249978E+03  0.18438817147E+03  0.47000000000E+01 0.  1.
         -5    1    3    3    0  502 -0.65596994503E+02 -0.12354643061E+03  0.29292157602E+03  0.32464107242E+03  0.47000000000E+01 0.  1.
        -11    1    1    2    0    0  0.48397216603E+02 -0.53444097716E+01  0.42731296202E+02  0.64782844688E+02  0.00000000000E+00 0.  1.
         11    1    1    2    0    0  0.99301859193E+02  0.11656005203E+03  0.24340740817E+03  0.28756611644E+03  0.00000000000E+00 0. -1.
<mgrwt>
<rscale>  0 0.21865189E+03</rscale>
<asrwt>0</asrwt>
<pdfrwt beam="1">  1        1 0.12346238E+00 0.22318141E+03</pdfrwt>
<pdfrwt beam="2">  1       -1 0.90573410E-02 0.22318141E+03</pdfrwt>
<totfact> 0.16273776E+03</totfact>
</mgrwt>
</event>
<event>
 7    1  0.8165933E-006  0.1861859E+03  0.7546771E-02  0.1167157E+00
          2   -1    0    0  501    0  0.00000000000E+00  0.00000000000E+00  0.18889019055E+03  0.18889019055E+03  0.00000000000E+00 0. -1.
         -2   -1    0    0    0  501 -0.00000000000E+00 -0.00000000000E+00 -0.16536716594E+03  0.16536716594E+03  0.00000000000E+00 0.  1.
         23    2    1    2    0    0  0.11774767701E+03 -0.71990143115E+02  0.32194968371E+02  0.18894896600E+03  0.12497239542E+03 0.  0.
          5    1    3    3  502    0 -0.26289951898E+02 -0.49924243553E+01  0.67872523754E+01  0.28004332996E+02  0.47000000000E+01 0. -1.
         -5    1    3    3    0  502  0.14403762891E+03 -0.66997718759E+02  0.25407715996E+02  0.16094463300E+03  0.47000000000E+01 0. -1.
        -11    1    1    2    0    0 -0.10599417582E+02  0.15372724342E+00  0.29035014887E+02  0.30909600040E+02  0.00000000000E+00 0. -1.
         11    1    1    2    0    0 -0.10714825943E+03  0.71836415871E+02 -0.37706958655E+02  0.13439879045E+03  0.00000000000E+00 0.  1.
<mgrwt>
<rscale>  0 0.18066925E+03</rscale>
<asrwt>0</asrwt>
<pdfrwt beam="1">  1        2 0.29060029E-01 0.18618592E+03</pdfrwt>
<pdfrwt beam="2">  1       -2 0.25441103E-01 0.18618592E+03</pdfrwt>
<totfact> 0.24602518E+03</totfact>
</mgrwt>
</event>
<event>
 7    1  0.8165933E-006  0.1285312E+03  0.7546771E-02  0.1244591E+00
          1   -1    0    0  501    0  0.00000000000E+00  0.00000000000E+00  0.33481254302E+03  0.33481254302E+03  0.00000000000E+00 0. -1.
         -1   -1    0    0    0  501 -0.00000000000E+00 -0.00000000000E+00 -0.12394362099E+03  0.12394362099E+03  0.00000000000E+00 0.  1.
         23    2    1    2    0    0  0.77521885377E+01 -0.28961934458E+02  0.30142638238E+03  0.32768601335E+03  0.12498547628E+03 0.  0.
          5    1    3    3  502    0 -0.89179918587E+01  0.36408031382E+02  0.21321216288E+03  0.21653311924E+03  0.47000000000E+01 0.  1.
         -5    1    3    3    0  502  0.16670180396E+02 -0.65369965840E+02  0.88214219498E+02  0.11115289411E+03  0.47000000000E+01 0.  1.
        -11    1    1    2    0    0 -0.35924746238E+02  0.21856924705E+02 -0.92846555559E+02  0.10192544054E+03  0.00000000000E+00 0.  1.
         11    1    1    2    0    0  0.28172557700E+02  0.71050097528E+01  0.22890952140E+01  0.29144710118E+02  0.00000000000E+00 0. -1.
<mgrwt>
<rscale>  0 0.11909902E+03</rscale>
<asrwt>0</asrwt>
<pdfrwt beam="1">  1        1 0.51509622E-01 0.12853116E+03</pdfrwt>
<pdfrwt beam="2">  1       -1 0.19068250E-01 0.12853116E+03</pdfrwt>
<totfact> 0.16305318E+03</totfact>
</mgrwt>
</event>
<event>
 7    1  0.8165933E-006  0.1312475E+03  0.7546771E-02  0.1232297E+00
         -2   -1    0    0    0  501 -0.00000000000E+00  0.00000000000E+00  0.84790680344E+02  0.84790680344E+02  0.00000000000E+00 0.  1.
          2   -1    0    0  501    0  0.00000000000E+00 -0.00000000000E+00 -0.17852665002E+03  0.17852665002E+03  0.00000000000E+00 0. -1.
         23    2    1    2    0    0  0.77072749709E+01 -0.39263651112E+02 -0.58563157802E+02  0.14372036097E+03  0.12499944928E+03 0.  0.
          5    1    3    3  502    0 -0.36857756897E+02  0.25565508994E+02 -0.45075320362E+02  0.63764911976E+02  0.47000000000E+01 0. -1.
         -5    1    3    3    0  502  0.44565031868E+02 -0.64829160105E+02 -0.13487837440E+02  0.79955448996E+02  0.47000000000E+01 0. -1.
        -11    1    1    2    0    0 -0.12395328264E+01 -0.14615884376E+02  0.30834929528E+02  0.34146059754E+02  0.00000000000E+00 0.  1.
         11    1    1    2    0    0 -0.64677421444E+01  0.53879535488E+02 -0.66007741399E+02  0.85450909635E+02  0.00000000000E+00 0. -1.
<mgrwt>
<rscale>  0 0.12679068E+03</rscale>
<asrwt>0</asrwt>
<pdfrwt beam="2">  1        2 0.27465638E-01 0.13124747E+03</pdfrwt>
<pdfrwt beam="1">  1       -2 0.13044720E-01 0.13124747E+03</pdfrwt>
<totfact> 0.78822726E+03</totfact>
</mgrwt>
</event>
<event>
 7    1  0.8165933E-006  0.1718763E+03  0.7546771E-02  0.1181716E+00
         -2   -1    0    0    0  501 -0.00000000000E+00  0.00000000000E+00  0.57182004033E+02  0.57182004033E+02  0.00000000000E+00 0.  1.
          2   -1    0    0  501    0  0.00000000000E+00 -0.00000000000E+00 -0.47057166537E+03  0.47057166537E+03  0.00000000000E+00 0. -1.
         23    2    1    2    0    0 -0.57641813392E+02 -0.10292805122E+03 -0.26738848617E+03  0.31786485421E+03  0.12499880251E+03 0.  0.
          5    1    3    3  502    0  0.68852391423E+01 -0.65846285766E+02 -0.21932147629E+03  0.22914436460E+03  0.47000000000E+01 0. -1.
         -5    1    3    3    0  502 -0.64527052534E+02 -0.37081765457E+02 -0.48067009883E+02  0.88720489613E+02  0.47000000000E+01 0. -1.
        -11    1    1    2    0    0  0.21024821158E+02  0.95686485444E+02 -0.14176483083E+03  0.17232299284E+03  0.00000000000E+00 0. -1.
         11    1    1    2    0    0  0.36616992233E+02  0.72415657787E+01 -0.42363443318E+01  0.37565822345E+02  0.00000000000E+00 0.  1.
<mgrwt>
<rscale>  0 0.16634264E+03</rscale>
<asrwt>0</asrwt>
<pdfrwt beam="2">  1        2 0.72395641E-01 0.17187630E+03</pdfrwt>
<pdfrwt beam="1">  1       -2 0.87972314E-02 0.17187630E+03</pdfrwt>
<totfact> 0.52856912E+03</totfact>
</mgrwt>
</event>
<event>
 7    1  0.8165933E-006  0.1394356E+03  0.7546771E-02  0.1225268E+00
         -3   -1    0    0    0  501 -0.00000000000E+00  0.00000000000E+00  0.36801658385E+02  0.36801658385E+02  0.00000000000E+00 0.  1.
          3   -1    0    0  501    0  0.00000000000E+00 -0.00000000000E+00 -0.63677154992E+03  0.63677154992E+03  0.00000000000E+00 0. -1.
         23    2    1    2    0    0 -0.61620355233E+02  0.44469341218E+01 -0.51731919072E+03  0.53578115086E+03  0.12500181249E+03 0.  0.
          5    1    3    3  502    0 -0.92693016198E+00  0.38448874303E+02 -0.37806564792E+03  0.38004591732E+03  0.47000000000E+01 0. -1.
         -5    1    3    3    0  502 -0.60693425071E+02 -0.34001940181E+02 -0.13925354280E+03  0.15573523354E+03  0.47000000000E+01 0. -1.
        -11    1    1    2    0    0  0.15557263153E+02 -0.35983799833E+02 -0.14202767122E+01  0.39228554309E+02  0.00000000000E+00 0.  1.
         11    1    1    2    0    0  0.46063092081E+02  0.31536865711E+02 -0.81230424104E+02  0.98563503139E+02  0.00000000000E+00 0. -1.
<mgrwt>
<rscale>  0 0.13148524E+03</rscale>
<asrwt>0</asrwt>
<pdfrwt beam="2">  1        3 0.97964855E-01 0.13943564E+03</pdfrwt>
<pdfrwt beam="1">  1       -3 0.56617935E-02 0.13943564E+03</pdfrwt>
<totfact> 0.41428475E+02</totfact>
</mgrwt>
</event>
<event>
 7    1  0.8165933E-006  0.1133310E+03  0.7546771E-02  0.1263088E+00
         -3   -1    0    0    0  501 -0.00000000000E+00  0.00000000000E+00  0.26708497505E+02  0.26708497505E+02  0.00000000000E+00 0.  1.
          3   -1    0    0  501    0  0.00000000000E+00 -0.00000000000E+00 -0.55921840407E+03  0.55921840407E+03  0.00000000000E+00 0. -1.
         23    2    1    2    0    0  0.21405920338E+02  0.54984329909E+01 -0.43401805407E+03  0.44857059160E+03  0.11115510871E+03 0.  0.
          5    1    3    3  502    0  0.34095091906E+02  0.34863694424E+02 -0.39441094253E+03  0.39744186250E+03  0.47000000000E+01 0. -1.
         -5    1    3    3    0  502 -0.12689171568E+02 -0.29365261433E+02 -0.39607111545E+02  0.51128729097E+02  0.47000000000E+01 0.  1.
        -11    1    1    2    0    0 -0.18239557133E+02 -0.48916471325E+02 -0.53815044551E+02  0.74977074038E+02  0.00000000000E+00 0.  1.
         11    1    1    2    0    0 -0.31663632049E+01  0.43418038334E+02 -0.44676807936E+02  0.62379235937E+02  0.00000000000E+00 0. -1.
<mgrwt>
<rscale>  0 0.10865120E+03</rscale>
<asrwt>0</asrwt>
<pdfrwt beam="2">  1        3 0.86033589E-01 0.11333095E+03</pdfrwt>
<pdfrwt beam="1">  1       -3 0.41090002E-02 0.11333095E+03</pdfrwt>
<totfact> 0.88793052E+02</totfact>
</mgrwt>
</event>
<event>
 7    1  0.8165933E-006  0.1475929E+03  0.7546771E-02  0.1213049E+00
         -2   -1    0    0    0  501 -0.00000000000E+00  0.00000000000E+00  0.14254639127E+02  0.14254639127E+02  0.00000000000E+00 0.  1.
          2   -1    0    0  501    0  0.00000000000E+00 -0.00000000000E+00 -0.14110018448E+04  0.14110018448E+04  0.00000000000E+00 0. -1.
         23    2    1    2    0    0 -0.54054692235E+01 -0.78282117353E+02 -0.99584833719E+03  0.10067261657E+04  0.12500541196E+03 0.  0.
          5    1    3    3  502    0  0.42398372653E+02  0.12374907212E+02 -0.26145309077E+03  0.26519911200E+03  0.47000000000E+01 0. -1.
         -5    1    3    3    0  502 -0.47803841877E+02 -0.90657024565E+02 -0.73439524642E+03  0.74152705370E+03  0.47000000000E+01 0. -1.
        -11    1    1    2    0    0  0.34020370075E+02  0.42876391989E+02 -0.32835662650E+03  0.33288713513E+03  0.00000000000E+00 0. -1.
         11    1    1    2    0    0 -0.28614900851E+02  0.35405725364E+02 -0.72542241989E+02  0.85643183103E+02  0.00000000000E+00 0.  1.
<mgrwt>
<rscale>  0 0.14020839E+03</rscale>
<asrwt>0</asrwt>
<pdfrwt beam="2">  1        2 0.21707723E+00 0.14759289E+03</pdfrwt>
<pdfrwt beam="1">  1       -2 0.21930211E-02 0.14759289E+03</pdfrwt>
<totfact> 0.10047512E+04</totfact>
</mgrwt>
</event>
<event>
 7    1  0.8165933E-006  0.1805240E+03  0.7546771E-02  0.1172884E+00
         -1   -1    0    0    0  501 -0.00000000000E+00  0.00000000000E+00  0.40378375007E+02  0.40378375007E+02  0.00000000000E+00 0.  1.
          1   -1    0    0  501    0  0.00000000000E+00 -0.00000000000E+00 -0.76532855706E+03  0.76532855706E+03  0.00000000000E+00 0. -1.
         23    2    1    2    0    0 -0.12004962726E+03 -0.50508163853E+02 -0.48899296181E+03  0.52125139579E+03  0.12500365314E+03 0.  0.
          5    1    3    3  502    0 -0.51281829839E+02  0.22465073408E+02 -0.31838137334E+03  0.32330062556E+03  0.47000000000E+01 0. -1.
         -5    1    3    3    0  502 -0.68767797420E+02 -0.72973237261E+02 -0.17061158846E+03  0.19795077023E+03  0.47000000000E+01 0. -1.
        -11    1    1    2    0    0  0.12177698381E+02  0.49248192359E+02 -0.68054571635E+02  0.84882892911E+02  0.00000000000E+00 0.  1.
         11    1    1    2    0    0  0.10787192888E+03  0.12599714939E+01 -0.16790264861E+03  0.19957264337E+03  0.00000000000E+00 0. -1.
<mgrwt>
<rscale>  0 0.17484792E+03</rscale>
<asrwt>0</asrwt>
<pdfrwt beam="2">  1        1 0.11774286E+00 0.18052396E+03</pdfrwt>
<pdfrwt beam="1">  1       -1 0.62120575E-02 0.18052396E+03</pdfrwt>
<totfact> 0.30889357E+03</totfact>
</mgrwt>
</event>
<event>
 6    1  0.8165933E-006  0.1425900E+03  0.7546771E-02  0.1226510E+00
          2   -1    0    0  501    0  0.00000000000E+00  0.00000000000E+00  0.15188939710E+03  0.15188939710E+03  0.00000000000E+00 0. -1.
         -2   -1    0    0    0  501 -0.00000000000E+00 -0.00000000000E+00 -0.10414835593E+03  0.10414835593E+03  0.00000000000E+00 0.  1.
          5    1    1    2  502    0  0.17610154389E+02  0.18578090047E+02  0.10321507377E+03  0.10644578160E+03  0.47000000000E+01 0. -1.
         -5    1    1    2    0  502 -0.36156514401E+01  0.21357393720E+02 -0.42969100663E+02  0.48349196619E+02  0.47000000000E+01 0.  1.
        -11    1    1    2    0    0 -0.58541031447E+01 -0.69249973681E+02 -0.38118957628E+01  0.69601436248E+02  0.00000000000E+00 0.  1.
         11    1    1    2    0    0 -0.81403998040E+01  0.29314489914E+02 -0.86930361815E+01  0.31641338561E+02  0.00000000000E+00 0. -1.
<mgrwt>
<rscale>  0 0.13063912E+03</rscale>
<asrwt>0</asrwt>
<pdfrwt beam="1">  1        2 0.23367600E-01 0.14259000E+03</pdfrwt>
<pdfrwt beam="2">  1       -2 0.16022824E-01 0.14259000E+03</pdfrwt>
<totfact> 0.67784881E+03</totfact>
</mgrwt>
</event>
<event>
 7    1  0.8165933E-006  0.1702279E+03  0.7546771E-02  0.1183987E+00
         -2   -1    0    0    0  501 -0.00000000000E+00  0.00000000000E+00  0.31222827467E+02  0.31222827467E+02  0.00000000000E+00 0.  1.
          2   -1    0    0  501    0  0.00000000000E+00 -0.00000000000E+00 -0.81452807952E+03  0.81452807952E+03  0.00000000000E+00 0. -1.
         23    2    1    2    0    0 -0.51041769599E+02 -0.10367154538E+03 -0.38296009605E+03  0.41908945352E+03  0.12499793328E+03 0.  0.
          5    1    3    3  502    0 -0.18846281168E+02 -0.12777251776E+03 -0.30466920021E+03  0.33094774537E+03  0.47000000000E+01 0. -1.
         -5    1    3    3    0  502 -0.32195488432E+02  0.24100972382E+02 -0.78290895836E+02  0.88141708152E+02  0.47000000000E+01 0. -1.
        -11    1    1    2    0    0 -0.54321302842E+01  0.66808775347E+02 -0.11192156986E+03  0.13045826268E+03  0.00000000000E+00 0.  1.
         11    1    1    2    0    0  0.56473899884E+02  0.36862770028E+02 -0.28842358615E+03  0.29620319078E+03  0.00000000000E+00 0. -1.
<mgrwt>
<rscale>  0 0.16424409E+03</rscale>
<asrwt>0</asrwt>
<pdfrwt beam="2">  1        2 0.12531201E+00 0.17022789E+03</pdfrwt>
<pdfrwt beam="1">  1       -2 0.48035119E-02 0.17022789E+03</pdfrwt>
<totfact> 0.70497403E+03</totfact>
</mgrwt>
</event>
<event>
 7    1  0.8165933E-006  0.1513890E+03  0.7546771E-02  0.1207877E+00
         -2   -1    0    0    0  501 -0.00000000000E+00  0.00000000000E+00  0.15582952357E+03  0.15582952357E+03  0.00000000000E+00 0. -1.
          2   -1    0    0  501    0  0.00000000000E+00 -0.00000000000E+00 -0.12200495262E+03  0.12200495262E+03  0.00000000000E+00 0.  1.
         23    2    1    2    0    0  0.81313987434E+02 -0.26126699503E+02  0.18131613754E+02  0.15247095166E+03  0.12499626676E+03 0.  0.
          5    1    3    3  502    0  0.23154426931E+02  0.45776091353E+01  0.66484902769E+02  0.70706536389E+02  0.47000000000E+01 0. -1.
         -5    1    3    3    0  502  0.58159560503E+02 -0.30704308639E+02 -0.48353289015E+02  0.81764415276E+02  0.47000000000E+01 0. -1.
        -11    1    1    2    0    0 -0.50615611227E+02 -0.10951742508E+02 -0.29276118442E+02  0.59489258483E+02  0.00000000000E+00 0.  1.
         11    1    1    2    0    0 -0.30698376206E+02  0.37078442012E+02  0.44969075639E+02  0.65874266049E+02  0.00000000000E+00 0. -1.
<mgrwt>
<rscale>  0 0.14413059E+03</rscale>
<asrwt>0</asrwt>
<pdfrwt beam="2">  1        2 0.18769993E-01 0.15138902E+03</pdfrwt>
<pdfrwt beam="1">  1       -2 0.23973773E-01 0.15138902E+03</pdfrwt>
<totfact> 0.44059826E+03</totfact>
</mgrwt>
</event>
<event>
 7    1  0.8165933E-006  0.1251013E+03  0.7546771E-02  0.1250660E+00
          2   -1    0    0  501    0  0.00000000000E+00  0.00000000000E+00  0.51278755821E+03  0.51278755821E+03  0.00000000000E+00 0. -1.
         -2   -1    0    0    0  501 -0.00000000000E+00 -0.00000000000E+00 -0.24248475196E+02  0.24248475196E+02  0.00000000000E+00 0.  1.
         23    2    1    2    0    0 -0.12485068360E+01 -0.48914483942E+01  0.34610920918E+03  0.36802436224E+03  0.12499944595E+03 0.  0.
          5    1    3    3  502    0  0.15544964269E+02  0.28734798096E+02  0.17728785451E+02  0.37466443243E+02  0.47000000000E+01 0.  1.
         -5    1    3    3    0  502 -0.16793471105E+02 -0.33626246490E+02  0.32838042373E+03  0.33055791900E+03  0.47000000000E+01 0.  1.
        -11    1    1    2    0    0  0.23587966938E+02 -0.26331109520E+02  0.11876024270E+03  0.12391010758E+03  0.00000000000E+00 0. -1.
         11    1    1    2    0    0 -0.22339460102E+02  0.31222557914E+02  0.23669631139E+02  0.45101563594E+02  0.00000000000E+00 0.  1.
<mgrwt>
<rscale>  0 0.11552915E+03</rscale>
<asrwt>0</asrwt>
<pdfrwt beam="1">  1        2 0.78890385E-01 0.12510135E+03</pdfrwt>
<pdfrwt beam="2">  1       -2 0.37305350E-02 0.12510135E+03</pdfrwt>
<totfact> 0.17307690E+04</totfact>
</mgrwt>
</event>
<event>
 7    1  0.8165933E-006  0.1338230E+03  0.7546771E-02  0.1235054E+00
         -1   -1    0    0    0  501 -0.00000000000E+00  0.00000000000E+00  0.82183826978E+02  0.82183826978E+02  0.00000000000E+00 0.  1.
          1   -1    0    0  501    0  0.00000000000E+00 -0.00000000000E+00 -0.16961435965E+03  0.16961435965E+03  0.00000000000E+00 0. -1.
         23    2    1    2    0    0  0.38236191962E+02  0.28672672876E+02 -0.56934174661E+02  0.14543076436E+03  0.12499791371E+03 0.  0.
          5    1    3    3  502    0  0.65125877477E+02 -0.26815363550E+02 -0.19851783219E+02  0.73325486268E+02  0.47000000000E+01 0. -1.
         -5    1    3    3    0  502 -0.26889685515E+02  0.55488036426E+02 -0.37082391442E+02  0.72105278090E+02  0.47000000000E+01 0. -1.
        -11    1    1    2    0    0  0.58849209490E+01 -0.32519698014E+02  0.20448765287E+02  0.38862772100E+02  0.00000000000E+00 0. -1.
         11    1    1    2    0    0 -0.44121112911E+02  0.38470251383E+01 -0.50945123302E+02  0.67504650175E+02  0.00000000000E+00 0.  1.
<mgrwt>
<rscale>  0 0.12500972E+03</rscale>
<asrwt>0</asrwt>
<pdfrwt beam="2">  1        1 0.26094517E-01 0.13382304E+03</pdfrwt>
<pdfrwt beam="1">  1       -1 0.12643666E-01 0.13382304E+03</pdfrwt>
<totfact> 0.72343718E+03</totfact>
</mgrwt>
</event>
<event>
 7    1  0.8165933E-006  0.1924972E+03  0.7546771E-02  0.1160879E+00
          2   -1    0    0  501    0  0.00000000000E+00  0.00000000000E+00  0.17964146520E+04  0.17964146520E+04  0.00000000000E+00 0. -1.
         -2   -1    0    0    0  501 -0.00000000000E+00 -0.00000000000E+00 -0.29992524023E+02  0.29992524023E+02  0.00000000000E+00 0.  1.
         23    2    1    2    0    0 -0.61617870175E+02  0.13279296582E+03  0.14761340542E+04  0.14886325616E+04  0.12499769419E+03 0.  0.
          5    1    3    3  502    0 -0.15385644517E+02  0.12342825651E+03  0.13090322473E+04  0.13149367920E+04  0.47000000000E+01 0. -1.
         -5    1    3    3    0  502 -0.46232225659E+02  0.93647093111E+01  0.16710180693E+03  0.17369576952E+03  0.47000000000E+01 0. -1.
        -11    1    1    2    0    0  0.55974616796E+02 -0.29194820197E+02  0.69915301555E+02  0.94200024646E+02  0.00000000000E+00 0.  1.
         11    1    1    2    0    0  0.56432533799E+01 -0.10359814562E+03  0.22037277218E+03  0.24357458982E+03  0.00000000000E+00 0. -1.
<mgrwt>
<rscale>  0 0.18734406E+03</rscale>
<asrwt>0</asrwt>
<pdfrwt beam="1">  1        2 0.27637140E+00 0.19249716E+03</pdfrwt>
<pdfrwt beam="2">  1       -2 0.46142359E-02 0.19249716E+03</pdfrwt>
<totfact> 0.21103008E+03</totfact>
</mgrwt>
</event>
<event>
 7    1  0.8165933E-006  0.1578907E+03  0.7546771E-02  0.1199691E+00
         -1   -1    0    0    0  501 -0.00000000000E+00  0.00000000000E+00  0.20734252274E+02  0.20734252274E+02  0.00000000000E+00 0.  1.
          1   -1    0    0  501    0  0.00000000000E+00 -0.00000000000E+00 -0.10208578961E+04  0.10208578961E+04  0.00000000000E+00 0. -1.
         23    2    1    2    0    0 -0.83873804920E+02  0.47622246393E+02 -0.48163661048E+03  0.50685628215E+03  0.12500709059E+03 0.  0.
          5    1    3    3  502    0 -0.86463808831E+01  0.74593233712E+02 -0.18784332834E+03  0.20235146755E+03  0.47000000000E+01 0. -1.
         -5    1    3    3    0  502 -0.75227424037E+02 -0.26970987318E+02 -0.29379328214E+03  0.30450481460E+03  0.47000000000E+01 0. -1.
        -11    1    1    2    0    0  0.37752961995E+02  0.21108204541E+02 -0.11542809248E+03  0.12326591975E+03  0.00000000000E+00 0.  1.
         11    1    1    2    0    0  0.46120842925E+02 -0.68730450935E+02 -0.40305894083E+03  0.41146994643E+03  0.00000000000E+00 0. -1.
<mgrwt>
<rscale>  0 0.15063822E+03</rscale>
<asrwt>0</asrwt>
<pdfrwt beam="2">  1        1 0.15705506E+00 0.15789068E+03</pdfrwt>
<pdfrwt beam="1">  1       -1 0.31898850E-02 0.15789068E+03</pdfrwt>
<totfact> 0.52149896E+03</totfact>
</mgrwt>
</event>
<event>
 7    1  0.8165933E-006  0.1281205E+03  0.7546771E-02  0.1247280E+00
          1   -1    0    0  501    0  0.00000000000E+00  0.00000000000E+00  0.40841688423E+03  0.40841688423E+03  0.00000000000E+00 0. -1.
         -1   -1    0    0    0  501 -0.00000000000E+00 -0.00000000000E+00 -0.30889483737E+02  0.30889483737E+02  0.00000000000E+00 0.  1.
         23    2    1    2    0    0 -0.11274683573E+02 -0.89953417435E+01  0.26868880422E+03  0.29767185960E+03  0.12730604000E+03 0.  0.
          5    1    3    3  502    0 -0.54024410817E+02 -0.10242037320E+02  0.23926615560E+03  0.24554820200E+03  0.47000000000E+01 0. -1.
         -5    1    3    3    0  502  0.42749727245E+02  0.12466955760E+01  0.29422648625E+02  0.52123657599E+02  0.47000000000E+01 0.  1.
        -11    1    1    2    0    0 -0.71069426180E+01  0.37572649465E+02  0.99200584820E+02  0.10631542057E+03  0.00000000000E+00 0.  1.
         11    1    1    2    0    0  0.18381626191E+02 -0.28577307722E+02  0.96380114450E+01  0.35319087795E+02  0.00000000000E+00 0. -1.
<mgrwt>
<rscale>  0 0.11749965E+03</rscale>
<asrwt>0</asrwt>
<pdfrwt beam="1">  1        1 0.62833363E-01 0.12812050E+03</pdfrwt>
<pdfrwt beam="2">  1       -1 0.47522286E-02 0.12812050E+03</pdfrwt>
<totfact> 0.10579953E+04</totfact>
</mgrwt>
</event>
<event>
 7    1  0.8165933E-006  0.1535177E+03  0.7546771E-02  0.1205266E+00
          3   -1    0    0  501    0  0.00000000000E+00  0.00000000000E+00  0.47397804240E+03  0.47397804240E+03  0.00000000000E+00 0.  1.
         -3   -1    0    0    0  501 -0.00000000000E+00 -0.00000000000E+00 -0.59988625314E+02  0.59988625314E+02  0.00000000000E+00 0. -1.
         23    2    1    2    0    0  0.47575505521E+02 -0.75376272297E+02  0.36962765236E+03  0.40024028305E+03  0.12499068617E+03 0.  0.
          5    1    3    3  502    0 -0.38092251536E+02 -0.35446636599E+02  0.19194412890E+03  0.19892742972E+03  0.47000000000E+01 0. -1.
         -5    1    3    3    0  502  0.85667757057E+02 -0.39929635698E+02  0.17768352346E+03  0.20131285333E+03  0.47000000000E+01 0. -1.
        -11    1    1    2    0    0 -0.33680628069E+02  0.45614575115E+02  0.71405436222E+02  0.91180099211E+02  0.00000000000E+00 0.  1.
         11    1    1    2    0    0 -0.13894877452E+02  0.29761697182E+02 -0.27043671495E+02  0.42546285461E+02  0.00000000000E+00 0. -1.
<mgrwt>
<rscale>  0 0.14616517E+03</rscale>
<asrwt>0</asrwt>
<pdfrwt beam="1">  1        3 0.72919696E-01 0.15351770E+03</pdfrwt>
<pdfrwt beam="2">  1       -3 0.92290196E-02 0.15351770E+03</pdfrwt>
<totfact> 0.36371214E+02</totfact>
</mgrwt>
</event>
<event>
 7    1  0.8165933E-006  0.2034396E+03  0.7546771E-02  0.1149938E+00
          3   -1    0    0  501    0  0.00000000000E+00  0.00000000000E+00  0.48609926443E+03  0.48609926443E+03  0.00000000000E+00 0. -1.
         -3   -1    0    0    0  501 -0.00000000000E+00 -0.00000000000E+00 -0.79835178518E+02  0.79835178518E+02  0.00000000000E+00 0.  1.
         23    2    1    2    0    0 -0.54358725564E+02  0.15101920092E+03  0.18645922300E+03  0.27596141408E+03  0.12500396047E+03 0.  0.
          5    1    3    3  502    0 -0.77629938017E+02  0.39167287028E+02  0.61647728005E+02  0.10669121809E+03  0.47000000000E+01 0.  1.
         -5    1    3    3    0  502  0.23271212453E+02  0.11185191389E+03  0.12481149499E+03  0.16927019599E+03  0.47000000000E+01 0.  1.
        -11    1    1    2    0    0 -0.11944210202E+02 -0.11031754137E+03  0.13804391818E+03  0.17711224531E+03  0.00000000000E+00 0. -1.
         11    1    1    2    0    0  0.66302935766E+02 -0.40701659543E+02  0.81760944739E+02  0.11286078356E+03  0.00000000000E+00 0.  1.
<mgrwt>
<rscale>  0 0.19976377E+03</rscale>
<asrwt>0</asrwt>
<pdfrwt beam="1">  1        3 0.74784501E-01 0.20343957E+03</pdfrwt>
<pdfrwt beam="2">  1       -3 0.12282335E-01 0.20343957E+03</pdfrwt>
<totfact> 0.22087350E+02</totfact>
</mgrwt>
</event>
<event>
 7    1  0.8165933E-006  0.1321655E+03  0.7546771E-02  0.1231737E+00
         -1   -1    0    0    0  501 -0.00000000000E+00  0.00000000000E+00  0.70495928908E+02  0.70495928908E+02  0.00000000000E+00 0.  1.
          1   -1    0    0  501    0  0.00000000000E+00 -0.00000000000E+00 -0.10565110135E+04  0.10565110135E+04  0.00000000000E+00 0. -1.
         23    2    1    2    0    0  0.56467003567E+02 -0.28068698036E+02 -0.10037261959E+04  0.10123902409E+04  0.11615226712E+03 0.  0.
          5    1    3    3  502    0 -0.28538159915E+02  0.15885177031E+02 -0.36912519739E+03  0.37059717588E+03  0.47000000000E+01 0. -1.
         -5    1    3    3    0  502  0.85005163482E+02 -0.43953875067E+02 -0.63460099855E+03  0.64179306502E+03  0.47000000000E+01 0.  1.
        -11    1    1    2    0    0 -0.31108069669E+02  0.62338863015E+02  0.38039419717E+01  0.69773317358E+02  0.00000000000E+00 0.  1.
         11    1    1    2    0    0 -0.25358933898E+02 -0.34270164980E+02  0.13907169424E+02  0.44843384100E+02  0.00000000000E+00 0. -1.
<mgrwt>
<rscale>  0 0.12715651E+03</rscale>
<asrwt>0</asrwt>
<pdfrwt beam="2">  1        1 0.16254017E+00 0.13216552E+03</pdfrwt>
<pdfrwt beam="1">  1       -1 0.10845527E-01 0.13216552E+03</pdfrwt>
<totfact> 0.78844994E+02</totfact>
</mgrwt>
</event>
<event>
 6    1  0.8165933E-006  0.1421382E+03  0.7546771E-02  0.1277414E+00
          2   -1    0    0  501    0  0.00000000000E+00  0.00000000000E+00  0.27833709055E+03  0.27833709055E+03  0.00000000000E+00 0. -1.
         -2   -1    0    0    0  501 -0.00000000000E+00 -0.00000000000E+00 -0.30772462061E+02  0.30772462061E+02  0.00000000000E+00 0.  1.
          5    1    1    2  502    0 -0.29309118380E+02 -0.75822756777E+01  0.24127895979E+03  0.24321624486E+03  0.47000000000E+01 0. -1.
         -5    1    1    2    0  502  0.14008684260E+02 -0.62711995384E+00 -0.16860736658E+02  0.22427905716E+02  0.47000000000E+01 0.  1.
        -11    1    1    2    0    0  0.45737939211E+00 -0.11696943582E+02  0.50964599512E+01  0.12767207569E+02  0.00000000000E+00 0. -1.
         11    1    1    2    0    0  0.14843054728E+02  0.19906339214E+02  0.18049945408E+02  0.30698194471E+02  0.00000000000E+00 0.  1.
<mgrwt>
<rscale>  0 0.10138293E+03</rscale>
<asrwt>0</asrwt>
<pdfrwt beam="1">  1        2 0.42821089E-01 0.14213823E+03</pdfrwt>
<pdfrwt beam="2">  1       -2 0.47342251E-02 0.14213823E+03</pdfrwt>
<totfact> 0.23612810E+04</totfact>
</mgrwt>
</event>
<event>
 7    1  0.8165933E-006  0.1589060E+03  0.7546771E-02  0.1197344E+00
          2   -1    0    0  501    0  0.00000000000E+00  0.00000000000E+00  0.41719156931E+03  0.41719156931E+03  0.00000000000E+00 0.  1.
         -2   -1    0    0    0  501 -0.00000000000E+00 -0.00000000000E+00 -0.52191184933E+02  0.52191184933E+02  0.00000000000E+00 0. -1.
         23    2    1    2    0    0 -0.36242215816E+02 -0.91168534162E+02  0.17649286044E+03  0.23748861153E+03  0.12500364392E+03 0.  0.
          5    1    3    3  502    0 -0.63217761796E+02 -0.22995772927E+02  0.14013945009E+03  0.15551992300E+03  0.47000000000E+01 0. -1.
         -5    1    3    3    0  502  0.26975545979E+02 -0.68172761235E+02  0.36353410350E+02  0.81968688530E+02  0.47000000000E+01 0. -1.
        -11    1    1    2    0    0 -0.12272744535E+02 -0.51402766750E+01  0.71679366152E+02  0.72903869819E+02  0.00000000000E+00 0.  1.
         11    1    1    2    0    0  0.48514960351E+02  0.96308810837E+02  0.11682815779E+03  0.15899027289E+03  0.00000000000E+00 0. -1.
<mgrwt>
<rscale>  0 0.15257477E+03</rscale>
<asrwt>0</asrwt>
<pdfrwt beam="1">  1        2 0.64183316E-01 0.15890598E+03</pdfrwt>
<pdfrwt beam="2">  1       -2 0.80294134E-02 0.15890598E+03</pdfrwt>
<totfact> 0.69173092E+03</totfact>
</mgrwt>
</event>
<event>
 7    1  0.8165933E-006  0.1488485E+03  0.7546771E-02  0.1211288E+00
          2   -1    0    0  501    0  0.00000000000E+00  0.00000000000E+00  0.11152510323E+03  0.11152510323E+03  0.00000000000E+00 0. -1.
         -2   -1    0    0    0  501 -0.00000000000E+00 -0.00000000000E+00 -0.16577044164E+03  0.16577044164E+03  0.00000000000E+00 0.  1.
         23    2    1    2    0    0  0.45787195934E+02  0.66597121285E+02 -0.15672577877E+02  0.14967136876E+03  0.12499698018E+03 0.  0.
          5    1    3    3  502    0  0.23980106239E+02 -0.25927814838E+02  0.27650257336E+02  0.45099044427E+02  0.47000000000E+01 0. -1.
         -5    1    3    3    0  502  0.21807089695E+02  0.92524936122E+02 -0.43322835214E+02  0.10457232433E+03  0.47000000000E+01 0. -1.
        -11    1    1    2    0    0 -0.32672564726E+02 -0.46509965848E+02 -0.68666400614E+02  0.89138925180E+02  0.00000000000E+00 0.  1.
         11    1    1    2    0    0 -0.13114631209E+02 -0.20087155436E+02  0.30093640081E+02  0.38485250923E+02  0.00000000000E+00 0. -1.
<mgrwt>
<rscale>  0 0.14152769E+03</rscale>
<asrwt>0</asrwt>
<pdfrwt beam="1">  1        2 0.17157708E-01 0.14884854E+03</pdfrwt>
<pdfrwt beam="2">  1       -2 0.25503145E-01 0.14884854E+03</pdfrwt>
<totfact> 0.43802236E+03</totfact>
</mgrwt>
</event>
<event>
 7    1  0.8165933E-006  0.1189272E+03  0.7546771E-02  0.1254804E+00
          4   -1    0    0  501    0  0.00000000000E+00  0.00000000000E+00  0.33190903212E+03  0.33190903212E+03  0.00000000000E+00 0. -1.
         -4   -1    0    0    0  501 -0.00000000000E+00 -0.00000000000E+00 -0.45997836242E+02  0.45997836242E+02  0.00000000000E+00 0.  1.
         23    2    1    2    0    0 -0.13348603790E+02  0.28572959447E+02  0.24462166569E+03  0.27199898675E+03  0.11466948258E+03 0.  0.
          5    1    3    3  502    0 -0.58425349482E+02  0.25462335570E+01  0.17740862629E+03  0.18685800879E+03  0.47000000000E+01 0. -1.
         -5    1    3    3    0  502  0.45076745691E+02  0.26026725890E+02  0.67213039395E+02  0.85140977956E+02  0.47000000000E+01 0.  1.
        -11    1    1    2    0    0  0.24115617468E+02  0.25138740284E+02  0.37216632165E+02  0.50976435523E+02  0.00000000000E+00 0.  1.
         11    1    1    2    0    0 -0.10767013677E+02 -0.53711699731E+02  0.40728980301E+01  0.54931446093E+02  0.00000000000E+00 0. -1.
<mgrwt>
<rscale>  0 0.11317305E+03</rscale>
<asrwt>0</asrwt>
<pdfrwt beam="1">  1        4 0.51062926E-01 0.11892724E+03</pdfrwt>
<pdfrwt beam="2">  1       -4 0.70765904E-02 0.11892724E+03</pdfrwt>
<totfact> 0.80876692E+02</totfact>
</mgrwt>
</event>
<event>
 7    1  0.8165933E-006  0.1321079E+03  0.7546771E-02  0.1238202E+00
          1   -1    0    0  501    0  0.00000000000E+00  0.00000000000E+00  0.91730567625E+02  0.91730567625E+02  0.00000000000E+00 0. -1.
         -1   -1    0    0    0  501 -0.00000000000E+00 -0.00000000000E+00 -0.15880381516E+03  0.15880381516E+03  0.00000000000E+00 0.  1.
         23    2    1    2    0    0 -0.41711540103E+02  0.94700143787E+01 -0.26311027424E+01  0.13213410219E+03  0.12499185777E+03 0.  0.
          5    1    3    3  502    0 -0.47469234507E+02 -0.39718785592E+02 -0.36447013694E+02  0.71981837715E+02  0.47000000000E+01 0.  1.
         -5    1    3    3    0  502  0.57576944035E+01  0.49188799971E+02  0.33815910952E+02  0.60152264471E+02  0.47000000000E+01 0.  1.
        -11    1    1    2    0    0  0.56049283615E+02  0.51561468447E+01 -0.76238079586E+02  0.94764723516E+02  0.00000000000E+00 0.  1.
         11    1    1    2    0    0 -0.14337743512E+02 -0.14626161223E+02  0.11795934791E+02  0.23635557086E+02  0.00000000000E+00 0. -1.
<mgrwt>
<rscale>  0 0.12301649E+03</rscale>
<asrwt>0</asrwt>
<pdfrwt beam="1">  1        1 0.14112395E-01 0.13210790E+03</pdfrwt>
<pdfrwt beam="2">  1       -1 0.24431356E-01 0.13210790E+03</pdfrwt>
<totfact> 0.55561041E+03</totfact>
</mgrwt>
</event>
<event>
 7    1  0.8165933E-006  0.1280931E+03  0.7546771E-02  0.1248680E+00
         -1   -1    0    0    0  501 -0.00000000000E+00  0.00000000000E+00  0.42031824100E+03  0.42031824100E+03  0.00000000000E+00 0.  1.
          1   -1    0    0  501    0  0.00000000000E+00 -0.00000000000E+00 -0.28435004447E+02  0.28435004447E+02  0.00000000000E+00 0. -1.
         23    2    1    2    0    0  0.27530232820E+02  0.51477059513E+01  0.19890474778E+03  0.23658176263E+03  0.12499367635E+03 0.  0.
          5    1    3    3  502    0  0.73756769895E+02 -0.81040207684E+01  0.85454059341E+02  0.11327057215E+03  0.47000000000E+01 0. -1.
         -5    1    3    3    0  502 -0.46226537075E+02  0.13251726720E+02  0.11345068844E+03  0.12331119048E+03  0.47000000000E+01 0. -1.
        -11    1    1    2    0    0 -0.31688924373E+02  0.28781446062E+02  0.53256076348E+02  0.68328392586E+02  0.00000000000E+00 0. -1.
         11    1    1    2    0    0  0.41586915531E+01 -0.33929152014E+02  0.13972241243E+03  0.14384309023E+03  0.00000000000E+00 0.  1.
<mgrwt>
<rscale>  0 0.11667801E+03</rscale>
<asrwt>0</asrwt>
<pdfrwt beam="2">  1        1 0.43746164E-02 0.12809306E+03</pdfrwt>
<pdfrwt beam="1">  1       -1 0.64664340E-01 0.12809306E+03</pdfrwt>
<totfact> 0.47907474E+03</totfact>
</mgrwt>
</event>
<event>
 7    1  0.8165933E-006  0.1347891E+03  0.7546771E-02  0.1233081E+00
         -1   -1    0    0    0  501 -0.00000000000E+00  0.00000000000E+00  0.19550822892E+03  0.19550822892E+03  0.00000000000E+00 0.  1.
          1   -1    0    0  501    0  0.00000000000E+00 -0.00000000000E+00 -0.73166952059E+02  0.73166952059E+02  0.00000000000E+00 0. -1.
         23    2    1    2    0    0  0.76486518879E+01 -0.49850864249E+02  0.59869782220E+02  0.14748723323E+03  0.12499793039E+03 0.  0.
          5    1    3    3  502    0  0.43079852370E+02 -0.78030627635E+02  0.40790469194E+02  0.98135645442E+02  0.47000000000E+01 0. -1.
         -5    1    3    3    0  502 -0.35431200482E+02  0.28179763386E+02  0.19079313026E+02  0.49351587792E+02  0.47000000000E+01 0. -1.
        -11    1    1    2    0    0  0.16057239776E+02  0.55375101954E+02  0.39326809131E+01  0.57790162180E+02  0.00000000000E+00 0. -1.
         11    1    1    2    0    0 -0.23705891664E+02 -0.55242377048E+01  0.58538813723E+02  0.63397785560E+02  0.00000000000E+00 0.  1.
<mgrwt>
<rscale>  0 0.12628089E+03</rscale>
<asrwt>0</asrwt>
<pdfrwt beam="2">  1        1 0.11256454E-01 0.13478907E+03</pdfrwt>
<pdfrwt beam="1">  1       -1 0.30078189E-01 0.13478907E+03</pdfrwt>
<totfact> 0.52969214E+03</totfact>
</mgrwt>
</event>
<event>
 7    1  0.8165933E-006  0.1310177E+03  0.7546771E-02  0.1238898E+00
          2   -1    0    0  501    0  0.00000000000E+00  0.00000000000E+00  0.88101682559E+03  0.88101682559E+03  0.00000000000E+00 0. -1.
         -2   -1    0    0    0  501 -0.00000000000E+00 -0.00000000000E+00 -0.15418159182E+02  0.15418159182E+02  0.00000000000E+00 0.  1.
         23    2    1    2    0    0  0.27356504317E+01 -0.39151339253E+02  0.43591225816E+03  0.45517593207E+03  0.12500128471E+03 0.  0.
          5    1    3    3  502    0 -0.27773579753E+02  0.31815346349E+02  0.25333462113E+03  0.25687372045E+03  0.47000000000E+01 0.  1.
         -5    1    3    3    0  502  0.30509230184E+02 -0.70966685602E+02  0.18257763703E+03  0.19830221162E+03  0.47000000000E+01 0.  1.
        -11    1    1    2    0    0  0.44677751518E+02  0.21225880433E+02  0.22755603723E+03  0.23286989836E+03  0.00000000000E+00 0. -1.
         11    1    1    2    0    0 -0.47413401950E+02  0.17925458820E+02  0.20213037102E+03  0.20838915434E+03  0.00000000000E+00 0.  1.
<mgrwt>
<rscale>  0 0.12258162E+03</rscale>
<asrwt>0</asrwt>
<pdfrwt beam="1">  1        2 0.13554101E+00 0.13101768E+03</pdfrwt>
<pdfrwt beam="2">  1       -2 0.23720252E-02 0.13101768E+03</pdfrwt>
<totfact> 0.17842894E+04</totfact>
</mgrwt>
</event>
<event>
 7    1  0.8165933E-006  0.1822059E+03  0.7546771E-02  0.1170866E+00
         -1   -1    0    0    0  501 -0.00000000000E+00  0.00000000000E+00  0.17270021297E+03  0.17270021297E+03  0.00000000000E+00 0.  1.
          1   -1    0    0  501    0  0.00000000000E+00 -0.00000000000E+00 -0.22595466699E+03  0.22595466699E+03  0.00000000000E+00 0. -1.
         23    2    1    2    0    0 -0.91466368725E+02 -0.95960535060E+02 -0.12573052688E+03  0.22137557377E+03  0.12499783348E+03 0.  0.
          5    1    3    3  502    0 -0.15469770745E+02 -0.98937612995E+02 -0.43540841223E+02  0.10929711765E+03  0.47000000000E+01 0.  1.
         -5    1    3    3    0  502 -0.75996597980E+02  0.29770779343E+01 -0.82189685660E+02  0.11207845612E+03  0.47000000000E+01 0.  1.
        -11    1    1    2    0    0  0.59999193428E+02  0.26899698323E+01  0.10534039888E+02  0.60976267072E+02  0.00000000000E+00 0.  1.
         11    1    1    2    0    0  0.31467175297E+02  0.93270565228E+02  0.61942032977E+02  0.11630303912E+03  0.00000000000E+00 0. -1.
<mgrwt>
<rscale>  0 0.17687154E+03</rscale>
<asrwt>0</asrwt>
<pdfrwt beam="2">  1        1 0.34762256E-01 0.18220587E+03</pdfrwt>
<pdfrwt beam="1">  1       -1 0.26569264E-01 0.18220587E+03</pdfrwt>
<totfact> 0.15621435E+03</totfact>
</mgrwt>
</event>
<event>
 7    1  0.8165933E-006  0.1853731E+03  0.7546771E-02  0.1167820E+00
         -2   -1    0    0    0  501 -0.00000000000E+00  0.00000000000E+00  0.54661560989E+02  0.54661560989E+02  0.00000000000E+00 0.  1.
          2   -1    0    0  501    0  0.00000000000E+00 -0.00000000000E+00 -0.59547365356E+03  0.59547365356E+03  0.00000000000E+00 0. -1.
         23    2    1    2    0    0  0.11774290674E+03 -0.69815038948E+02 -0.36395255488E+03  0.40844171098E+03  0.12500254923E+03 0.  0.
          5    1    3    3  502    0 -0.10102799760E+02 -0.42898415520E+01 -0.15128721861E+03  0.15175764171E+03  0.47000000000E+01 0.  1.
         -5    1    3    3    0  502  0.12784570650E+03 -0.65525197396E+02 -0.21266533627E+03  0.25668406927E+03  0.47000000000E+01 0.  1.
        -11    1    1    2    0    0 -0.48444670841E+02 -0.12957303996E+02 -0.90436494502E+02  0.10340956144E+03  0.00000000000E+00 0. -1.
         11    1    1    2    0    0 -0.69298235903E+02  0.82772342945E+02 -0.86423043188E+02  0.13828394213E+03  0.00000000000E+00 0.  1.
<mgrwt>
<rscale>  0 0.17998201E+03</rscale>
<asrwt>0</asrwt>
<pdfrwt beam="2">  1        2 0.91611327E-01 0.18537305E+03</pdfrwt>
<pdfrwt beam="1">  1       -2 0.84094713E-02 0.18537305E+03</pdfrwt>
<totfact> 0.43703138E+03</totfact>
</mgrwt>
</event>
<event>
 7    1  0.8165933E-006  0.1312956E+03  0.7546771E-02  0.1236418E+00
          1   -1    0    0  501    0  0.00000000000E+00  0.00000000000E+00  0.51270130295E+03  0.51270130295E+03  0.00000000000E+00 0. -1.
         -1   -1    0    0    0  501 -0.00000000000E+00 -0.00000000000E+00 -0.18006700909E+03  0.18006700909E+03  0.00000000000E+00 0.  1.
         23    2    1    2    0    0 -0.51002974113E+02  0.23185194052E+02  0.48796264689E+03  0.50531780370E+03  0.11874207925E+03 0.  0.
          5    1    3    3  502    0  0.30591657364E+02  0.15471987478E+02  0.27349757938E+03  0.27567779712E+03  0.47000000000E+01 0. -1.
         -5    1    3    3    0  502 -0.81594631476E+02  0.77132065739E+01  0.21446506750E+03  0.22964000658E+03  0.47000000000E+01 0.  1.
        -11    1    1    2    0    0  0.42043118013E+02 -0.48680469566E+02 -0.14480789140E+03  0.15845105648E+03  0.00000000000E+00 0.  1.
         11    1    1    2    0    0  0.89598560999E+01  0.25495275514E+02 -0.10520461629E+02  0.28999451852E+02  0.00000000000E+00 0. -1.
<mgrwt>
<rscale>  0 0.12414093E+03</rscale>
<asrwt>0</asrwt>
<pdfrwt beam="1">  1        1 0.78877123E-01 0.13129561E+03</pdfrwt>
<pdfrwt beam="2">  1       -1 0.27702617E-01 0.13129561E+03</pdfrwt>
<totfact> 0.51748929E+02</totfact>
</mgrwt>
</event>
<event>
 7    1  0.8165933E-006  0.1526037E+03  0.7546771E-02  0.1205141E+00
         -2   -1    0    0    0  501 -0.00000000000E+00  0.00000000000E+00  0.36529341387E+02  0.36529341387E+02  0.00000000000E+00 0.  1.
          2   -1    0    0  501    0  0.00000000000E+00 -0.00000000000E+00 -0.68872954326E+03  0.68872954326E+03  0.00000000000E+00 0. -1.
         23    2    1    2    0    0 -0.42416003551E+02 -0.76561264928E+02 -0.51479647650E+03  0.53693882321E+03  0.12500857174E+03 0.  0.
          5    1    3    3  502    0 -0.76012462383E+02 -0.13420625926E+02 -0.32460806885E+03  0.33369221747E+03  0.47000000000E+01 0. -1.
         -5    1    3    3    0  502  0.33596458832E+02 -0.63140639002E+02 -0.19018840765E+03  0.20324660574E+03  0.47000000000E+01 0. -1.
        -11    1    1    2    0    0 -0.15399897930E+02  0.32963842995E+02 -0.40937873586E+01  0.36613261207E+02  0.00000000000E+00 0.  1.
         11    1    1    2    0    0  0.57815901481E+02  0.43597421933E+02 -0.13330993802E+03  0.15170680024E+03  0.00000000000E+00 0. -1.
<mgrwt>
<rscale>  0 0.14626389E+03</rscale>
<asrwt>0</asrwt>
<pdfrwt beam="2">  1        2 0.10595837E+00 0.15260369E+03</pdfrwt>
<pdfrwt beam="1">  1       -2 0.56198996E-02 0.15260369E+03</pdfrwt>
<totfact> 0.67923120E+03</totfact>
</mgrwt>
</event>
<event>
 7    1  0.8165933E-006  0.3052359E+03  0.7546771E-02  0.1084141E+00
         -2   -1    0    0    0  501 -0.00000000000E+00  0.00000000000E+00  0.37672437787E+03  0.37672437787E+03  0.00000000000E+00 0. -1.
          2   -1    0    0  501    0  0.00000000000E+00 -0.00000000000E+00 -0.42880070457E+03  0.42880070457E+03  0.00000000000E+00 0.  1.
         23    2    1    2    0    0  0.14409798875E+03 -0.23828138608E+03 -0.29514190813E+03  0.42459121648E+03  0.12500682326E+03 0.  0.
          5    1    3    3  502    0  0.74049532480E+02 -0.13621919635E+03 -0.24704213944E+03  0.29170346479E+03  0.47000000000E+01 0.  1.
         -5    1    3    3    0  502  0.70048456274E+02 -0.10206218974E+03 -0.48099768692E+02  0.13288775169E+03  0.47000000000E+01 0.  1.
        -11    1    1    2    0    0 -0.93768254309E+02  0.20668553042E+03  0.15555010154E+03  0.27514946500E+03  0.00000000000E+00 0.  1.
         11    1    1    2    0    0 -0.50329734445E+02  0.31595855669E+02  0.87515479902E+02  0.10578440096E+03  0.00000000000E+00 0. -1.
<mgrwt>
<rscale>  0 0.30220927E+03</rscale>
<asrwt>0</asrwt>
<pdfrwt beam="2">  1        2 0.65969339E-01 0.30523590E+03</pdfrwt>
<pdfrwt beam="1">  1       -2 0.57957597E-01 0.30523590E+03</pdfrwt>
<totfact> 0.21133415E+02</totfact>
</mgrwt>
</event>
<event>
 7    1  0.8165933E-006  0.1260787E+03  0.7546771E-02  0.1249687E+00
          1   -1    0    0  501    0  0.00000000000E+00  0.00000000000E+00  0.25978652101E+03  0.25978652101E+03  0.00000000000E+00 0. -1.
         -1   -1    0    0    0  501 -0.00000000000E+00 -0.00000000000E+00 -0.54174573742E+02  0.54174573742E+02  0.00000000000E+00 0.  1.
         23    2    1    2    0    0  0.14573553141E+02 -0.76734837178E+01  0.18003070315E+03  0.21978826352E+03  0.12499822359E+03 0.  0.
          5    1    3    3  502    0 -0.55340082347E+02  0.42196688943E+00  0.79106924245E+02  0.96657634121E+02  0.47000000000E+01 0.  1.
         -5    1    3    3    0  502  0.69913635488E+02 -0.80954506072E+01  0.10092377890E+03  0.12313062940E+03  0.47000000000E+01 0.  1.
        -11    1    1    2    0    0  0.17077967234E+02  0.77585979710E+01 -0.26954559651E+02  0.32839017849E+02  0.00000000000E+00 0.  1.
         11    1    1    2    0    0 -0.31651520375E+02 -0.85114253253E-01  0.52535803766E+02  0.61333813381E+02  0.00000000000E+00 0. -1.
<mgrwt>
<rscale>  0 0.11609174E+03</rscale>
<asrwt>0</asrwt>
<pdfrwt beam="1">  1        1 0.39967156E-01 0.12607865E+03</pdfrwt>
<pdfrwt beam="2">  1       -1 0.83345500E-02 0.12607865E+03</pdfrwt>
<totfact> 0.80220467E+03</totfact>
</mgrwt>
</event>
<event>
 7    1  0.8165933E-006  0.1585535E+03  0.7546771E-02  0.1198336E+00
          3   -1    0    0  501    0  0.00000000000E+00  0.00000000000E+00  0.88783801936E+02  0.88783801936E+02  0.00000000000E+00 0. -1.
         -3   -1    0    0    0  501 -0.00000000000E+00 -0.00000000000E+00 -0.24206901447E+03  0.24206901447E+03  0.00000000000E+00 0.  1.
         23    2    1    2    0    0 -0.27258708580E+02  0.93642441274E+02 -0.66096758499E+02  0.17177893091E+03  0.12500910215E+03 0.  0.
          5    1    3    3  502    0 -0.30274066814E+02  0.12228681566E+03 -0.39014356076E+02  0.13196512564E+03  0.47000000000E+01 0.  1.
         -5    1    3    3    0  502  0.30153582344E+01 -0.28644374386E+02 -0.27082402423E+02  0.39813805272E+02  0.47000000000E+01 0.  1.
        -11    1    1    2    0    0 -0.24199006880E+02 -0.69000398087E+02 -0.65074792623E+02  0.97884500842E+02  0.00000000000E+00 0.  1.
         11    1    1    2    0    0  0.51457715460E+02 -0.24642043188E+02 -0.22113661414E+02  0.61189384651E+02  0.00000000000E+00 0. -1.
<mgrwt>
<rscale>  0 0.15175282E+03</rscale>
<asrwt>0</asrwt>
<pdfrwt beam="1">  1        3 0.13659047E-01 0.15855352E+03</pdfrwt>
<pdfrwt beam="2">  1       -3 0.37241386E-01 0.15855352E+03</pdfrwt>
<totfact> 0.73533019E+02</totfact>
</mgrwt>
</event>
<event>
 7    1  0.8165933E-006  0.1250531E+03  0.7546771E-02  0.1251469E+00
         -1   -1    0    0    0  501 -0.00000000000E+00  0.00000000000E+00  0.23374377829E+02  0.23374377829E+02  0.00000000000E+00 0.  1.
          1   -1    0    0  501    0  0.00000000000E+00 -0.00000000000E+00 -0.50206948355E+03  0.50206948355E+03  0.00000000000E+00 0. -1.
         23    2    1    2    0    0 -0.35887017237E-02 -0.37442842018E+01 -0.31301298149E+03  0.33706883223E+03  0.12499700557E+03 0.  0.
          5    1    3    3  502    0 -0.59024762043E+01  0.12105859289E+02  0.74722385316E+01  0.16103273057E+02  0.47000000000E+01 0. -1.
         -5    1    3    3    0  502  0.58988875026E+01 -0.15850143491E+02 -0.32048522002E+03  0.32096555917E+03  0.47000000000E+01 0. -1.
        -11    1    1    2    0    0 -0.48592969674E+01  0.45969517314E+02 -0.99590850441E+02  0.10979593244E+03  0.00000000000E+00 0.  1.
         11    1    1    2    0    0  0.48628856691E+01 -0.42225233112E+02 -0.66091273795E+02  0.78579096713E+02  0.00000000000E+00 0. -1.
<mgrwt>
<rscale>  0 0.11506446E+03</rscale>
<asrwt>0</asrwt>
<pdfrwt beam="2">  1        1 0.77241453E-01 0.12505307E+03</pdfrwt>
<pdfrwt beam="1">  1       -1 0.35960584E-02 0.12505307E+03</pdfrwt>
<totfact> 0.12206687E+04</totfact>
</mgrwt>
</event>
<event>
 7    1  0.8165933E-006  0.1252088E+03  0.7546771E-02  0.1249464E+00
          1   -1    0    0  501    0  0.00000000000E+00  0.00000000000E+00  0.19538922247E+03  0.19538922247E+03  0.00000000000E+00 0. -1.
         -1   -1    0    0    0  501 -0.00000000000E+00 -0.00000000000E+00 -0.62747716255E+02  0.62747716255E+02  0.00000000000E+00 0.  1.
         23    2    1    2    0    0 -0.72035541013E+01 -0.50696369467E+00  0.97780688064E+02  0.15886564983E+03  0.12500033413E+03 0.  0.
          5    1    3    3  502    0 -0.48398217571E+02 -0.36754130284E+02  0.80844513356E+02  0.10124810565E+03  0.47000000000E+01 0.  1.
         -5    1    3    3    0  502  0.41194663470E+02  0.36247166589E+02  0.16936174708E+02  0.57617544185E+02  0.47000000000E+01 0.  1.
        -11    1    1    2    0    0  0.20560375343E+02 -0.78105737115E+01  0.63166562481E+02  0.66886087579E+02  0.00000000000E+00 0. -1.
         11    1    1    2    0    0 -0.13356821242E+02  0.83175374061E+01 -0.28305744330E+02  0.32385201316E+02  0.00000000000E+00 0.  1.
<mgrwt>
<rscale>  0 0.11622169E+03</rscale>
<asrwt>0</asrwt>
<pdfrwt beam="1">  1        1 0.30059880E-01 0.12520875E+03</pdfrwt>
<pdfrwt beam="2">  1       -1 0.96534949E-02 0.12520875E+03</pdfrwt>
<totfact> 0.91277719E+03</totfact>
</mgrwt>
</event>
<event>
 7    1  0.8165933E-006  0.1511615E+03  0.7546771E-02  0.1208392E+00
          1   -1    0    0  501    0  0.00000000000E+00  0.00000000000E+00  0.15759299651E+03  0.15759299651E+03  0.00000000000E+00 0. -1.
         -1   -1    0    0    0  501 -0.00000000000E+00 -0.00000000000E+00 -0.12780561804E+03  0.12780561804E+03  0.00000000000E+00 0.  1.
         23    2    1    2    0    0  0.81095903683E+02 -0.25438476235E+02  0.51989278767E+02  0.15985211322E+03  0.12500460522E+03 0.  0.
          5    1    3    3  502    0  0.10763665980E+03 -0.19526946114E+02  0.67072332277E+02  0.12840459460E+03  0.47000000000E+01 0.  1.
         -5    1    3    3    0  502 -0.26540756121E+02 -0.59115301217E+01 -0.15083053510E+02  0.31447518615E+02  0.47000000000E+01 0.  1.
        -11    1    1    2    0    0  0.10682233562E+02 -0.14339716131E+02 -0.18087697644E+02  0.25434275666E+02  0.00000000000E+00 0.  1.
         11    1    1    2    0    0 -0.91778137244E+02  0.39778192366E+02 -0.41142026515E+01  0.10011222566E+03  0.00000000000E+00 0. -1.
<mgrwt>
<rscale>  0 0.14373327E+03</rscale>
<asrwt>0</asrwt>
<pdfrwt beam="1">  1        1 0.24245076E-01 0.15116155E+03</pdfrwt>
<pdfrwt beam="2">  1       -1 0.19662403E-01 0.15116155E+03</pdfrwt>
<totfact> 0.39866570E+03</totfact>
</mgrwt>
</event>
<event>
 7    1  0.8165933E-006  0.1299025E+03  0.7546771E-02  0.1242986E+00
         -2   -1    0    0    0  501 -0.00000000000E+00  0.00000000000E+00  0.16794076809E+02  0.16794076809E+02  0.00000000000E+00 0.  1.
          2   -1    0    0  501    0  0.00000000000E+00 -0.00000000000E+00 -0.84475748977E+03  0.84475748977E+03  0.00000000000E+00 0. -1.
         23    2    1    2    0    0 -0.33653166234E+02  0.10821279514E+02 -0.61294798092E+03  0.62656196368E+03  0.12500012532E+03 0.  0.
          5    1    3    3  502    0 -0.36078615703E+02 -0.53756574621E+02 -0.32398809253E+03  0.33042670886E+03  0.47000000000E+01 0.  1.
         -5    1    3    3    0  502  0.24254494691E+01  0.64577854136E+02 -0.28895988839E+03  0.29613525482E+03  0.47000000000E+01 0.  1.
        -11    1    1    2    0    0  0.94301963069E+01  0.38589262156E+02 -0.86246440034E+02  0.94955295664E+02  0.00000000000E+00 0.  1.
         11    1    1    2    0    0  0.24222969927E+02 -0.49410541670E+02 -0.12876899201E+03  0.14003430723E+03  0.00000000000E+00 0. -1.
<mgrwt>
<rscale>  0 0.12006709E+03</rscale>
<asrwt>0</asrwt>
<pdfrwt beam="2">  1        2 0.12996269E+00 0.12990253E+03</pdfrwt>
<pdfrwt beam="1">  1       -2 0.25837042E-02 0.12990253E+03</pdfrwt>
<totfact> 0.16610782E+04</totfact>
</mgrwt>
</event>
<event>
 7    1  0.8165933E-006  0.1325361E+03  0.7546771E-02  0.1234972E+00
          2   -1    0    0  501    0  0.00000000000E+00  0.00000000000E+00  0.59486795098E+02  0.59486795098E+02  0.00000000000E+00 0. -1.
         -2   -1    0    0    0  501 -0.00000000000E+00 -0.00000000000E+00 -0.23765046018E+03  0.23765046018E+03  0.00000000000E+00 0.  1.
         23    2    1    2    0    0  0.16473928753E+02  0.40851571632E+02 -0.93519819157E+02  0.16220902157E+03  0.12500227545E+03 0.  0.
          5    1    3    3  502    0 -0.33382857067E+02  0.49647688558E+02 -0.51193703335E+01  0.60229611303E+02  0.47000000000E+01 0. -1.
         -5    1    3    3    0  502  0.49856785821E+02 -0.87961169264E+01 -0.88400448823E+02  0.10197941026E+03  0.47000000000E+01 0. -1.
        -11    1    1    2    0    0 -0.37537497698E+02 -0.33543768213E+01  0.24784991877E+01  0.37768486011E+02  0.00000000000E+00 0. -1.
         11    1    1    2    0    0  0.21063568945E+02 -0.37497194810E+02 -0.87122345114E+02  0.97159747702E+02  0.00000000000E+00 0.  1.
<mgrwt>
<rscale>  0 0.12506243E+03</rscale>
<asrwt>0</asrwt>
<pdfrwt beam="1">  1        2 0.91518145E-02 0.13253607E+03</pdfrwt>
<pdfrwt beam="2">  1       -2 0.36561610E-01 0.13253607E+03</pdfrwt>
<totfact> 0.48133851E+03</totfact>
</mgrwt>
</event>
<event>
 7    1  0.8165933E-006  0.1259174E+03  0.7546771E-02  0.1251022E+00
          1   -1    0    0  501    0  0.00000000000E+00  0.00000000000E+00  0.13303900260E+03  0.13303900260E+03  0.00000000000E+00 0. -1.
         -1   -1    0    0    0  501 -0.00000000000E+00 -0.00000000000E+00 -0.87174057903E+02  0.87174057903E+02  0.00000000000E+00 0.  1.
         23    2    1    2    0    0 -0.24178649203E+01 -0.14995564349E+02  0.36672660770E+02  0.13114903404E+03  0.12499788823E+03 0.  0.
          5    1    3    3  502    0  0.35179394113E+01  0.36439578399E+02  0.62891743081E+02  0.72922425353E+02  0.47000000000E+01 0. -1.
         -5    1    3    3    0  502 -0.59358043315E+01 -0.51435142747E+02 -0.26219082311E+02  0.58226608692E+02  0.47000000000E+01 0. -1.
        -11    1    1    2    0    0 -0.13747862768E+02 -0.10249301156E+02 -0.33068865371E+02  0.37250527001E+02  0.00000000000E+00 0.  1.
         11    1    1    2    0    0  0.16165727688E+02  0.25244865504E+02  0.42261149297E+02  0.51813499457E+02  0.00000000000E+00 0. -1.
<mgrwt>
<rscale>  0 0.11532101E+03</rscale>
<asrwt>0</asrwt>
<pdfrwt beam="1">  1        1 0.20467539E-01 0.12591737E+03</pdfrwt>
<pdfrwt beam="2">  1       -1 0.13411394E-01 0.12591737E+03</pdfrwt>
<totfact> 0.89229967E+03</totfact>
</mgrwt>
</event>
<event>
 7    1  0.8165933E-006  0.1270661E+03  0.7546771E-02  0.1248297E+00
          1   -1    0    0  501    0  0.00000000000E+00  0.00000000000E+00  0.56236324597E+02  0.56236324597E+02  0.00000000000E+00 0. -1.
         -1   -1    0    0    0  501 -0.00000000000E+00 -0.00000000000E+00 -0.21338891904E+03  0.21338891904E+03  0.00000000000E+00 0.  1.
         23    2    1    2    0    0  0.22337901125E+02  0.46658614864E+01 -0.78807852530E+02  0.14952083884E+03  0.12500020614E+03 0.  0.
          5    1    3    3  502    0  0.39048679202E+02 -0.53469739855E+02 -0.42401436514E+02  0.78764105061E+02  0.47000000000E+01 0. -1.
         -5    1    3    3    0  502 -0.16710778077E+02  0.58135601342E+02 -0.36406416016E+02  0.70756733775E+02  0.47000000000E+01 0. -1.
        -11    1    1    2    0    0 -0.45452906121E+02  0.20384434526E+02 -0.68363455320E+02  0.84587551502E+02  0.00000000000E+00 0.  1.
         11    1    1    2    0    0  0.23115004995E+02 -0.25050296012E+02 -0.99812865927E+01  0.35516853299E+02  0.00000000000E+00 0. -1.
<mgrwt>
<rscale>  0 0.11690233E+03</rscale>
<asrwt>0</asrwt>
<pdfrwt beam="1">  1        1 0.86517422E-02 0.12706614E+03</pdfrwt>
<pdfrwt beam="2">  1       -1 0.32829065E-01 0.12706614E+03</pdfrwt>
<totfact> 0.64488752E+03</totfact>
</mgrwt>
</event>
<event>
 7    1  0.8165933E-006  0.1422597E+03  0.7546771E-02  0.1225571E+00
          2   -1    0    0  501    0  0.00000000000E+00  0.00000000000E+00  0.38607135222E+03  0.38607135222E+03  0.00000000000E+00 0.  1.
         -2   -1    0    0    0  501 -0.00000000000E+00 -0.00000000000E+00 -0.56780195493E+02  0.56780195493E+02  0.00000000000E+00 0. -1.
         23    2    1    2    0    0  0.67741384833E+02  0.49864060491E+01  0.30547357571E+03  0.33697468103E+03  0.12499628289E+03 0.  0.
          5    1    3    3  502    0  0.22861075880E+02 -0.21094543592E+02  0.27460045716E+03  0.27639665271E+03  0.47000000000E+01 0.  1.
         -5    1    3    3    0  502  0.44880308953E+02  0.26080949641E+02  0.30873118551E+02  0.60578028319E+02  0.47000000000E+01 0.  1.
        -11    1    1    2    0    0 -0.12941955991E+02 -0.84548221496E+01  0.44571710338E+02  0.47176430608E+02  0.00000000000E+00 0.  1.
         11    1    1    2    0    0 -0.54799428842E+02  0.34684161005E+01 -0.20754129318E+02  0.58700436075E+02  0.00000000000E+00 0. -1.
<mgrwt>
<rscale>  0 0.13127820E+03</rscale>
<asrwt>0</asrwt>
<pdfrwt beam="1">  1        2 0.59395591E-01 0.14225973E+03</pdfrwt>
<pdfrwt beam="2">  1       -2 0.87354149E-02 0.14225973E+03</pdfrwt>
<totfact> 0.65514783E+03</totfact>
</mgrwt>
</event>
<event>
 7    1  0.8165933E-006  0.1734774E+03  0.7546771E-02  0.1179553E+00
         -3   -1    0    0    0  501 -0.00000000000E+00  0.00000000000E+00  0.33910310239E+03  0.33910310239E+03  0.00000000000E+00 0.  1.
          3   -1    0    0  501    0  0.00000000000E+00 -0.00000000000E+00 -0.84784771561E+02  0.84784771561E+02  0.00000000000E+00 0. -1.
         23    2    1    2    0    0  0.12002904255E+03 -0.77318319965E+01  0.79145421512E+02  0.19067878496E+03  0.12501059557E+03 0.  0.
          5    1    3    3  502    0  0.49726274085E+02 -0.59020644899E+02  0.71719047765E+01  0.77650918068E+02  0.47000000000E+01 0. -1.
         -5    1    3    3    0  502  0.70302768467E+02  0.51288812903E+02  0.71973516735E+02  0.11302786689E+03  0.47000000000E+01 0. -1.
        -11    1    1    2    0    0 -0.49661767218E+02  0.18309175847E+02  0.10695725185E+02  0.53999218334E+02  0.00000000000E+00 0. -1.
         11    1    1    2    0    0 -0.70367275334E+02 -0.10577343850E+02  0.16447718413E+03  0.17920987066E+03  0.00000000000E+00 0.  1.
<mgrwt>
<rscale>  0 0.16837508E+03</rscale>
<asrwt>0</asrwt>
<pdfrwt beam="2">  1        3 0.13043811E-01 0.17347738E+03</pdfrwt>
<pdfrwt beam="1">  1       -3 0.52169707E-01 0.17347738E+03</pdfrwt>
<totfact> 0.41499516E+02</totfact>
</mgrwt>
</event>
<event>
 7    1  0.8165933E-006  0.1375598E+03  0.7546771E-02  0.1228459E+00
         -1   -1    0    0    0  501 -0.00000000000E+00  0.00000000000E+00  0.13973635683E+02  0.13973635683E+02  0.00000000000E+00 0.  1.
          1   -1    0    0  501    0  0.00000000000E+00 -0.00000000000E+00 -0.11312722169E+04  0.11312722169E+04  0.00000000000E+00 0. -1.
         23    2    1    2    0    0  0.47207046103E+02  0.32708656755E+02 -0.75156545557E+03  0.76405060066E+03  0.12499729966E+03 0.  0.
          5    1    3    3  502    0  0.52421441772E+02  0.60795375544E+02 -0.27264723827E+03  0.28425814285E+03  0.47000000000E+01 0. -1.
         -5    1    3    3    0  502 -0.52143956682E+01 -0.28086718789E+02 -0.47891821731E+03  0.47979245780E+03  0.47000000000E+01 0. -1.
        -11    1    1    2    0    0 -0.59348287430E+02  0.52147155604E+01 -0.14273127344E+03  0.15466618537E+03  0.00000000000E+00 0.  1.
         11    1    1    2    0    0  0.12141241327E+02 -0.37923372315E+02 -0.22300185222E+03  0.22652906657E+03  0.00000000000E+00 0. -1.
<mgrwt>
<rscale>  0 0.12932636E+03</rscale>
<asrwt>0</asrwt>
<pdfrwt beam="2">  1        1 0.17404194E+00 0.13755976E+03</pdfrwt>
<pdfrwt beam="1">  1       -1 0.21497893E-02 0.13755976E+03</pdfrwt>
<totfact> 0.76776675E+03</totfact>
</mgrwt>
</event>
<event>
 6    1  0.8165933E-006  0.1426219E+03  0.7546771E-02  0.1226680E+00
         -1   -1    0    0    0  501 -0.00000000000E+00  0.00000000000E+00  0.67660537539E+02  0.67660537539E+02  0.00000000000E+00 0.  1.
          1   -1    0    0  501    0  0.00000000000E+00 -0.00000000000E+00 -0.57448295758E+03  0.57448295758E+03  0.00000000000E+00 0. -1.
          5    1    1    2  502    0  0.73917334341E+02 -0.31188920977E+02 -0.47121213070E+03  0.47801619557E+03  0.47000000000E+01 0. -1.
         -5    1    1    2    0  502 -0.35961490786E+02  0.92592291914E+01 -0.50625565629E+02  0.62960305273E+02  0.47000000000E+01 0.  1.
        -11    1    1    2    0    0 -0.46669028838E+02 -0.31561442016E+01  0.42319429427E+02  0.63078471810E+02  0.00000000000E+00 0.  1.
         11    1    1    2    0    0  0.87131852829E+01  0.25085835987E+02 -0.27304153134E+02  0.38088522462E+02  0.00000000000E+00 0. -1.
<mgrwt>
<rscale>  0 0.13052390E+03</rscale>
<asrwt>0</asrwt>
<pdfrwt beam="2">  1        1 0.88381995E-01 0.14262185E+03</pdfrwt>
<pdfrwt beam="1">  1       -1 0.10409313E-01 0.14262185E+03</pdfrwt>
<totfact> 0.21057263E+03</totfact>
</mgrwt>
</event>
<event>
 7    1  0.8165933E-006  0.1560692E+03  0.7546771E-02  0.1200749E+00
          2   -1    0    0  501    0  0.00000000000E+00  0.00000000000E+00  0.19221890381E+03  0.19221890381E+03  0.00000000000E+00 0. -1.
         -2   -1    0    0    0  501 -0.00000000000E+00 -0.00000000000E+00 -0.16221576388E+03  0.16221576388E+03  0.00000000000E+00 0.  1.
         23    2    1    2    0    0  0.47298127123E+02  0.80599468183E+02  0.11784552569E+03  0.19556370674E+03  0.12499683343E+03 0.  0.
          5    1    3    3  502    0  0.68947350764E+02 -0.30844875997E+01  0.46089558411E+02  0.83123935395E+02  0.47000000000E+01 0.  1.
         -5    1    3    3    0  502 -0.21649223641E+02  0.83683955783E+02  0.71755967280E+02  0.11243977134E+03  0.47000000000E+01 0.  1.
        -11    1    1    2    0    0 -0.60372455798E+02 -0.81929587716E+02 -0.40155518996E+02  0.10940638221E+03  0.00000000000E+00 0. -1.
         11    1    1    2    0    0  0.13074328675E+02  0.13301195323E+01 -0.47686866760E+02  0.49464578737E+02  0.00000000000E+00 0.  1.
<mgrwt>
<rscale>  0 0.14977562E+03</rscale>
<asrwt>0</asrwt>
<pdfrwt beam="1">  1        2 0.29572139E-01 0.15606920E+03</pdfrwt>
<pdfrwt beam="2">  1       -2 0.24956271E-01 0.15606920E+03</pdfrwt>
<totfact> 0.24788104E+03</totfact>
</mgrwt>
</event>
<event>
 7    1  0.8165933E-006  0.1250506E+03  0.7546771E-02  0.1249340E+00
          2   -1    0    0  501    0  0.00000000000E+00  0.00000000000E+00  0.37399208024E+02  0.37399208024E+02  0.00000000000E+00 0. -1.
         -2   -1    0    0    0  501 -0.00000000000E+00 -0.00000000000E+00 -0.32330624109E+03  0.32330624109E+03  0.00000000000E+00 0.  1.
         23    2    1    2    0    0 -0.16663582814E+01 -0.30214485328E+01 -0.14365041745E+03  0.19045495811E+03  0.12500297090E+03 0.  0.
          5    1    3    3  502    0  0.20813349535E+02 -0.47225129003E+02 -0.17289653529E+02  0.54629940942E+02  0.47000000000E+01 0.  1.
         -5    1    3    3    0  502 -0.22479707816E+02  0.44203680470E+02 -0.12636076392E+03  0.13582501717E+03  0.47000000000E+01 0.  1.
        -11    1    1    2    0    0  0.10618372148E+02  0.39756896978E+02 -0.11887158233E+03  0.12579274132E+03  0.00000000000E+00 0.  1.
         11    1    1    2    0    0 -0.89520138666E+01 -0.36735448445E+02 -0.23385033289E+02  0.44457749681E+02  0.00000000000E+00 0. -1.
<mgrwt>
<rscale>  0 0.11629329E+03</rscale>
<asrwt>0</asrwt>
<pdfrwt beam="1">  1        2 0.57537242E-02 0.12505058E+03</pdfrwt>
<pdfrwt beam="2">  1       -2 0.49739423E-01 0.12505058E+03</pdfrwt>
<totfact> 0.47800912E+03</totfact>
</mgrwt>
</event>
<event>
 7    1  0.8165933E-006  0.1303515E+03  0.7546771E-02  0.1240336E+00
          2   -1    0    0  501    0  0.00000000000E+00  0.00000000000E+00  0.81845400609E+03  0.81845400609E+03  0.00000000000E+00 0. -1.
         -2   -1    0    0    0  501 -0.00000000000E+00 -0.00000000000E+00 -0.16068571555E+02  0.16068571555E+02  0.00000000000E+00 0.  1.
         23    2    1    2    0    0  0.36527731617E+02  0.58288270791E+01  0.45709843796E+03  0.47532145847E+03  0.12499302579E+03 0.  0.
          5    1    3    3  502    0 -0.31123997568E+02  0.20704629663E+02  0.51422563966E+02  0.63747588181E+02  0.47000000000E+01 0. -1.
         -5    1    3    3    0  502  0.67651729185E+02 -0.14875802584E+02  0.40567587399E+03  0.41157387029E+03  0.47000000000E+01 0. -1.
        -11    1    1    2    0    0  0.25762118157E+02  0.16118877189E+02  0.74129859409E+02  0.80117045563E+02  0.00000000000E+00 0.  1.
         11    1    1    2    0    0 -0.62289849774E+02 -0.21947704268E+02  0.27115713717E+03  0.27908407362E+03  0.00000000000E+00 0. -1.
<mgrwt>
<rscale>  0 0.12168951E+03</rscale>
<asrwt>0</asrwt>
<pdfrwt beam="1">  1        2 0.12591597E+00 0.13035147E+03</pdfrwt>
<pdfrwt beam="2">  1       -2 0.24720886E-02 0.13035147E+03</pdfrwt>
<totfact> 0.18442535E+04</totfact>
</mgrwt>
</event>
<event>
 7    1  0.8165933E-006  0.1344390E+03  0.7546771E-02  0.1233818E+00
         -4   -1    0    0    0  501 -0.00000000000E+00  0.00000000000E+00  0.53437842552E+02  0.53437842552E+02  0.00000000000E+00 0.  1.
          4   -1    0    0  501    0  0.00000000000E+00 -0.00000000000E+00 -0.30196971801E+03  0.30196971801E+03  0.00000000000E+00 0. -1.
         23    2    1    2    0    0  0.38934480319E+02  0.30514538411E+02 -0.20118028194E+03  0.24196558475E+03  0.12500723000E+03 0.  0.
          5    1    3    3  502    0  0.80989793562E+02  0.38641109012E+02 -0.15203559949E+03  0.17660519663E+03  0.47000000000E+01 0. -1.
         -5    1    3    3    0  502 -0.42055313244E+02 -0.81265706011E+01 -0.49144682454E+02  0.65360388121E+02  0.47000000000E+01 0. -1.
        -11    1    1    2    0    0 -0.53437537819E+02 -0.17063643875E+02 -0.65749842788E+02  0.86427890274E+02  0.00000000000E+00 0. -1.
         11    1    1    2    0    0  0.14503057500E+02 -0.13450894536E+02  0.18398249275E+02  0.27014085530E+02  0.00000000000E+00 0.  1.
<mgrwt>
<rscale>  0 0.12580409E+03</rscale>
<asrwt>0</asrwt>
<pdfrwt beam="2">  1        4 0.46456880E-01 0.13443898E+03</pdfrwt>
<pdfrwt beam="1">  1       -4 0.82212064E-02 0.13443898E+03</pdfrwt>
<totfact> 0.78509766E+02</totfact>
</mgrwt>
</event>
<event>
 7    1  0.8165933E-006  0.1833933E+03  0.7546771E-02  0.1170248E+00
         -1   -1    0    0    0  501 -0.00000000000E+00  0.00000000000E+00  0.11605105838E+03  0.11605105838E+03  0.00000000000E+00 0.  1.
          1   -1    0    0  501    0  0.00000000000E+00 -0.00000000000E+00 -0.25569800065E+03  0.25569800065E+03  0.00000000000E+00 0. -1.
         23    2    1    2    0    0  0.85627477677E+02 -0.10332128663E+03 -0.67932746415E+02  0.19557088090E+03  0.12500303282E+03 0.  0.
          5    1    3    3  502    0 -0.22317913594E+02 -0.16570166966E+02 -0.47880233823E+02  0.55563175678E+02  0.47000000000E+01 0.  1.
         -5    1    3    3    0  502  0.10794539127E+03 -0.86751119663E+02 -0.20052512592E+02  0.14000770522E+03  0.47000000000E+01 0.  1.
        -11    1    1    2    0    0 -0.39665408890E+02  0.39137056286E+02  0.16191449042E+02  0.58027724918E+02  0.00000000000E+00 0.  1.
         11    1    1    2    0    0 -0.45962068788E+02  0.64184230343E+02 -0.87905644891E+02  0.11815045322E+03  0.00000000000E+00 0. -1.
<mgrwt>
<rscale>  0 0.17749714E+03</rscale>
<asrwt>0</asrwt>
<pdfrwt beam="2">  1        1 0.39338154E-01 0.18339332E+03</pdfrwt>
<pdfrwt beam="1">  1       -1 0.17854009E-01 0.18339332E+03</pdfrwt>
<totfact> 0.25613885E+03</totfact>
</mgrwt>
</event>
<event>
 7    1  0.1527034E-005  0.2046805E+03  0.7546771E-02  0.1149169E+00
         -1   -1    0    0    0  501 -0.00000000000E+00  0.00000000000E+00  0.22218556523E+02  0.22218556523E+02  0.00000000000E+00 0.  1.
          1   -1    0    0  501    0  0.00000000000E+00 -0.00000000000E+00 -0.17497441017E+04  0.17497441017E+04  0.00000000000E+00 0. -1.
         23    2    1    2    0    0  0.10778676364E+03  0.12104153191E+03 -0.94370226222E+03  0.96564386488E+03  0.12500030083E+03 0.  0.
          5    1    3    3  502    0  0.91162266990E+02  0.41915449975E+02 -0.28915155415E+03  0.30610157650E+03  0.47000000000E+01 0.  1.
         -5    1    3    3    0  502  0.16624496647E+02  0.79126081938E+02 -0.65455070807E+03  0.65954228838E+03  0.47000000000E+01 0.  1.
        -11    1    1    2    0    0 -0.10252217853E+03 -0.54146983145E+02 -0.58788812007E+03  0.59921209484E+03  0.00000000000E+00 0. -1.
         11    1    1    2    0    0 -0.52645851070E+01 -0.66894548768E+02 -0.19593516292E+03  0.20710669854E+03  0.00000000000E+00 0.  1.
<mgrwt>
<rscale>  0 0.20067758E+03</rscale>
<asrwt>0</asrwt>
<pdfrwt beam="2">  1        1 0.26919153E+00 0.20468052E+03</pdfrwt>
<pdfrwt beam="1">  1       -1 0.34182378E-02 0.20468052E+03</pdfrwt>
<totfact> 0.15290800E+03</totfact>
</mgrwt>
</event>
<event>
 7    1  0.8165933E-006  0.1779207E+03  0.7546771E-02  0.1175623E+00
         -1   -1    0    0    0  501 -0.00000000000E+00  0.00000000000E+00  0.31937565810E+03  0.31937565810E+03  0.00000000000E+00 0.  1.
          1   -1    0    0  501    0  0.00000000000E+00 -0.00000000000E+00 -0.92300678531E+02  0.92300678531E+02  0.00000000000E+00 0. -1.
         23    2    1    2    0    0 -0.10981380534E+03 -0.63030616778E+02  0.72556306873E+02  0.19214626632E+03  0.12499535792E+03 0.  0.
          5    1    3    3  502    0 -0.10930472217E+03 -0.48255062041E+02  0.16744931734E+01  0.11958665155E+03  0.47000000000E+01 0. -1.
         -5    1    3    3    0  502 -0.50908317153E+00 -0.14775554737E+02  0.70881813700E+02  0.72559614779E+02  0.47000000000E+01 0. -1.
        -11    1    1    2    0    0  0.26670920639E+02  0.49756671242E+02  0.11150836637E+03  0.12498471952E+03  0.00000000000E+00 0.  1.
         11    1    1    2    0    0  0.83142884699E+02  0.13273945536E+02  0.43010306318E+02  0.94545350788E+02  0.00000000000E+00 0. -1.
<mgrwt>
<rscale>  0 0.17215100E+03</rscale>
<asrwt>0</asrwt>
<pdfrwt beam="2">  1        1 0.14200105E-01 0.17792068E+03</pdfrwt>
<pdfrwt beam="1">  1       -1 0.49134716E-01 0.17792068E+03</pdfrwt>
<totfact> 0.16768047E+03</totfact>
</mgrwt>
</event>
<event>
 7    1  0.8165933E-006  0.2179412E+03  0.7546771E-02  0.1138337E+00
          2   -1    0    0  501    0  0.00000000000E+00  0.00000000000E+00  0.15047694215E+04  0.15047694215E+04  0.00000000000E+00 0. -1.
         -2   -1    0    0    0  501 -0.00000000000E+00 -0.00000000000E+00 -0.29491223347E+02  0.29491223347E+02  0.00000000000E+00 0.  1.
         23    2    1    2    0    0  0.16355684576E+02 -0.17778200682E+03  0.79198018278E+03  0.82142008620E+03  0.12499759093E+03 0.  0.
          5    1    3    3  502    0  0.10233292544E+02 -0.16528617421E+03  0.78928878315E+03  0.80648813560E+03  0.47000000000E+01 0.  1.
         -5    1    3    3    0  502  0.61223920326E+01 -0.12495832611E+02  0.26913996309E+01  0.14931950603E+02  0.47000000000E+01 0.  1.
        -11    1    1    2    0    0 -0.10674653887E+02  0.12135319449E+03  0.59885271919E+03  0.61111793079E+03  0.00000000000E+00 0. -1.
         11    1    1    2    0    0 -0.56810306890E+01  0.56428812335E+02  0.84445296212E+02  0.10172262788E+03  0.00000000000E+00 0.  1.
<mgrwt>
<rscale>  0 0.21412949E+03</rscale>
<asrwt>0</asrwt>
<pdfrwt beam="1">  1        2 0.23150293E+00 0.21794116E+03</pdfrwt>
<pdfrwt beam="2">  1       -2 0.45371125E-02 0.21794116E+03</pdfrwt>
<totfact> 0.30762478E+03</totfact>
</mgrwt>
</event>
<event>
 7    1  0.8165933E-006  0.2364300E+03  0.7546771E-02  0.1125163E+00
         -2   -1    0    0    0  501 -0.00000000000E+00  0.00000000000E+00  0.24910695763E+03  0.24910695763E+03  0.00000000000E+00 0.  1.
          2   -1    0    0  501    0  0.00000000000E+00 -0.00000000000E+00 -0.35757229251E+03  0.35757229251E+03  0.00000000000E+00 0. -1.
         23    2    1    2    0    0  0.37780924890E+01 -0.20064988920E+03 -0.25103114465E+03  0.34484168705E+03  0.12499800608E+03 0.  0.
          5    1    3    3  502    0 -0.53226695523E+02 -0.12709793661E+03 -0.18462485224E+03  0.23042437517E+03  0.47000000000E+01 0. -1.
         -5    1    3    3    0  502  0.57004788012E+02 -0.73551952593E+02 -0.66406292409E+02  0.11441731188E+03  0.47000000000E+01 0. -1.
        -11    1    1    2    0    0 -0.22174369738E+02  0.12232604086E+03  0.38191856232E+02  0.13005376130E+03  0.00000000000E+00 0. -1.
         11    1    1    2    0    0  0.18396277249E+02  0.78323848344E+02  0.10437395354E+03  0.13178380179E+03  0.00000000000E+00 0.  1.
<mgrwt>
<rscale>  0 0.23211115E+03</rscale>
<asrwt>0</asrwt>
<pdfrwt beam="2">  1        2 0.55011122E-01 0.23643002E+03</pdfrwt>
<pdfrwt beam="1">  1       -2 0.38324147E-01 0.23643002E+03</pdfrwt>
<totfact> 0.58626291E+02</totfact>
</mgrwt>
</event>
<event>
 7    1  0.8165933E-006  0.1802842E+03  0.7546771E-02  0.1173599E+00
         -2   -1    0    0    0  501 -0.00000000000E+00  0.00000000000E+00  0.12199810490E+03  0.12199810490E+03  0.00000000000E+00 0.  1.
          2   -1    0    0  501    0  0.00000000000E+00 -0.00000000000E+00 -0.23631186219E+03  0.23631186219E+03  0.00000000000E+00 0. -1.
         23    2    1    2    0    0 -0.29488644689E+02  0.12649073030E+03 -0.82138350274E+02  0.19811387498E+03  0.12503165142E+03 0.  0.
          5    1    3    3  502    0  0.13847503710E+02  0.13914602856E+02  0.28123090240E+02  0.34617448437E+02  0.47000000000E+01 0.  1.
         -5    1    3    3    0  502 -0.43336148399E+02  0.11257612744E+03 -0.11026144051E+03  0.16349642654E+03  0.47000000000E+01 0.  1.
        -11    1    1    2    0    0 -0.15153819693E+02 -0.31656037636E+02 -0.42216172675E+02  0.54899437205E+02  0.00000000000E+00 0. -1.
         11    1    1    2    0    0  0.44642464382E+02 -0.94834692663E+02  0.10040765665E+02  0.10529665490E+03  0.00000000000E+00 0.  1.
<mgrwt>
<rscale>  0 0.17413894E+03</rscale>
<asrwt>0</asrwt>
<pdfrwt beam="2">  1        2 0.36355671E-01 0.18028422E+03</pdfrwt>
<pdfrwt beam="1">  1       -2 0.18768939E-01 0.18028422E+03</pdfrwt>
<totfact> 0.32547744E+03</totfact>
</mgrwt>
</event>
<event>
 7    1  0.9348727E-006  0.1657955E+03  0.7546771E-02  0.1189410E+00
         -1   -1    0    0    0  501 -0.00000000000E+00  0.00000000000E+00  0.30030575263E+02  0.30030575263E+02  0.00000000000E+00 0.  1.
          1   -1    0    0  501    0  0.00000000000E+00 -0.00000000000E+00 -0.10672634649E+04  0.10672634649E+04  0.00000000000E+00 0. -1.
         23    2    1    2    0    0 -0.10023869653E+03 -0.42604153368E+02 -0.82958095219E+03  0.84598622366E+03  0.12500089691E+03 0.  0.
          5    1    3    3  502    0  0.23971336190E+02  0.15047301949E+02 -0.15429994162E+03  0.15694460245E+03  0.47000000000E+01 0. -1.
         -5    1    3    3    0  502 -0.12421003272E+03 -0.57651455316E+02 -0.67528101057E+03  0.68904162121E+03  0.47000000000E+01 0. -1.
        -11    1    1    2    0    0  0.13117457077E+02  0.29903839765E+02 -0.12959612966E+03  0.13364678872E+03  0.00000000000E+00 0. -1.
         11    1    1    2    0    0  0.87121239452E+02  0.12700313603E+02 -0.78055807805E+02  0.11766102779E+03  0.00000000000E+00 0.  1.
<mgrwt>
<rscale>  0 0.15937003E+03</rscale>
<asrwt>0</asrwt>
<pdfrwt beam="2">  1        1 0.16419435E+00 0.16579546E+03</pdfrwt>
<pdfrwt beam="1">  1       -1 0.46200892E-02 0.16579546E+03</pdfrwt>
<totfact> 0.28007492E+03</totfact>
</mgrwt>
</event>
<event>
 7    1  0.8165933E-006  0.1310966E+03  0.7546771E-02  0.1238520E+00
         -2   -1    0    0    0  501 -0.00000000000E+00  0.00000000000E+00  0.14672285444E+03  0.14672285444E+03  0.00000000000E+00 0.  1.
          2   -1    0    0  501    0  0.00000000000E+00 -0.00000000000E+00 -0.10336516789E+03  0.10336516789E+03  0.00000000000E+00 0. -1.
         23    2    1    2    0    0 -0.23938410282E+02 -0.31461181426E+02 -0.17379309790E+02  0.13224356592E+03  0.12499386743E+03 0.  0.
          5    1    3    3  502    0  0.48955017147E+02 -0.30836590306E+02 -0.74302052135E+01  0.58521679360E+02  0.47000000000E+01 0. -1.
         -5    1    3    3    0  502 -0.72893427430E+02 -0.62459111971E+00 -0.99491045762E+01  0.73721886563E+02  0.47000000000E+01 0. -1.
        -11    1    1    2    0    0  0.54882974347E+02  0.17090798810E+02  0.12608048992E+02  0.58848952213E+02  0.00000000000E+00 0. -1.
         11    1    1    2    0    0 -0.30944564064E+02  0.14370382616E+02  0.48128947347E+02  0.58995504188E+02  0.00000000000E+00 0.  1.
<mgrwt>
<rscale>  0 0.12281735E+03</rscale>
<asrwt>0</asrwt>
<pdfrwt beam="2">  1        2 0.15902333E-01 0.13109661E+03</pdfrwt>
<pdfrwt beam="1">  1       -2 0.22572747E-01 0.13109661E+03</pdfrwt>
<totfact> 0.58641405E+03</totfact>
</mgrwt>
</event>
<event>
 7    1  0.8165933E-006  0.1511608E+03  0.7546771E-02  0.1208129E+00
          1   -1    0    0  501    0  0.00000000000E+00  0.00000000000E+00  0.93579493565E+03  0.93579493565E+03  0.00000000000E+00 0. -1.
         -1   -1    0    0    0  501 -0.00000000000E+00 -0.00000000000E+00 -0.21917126396E+02  0.21917126396E+02  0.00000000000E+00 0.  1.
         23    2    1    2    0    0  0.50930340214E+02  0.68032872195E+02  0.62902800543E+03  0.64693570759E+03  0.12500882726E+03 0.  0.
          5    1    3    3  502    0  0.92751730023E+02  0.47038412560E+02  0.43883543665E+03  0.45101455202E+03  0.47000000000E+01 0. -1.
         -5    1    3    3    0  502 -0.41821389809E+02  0.20994459635E+02  0.19019256878E+03  0.19592115557E+03  0.47000000000E+01 0. -1.
        -11    1    1    2    0    0 -0.78297106702E+01 -0.53667913157E+02  0.57942131226E+02  0.79365230693E+02  0.00000000000E+00 0.  1.
         11    1    1    2    0    0 -0.43100629544E+02 -0.14364959038E+02  0.22690767260E+03  0.23141112376E+03  0.00000000000E+00 0. -1.
<mgrwt>
<rscale>  0 0.14393590E+03</rscale>
<asrwt>0</asrwt>
<pdfrwt beam="1">  1        1 0.14396842E+00 0.15116077E+03</pdfrwt>
<pdfrwt beam="2">  1       -1 0.33718663E-02 0.15116077E+03</pdfrwt>
<totfact> 0.55514301E+03</totfact>
</mgrwt>
</event>
<event>
 7    1  0.8165933E-006  0.1301966E+03  0.7546771E-02  0.1240678E+00
         -1   -1    0    0    0  501 -0.00000000000E+00  0.00000000000E+00  0.14578689077E+03  0.14578689077E+03  0.00000000000E+00 0.  1.
          1   -1    0    0  501    0  0.00000000000E+00 -0.00000000000E+00 -0.11972182099E+03  0.11972182099E+03  0.00000000000E+00 0. -1.
         23    2    1    2    0    0 -0.29450252241E+02 -0.21437298499E+02 -0.51487005147E+02  0.14000741636E+03  0.12499715922E+03 0.  0.
          5    1    3    3  502    0 -0.29967482240E+02  0.30858691803E+02 -0.71697245807E+02  0.83743023040E+02  0.47000000000E+01 0.  1.
         -5    1    3    3    0  502  0.51722999945E+00 -0.52295990303E+02  0.20210240661E+02  0.56264393324E+02  0.47000000000E+01 0.  1.
        -11    1    1    2    0    0  0.61765641515E+02  0.22840399081E+02  0.46107587177E+02  0.80390222647E+02  0.00000000000E+00 0.  1.
         11    1    1    2    0    0 -0.32315389274E+02 -0.14031005814E+01  0.31444487748E+02  0.45111072753E+02  0.00000000000E+00 0. -1.
<mgrwt>
<rscale>  0 0.12147833E+03</rscale>
<asrwt>0</asrwt>
<pdfrwt beam="2">  1        1 0.18418742E-01 0.13019664E+03</pdfrwt>
<pdfrwt beam="1">  1       -1 0.22428753E-01 0.13019664E+03</pdfrwt>
<totfact> 0.45288904E+03</totfact>
</mgrwt>
</event>
<event>
 7    1  0.8165933E-006  0.1357728E+03  0.7546771E-02  0.1232504E+00
          2   -1    0    0  501    0  0.00000000000E+00  0.00000000000E+00  0.75256759057E+03  0.75256759057E+03  0.00000000000E+00 0. -1.
         -2   -1    0    0    0  501 -0.00000000000E+00 -0.00000000000E+00 -0.33883453608E+02  0.33883453608E+02  0.00000000000E+00 0.  1.
         23    2    1    2    0    0 -0.53002889758E+02  0.18493724370E+00  0.64704738568E+03  0.66113884824E+03  0.12499966725E+03 0.  0.
          5    1    3    3  502    0 -0.77764729765E+02 -0.22137714484E+02  0.58469134169E+03  0.59027407757E+03  0.47000000000E+01 0. -1.
         -5    1    3    3    0  502  0.24761840007E+02  0.22322651727E+02  0.62356043986E+02  0.70864770671E+02  0.47000000000E+01 0. -1.
        -11    1    1    2    0    0  0.31276086204E+02  0.15809658238E+02  0.87330998889E+02  0.94100171248E+02  0.00000000000E+00 0. -1.
         11    1    1    2    0    0  0.21726803553E+02 -0.15994595482E+02 -0.15694247608E+02  0.31212024690E+02  0.00000000000E+00 0.  1.
<mgrwt>
<rscale>  0 0.12665600E+03</rscale>
<asrwt>0</asrwt>
<pdfrwt beam="1">  1        2 0.11577962E+00 0.13577282E+03</pdfrwt>
<pdfrwt beam="2">  1       -2 0.52128396E-02 0.13577282E+03</pdfrwt>
<totfact> 0.67994726E+03</totfact>
</mgrwt>
</event>
<event>
 7    1  0.8165933E-006  0.1296967E+03  0.7546771E-02  0.1241495E+00
         -1   -1    0    0    0  501 -0.00000000000E+00  0.00000000000E+00  0.85107648984E+02  0.85107648984E+02  0.00000000000E+00 0.  1.
          1   -1    0    0  501    0  0.00000000000E+00 -0.00000000000E+00 -0.15299212821E+03  0.15299212821E+03  0.00000000000E+00 0. -1.
         23    2    1    2    0    0 -0.29167574854E+02  0.18472231527E+02 -0.45087198449E+02  0.13731019662E+03  0.12501705433E+03 0.  0.
          5    1    3    3  502    0  0.24669849809E+02  0.42281774578E+02 -0.58830253190E+02  0.76677497621E+02  0.47000000000E+01 0.  1.
         -5    1    3    3    0  502 -0.53837424664E+02 -0.23809543051E+02  0.13743054741E+02  0.60632699002E+02  0.47000000000E+01 0.  1.
        -11    1    1    2    0    0  0.38305158434E+02  0.29825060756E+02 -0.63703688107E+01  0.48963261845E+02  0.00000000000E+00 0.  1.
         11    1    1    2    0    0 -0.91375835796E+01 -0.48297292283E+02 -0.16426911962E+02  0.51826318721E+02  0.00000000000E+00 0. -1.
<mgrwt>
<rscale>  0 0.12097613E+03</rscale>
<asrwt>0</asrwt>
<pdfrwt beam="2">  1        1 0.23537250E-01 0.12969670E+03</pdfrwt>
<pdfrwt beam="1">  1       -1 0.13093484E-01 0.12969670E+03</pdfrwt>
<totfact> 0.77819676E+03</totfact>
</mgrwt>
</event>
<event>
 7    1  0.8165933E-006  0.3246648E+03  0.7546771E-02  0.1077369E+00
          2   -1    0    0  501    0  0.00000000000E+00  0.00000000000E+00  0.21782690906E+03  0.21782690906E+03  0.00000000000E+00 0.  1.
         -2   -1    0    0    0  501 -0.00000000000E+00 -0.00000000000E+00 -0.43995919918E+03  0.43995919918E+03  0.00000000000E+00 0. -1.
         23    2    1    2    0    0  0.19477655384E+03 -0.17877633527E+03 -0.78706553182E+02  0.30285203921E+03  0.12500300860E+03 0.  0.
          5    1    3    3  502    0  0.64816810310E+02 -0.13669357692E+03 -0.67452061741E+02  0.16570523076E+03  0.47000000000E+01 0.  1.
         -5    1    3    3    0  502  0.12995974353E+03 -0.42082758356E+02 -0.11254491441E+02  0.13714680845E+03  0.47000000000E+01 0.  1.
        -11    1    1    2    0    0 -0.17319231836E+03  0.14925191370E+03 -0.23826924375E+02  0.22986829970E+03  0.00000000000E+00 0.  1.
         11    1    1    2    0    0 -0.21584235487E+02  0.29524421572E+02 -0.11959881256E+03  0.12506576933E+03  0.00000000000E+00 0. -1.
<mgrwt>
<rscale>  0 0.31629173E+03</rscale>
<asrwt>0</asrwt>
<pdfrwt beam="1">  1        2 0.33511833E-01 0.32466483E+03</pdfrwt>
<pdfrwt beam="2">  1       -2 0.67686029E-01 0.32466483E+03</pdfrwt>
<totfact> 0.31934365E+02</totfact>
</mgrwt>
</event>
<event>
 7    1  0.8165933E-006  0.1270909E+03  0.7546771E-02  0.1247180E+00
          1   -1    0    0  501    0  0.00000000000E+00  0.00000000000E+00  0.10026650367E+03  0.10026650367E+03  0.00000000000E+00 0. -1.
         -1   -1    0    0    0  501 -0.00000000000E+00 -0.00000000000E+00 -0.16782771971E+03  0.16782771971E+03  0.00000000000E+00 0.  1.
         23    2    1    2    0    0 -0.51654452248E+01  0.22392457730E+02  0.32785147617E+02  0.13125154051E+03  0.12499598792E+03 0.  0.
          5    1    3    3  502    0 -0.42824313143E+02 -0.25809482845E+02 -0.16174240170E+02  0.52761228625E+02  0.47000000000E+01 0.  1.
         -5    1    3    3    0  502  0.37658867918E+02  0.48201940575E+02  0.48959387786E+02  0.78490311890E+02  0.47000000000E+01 0.  1.
        -11    1    1    2    0    0  0.28696887578E+02 -0.38245326230E+02 -0.20352168727E+02  0.51965633904E+02  0.00000000000E+00 0. -1.
         11    1    1    2    0    0 -0.23531442353E+02  0.15852868500E+02 -0.79994194923E+02  0.84877048961E+02  0.00000000000E+00 0.  1.
<mgrwt>
<rscale>  0 0.11755845E+03</rscale>
<asrwt>0</asrwt>
<pdfrwt beam="1">  1        1 0.15425616E-01 0.12709092E+03</pdfrwt>
<pdfrwt beam="2">  1       -1 0.25819649E-01 0.12709092E+03</pdfrwt>
<totfact> 0.45107501E+03</totfact>
</mgrwt>
</event>
<event>
 6    1  0.8165933E-006  0.2234236E+03  0.7546771E-02  0.1161199E+00
         -1   -1    0    0    0  501 -0.00000000000E+00  0.00000000000E+00  0.45906634037E+02  0.45906634037E+02  0.00000000000E+00 0.  1.
          1   -1    0    0  501    0  0.00000000000E+00 -0.00000000000E+00 -0.74335147034E+03  0.74335147034E+03  0.00000000000E+00 0. -1.
          5    1    1    2  502    0  0.52576708277E+02 -0.83316114429E+02 -0.57346942203E+03  0.58188929633E+03  0.47000000000E+01 0. -1.
         -5    1    1    2    0  502  0.44646794817E+01  0.55733254083E+02 -0.34580763098E+02  0.65909393488E+02  0.47000000000E+01 0.  1.
        -11    1    1    2    0    0  0.11513608564E+02  0.29856671911E+02 -0.44962071172E+01  0.32314082351E+02  0.00000000000E+00 0. -1.
         11    1    1    2    0    0 -0.68554996323E+02 -0.22738115637E+01 -0.84898444055E+02  0.10914533221E+03  0.00000000000E+00 0.  1.
<mgrwt>
<rscale>  0 0.18699586E+03</rscale>
<asrwt>0</asrwt>
<pdfrwt beam="2">  1        1 0.11436175E+00 0.22342362E+03</pdfrwt>
<pdfrwt beam="1">  1       -1 0.70625599E-02 0.22342362E+03</pdfrwt>
<totfact> 0.26715870E+03</totfact>
</mgrwt>
</event>
<event>
 7    1  0.8165933E-006  0.2211945E+03  0.7546771E-02  0.1136560E+00
          2   -1    0    0  501    0  0.00000000000E+00  0.00000000000E+00  0.83377673353E+03  0.83377673353E+03  0.00000000000E+00 0. -1.
         -2   -1    0    0    0  501 -0.00000000000E+00 -0.00000000000E+00 -0.77152994616E+02  0.77152994616E+02  0.00000000000E+00 0.  1.
         23    2    1    2    0    0 -0.10105517004E+03 -0.15195347452E+03  0.63963009898E+03  0.67679662758E+03  0.12500002307E+03 0.  0.
          5    1    3    3  502    0 -0.31257735061E+02 -0.12173854148E+03  0.51971658769E+03  0.53471930955E+03  0.47000000000E+01 0. -1.
         -5    1    3    3    0  502 -0.69797434979E+02 -0.30214933035E+02  0.11991351129E+03  0.14207731803E+03  0.47000000000E+01 0. -1.
        -11    1    1    2    0    0  0.45477876193E+02  0.59276040470E+02 -0.21149029592E+00  0.74712321106E+02  0.00000000000E+00 0.  1.
         11    1    1    2    0    0  0.55577293847E+02  0.92677434049E+02  0.11720513023E+03  0.15942077947E+03  0.00000000000E+00 0. -1.
<mgrwt>
<rscale>  0 0.21644704E+03</rscale>
<asrwt>0</asrwt>
<pdfrwt beam="1">  1        2 0.12827334E+00 0.22119451E+03</pdfrwt>
<pdfrwt beam="2">  1       -2 0.11869692E-01 0.22119451E+03</pdfrwt>
<totfact> 0.16890426E+03</totfact>
</mgrwt>
</event>
<event>
 7    1  0.8165933E-006  0.1659437E+03  0.7546771E-02  0.1189002E+00
          1   -1    0    0  501    0  0.00000000000E+00  0.00000000000E+00  0.10975489106E+04  0.10975489106E+04  0.00000000000E+00 0. -1.
         -1   -1    0    0    0  501 -0.00000000000E+00 -0.00000000000E+00 -0.39248970907E+02  0.39248970907E+02  0.00000000000E+00 0.  1.
         23    2    1    2    0    0 -0.18823227862E+02 -0.10751867915E+03  0.93125351936E+03  0.94592304992E+03  0.12499087482E+03 0.  0.
          5    1    3    3  502    0 -0.68748051932E+01 -0.79483987983E+02  0.89399407438E+03  0.89755916926E+03  0.47000000000E+01 0.  1.
         -5    1    3    3    0  502 -0.11948422669E+02 -0.28034691166E+02  0.37259444978E+02  0.48363880666E+02  0.47000000000E+01 0.  1.
        -11    1    1    2    0    0  0.10755763888E+02  0.11716027908E+03  0.13247834391E+03  0.17717993413E+03  0.00000000000E+00 0. -1.
         11    1    1    2    0    0  0.80674639742E+01 -0.96415999317E+01 -0.54319235352E+01  0.13694897499E+02  0.00000000000E+00 0.  1.
<mgrwt>
<rscale>  0 0.15973026E+03</rscale>
<asrwt>0</asrwt>
<pdfrwt beam="1">  1        1 0.16885366E+00 0.16594366E+03</pdfrwt>
<pdfrwt beam="2">  1       -1 0.60383040E-02 0.16594366E+03</pdfrwt>
<totfact> 0.17882245E+03</totfact>
</mgrwt>
</event>
<event>
 7    1  0.8165933E-006  0.1278870E+03  0.7546771E-02  0.1238738E+00
         -1   -1    0    0    0  501 -0.00000000000E+00  0.00000000000E+00  0.18854061636E+02  0.18854061636E+02  0.00000000000E+00 0.  1.
          1   -1    0    0  501    0  0.00000000000E+00 -0.00000000000E+00 -0.16582361383E+04  0.16582361383E+04  0.00000000000E+00 0. -1.
         23    2    1    2    0    0  0.52900612518E+01 -0.57750770117E+02 -0.14731512802E+04  0.14786919144E+04  0.11398222229E+03 0.  0.
          5    1    3    3  502    0 -0.50812043848E+02 -0.30455658198E+02 -0.94112608283E+03  0.94300042667E+03  0.47000000000E+01 0. -1.
         -5    1    3    3    0  502  0.56102105100E+02 -0.27295111920E+02 -0.53202519742E+03  0.53569148772E+03  0.47000000000E+01 0.  1.
        -11    1    1    2    0    0 -0.40184607586E+02  0.53005062730E+02 -0.73106097560E+02  0.98837446660E+02  0.00000000000E+00 0.  1.
         11    1    1    2    0    0  0.34894546334E+02  0.47457073871E+01 -0.93124698886E+02  0.99560838913E+02  0.00000000000E+00 0. -1.
<mgrwt>
<rscale>  0 0.12268129E+03</rscale>
<asrwt>0</asrwt>
<pdfrwt beam="2">  1        1 0.25511318E+00 0.12788699E+03</pdfrwt>
<pdfrwt beam="1">  1       -1 0.29006257E-02 0.12788699E+03</pdfrwt>
<totfact> 0.22278545E+03</totfact>
</mgrwt>
</event>
<event>
 6    1  0.8165933E-006  0.1307799E+03  0.7546771E-02  0.1272993E+00
         -2   -1    0    0    0  501 -0.00000000000E+00  0.00000000000E+00  0.59815318051E+01  0.59815318051E+01  0.00000000000E+00 0.  1.
          2   -1    0    0  501    0  0.00000000000E+00 -0.00000000000E+00 -0.15162803318E+04  0.15162803318E+04  0.00000000000E+00 0. -1.
          5    1    1    2  502    0  0.43806539523E+02 -0.41559883350E+02 -0.10710539074E+04  0.10727650252E+04  0.47000000000E+01 0. -1.
         -5    1    1    2    0  502 -0.17136252604E+02  0.40052364704E+02 -0.18684547570E+03  0.19191447278E+03  0.47000000000E+01 0.  1.
        -11    1    1    2    0    0 -0.37781163954E+02  0.75883684973E+01 -0.19950079135E+03  0.20318849730E+03  0.00000000000E+00 0.  1.
         11    1    1    2    0    0  0.11110877034E+02 -0.60808498509E+01 -0.52898625564E+02  0.54393868312E+02  0.00000000000E+00 0. -1.
<mgrwt>
<rscale>  0 0.10355525E+03</rscale>
<asrwt>0</asrwt>
<pdfrwt beam="2">  1        2 0.23327415E+00 0.13077987E+03</pdfrwt>
<pdfrwt beam="1">  1       -2 0.92023466E-03 0.13077987E+03</pdfrwt>
<totfact> 0.30732258E+04</totfact>
</mgrwt>
</event>
<event>
 7    1  0.8165933E-006  0.1747891E+03  0.7546771E-02  0.1180169E+00
         -2   -1    0    0    0  501 -0.00000000000E+00  0.00000000000E+00  0.63883595134E+03  0.63883595134E+03  0.00000000000E+00 0.  1.
          2   -1    0    0  501    0  0.00000000000E+00 -0.00000000000E+00 -0.47745251733E+02  0.47745251733E+02  0.00000000000E+00 0. -1.
         23    2    1    2    0    0  0.10701520252E+03  0.58914351086E+02  0.18642979753E+03  0.25555293478E+03  0.12501231434E+03 0.  0.
          5    1    3    3  502    0  0.37359733099E+02  0.30766581858E+02  0.17221471739E+03  0.17894784464E+03  0.47000000000E+01 0.  1.
         -5    1    3    3    0  502  0.69655469420E+02  0.28147769228E+02  0.14215080142E+02  0.76605090145E+02  0.47000000000E+01 0.  1.
        -11    1    1    2    0    0 -0.37216834150E+02 -0.56976909536E+02  0.27992160451E+03  0.28807562486E+03  0.00000000000E+00 0.  1.
         11    1    1    2    0    0 -0.69798368368E+02 -0.19374415499E+01  0.12473929757E+03  0.14295264344E+03  0.00000000000E+00 0. -1.
<mgrwt>
<rscale>  0 0.16779334E+03</rscale>
<asrwt>0</asrwt>
<pdfrwt beam="2">  1        2 0.73454238E-02 0.17478911E+03</pdfrwt>
<pdfrwt beam="1">  1       -2 0.98282448E-01 0.17478911E+03</pdfrwt>
<totfact> 0.83511185E+02</totfact>
</mgrwt>
</event>
<event>
 7    1  0.8165933E-006  0.2063576E+03  0.7546771E-02  0.1150219E+00
          2   -1    0    0  501    0  0.00000000000E+00  0.00000000000E+00  0.76800747927E+02  0.76800747927E+02  0.00000000000E+00 0. -1.
         -2   -1    0    0    0  501 -0.00000000000E+00 -0.00000000000E+00 -0.51867547967E+03  0.51867547967E+03  0.00000000000E+00 0.  1.
         23    2    1    2    0    0  0.16131341721E+03  0.30601374731E+02 -0.30966730985E+03  0.37212537939E+03  0.12499996996E+03 0.  0.
          5    1    3    3  502    0  0.16745989822E+03  0.48177363538E+02 -0.22136773406E+03  0.28176167154E+03  0.47000000000E+01 0. -1.
         -5    1    3    3    0  502 -0.61464810050E+01 -0.17575988807E+02 -0.88299575791E+02  0.90363707849E+02  0.47000000000E+01 0. -1.
        -11    1    1    2    0    0 -0.78618183320E+02 -0.49924771356E+02 -0.85524762998E+02  0.12644281960E+03  0.00000000000E+00 0.  1.
         11    1    1    2    0    0 -0.82695233893E+02  0.19323396625E+02 -0.46682658899E+02  0.96908028602E+02  0.00000000000E+00 0. -1.
<mgrwt>
<rscale>  0 0.19943200E+03</rscale>
<asrwt>0</asrwt>
<pdfrwt beam="1">  1        2 0.11815500E-01 0.20635759E+03</pdfrwt>
<pdfrwt beam="2">  1       -2 0.79796223E-01 0.20635759E+03</pdfrwt>
<totfact> 0.74137642E+02</totfact>
</mgrwt>
</event>
<event>
 7    1  0.8165933E-006  0.2666615E+03  0.7546771E-02  0.1105361E+00
          1   -1    0    0  501    0  0.00000000000E+00  0.00000000000E+00  0.38597775539E+03  0.38597775539E+03  0.00000000000E+00 0. -1.
         -1   -1    0    0    0  501 -0.00000000000E+00 -0.00000000000E+00 -0.19930532382E+03  0.19930532382E+03  0.00000000000E+00 0.  1.
         23    2    1    2    0    0 -0.89235317179E+02  0.21799271181E+03  0.19897658895E+03  0.33271614123E+03  0.12499833377E+03 0.  0.
          5    1    3    3  502    0 -0.85256804143E+01  0.74164428337E+02  0.13771296493E+03  0.15671630537E+03  0.47000000000E+01 0. -1.
         -5    1    3    3    0  502 -0.80709636765E+02  0.14382828347E+03  0.61263624018E+02  0.17599983586E+03  0.47000000000E+01 0. -1.
        -11    1    1    2    0    0  0.56778883107E+02 -0.18393256977E+03  0.22832800756E+02  0.19384624985E+03  0.00000000000E+00 0.  1.
         11    1    1    2    0    0  0.32456434072E+02 -0.34060142039E+02 -0.35136958131E+02  0.58720688135E+02  0.00000000000E+00 0. -1.
<mgrwt>
<rscale>  0 0.26298765E+03</rscale>
<asrwt>0</asrwt>
<pdfrwt beam="1">  1        1 0.59381193E-01 0.26666149E+03</pdfrwt>
<pdfrwt beam="2">  1       -1 0.30662358E-01 0.26666149E+03</pdfrwt>
<totfact> 0.62704993E+02</totfact>
</mgrwt>
</event>
<event>
 7    1  0.8165933E-006  0.1405603E+03  0.7546771E-02  0.1220077E+00
         -2   -1    0    0    0  501 -0.00000000000E+00  0.00000000000E+00  0.57100338954E+02  0.57100338954E+02  0.00000000000E+00 0. -1.
          2   -1    0    0  501    0  0.00000000000E+00 -0.00000000000E+00 -0.30393870981E+03  0.30393870981E+03  0.00000000000E+00 0.  1.
         23    2    1    2    0    0  0.14449533216E+02  0.62641374354E+02 -0.15982403175E+03  0.21284012525E+03  0.12499786799E+03 0.  0.
          5    1    3    3  502    0  0.33460660745E+02 -0.70968622733E+01 -0.12999680722E+03  0.13450368456E+03  0.47000000000E+01 0. -1.
         -5    1    3    3    0  502 -0.19011127530E+02  0.69738236628E+02 -0.29827224528E+02  0.78336440696E+02  0.47000000000E+01 0. -1.
        -11    1    1    2    0    0 -0.55791370641E+01 -0.75114723392E+02 -0.10198798151E+03  0.12678681640E+03  0.00000000000E+00 0.  1.
         11    1    1    2    0    0 -0.88703961516E+01  0.12473349037E+02  0.14973642403E+02  0.21412107110E+02  0.00000000000E+00 0. -1.
<mgrwt>
<rscale>  0 0.13510144E+03</rscale>
<asrwt>0</asrwt>
<pdfrwt beam="2">  1        2 0.46759801E-01 0.14056030E+03</pdfrwt>
<pdfrwt beam="1">  1       -2 0.87846677E-02 0.14056030E+03</pdfrwt>
<totfact> 0.83690964E+03</totfact>
</mgrwt>
</event>
<event>
 7    1  0.8165933E-006  0.1386561E+03  0.7546771E-02  0.1228579E+00
          2   -1    0    0  501    0  0.00000000000E+00  0.00000000000E+00  0.97106663045E+03  0.97106663045E+03  0.00000000000E+00 0. -1.
         -2   -1    0    0    0  501 -0.00000000000E+00 -0.00000000000E+00 -0.15325082265E+02  0.15325082265E+02  0.00000000000E+00 0.  1.
         23    2    1    2    0    0  0.55751148184E+02 -0.19912426700E+02  0.50864942297E+03  0.52720938778E+03  0.12538264561E+03 0.  0.
          5    1    3    3  502    0  0.13906657750E+02  0.52706219093E+02  0.20120742511E+03  0.20851344939E+03  0.47000000000E+01 0.  1.
         -5    1    3    3    0  502  0.41844490434E+02 -0.72618645792E+02  0.30744199786E+03  0.31869593839E+03  0.47000000000E+01 0.  1.
        -11    1    1    2    0    0 -0.67731032403E+01  0.47392154085E+02  0.18065148466E+03  0.18688726576E+03  0.00000000000E+00 0.  1.
         11    1    1    2    0    0 -0.48978044944E+02 -0.27479727386E+02  0.26644064057E+03  0.27229505917E+03  0.00000000000E+00 0. -1.
<mgrwt>
<rscale>  0 0.12924561E+03</rscale>
<asrwt>0</asrwt>
<pdfrwt beam="1">  1        2 0.14939482E+00 0.13865606E+03</pdfrwt>
<pdfrwt beam="2">  1       -2 0.23577057E-02 0.13865606E+03</pdfrwt>
<totfact> 0.15889138E+04</totfact>
</mgrwt>
</event>
<event>
 7    1  0.8165933E-006  0.1264047E+03  0.7546771E-02  0.1250133E+00
          2   -1    0    0  501    0  0.00000000000E+00  0.00000000000E+00  0.51966690840E+03  0.51966690840E+03  0.00000000000E+00 0. -1.
         -2   -1    0    0    0  501 -0.00000000000E+00 -0.00000000000E+00 -0.26374759629E+02  0.26374759629E+02  0.00000000000E+00 0.  1.
         23    2    1    2    0    0 -0.12042633723E+01  0.18805195414E+02  0.38808092311E+03  0.40814818444E+03  0.12499220755E+03 0.  0.
          5    1    3    3  502    0 -0.39847780981E+02  0.46803489016E+02  0.11119635924E+03  0.12714217452E+03  0.47000000000E+01 0. -1.
         -5    1    3    3    0  502  0.38643517608E+02 -0.27998293602E+02  0.27688456387E+03  0.28100600992E+03  0.47000000000E+01 0. -1.
        -11    1    1    2    0    0  0.21925006335E+02 -0.86781229468E+00 -0.64879660584E+01  0.22881274102E+02  0.00000000000E+00 0.  1.
         11    1    1    2    0    0 -0.20720742963E+02 -0.17937383120E+02  0.11169919172E+03  0.11501220949E+03  0.00000000000E+00 0. -1.
<mgrwt>
<rscale>  0 0.11583385E+03</rscale>
<asrwt>0</asrwt>
<pdfrwt beam="1">  1        2 0.79948748E-01 0.12640466E+03</pdfrwt>
<pdfrwt beam="2">  1       -2 0.40576557E-02 0.12640466E+03</pdfrwt>
<totfact> 0.15071945E+04</totfact>
</mgrwt>
</event>
<event>
 6    1  0.8165933E-006  0.4483786E+03  0.7546771E-02  0.1076412E+00
         -2   -1    0    0    0  501 -0.00000000000E+00  0.00000000000E+00  0.13943430451E+03  0.13943430451E+03  0.00000000000E+00 0.  1.
          2   -1    0    0  501    0  0.00000000000E+00 -0.00000000000E+00 -0.56735618480E+03  0.56735618480E+03  0.00000000000E+00 0. -1.
          5    1    1    2  502    0  0.11067897407E+03  0.15870883903E+03 -0.35443875354E+03  0.40384062562E+03  0.47000000000E+01 0. -1.
         -5    1    1    2    0  502 -0.43087611488E+02 -0.15831747865E+03  0.56237926610E+01  0.16423971308E+03  0.47000000000E+01 0.  1.
        -11    1    1    2    0    0 -0.90424720212E+02  0.39765217193E+01 -0.59706042328E+02  0.10843087310E+03  0.00000000000E+00 0.  1.
         11    1    1    2    0    0  0.22833357635E+02 -0.43678821017E+01 -0.19400877082E+02  0.30279277510E+02  0.00000000000E+00 0. -1.
<mgrwt>
<rscale>  0 0.31834930E+03</rscale>
<asrwt>0</asrwt>
<pdfrwt beam="2">  1        2 0.87285567E-01 0.44837863E+03</pdfrwt>
<pdfrwt beam="1">  1       -2 0.21451431E-01 0.44837863E+03</pdfrwt>
<totfact> 0.10044588E+03</totfact>
</mgrwt>
</event>
<event>
 7    1  0.8165933E-006  0.1411805E+03  0.7546771E-02  0.1222632E+00
         -2   -1    0    0    0  501 -0.00000000000E+00  0.00000000000E+00  0.38472214455E+02  0.38472214455E+02  0.00000000000E+00 0. -1.
          2   -1    0    0  501    0  0.00000000000E+00 -0.00000000000E+00 -0.41738155875E+03  0.41738155875E+03  0.00000000000E+00 0.  1.
         23    2    1    2    0    0  0.52632308148E+02 -0.39197143363E+02 -0.21501780187E+03  0.25722477623E+03  0.12500141790E+03 0.  0.
          5    1    3    3  502    0  0.52032712839E+02 -0.33695421922E+02 -0.23124039934E+03  0.23945145009E+03  0.47000000000E+01 0. -1.
         -5    1    3    3    0  502  0.59959530954E+00 -0.55017214412E+01  0.16222597470E+02  0.17773326139E+02  0.47000000000E+01 0. -1.
        -11    1    1    2    0    0 -0.58765999405E+02 -0.11407256920E+02 -0.72872050247E+02  0.94307496541E+02  0.00000000000E+00 0.  1.
         11    1    1    2    0    0  0.61336912569E+01  0.50604400283E+02 -0.91019492181E+02  0.10432150044E+03  0.00000000000E+00 0. -1.
<mgrwt>
<rscale>  0 0.13330528E+03</rscale>
<asrwt>0</asrwt>
<pdfrwt beam="2">  1        2 0.64212550E-01 0.14118049E+03</pdfrwt>
<pdfrwt beam="1">  1       -2 0.59188020E-02 0.14118049E+03</pdfrwt>
<totfact> 0.10949633E+04</totfact>
</mgrwt>
</event>
<event>
 7    1  0.8165933E-006  0.1493920E+03  0.7546771E-02  0.1203111E+00
          2   -1    0    0  501    0  0.00000000000E+00  0.00000000000E+00  0.10141903388E+03  0.10141903388E+03  0.00000000000E+00 0. -1.
         -2   -1    0    0    0  501 -0.00000000000E+00 -0.00000000000E+00 -0.24229410517E+03  0.24229410517E+03  0.00000000000E+00 0.  1.
         23    2    1    2    0    0 -0.81617395056E+02  0.56229124472E+01 -0.10271077672E+02  0.14974463393E+03  0.12499977614E+03 0.  0.
          5    1    3    3  502    0  0.62777009000E+01 -0.44762727512E+02 -0.15954791165E+02  0.48163852255E+02  0.47000000000E+01 0. -1.
         -5    1    3    3    0  502 -0.87895095956E+02  0.50385639959E+02  0.56837134922E+01  0.10158078168E+03  0.47000000000E+01 0. -1.
        -11    1    1    2    0    0 -0.18597920055E+02  0.21909367298E+02 -0.64990332778E+02  0.71060863774E+02  0.00000000000E+00 0.  1.
         11    1    1    2    0    0  0.10021531511E+03 -0.27532279746E+02 -0.65613660840E+02  0.12290764134E+03  0.00000000000E+00 0. -1.
<mgrwt>
<rscale>  0 0.14787344E+03</rscale>
<asrwt>0</asrwt>
<pdfrwt beam="1">  1        2 0.15602928E-01 0.14939197E+03</pdfrwt>
<pdfrwt beam="2">  1       -2 0.37276016E-01 0.14939197E+03</pdfrwt>
<totfact> 0.24603216E+03</totfact>
</mgrwt>
</event>
<event>
 7    1  0.8165933E-006  0.1273357E+03  0.7546771E-02  0.1245518E+00
          2   -1    0    0  501    0  0.00000000000E+00  0.00000000000E+00  0.36270320586E+03  0.36270320586E+03  0.00000000000E+00 0. -1.
         -2   -1    0    0    0  501 -0.00000000000E+00 -0.00000000000E+00 -0.38475667146E+02  0.38475667146E+02  0.00000000000E+00 0.  1.
         23    2    1    2    0    0  0.19447017211E+02 -0.14520431870E+02  0.24834016712E+03  0.27908282361E+03  0.12500141763E+03 0.  0.
          5    1    3    3  502    0 -0.30495273499E+02 -0.38347479736E+02  0.19834099486E+03  0.20435687204E+03  0.47000000000E+01 0.  1.
         -5    1    3    3    0  502  0.49942290711E+02  0.23827047867E+02  0.49999172253E+02  0.74725951566E+02  0.47000000000E+01 0.  1.
        -11    1    1    2    0    0 -0.38230998683E+02 -0.19744130758E+00  0.87551361829E+02  0.95534753893E+02  0.00000000000E+00 0. -1.
         11    1    1    2    0    0  0.18783981471E+02  0.14717873177E+02 -0.11663990230E+02  0.26561295504E+02  0.00000000000E+00 0.  1.
<mgrwt>
<rscale>  0 0.11854458E+03</rscale>
<asrwt>0</asrwt>
<pdfrwt beam="1">  1        2 0.55800491E-01 0.12733571E+03</pdfrwt>
<pdfrwt beam="2">  1       -2 0.59193336E-02 0.12733571E+03</pdfrwt>
<totfact> 0.12617562E+04</totfact>
</mgrwt>
</event>
<event>
 7    1  0.8165933E-006  0.1490335E+03  0.7546771E-02  0.1210274E+00
         -1   -1    0    0    0  501 -0.00000000000E+00  0.00000000000E+00  0.35381094643E+02  0.35381094643E+02  0.00000000000E+00 0.  1.
          1   -1    0    0  501    0  0.00000000000E+00 -0.00000000000E+00 -0.59698973993E+03  0.59698973993E+03  0.00000000000E+00 0. -1.
         23    2    1    2    0    0 -0.63126921668E+02 -0.50994338720E+02 -0.41213225863E+03  0.43825106029E+03  0.12500224966E+03 0.  0.
          5    1    3    3  502    0  0.28045385758E+02 -0.83755443167E+01 -0.21329365821E+03  0.21534383678E+03  0.47000000000E+01 0.  1.
         -5    1    3    3    0  502 -0.91172307426E+02 -0.42618794403E+02 -0.19883860042E+03  0.22290722352E+03  0.47000000000E+01 0.  1.
        -11    1    1    2    0    0  0.22988642658E+02  0.35312486303E+02 -0.39195987942E+01  0.42317994221E+02  0.00000000000E+00 0.  1.
         11    1    1    2    0    0  0.40138279010E+02  0.15681852417E+02 -0.14555678786E+03  0.15180178006E+03  0.00000000000E+00 0. -1.
<mgrwt>
<rscale>  0 0.14229468E+03</rscale>
<asrwt>0</asrwt>
<pdfrwt beam="2">  1        1 0.91844568E-01 0.14903353E+03</pdfrwt>
<pdfrwt beam="1">  1       -1 0.54432458E-02 0.14903353E+03</pdfrwt>
<totfact> 0.53216525E+03</totfact>
</mgrwt>
</event>
<event>
 7    1  0.8165933E-006  0.1473788E+03  0.7546771E-02  0.1213512E+00
          2   -1    0    0  501    0  0.00000000000E+00  0.00000000000E+00  0.12854033818E+04  0.12854033818E+04  0.00000000000E+00 0. -1.
         -2   -1    0    0    0  501 -0.00000000000E+00 -0.00000000000E+00 -0.19004091310E+02  0.19004091310E+02  0.00000000000E+00 0.  1.
         23    2    1    2    0    0  0.30184637758E+01 -0.78015979323E+02  0.10194262382E+04  0.10300244451E+04  0.12499959336E+03 0.  0.
          5    1    3    3  502    0 -0.12977690395E+02 -0.41080971947E+01  0.94819275243E+01  0.17242211579E+02  0.47000000000E+01 0. -1.
         -5    1    3    3    0  502  0.15996154171E+02 -0.73907882128E+02  0.10099443106E+04  0.10127822335E+04  0.47000000000E+01 0. -1.
        -11    1    1    2    0    0 -0.26191572066E+02  0.80854820448E+02  0.13151092719E+03  0.15658424061E+03  0.00000000000E+00 0.  1.
         11    1    1    2    0    0  0.23173108291E+02 -0.28388411248E+01  0.11546212512E+03  0.11779878736E+03  0.00000000000E+00 0. -1.
<mgrwt>
<rscale>  0 0.13986421E+03</rscale>
<asrwt>0</asrwt>
<pdfrwt beam="1">  1        2 0.19775430E+00 0.14737877E+03</pdfrwt>
<pdfrwt beam="2">  1       -2 0.29237073E-02 0.14737877E+03</pdfrwt>
<totfact> 0.76982954E+03</totfact>
</mgrwt>
</event>
<event>
 7    1  0.8165933E-006  0.1298576E+03  0.7546771E-02  0.1242420E+00
         -2   -1    0    0    0  501 -0.00000000000E+00  0.00000000000E+00  0.35287746916E+02  0.35287746916E+02  0.00000000000E+00 0.  1.
          2   -1    0    0  501    0  0.00000000000E+00 -0.00000000000E+00 -0.39010642201E+03  0.39010642201E+03  0.00000000000E+00 0. -1.
         23    2    1    2    0    0 -0.99934287673E+00 -0.35311531632E+02 -0.25914699423E+03  0.28986233090E+03  0.12496040695E+03 0.  0.
          5    1    3    3  502    0 -0.53397413664E+02 -0.16742547976E+01 -0.18654656831E+03  0.19410254781E+03  0.47000000000E+01 0.  1.
         -5    1    3    3    0  502  0.52398070787E+02 -0.33637276834E+02 -0.72600425914E+02  0.95759783092E+02  0.47000000000E+01 0.  1.
        -11    1    1    2    0    0  0.31957605362E+02  0.10062226163E+02 -0.88911461532E+02  0.95014656383E+02  0.00000000000E+00 0. -1.
         11    1    1    2    0    0 -0.30958262486E+02  0.25249305469E+02 -0.67602193319E+01  0.40517181642E+02  0.00000000000E+00 0.  1.
<mgrwt>
<rscale>  0 0.12041132E+03</rscale>
<asrwt>0</asrwt>
<pdfrwt beam="2">  1        2 0.60016373E-01 0.12985764E+03</pdfrwt>
<pdfrwt beam="1">  1       -2 0.54288841E-02 0.12985764E+03</pdfrwt>
<totfact> 0.13327198E+04</totfact>
</mgrwt>
</event>
<event>
 7    1  0.8165933E-006  0.1486944E+03  0.7546771E-02  0.1212051E+00
         -2   -1    0    0    0  501 -0.00000000000E+00  0.00000000000E+00  0.62190629828E+02  0.62190629828E+02  0.00000000000E+00 0. -1.
          2   -1    0    0  501    0  0.00000000000E+00 -0.00000000000E+00 -0.29077109113E+03  0.29077109113E+03  0.00000000000E+00 0.  1.
         23    2    1    2    0    0 -0.79823819142E+02  0.10648584695E+02 -0.13295096985E+03  0.19946424233E+03  0.12499915650E+03 0.  0.
          5    1    3    3  502    0 -0.12088231887E+02 -0.11218569849E+02  0.22581008392E+02  0.28354428219E+02  0.47000000000E+01 0. -1.
         -5    1    3    3    0  502 -0.67735587255E+02  0.21867154543E+02 -0.15553197824E+03  0.17110981411E+03  0.47000000000E+01 0. -1.
        -11    1    1    2    0    0  0.42123660031E+02  0.82969480751E+01 -0.10214837156E+03  0.11080402472E+03  0.00000000000E+00 0. -1.
         11    1    1    2    0    0  0.37700159111E+02 -0.18945532770E+02  0.65188801082E+01  0.42693453911E+02  0.00000000000E+00 0.  1.
<mgrwt>
<rscale>  0 0.14095430E+03</rscale>
<asrwt>0</asrwt>
<pdfrwt beam="2">  1        2 0.44734014E-01 0.14869440E+03</pdfrwt>
<pdfrwt beam="1">  1       -2 0.95677892E-02 0.14869440E+03</pdfrwt>
<totfact> 0.77053275E+03</totfact>
</mgrwt>
</event>
<event>
 7    1  0.8165933E-006  0.1389904E+03  0.7546771E-02  0.1225554E+00
          1   -1    0    0  501    0  0.00000000000E+00  0.00000000000E+00  0.12476082053E+03  0.12476082053E+03  0.00000000000E+00 0. -1.
         -1   -1    0    0    0  501 -0.00000000000E+00 -0.00000000000E+00 -0.12687594025E+03  0.12687594025E+03  0.00000000000E+00 0.  1.
         23    2    1    2    0    0  0.57793557709E+02  0.18787960809E+02  0.14481596033E+02  0.13974277553E+03  0.12500097561E+03 0.  0.
          5    1    3    3  502    0 -0.12878201242E+01 -0.22463869281E+02 -0.42125511471E+02  0.47988880175E+02  0.47000000000E+01 0. -1.
         -5    1    3    3    0  502  0.59081377833E+02  0.41251830090E+02  0.56607107504E+02  0.91753895352E+02  0.47000000000E+01 0. -1.
        -11    1    1    2    0    0 -0.46217431281E+01  0.34366542820E+02  0.95227025603E+00  0.34688998164E+02  0.00000000000E+00 0. -1.
         11    1    1    2    0    0 -0.53171814580E+02 -0.53154503629E+02 -0.17548986008E+02  0.77204987091E+02  0.00000000000E+00 0.  1.
<mgrwt>
<rscale>  0 0.13129028E+03</rscale>
<asrwt>0</asrwt>
<pdfrwt beam="1">  1        1 0.19193972E-01 0.13899038E+03</pdfrwt>
<pdfrwt beam="2">  1       -1 0.19519375E-01 0.13899038E+03</pdfrwt>
<totfact> 0.53975885E+03</totfact>
</mgrwt>
</event>
<event>
 7    1  0.8165933E-006  0.2843105E+03  0.7546771E-02  0.1095214E+00
         -1   -1    0    0    0  501 -0.00000000000E+00  0.00000000000E+00  0.99315924317E+02  0.99315924317E+02  0.00000000000E+00 0.  1.
          1   -1    0    0  501    0  0.00000000000E+00 -0.00000000000E+00 -0.77639067514E+03  0.77639067514E+03  0.00000000000E+00 0. -1.
         23    2    1    2    0    0  0.19264596617E+03 -0.16761462830E+03 -0.36010530306E+03  0.45881182410E+03  0.12500131496E+03 0.  0.
          5    1    3    3  502    0  0.59861300599E+02 -0.27663458168E+02 -0.22300031565E+02  0.69771223546E+02  0.47000000000E+01 0.  1.
         -5    1    3    3    0  502  0.13278466557E+03 -0.13995117013E+03 -0.33780527149E+03  0.38904060055E+03  0.47000000000E+01 0.  1.
        -11    1    1    2    0    0 -0.56353387370E+01 -0.10873664797E+02 -0.15745313066E+02  0.19947644281E+02  0.00000000000E+00 0.  1.
         11    1    1    2    0    0 -0.18701062743E+03  0.17848829310E+03 -0.30122413469E+03  0.39694713107E+03  0.00000000000E+00 0. -1.
<mgrwt>
<rscale>  0 0.28087047E+03</rscale>
<asrwt>0</asrwt>
<pdfrwt beam="2">  1        1 0.11944472E+00 0.28431050E+03</pdfrwt>
<pdfrwt beam="1">  1       -1 0.15279374E-01 0.28431050E+03</pdfrwt>
<totfact> 0.75493931E+02</totfact>
</mgrwt>
</event>
<event>
 7    1  0.8165933E-006  0.1269887E+03  0.7546771E-02  0.1248302E+00
          1   -1    0    0  501    0  0.00000000000E+00  0.00000000000E+00  0.53547453544E+02  0.53547453544E+02  0.00000000000E+00 0. -1.
         -1   -1    0    0    0  501 -0.00000000000E+00 -0.00000000000E+00 -0.22649306280E+03  0.22649306280E+03  0.00000000000E+00 0.  1.
         23    2    1    2    0    0 -0.11217966136E+02  0.19392597647E+02 -0.81466412974E+02  0.15087378792E+03  0.12499683128E+03 0.  0.
          5    1    3    3  502    0 -0.10627921744E+02  0.30226555665E+02 -0.11281422516E+03  0.11737008472E+03  0.47000000000E+01 0. -1.
         -5    1    3    3    0  502 -0.59004439139E+00 -0.10833958019E+02  0.31347812190E+02  0.33503703196E+02  0.47000000000E+01 0. -1.
        -11    1    1    2    0    0 -0.24227135109E+02  0.23628791669E+02 -0.46661646851E+02  0.57641852487E+02  0.00000000000E+00 0.  1.
         11    1    1    2    0    0  0.35445101245E+02 -0.43021389315E+02 -0.44817549426E+02  0.71524875935E+02  0.00000000000E+00 0. -1.
<mgrwt>
<rscale>  0 0.11689891E+03</rscale>
<asrwt>0</asrwt>
<pdfrwt beam="1">  1        1 0.82380699E-02 0.12698867E+03</pdfrwt>
<pdfrwt beam="2">  1       -1 0.34845086E-01 0.12698867E+03</pdfrwt>
<totfact> 0.62193980E+03</totfact>
</mgrwt>
</event>
<event>
 7    1  0.8165933E-006  0.1488120E+03  0.7546771E-02  0.1211515E+00
          2   -1    0    0  501    0  0.00000000000E+00  0.00000000000E+00  0.52459272397E+02  0.52459272397E+02  0.00000000000E+00 0.  1.
         -2   -1    0    0    0  501 -0.00000000000E+00 -0.00000000000E+00 -0.36691706080E+03  0.36691706080E+03  0.00000000000E+00 0. -1.
         23    2    1    2    0    0  0.37525467173E+02  0.71537992563E+02 -0.12427142131E+03  0.19387728563E+03  0.12497668047E+03 0.  0.
          5    1    3    3  502    0  0.27586060706E+02  0.83572267735E+02 -0.22704208915E+02  0.91010360850E+02  0.47000000000E+01 0.  1.
         -5    1    3    3    0  502  0.99394064668E+01 -0.12034275172E+02 -0.10156721239E+03  0.10286692478E+03  0.47000000000E+01 0.  1.
        -11    1    1    2    0    0 -0.12229281904E+02 -0.83551819437E+01  0.73734663117E+01  0.16544860430E+02  0.00000000000E+00 0.  1.
         11    1    1    2    0    0 -0.25296185269E+02 -0.63182810619E+02 -0.19755983340E+03  0.20895418713E+03  0.00000000000E+00 0. -1.
<mgrwt>
<rscale>  0 0.14135639E+03</rscale>
<asrwt>0</asrwt>
<pdfrwt beam="1">  1        2 0.80706572E-02 0.14881201E+03</pdfrwt>
<pdfrwt beam="2">  1       -2 0.56448779E-01 0.14881201E+03</pdfrwt>
<totfact> 0.24394882E+03</totfact>
</mgrwt>
</event>
<event>
 7    1  0.8165933E-006  0.1275869E+03  0.7546771E-02  0.1245315E+00
          3   -1    0    0  501    0  0.00000000000E+00  0.00000000000E+00  0.25166536338E+02  0.25166536338E+02  0.00000000000E+00 0. -1.
         -3   -1    0    0    0  501 -0.00000000000E+00 -0.00000000000E+00 -0.49740507891E+03  0.49740507891E+03  0.00000000000E+00 0.  1.
         23    2    1    2    0    0  0.16658892667E+02 -0.19409331307E+02 -0.24935925513E+03  0.28010437679E+03  0.12499673168E+03 0.  0.
          5    1    3    3  502    0 -0.54285076316E+02 -0.29737960537E+01 -0.11030916092E+03  0.12306873672E+03  0.47000000000E+01 0.  1.
         -5    1    3    3    0  502  0.70943968983E+02 -0.16435535253E+02 -0.13905009420E+03  0.15703564007E+03  0.47000000000E+01 0.  1.
        -11    1    1    2    0    0 -0.11774904038E+02  0.51276316332E+02 -0.18687006671E+03  0.19413482638E+03  0.00000000000E+00 0.  1.
         11    1    1    2    0    0 -0.48839886286E+01 -0.31866985025E+02 -0.36009220737E+02  0.48332412081E+02  0.00000000000E+00 0. -1.
<mgrwt>
<rscale>  0 0.11866573E+03</rscale>
<asrwt>0</asrwt>
<pdfrwt beam="1">  1        3 0.38717751E-02 0.12758693E+03</pdfrwt>
<pdfrwt beam="2">  1       -3 0.76523853E-01 0.12758693E+03</pdfrwt>
<totfact> 0.12795294E+03</totfact>
</mgrwt>
</event>
<event>
 7    1  0.8165933E-006  0.1412698E+03  0.7546771E-02  0.1221952E+00
          1   -1    0    0  501    0  0.00000000000E+00  0.00000000000E+00  0.62051163045E+03  0.62051163045E+03  0.00000000000E+00 0. -1.
         -1   -1    0    0    0  501 -0.00000000000E+00 -0.00000000000E+00 -0.31565703219E+02  0.31565703219E+02  0.00000000000E+00 0.  1.
         23    2    1    2    0    0 -0.22167549942E+02 -0.61944250646E+02  0.45506141407E+03  0.47648508666E+03  0.12501462626E+03 0.  0.
          5    1    3    3  502    0 -0.61897066575E+02 -0.12443083068E+02  0.12255087272E+03  0.13793797001E+03  0.47000000000E+01 0.  1.
         -5    1    3    3    0  502  0.39729516633E+02 -0.49501167578E+02  0.33251054135E+03  0.33854711665E+03  0.47000000000E+01 0.  1.
        -11    1    1    2    0    0  0.54372138338E+02  0.47532730098E+02  0.11439647126E+03  0.13528578083E+03  0.00000000000E+00 0. -1.
         11    1    1    2    0    0 -0.32204588396E+02  0.14411520548E+02  0.19488041897E+02  0.40306466172E+02  0.00000000000E+00 0.  1.
<mgrwt>
<rscale>  0 0.13378040E+03</rscale>
<asrwt>0</asrwt>
<pdfrwt beam="1">  1        1 0.95463318E-01 0.14126977E+03</pdfrwt>
<pdfrwt beam="2">  1       -1 0.48562625E-02 0.14126977E+03</pdfrwt>
<totfact> 0.59618784E+03</totfact>
</mgrwt>
</event>
<event>
 7    1  0.8165933E-006  0.1289317E+03  0.7546771E-02  0.1242611E+00
          2   -1    0    0  501    0  0.00000000000E+00  0.00000000000E+00  0.26720448942E+02  0.26720448942E+02  0.00000000000E+00 0. -1.
         -2   -1    0    0    0  501 -0.00000000000E+00 -0.00000000000E+00 -0.49845865994E+03  0.49845865994E+03  0.00000000000E+00 0.  1.
         23    2    1    2    0    0 -0.17962199057E+02 -0.26059114168E+02 -0.31649908245E+03  0.34175291103E+03  0.12498665923E+03 0.  0.
          5    1    3    3  502    0 -0.30661482202E+02 -0.42892808329E+02 -0.31572850073E+03  0.32013512096E+03  0.47000000000E+01 0.  1.
         -5    1    3    3    0  502  0.12699283145E+02  0.16833694161E+02 -0.77058171407E+00  0.21617790074E+02  0.47000000000E+01 0.  1.
        -11    1    1    2    0    0  0.29444254928E+02 -0.26045682870E+02 -0.38269918932E+02  0.54862814725E+02  0.00000000000E+00 0. -1.
         11    1    1    2    0    0 -0.11482055871E+02  0.52104797038E+02 -0.11696920962E+03  0.12856338313E+03  0.00000000000E+00 0.  1.
<mgrwt>
<rscale>  0 0.12029494E+03</rscale>
<asrwt>0</asrwt>
<pdfrwt beam="1">  1        2 0.41108379E-02 0.12893170E+03</pdfrwt>
<pdfrwt beam="2">  1       -2 0.76685955E-01 0.12893170E+03</pdfrwt>
<totfact> 0.30382575E+03</totfact>
</mgrwt>
</event>
<event>
 7    1  0.8165933E-006  0.1519138E+03  0.7546771E-02  0.1211673E+00
         -1   -1    0    0    0  501 -0.00000000000E+00  0.00000000000E+00  0.15322883298E+03  0.15322883298E+03  0.00000000000E+00 0.  1.
          1   -1    0    0  501    0  0.00000000000E+00 -0.00000000000E+00 -0.13971299486E+03  0.13971299486E+03  0.00000000000E+00 0. -1.
         23    2    1    2    0    0  0.24530547937E+02  0.82770647508E+02 -0.53584429765E+02  0.16108725642E+03  0.12500034079E+03 0.  0.
          5    1    3    3  502    0  0.43986438752E+02  0.30633681462E+02 -0.82269957936E+02  0.98303943017E+02  0.47000000000E+01 0. -1.
         -5    1    3    3    0  502 -0.19455890815E+02  0.52136966046E+02  0.28685528170E+02  0.62783313406E+02  0.47000000000E+01 0. -1.
        -11    1    1    2    0    0 -0.22401048457E+02 -0.61696552362E+02  0.82675719319E+02  0.10556299593E+03  0.00000000000E+00 0. -1.
         11    1    1    2    0    0 -0.21294994803E+01 -0.21074095146E+02 -0.15575451434E+02  0.26291575488E+02  0.00000000000E+00 0.  1.
<mgrwt>
<rscale>  0 0.14123778E+03</rscale>
<asrwt>0</asrwt>
<pdfrwt beam="2">  1        1 0.21494307E-01 0.15191383E+03</pdfrwt>
<pdfrwt beam="1">  1       -1 0.23573667E-01 0.15191383E+03</pdfrwt>
<totfact> 0.34603719E+03</totfact>
</mgrwt>
</event>
<event>
 7    1  0.8165933E-006  0.1326513E+03  0.7546771E-02  0.1237268E+00
          1   -1    0    0  501    0  0.00000000000E+00  0.00000000000E+00  0.18481310281E+03  0.18481310281E+03  0.00000000000E+00 0. -1.
         -1   -1    0    0    0  501 -0.00000000000E+00 -0.00000000000E+00 -0.74001176726E+02  0.74001176726E+02  0.00000000000E+00 0.  1.
         23    2    1    2    0    0  0.83722169122E+01 -0.43617367544E+02  0.76300123281E+02  0.15302965608E+03  0.12499519214E+03 0.  0.
          5    1    3    3  502    0  0.20130460350E+02  0.39541785855E+02  0.95121716838E+01  0.45621920966E+02  0.47000000000E+01 0. -1.
         -5    1    3    3    0  502 -0.11758243437E+02 -0.83159153399E+02  0.66787951598E+02  0.10740773511E+03  0.47000000000E+01 0. -1.
        -11    1    1    2    0    0 -0.10210404322E+02  0.58942489299E+02 -0.81904825090E+01  0.60378418370E+02  0.00000000000E+00 0.  1.
         11    1    1    2    0    0  0.18381874100E+01 -0.15325121755E+02  0.42702285311E+02  0.45406205089E+02  0.00000000000E+00 0. -1.
<mgrwt>
<rscale>  0 0.12360327E+03</rscale>
<asrwt>0</asrwt>
<pdfrwt beam="1">  1        1 0.28432785E-01 0.13265130E+03</pdfrwt>
<pdfrwt beam="2">  1       -1 0.11384796E-01 0.13265130E+03</pdfrwt>
<totfact> 0.76354596E+03</totfact>
</mgrwt>
</event>
<event>
 7    1  0.8165933E-006  0.1295643E+03  0.7546771E-02  0.1242272E+00
          2   -1    0    0  501    0  0.00000000000E+00  0.00000000000E+00  0.32403819926E+03  0.32403819926E+03  0.00000000000E+00 0. -1.
         -2   -1    0    0    0  501 -0.00000000000E+00 -0.00000000000E+00 -0.39853195735E+02  0.39853195735E+02  0.00000000000E+00 0.  1.
         23    2    1    2    0    0 -0.21460622181E+02  0.26491127940E+02  0.17724846964E+03  0.21955391136E+03  0.12499824734E+03 0.  0.
          5    1    3    3  502    0 -0.57757197291E+02  0.30125943268E+02  0.38068120414E+02  0.75595886717E+02  0.47000000000E+01 0. -1.
         -5    1    3    3    0  502  0.36296575110E+02 -0.36348153284E+01  0.13918034923E+03  0.14395802464E+03  0.47000000000E+01 0. -1.
        -11    1    1    2    0    0  0.22647881724E+01 -0.34383163328E+02 -0.95192599934E+00  0.34470818804E+02  0.00000000000E+00 0.  1.
         11    1    1    2    0    0  0.19195834009E+02  0.78920353885E+01  0.10788845989E+03  0.10986666484E+03  0.00000000000E+00 0. -1.
<mgrwt>
<rscale>  0 0.12050157E+03</rscale>
<asrwt>0</asrwt>
<pdfrwt beam="1">  1        2 0.49852029E-01 0.12956427E+03</pdfrwt>
<pdfrwt beam="2">  1       -2 0.61312611E-02 0.12956427E+03</pdfrwt>
<totfact> 0.13500414E+04</totfact>
</mgrwt>
</event>
<event>
 7    1  0.8165933E-006  0.2301380E+03  0.7546771E-02  0.1129619E+00
         -1   -1    0    0    0  501 -0.00000000000E+00  0.00000000000E+00  0.35940670290E+03  0.35940670290E+03  0.00000000000E+00 0.  1.
          1   -1    0    0  501    0  0.00000000000E+00 -0.00000000000E+00 -0.14988733353E+03  0.14988733353E+03  0.00000000000E+00 0. -1.
         23    2    1    2    0    0 -0.14842226573E+03 -0.12373402433E+03  0.33191456901E+02  0.23251919120E+03  0.12499689486E+03 0.  0.
          5    1    3    3  502    0 -0.77438409814E+02 -0.88755690226E+02 -0.40139977658E+02  0.12452946506E+03  0.47000000000E+01 0.  1.
         -5    1    3    3    0  502 -0.70983855920E+02 -0.34978334101E+02  0.73331434559E+02  0.10798972614E+03  0.47000000000E+01 0.  1.
        -11    1    1    2    0    0  0.13366756872E+03  0.93769406404E+02  0.95114943453E+02  0.18896182941E+03  0.00000000000E+00 0. -1.
         11    1    1    2    0    0  0.14754697013E+02  0.29964617922E+02  0.81212969017E+02  0.87813015821E+02  0.00000000000E+00 0.  1.
<mgrwt>
<rscale>  0 0.22581767E+03</rscale>
<asrwt>0</asrwt>
<pdfrwt beam="2">  1        1 0.23059590E-01 0.23013801E+03</pdfrwt>
<pdfrwt beam="1">  1       -1 0.55293339E-01 0.23013801E+03</pdfrwt>
<totfact> 0.72250298E+02</totfact>
</mgrwt>
</event>
<event>
 7    1  0.8633571E-006  0.1539483E+03  0.7546771E-02  0.1204019E+00
         -3   -1    0    0    0  501 -0.00000000000E+00  0.00000000000E+00  0.57246312207E+02  0.57246312207E+02  0.00000000000E+00 0.  1.
          3   -1    0    0  501    0  0.00000000000E+00 -0.00000000000E+00 -0.37646627030E+03  0.37646627030E+03  0.00000000000E+00 0. -1.
         23    2    1    2    0    0 -0.78595517212E+02  0.43574555239E+02 -0.23190040847E+03  0.27834848784E+03  0.12499633611E+03 0.  0.
          5    1    3    3  502    0 -0.11185644156E+03  0.30793382825E+02 -0.15700736694E+03  0.19527800495E+03  0.47000000000E+01 0.  1.
         -5    1    3    3    0  502  0.33260924347E+02  0.12781172414E+02 -0.74893041532E+02  0.83070482884E+02  0.47000000000E+01 0.  1.
        -11    1    1    2    0    0  0.33436173619E+02 -0.23527943598E+02  0.13527061036E+02  0.43064175559E+02  0.00000000000E+00 0.  1.
         11    1    1    2    0    0  0.45159343593E+02 -0.20046611641E+02 -0.10084661066E+03  0.11229991912E+03  0.00000000000E+00 0. -1.
<mgrwt>
<rscale>  0 0.14715005E+03</rscale>
<asrwt>0</asrwt>
<pdfrwt beam="2">  1        3 0.57917886E-01 0.15394831E+03</pdfrwt>
<pdfrwt beam="1">  1       -3 0.88071251E-02 0.15394831E+03</pdfrwt>
<totfact> 0.63634827E+02</totfact>
</mgrwt>
</event>
<event>
 7    1  0.8165933E-006  0.1498537E+03  0.7546771E-02  0.1210072E+00
          3   -1    0    0  501    0  0.00000000000E+00  0.00000000000E+00  0.35635756679E+03  0.35635756679E+03  0.00000000000E+00 0. -1.
         -3   -1    0    0    0  501 -0.00000000000E+00 -0.00000000000E+00 -0.52013590589E+02  0.52013590589E+02  0.00000000000E+00 0.  1.
         23    2    1    2    0    0  0.53107994234E+02 -0.63342351142E+02  0.17240478762E+03  0.22842840420E+03  0.12499365005E+03 0.  0.
          5    1    3    3  502    0  0.87183417558E+02 -0.12134605443E+02  0.99776583924E+02  0.13313772435E+03  0.47000000000E+01 0. -1.
         -5    1    3    3    0  502 -0.34075423324E+02 -0.51207745698E+02  0.72628203695E+02  0.95290679849E+02  0.47000000000E+01 0. -1.
        -11    1    1    2    0    0 -0.26273554773E+02  0.21138550737E+02  0.12497885039E+03  0.12944825627E+03  0.00000000000E+00 0. -1.
         11    1    1    2    0    0 -0.26834439461E+02  0.42203800405E+02  0.69603381934E+01  0.50494496904E+02  0.00000000000E+00 0.  1.
<mgrwt>
<rscale>  0 0.14244871E+03</rscale>
<asrwt>0</asrwt>
<pdfrwt beam="1">  1        3 0.54824239E-01 0.14985368E+03</pdfrwt>
<pdfrwt beam="2">  1       -3 0.80020911E-02 0.14985368E+03</pdfrwt>
<totfact> 0.82929446E+02</totfact>
</mgrwt>
</event>
<event>
 7    1  0.8165933E-006  0.1514862E+03  0.7546771E-02  0.1207863E+00
          2   -1    0    0  501    0  0.00000000000E+00  0.00000000000E+00  0.77893477082E+02  0.77893477082E+02  0.00000000000E+00 0. -1.
         -2   -1    0    0    0  501 -0.00000000000E+00 -0.00000000000E+00 -0.25635811127E+03  0.25635811127E+03  0.00000000000E+00 0.  1.
         23    2    1    2    0    0 -0.80307258095E+02 -0.29403146894E+02 -0.60952617574E+02  0.16328894762E+03  0.12503702682E+03 0.  0.
          5    1    3    3  502    0  0.27040546947E+02  0.22740804882E+01  0.11535952530E+02  0.29858513393E+02  0.47000000000E+01 0. -1.
         -5    1    3    3    0  502 -0.10734780504E+03 -0.31677227382E+02 -0.72488570104E+02  0.13343043423E+03  0.47000000000E+01 0. -1.
        -11    1    1    2    0    0  0.84035326417E+02  0.19678787822E+02 -0.12915657199E+03  0.15534030663E+03  0.00000000000E+00 0.  1.
         11    1    1    2    0    0 -0.37280683217E+01  0.97243590724E+01  0.11644555377E+02  0.15622334100E+02  0.00000000000E+00 0. -1.
<mgrwt>
<rscale>  0 0.14414092E+03</rscale>
<asrwt>0</asrwt>
<pdfrwt beam="1">  1        2 0.11983612E-01 0.15148617E+03</pdfrwt>
<pdfrwt beam="2">  1       -2 0.39439709E-01 0.15148617E+03</pdfrwt>
<totfact> 0.30289190E+03</totfact>
</mgrwt>
</event>
<event>
 7    1  0.8165933E-006  0.1649948E+03  0.7546771E-02  0.1190145E+00
          1   -1    0    0  501    0  0.00000000000E+00  0.00000000000E+00  0.12695931457E+04  0.12695931457E+04  0.00000000000E+00 0. -1.
         -1   -1    0    0    0  501 -0.00000000000E+00 -0.00000000000E+00 -0.20772470706E+02  0.20772470706E+02  0.00000000000E+00 0.  1.
         23    2    1    2    0    0  0.13198968659E+02  0.10688441710E+03  0.88138032990E+03  0.89669090623E+03  0.12499921600E+03 0.  0.
          5    1    3    3  502    0 -0.44041475179E+02  0.14805902308E+01  0.20410313785E+03  0.20885886278E+03  0.47000000000E+01 0. -1.
         -5    1    3    3    0  502  0.57240443838E+02  0.10540382687E+03  0.67727719205E+03  0.68783204345E+03  0.47000000000E+01 0. -1.
        -11    1    1    2    0    0 -0.49999760894E+02 -0.46533198020E+02  0.21616206359E+03  0.22669660858E+03  0.00000000000E+00 0. -1.
         11    1    1    2    0    0  0.36800792235E+02 -0.60351219079E+02  0.15127828148E+03  0.16697810156E+03  0.00000000000E+00 0.  1.
<mgrwt>
<rscale>  0 0.15872410E+03</rscale>
<asrwt>0</asrwt>
<pdfrwt beam="1">  1        1 0.19532196E+00 0.16499483E+03</pdfrwt>
<pdfrwt beam="2">  1       -1 0.31957657E-02 0.16499483E+03</pdfrwt>
<totfact> 0.34862761E+03</totfact>
</mgrwt>
</event>
<event>
 7    1  0.8165933E-006  0.2006403E+03  0.7546771E-02  0.1153537E+00
         -2   -1    0    0    0  501 -0.00000000000E+00  0.00000000000E+00  0.73517699334E+02  0.73517699334E+02  0.00000000000E+00 0.  1.
          2   -1    0    0  501    0  0.00000000000E+00 -0.00000000000E+00 -0.14061382662E+04  0.14061382662E+04  0.00000000000E+00 0. -1.
         23    2    1    2    0    0 -0.15636369570E+03 -0.13391408725E+02 -0.12734272631E+04  0.12891367359E+04  0.12501037669E+03 0.  0.
          5    1    3    3  502    0 -0.61209402849E+02 -0.36971892098E+02 -0.90591896962E+03  0.90874901998E+03  0.47000000000E+01 0.  1.
         -5    1    3    3    0  502 -0.95154292855E+02  0.23580483373E+02 -0.36750829352E+03  0.38038771596E+03  0.47000000000E+01 0.  1.
        -11    1    1    2    0    0  0.20777296065E+02 -0.25924443842E+02  0.79994796595E+01  0.34172569338E+02  0.00000000000E+00 0. -1.
         11    1    1    2    0    0  0.13558639964E+03  0.39315852567E+02 -0.67192783364E+02  0.15634666023E+03  0.00000000000E+00 0.  1.
<mgrwt>
<rscale>  0 0.19556335E+03</rscale>
<asrwt>0</asrwt>
<pdfrwt beam="2">  1        2 0.21632895E+00 0.20064030E+03</pdfrwt>
<pdfrwt beam="1">  1       -2 0.11310416E-01 0.20064030E+03</pdfrwt>
<totfact> 0.84231160E+02</totfact>
</mgrwt>
</event>
<event>
 7    1  0.8165933E-006  0.1398308E+03  0.7546771E-02  0.1223153E+00
         -1   -1    0    0    0  501 -0.00000000000E+00  0.00000000000E+00  0.12796285061E+02  0.12796285061E+02  0.00000000000E+00 0.  1.
          1   -1    0    0  501    0  0.00000000000E+00 -0.00000000000E+00 -0.12823620528E+04  0.12823620528E+04  0.00000000000E+00 0. -1.
         23    2    1    2    0    0 -0.49445363286E+02  0.47723833912E+02 -0.78031786661E+03  0.79274751909E+03  0.12177950486E+03 0.  0.
          5    1    3    3  502    0 -0.65482350034E+02  0.25340410756E+02 -0.74199497260E+03  0.74532456282E+03  0.47000000000E+01 0. -1.
         -5    1    3    3    0  502  0.16036986749E+02  0.22383423156E+02 -0.38322894010E+02  0.47422956271E+02  0.47000000000E+01 0.  1.
        -11    1    1    2    0    0  0.76608535145E+02 -0.34078554171E+02 -0.36133176784E+03  0.37093242237E+03  0.00000000000E+00 0.  1.
         11    1    1    2    0    0 -0.27163171859E+02 -0.13645279740E+02 -0.12791613327E+03  0.13147839638E+03  0.00000000000E+00 0. -1.
<mgrwt>
<rscale>  0 0.13294330E+03</rscale>
<asrwt>0</asrwt>
<pdfrwt beam="2">  1        1 0.19728658E+00 0.13983081E+03</pdfrwt>
<pdfrwt beam="1">  1       -1 0.19686581E-02 0.13983081E+03</pdfrwt>
<totfact> 0.68776652E+03</totfact>
</mgrwt>
</event>
<event>
 7    1  0.8165933E-006  0.1828813E+03  0.7546771E-02  0.1170347E+00
         -3   -1    0    0    0  501 -0.00000000000E+00  0.00000000000E+00  0.10996236096E+03  0.10996236096E+03  0.00000000000E+00 0.  1.
          3   -1    0    0  501    0  0.00000000000E+00 -0.00000000000E+00 -0.30282571149E+03  0.30282571149E+03  0.00000000000E+00 0. -1.
         23    2    1    2    0    0  0.13276736713E+03 -0.13843596210E+02 -0.16921981521E+03  0.24916041024E+03  0.12500698077E+03 0.  0.
          5    1    3    3  502    0  0.14306163700E+02  0.45997988024E+01 -0.11742773987E+03  0.11847864179E+03  0.47000000000E+01 0.  1.
         -5    1    3    3    0  502  0.11846120343E+03 -0.18443395012E+02 -0.51792075332E+02  0.13068176844E+03  0.47000000000E+01 0.  1.
        -11    1    1    2    0    0 -0.11055512178E+03 -0.20081693129E+02 -0.40875511271E+02  0.11956804244E+03  0.00000000000E+00 0. -1.
         11    1    1    2    0    0 -0.22212245342E+02  0.33925289339E+02  0.17231975939E+02  0.44059619774E+02  0.00000000000E+00 0.  1.
<mgrwt>
<rscale>  0 0.17739675E+03</rscale>
<asrwt>0</asrwt>
<pdfrwt beam="2">  1        3 0.46588571E-01 0.18288128E+03</pdfrwt>
<pdfrwt beam="1">  1       -3 0.16917286E-01 0.18288128E+03</pdfrwt>
<totfact> 0.33521730E+02</totfact>
</mgrwt>
</event>
<event>
 7    1  0.8165933E-006  0.1365801E+03  0.7546771E-02  0.1228234E+00
          1   -1    0    0  501    0  0.00000000000E+00  0.00000000000E+00  0.77571859400E+02  0.77571859400E+02  0.00000000000E+00 0. -1.
         -1   -1    0    0    0  501 -0.00000000000E+00 -0.00000000000E+00 -0.19712859152E+03  0.19712859152E+03  0.00000000000E+00 0.  1.
         23    2    1    2    0    0 -0.83752119959E+01  0.54394375161E+02 -0.58069540883E+02  0.14841223669E+03  0.12500091278E+03 0.  0.
          5    1    3    3  502    0 -0.23996706449E+02 -0.12773762299E+02 -0.72701328557E+02  0.77759784578E+02  0.47000000000E+01 0.  1.
         -5    1    3    3    0  502  0.15621494453E+02  0.67168137461E+02  0.14631787674E+02  0.70652452112E+02  0.47000000000E+01 0.  1.
        -11    1    1    2    0    0  0.17407489308E+02 -0.16010220774E+02  0.23038523735E+02  0.33016986978E+02  0.00000000000E+00 0. -1.
         11    1    1    2    0    0 -0.90322773121E+01 -0.38384154388E+02 -0.84525714968E+02  0.93271227248E+02  0.00000000000E+00 0.  1.
<mgrwt>
<rscale>  0 0.12947714E+03</rscale>
<asrwt>0</asrwt>
<pdfrwt beam="1">  1        1 0.11934132E-01 0.13658009E+03</pdfrwt>
<pdfrwt beam="2">  1       -1 0.30327475E-01 0.13658009E+03</pdfrwt>
<totfact> 0.48415192E+03</totfact>
</mgrwt>
</event>
<event>
 7    1  0.8165933E-006  0.1266679E+03  0.7546771E-02  0.1245711E+00
          2   -1    0    0  501    0  0.00000000000E+00  0.00000000000E+00  0.47950482786E+02  0.47950482786E+02  0.00000000000E+00 0. -1.
         -2   -1    0    0    0  501 -0.00000000000E+00 -0.00000000000E+00 -0.28010050910E+03  0.28010050910E+03  0.00000000000E+00 0.  1.
         23    2    1    2    0    0 -0.15099074396E+02 -0.13945886138E+02 -0.87299420196E+02  0.15383741278E+03  0.12498916360E+03 0.  0.
          5    1    3    3  502    0 -0.61278413384E+02  0.21677757008E+01 -0.84650938565E+02  0.10463084917E+03  0.47000000000E+01 0. -1.
         -5    1    3    3    0  502  0.46179338989E+02 -0.16113661839E+02 -0.26484816315E+01  0.49206563609E+02  0.47000000000E+01 0. -1.
        -11    1    1    2    0    0  0.45372790630E+02 -0.20066083883E+02 -0.59441378325E+02  0.77424901092E+02  0.00000000000E+00 0. -1.
         11    1    1    2    0    0 -0.30273716234E+02  0.34011970021E+02 -0.85409227790E+02  0.96788678011E+02  0.00000000000E+00 0.  1.
<mgrwt>
<rscale>  0 0.11842945E+03</rscale>
<asrwt>0</asrwt>
<pdfrwt beam="1">  1        2 0.73769972E-02 0.12666792E+03</pdfrwt>
<pdfrwt beam="2">  1       -2 0.43092387E-01 0.12666792E+03</pdfrwt>
<totfact> 0.46056232E+03</totfact>
</mgrwt>
</event>
<event>
 7    1  0.8165933E-006  0.1792355E+03  0.7546771E-02  0.1173950E+00
         -2   -1    0    0    0  501 -0.00000000000E+00  0.00000000000E+00  0.32845406914E+02  0.32845406914E+02  0.00000000000E+00 0.  1.
          2   -1    0    0  501    0  0.00000000000E+00 -0.00000000000E+00 -0.92173170614E+03  0.92173170614E+03  0.00000000000E+00 0. -1.
         23    2    1    2    0    0 -0.21756756010E+02  0.12659458895E+03 -0.58540562558E+03  0.61222961027E+03  0.12500321136E+03 0.  0.
          5    1    3    3  502    0  0.11446893005E+02  0.87776766234E+02 -0.15325522161E+03  0.17704531906E+03  0.47000000000E+01 0.  1.
         -5    1    3    3    0  502 -0.33203649015E+02  0.38817822721E+02 -0.43215040397E+03  0.43518429121E+03  0.47000000000E+01 0.  1.
        -11    1    1    2    0    0 -0.23035105048E+02 -0.60361001959E+02 -0.20803454941E+03  0.21783581058E+03  0.00000000000E+00 0. -1.
         11    1    1    2    0    0  0.44791861057E+02 -0.66233586995E+02 -0.95446124235E+02  0.12451169220E+03  0.00000000000E+00 0.  1.
<mgrwt>
<rscale>  0 0.17379207E+03</rscale>
<asrwt>0</asrwt>
<pdfrwt beam="2">  1        2 0.14180487E+00 0.17923546E+03</pdfrwt>
<pdfrwt beam="1">  1       -2 0.50531399E-02 0.17923546E+03</pdfrwt>
<totfact> 0.55732762E+03</totfact>
</mgrwt>
</event>
<event>
 7    1  0.8165933E-006  0.1471880E+03  0.7546771E-02  0.1213694E+00
          1   -1    0    0  501    0  0.00000000000E+00  0.00000000000E+00  0.57929202763E+03  0.57929202763E+03  0.00000000000E+00 0. -1.
         -1   -1    0    0    0  501 -0.00000000000E+00 -0.00000000000E+00 -0.34521790184E+02  0.34521790184E+02  0.00000000000E+00 0.  1.
         23    2    1    2    0    0  0.49375041811E+02  0.60014575079E+02  0.39906965412E+03  0.42534797788E+03  0.12499867788E+03 0.  0.
          5    1    3    3  502    0  0.38949564980E+02 -0.28227506120E+02  0.22174040048E+03  0.22694659266E+03  0.47000000000E+01 0. -1.
         -5    1    3    3    0  502  0.10425476830E+02  0.88242081198E+02  0.17732925364E+03  0.19840138522E+03  0.47000000000E+01 0. -1.
        -11    1    1    2    0    0  0.12819550874E+02 -0.22227372535E+02  0.98353293567E+02  0.10164530156E+03  0.00000000000E+00 0. -1.
         11    1    1    2    0    0 -0.62194592685E+02 -0.37787202544E+02  0.47347289756E+02  0.86820538368E+02  0.00000000000E+00 0.  1.
<mgrwt>
<rscale>  0 0.13972885E+03</rscale>
<asrwt>0</asrwt>
<pdfrwt beam="1">  1        1 0.89121843E-01 0.14718802E+03</pdfrwt>
<pdfrwt beam="2">  1       -1 0.53110451E-02 0.14718802E+03</pdfrwt>
<totfact> 0.57464120E+03</totfact>
</mgrwt>
</event>
<event>
 7    1  0.8165933E-006  0.1575771E+03  0.7546771E-02  0.1199271E+00
          2   -1    0    0  501    0  0.00000000000E+00  0.00000000000E+00  0.80792334396E+03  0.80792334396E+03  0.00000000000E+00 0. -1.
         -2   -1    0    0    0  501 -0.00000000000E+00 -0.00000000000E+00 -0.26144197142E+02  0.26144197142E+02  0.00000000000E+00 0.  1.
         23    2    1    2    0    0  0.24431984809E+02 -0.92765079794E+02  0.40573647664E+03  0.43526156841E+03  0.12501304953E+03 0.  0.
          5    1    3    3  502    0 -0.46506596928E+02 -0.52246067809E+02  0.24587079254E+03  0.25566981007E+03  0.47000000000E+01 0. -1.
         -5    1    3    3    0  502  0.70938581738E+02 -0.40519011984E+02  0.15986568410E+03  0.17959175834E+03  0.47000000000E+01 0. -1.
        -11    1    1    2    0    0 -0.21196108410E+02  0.80051446741E+02  0.37667645687E+03  0.38567170275E+03  0.00000000000E+00 0. -1.
         11    1    1    2    0    0 -0.32358763996E+01  0.12713633053E+02 -0.63378668770E+00  0.13134269947E+02  0.00000000000E+00 0.  1.
<mgrwt>
<rscale>  0 0.15098241E+03</rscale>
<asrwt>0</asrwt>
<pdfrwt beam="1">  1        2 0.12429588E+00 0.15757711E+03</pdfrwt>
<pdfrwt beam="2">  1       -2 0.40221848E-02 0.15757711E+03</pdfrwt>
<totfact> 0.92585044E+03</totfact>
</mgrwt>
</event>
<event>
 7    1  0.8165933E-006  0.1699851E+03  0.7546771E-02  0.1183765E+00
          2   -1    0    0  501    0  0.00000000000E+00  0.00000000000E+00  0.86079213397E+03  0.86079213397E+03  0.00000000000E+00 0. -1.
         -2   -1    0    0    0  501 -0.00000000000E+00 -0.00000000000E+00 -0.29581511589E+02  0.29581511589E+02  0.00000000000E+00 0.  1.
         23    2    1    2    0    0 -0.22336273481E+02  0.11301545527E+03  0.42489209608E+03  0.45763329403E+03  0.12499414488E+03 0.  0.
          5    1    3    3  502    0 -0.41166602220E+02  0.31283138655E+02  0.45441761261E+02  0.68995417014E+02  0.47000000000E+01 0.  1.
         -5    1    3    3    0  502  0.18830328740E+02  0.81732316611E+02  0.37945033482E+03  0.38863787702E+03  0.47000000000E+01 0.  1.
        -11    1    1    2    0    0  0.10174718397E+02 -0.51751103395E+02  0.56114471640E+02  0.77009970292E+02  0.00000000000E+00 0.  1.
         11    1    1    2    0    0  0.12161555084E+02 -0.61264351871E+02  0.35020405466E+03  0.35573038123E+03  0.00000000000E+00 0. -1.
<mgrwt>
<rscale>  0 0.16444761E+03</rscale>
<asrwt>0</asrwt>
<pdfrwt beam="1">  1        2 0.13242954E+00 0.16998511E+03</pdfrwt>
<pdfrwt beam="2">  1       -2 0.45510024E-02 0.16998511E+03</pdfrwt>
<totfact> 0.71245869E+03</totfact>
</mgrwt>
</event>
<event>
 7    1  0.8165933E-006  0.1303050E+03  0.7546771E-02  0.1241078E+00
         -1   -1    0    0    0  501 -0.00000000000E+00  0.00000000000E+00  0.28107185198E+02  0.28107185198E+02  0.00000000000E+00 0.  1.
          1   -1    0    0  501    0  0.00000000000E+00 -0.00000000000E+00 -0.46268081222E+03  0.46268081222E+03  0.00000000000E+00 0. -1.
         23    2    1    2    0    0 -0.13211420925E+02 -0.34366207044E+02 -0.25689823900E+03  0.28805572275E+03  0.12499526543E+03 0.  0.
          5    1    3    3  502    0 -0.27860370653E+02  0.18429985678E+02 -0.21824875354E+03  0.22084037911E+03  0.47000000000E+01 0. -1.
         -5    1    3    3    0  502  0.14648949727E+02 -0.52796192723E+02 -0.38649485462E+02  0.67215343640E+02  0.47000000000E+01 0. -1.
        -11    1    1    2    0    0  0.24521762377E+02  0.54353828260E+02 -0.66968902841E+02  0.89668776195E+02  0.00000000000E+00 0.  1.
         11    1    1    2    0    0 -0.11310341452E+02 -0.19987621216E+02 -0.11070648518E+03  0.11306349847E+03  0.00000000000E+00 0. -1.
<mgrwt>
<rscale>  0 0.12123217E+03</rscale>
<asrwt>0</asrwt>
<pdfrwt beam="2">  1        1 0.71181661E-01 0.13030500E+03</pdfrwt>
<pdfrwt beam="1">  1       -1 0.43241825E-02 0.13030500E+03</pdfrwt>
<totfact> 0.10386845E+04</totfact>
</mgrwt>
</event>
<event>
 7    1  0.8165933E-006  0.1421523E+03  0.7546771E-02  0.1220049E+00
          2   -1    0    0  501    0  0.00000000000E+00  0.00000000000E+00  0.70015337446E+03  0.70015337446E+03  0.00000000000E+00 0. -1.
         -2   -1    0    0    0  501 -0.00000000000E+00 -0.00000000000E+00 -0.25927933989E+02  0.25927933989E+02  0.00000000000E+00 0.  1.
         23    2    1    2    0    0  0.24786742111E+02  0.62998642430E+02  0.47181460166E+03  0.49276393428E+03  0.12499626015E+03 0.  0.
          5    1    3    3  502    0  0.61280755264E+02  0.77728400339E+02  0.28335915935E+03  0.30018583973E+03  0.47000000000E+01 0. -1.
         -5    1    3    3    0  502 -0.36494013153E+02 -0.14729757909E+02  0.18845544231E+03  0.19257809455E+03  0.47000000000E+01 0. -1.
        -11    1    1    2    0    0 -0.52580018862E+02 -0.23370256881E+02  0.61018294708E+02  0.83869300577E+02  0.00000000000E+00 0.  1.
         11    1    1    2    0    0  0.27793276751E+02 -0.39628385549E+02  0.14139254410E+03  0.14944807359E+03  0.00000000000E+00 0. -1.
<mgrwt>
<rscale>  0 0.13512125E+03</rscale>
<asrwt>0</asrwt>
<pdfrwt beam="1">  1        2 0.10771589E+00 0.14215230E+03</pdfrwt>
<pdfrwt beam="2">  1       -2 0.39889134E-02 0.14215230E+03</pdfrwt>
<totfact> 0.11096120E+04</totfact>
</mgrwt>
</event>
<event>
 7    1  0.8165933E-006  0.1520013E+03  0.7546771E-02  0.1206266E+00
          2   -1    0    0  501    0  0.00000000000E+00  0.00000000000E+00  0.14165655895E+04  0.14165655895E+04  0.00000000000E+00 0.  1.
         -2   -1    0    0    0  501 -0.00000000000E+00 -0.00000000000E+00 -0.18757260393E+02  0.18757260393E+02  0.00000000000E+00 0. -1.
         23    2    1    2    0    0 -0.76858812647E+02 -0.39752638065E+02  0.11138689749E+04  0.11241923703E+04  0.12496736749E+03 0.  0.
          5    1    3    3  502    0 -0.76773144914E+02  0.19368602391E+02  0.39524621328E+03  0.40312642886E+03  0.47000000000E+01 0.  1.
         -5    1    3    3    0  502 -0.85667732300E-01 -0.59121240456E+02  0.71862276161E+03  0.72106594145E+03  0.47000000000E+01 0.  1.
        -11    1    1    2    0    0  0.83150932550E+01  0.56086031391E+02  0.12268239539E+03  0.13515085583E+03  0.00000000000E+00 0. -1.
         11    1    1    2    0    0  0.68543719392E+02 -0.16333393326E+02  0.16125695887E+03  0.17597962379E+03  0.00000000000E+00 0.  1.
<mgrwt>
<rscale>  0 0.14538173E+03</rscale>
<asrwt>0</asrwt>
<pdfrwt beam="1">  1        2 0.21793308E+00 0.15200129E+03</pdfrwt>
<pdfrwt beam="2">  1       -2 0.28857335E-02 0.15200129E+03</pdfrwt>
<totfact> 0.66825641E+03</totfact>
</mgrwt>
</event>
<event>
 6    1  0.8165933E-006  0.1635250E+03  0.7546771E-02  0.1202480E+00
          1   -1    0    0  501    0  0.00000000000E+00  0.00000000000E+00  0.14143516107E+04  0.14143516107E+04  0.00000000000E+00 0. -1.
         -1   -1    0    0    0  501 -0.00000000000E+00 -0.00000000000E+00 -0.14811478765E+02  0.14811478765E+02  0.00000000000E+00 0.  1.
          5    1    1    2  502    0 -0.59752079552E+02 -0.76095118048E+01  0.31433822247E+03  0.32009189897E+03  0.47000000000E+01 0. -1.
         -5    1    1    2    0  502  0.79134564227E+02  0.62785735295E+02  0.73009760536E+03  0.73706779279E+03  0.47000000000E+01 0.  1.
        -11    1    1    2    0    0  0.24533389640E+02 -0.57504102551E+02  0.15520262371E+03  0.16732143743E+03  0.00000000000E+00 0.  1.
         11    1    1    2    0    0 -0.43915874314E+02  0.23278790603E+01  0.19990168039E+03  0.20468196027E+03  0.00000000000E+00 0. -1.
<mgrwt>
<rscale>  0 0.14837845E+03</rscale>
<asrwt>0</asrwt>
<pdfrwt beam="1">  1        1 0.21759245E+00 0.16352497E+03</pdfrwt>
<pdfrwt beam="2">  1       -1 0.22786902E-02 0.16352497E+03</pdfrwt>
<totfact> 0.45701387E+03</totfact>
</mgrwt>
</event>
<event>
 7    1  0.8165933E-006  0.1930046E+03  0.7546771E-02  0.1160756E+00
          1   -1    0    0  501    0  0.00000000000E+00  0.00000000000E+00  0.16367521029E+03  0.16367521029E+03  0.00000000000E+00 0. -1.
         -1   -1    0    0    0  501 -0.00000000000E+00 -0.00000000000E+00 -0.24850073271E+03  0.24850073271E+03  0.00000000000E+00 0.  1.
         23    2    1    2    0    0 -0.47764969003E+02  0.13908925332E+03 -0.13219636181E+03  0.23393725248E+03  0.12499378933E+03 0.  0.
          5    1    3    3  502    0 -0.23145697462E+02  0.14279146396E+03 -0.58674991397E+02  0.15617288531E+03  0.47000000000E+01 0. -1.
         -5    1    3    3    0  502 -0.24619271542E+02 -0.37022106357E+01 -0.73521370412E+02  0.77764367175E+02  0.47000000000E+01 0. -1.
        -11    1    1    2    0    0  0.85816889974E+01 -0.49796500769E+02 -0.25410743973E+02  0.56560081189E+02  0.00000000000E+00 0.  1.
         11    1    1    2    0    0  0.39183280006E+02 -0.89292752552E+02  0.72781583365E+02  0.12167860933E+03  0.00000000000E+00 0. -1.
<mgrwt>
<rscale>  0 0.18747764E+03</rscale>
<asrwt>0</asrwt>
<pdfrwt beam="1">  1        1 0.25180802E-01 0.19300456E+03</pdfrwt>
<pdfrwt beam="2">  1       -1 0.38230882E-01 0.19300456E+03</pdfrwt>
<totfact> 0.12601375E+03</totfact>
</mgrwt>
</event>
<event>
 7    1  0.8165933E-006  0.1318318E+03  0.7546771E-02  0.1237672E+00
         -2   -1    0    0    0  501 -0.00000000000E+00  0.00000000000E+00  0.15347453520E+02  0.15347453520E+02  0.00000000000E+00 0.  1.
          2   -1    0    0  501    0  0.00000000000E+00 -0.00000000000E+00 -0.96761513196E+03  0.96761513196E+03  0.00000000000E+00 0. -1.
         23    2    1    2    0    0 -0.15724693567E+01  0.41932833293E+02 -0.67749594901E+03  0.69020314581E+03  0.12497514315E+03 0.  0.
          5    1    3    3  502    0  0.57275283262E+02  0.44162770996E+02 -0.35083590477E+03  0.35824395387E+03  0.47000000000E+01 0. -1.
         -5    1    3    3    0  502 -0.58847752619E+02 -0.22299377030E+01 -0.32666004424E+03  0.33195919194E+03  0.47000000000E+01 0. -1.
        -11    1    1    2    0    0  0.19182857192E+02  0.14730945607E+02 -0.20651712435E+02  0.31803710397E+02  0.00000000000E+00 0.  1.
         11    1    1    2    0    0 -0.17610387835E+02 -0.56663778900E+02 -0.25412001700E+03  0.26095572927E+03  0.00000000000E+00 0. -1.
<mgrwt>
<rscale>  0 0.12334905E+03</rscale>
<asrwt>0</asrwt>
<pdfrwt beam="2">  1        2 0.14886389E+00 0.13183179E+03</pdfrwt>
<pdfrwt beam="1">  1       -2 0.23611464E-02 0.13183179E+03</pdfrwt>
<totfact> 0.15877880E+04</totfact>
</mgrwt>
</event>
<event>
 7    1  0.8165933E-006  0.1924072E+03  0.7546771E-02  0.1161081E+00
         -1   -1    0    0    0  501 -0.00000000000E+00  0.00000000000E+00  0.18719782847E+03  0.18719782847E+03  0.00000000000E+00 0.  1.
          1   -1    0    0  501    0  0.00000000000E+00 -0.00000000000E+00 -0.24581404353E+03  0.24581404353E+03  0.00000000000E+00 0. -1.
         23    2    1    2    0    0 -0.57937383656E+02  0.13431029817E+03 -0.14451983555E+03  0.24063769232E+03  0.12499807790E+03 0.  0.
          5    1    3    3  502    0 -0.42779019095E+02  0.13840810752E+03 -0.16152195422E+03  0.21702138235E+03  0.47000000000E+01 0.  1.
         -5    1    3    3    0  502 -0.15158364561E+02 -0.40978093475E+01  0.17002118666E+02  0.23616309973E+02  0.47000000000E+01 0.  1.
        -11    1    1    2    0    0 -0.20423477397E+02 -0.46691336784E+02  0.44777180956E+02  0.67839481823E+02  0.00000000000E+00 0.  1.
         11    1    1    2    0    0  0.78360861053E+02 -0.87618961391E+02  0.41126439541E+02  0.12453469785E+03  0.00000000000E+00 0. -1.
<mgrwt>
<rscale>  0 0.18712398E+03</rscale>
<asrwt>0</asrwt>
<pdfrwt beam="2">  1        1 0.37817545E-01 0.19240716E+03</pdfrwt>
<pdfrwt beam="1">  1       -1 0.28799666E-01 0.19240716E+03</pdfrwt>
<totfact> 0.12298647E+03</totfact>
</mgrwt>
</event>
<event>
 7    1  0.8165933E-006  0.1460655E+03  0.7546771E-02  0.1215739E+00
         -1   -1    0    0    0  501 -0.00000000000E+00  0.00000000000E+00  0.11143861017E+03  0.11143861017E+03  0.00000000000E+00 0.  1.
          1   -1    0    0  501    0  0.00000000000E+00 -0.00000000000E+00 -0.16376837482E+03  0.16376837482E+03  0.00000000000E+00 0. -1.
         23    2    1    2    0    0  0.53300010992E+01  0.75366094736E+02 -0.59800373071E+02  0.15783283091E+03  0.12500664280E+03 0.  0.
          5    1    3    3  502    0  0.37593598299E+02  0.25199777735E+02  0.26624616703E+02  0.52718759901E+02  0.47000000000E+01 0. -1.
         -5    1    3    3    0  502 -0.32263597200E+02  0.50166317001E+02 -0.86424989773E+02  0.10511407100E+03  0.47000000000E+01 0. -1.
        -11    1    1    2    0    0  0.15147698100E+02 -0.58687048104E+02  0.42118706706E+02  0.73807911687E+02  0.00000000000E+00 0.  1.
         11    1    1    2    0    0 -0.20477699199E+02 -0.16679046632E+02 -0.34648098288E+02  0.43566242390E+02  0.00000000000E+00 0. -1.
<mgrwt>
<rscale>  0 0.13822398E+03</rscale>
<asrwt>0</asrwt>
<pdfrwt beam="2">  1        1 0.25195135E-01 0.14606546E+03</pdfrwt>
<pdfrwt beam="1">  1       -1 0.17144402E-01 0.14606546E+03</pdfrwt>
<totfact> 0.47182448E+03</totfact>
</mgrwt>
</event>
<event>
 6    1  0.8165933E-006  0.1939899E+03  0.7546771E-02  0.1174219E+00
         -2   -1    0    0    0  501 -0.00000000000E+00  0.00000000000E+00  0.16601508548E+03  0.16601508548E+03  0.00000000000E+00 0.  1.
          2   -1    0    0  501    0  0.00000000000E+00 -0.00000000000E+00 -0.32490042866E+03  0.32490042866E+03  0.00000000000E+00 0. -1.
          5    1    1    2  502    0  0.46696967576E+02  0.57537671984E+02 -0.25729806483E+03  0.26779763749E+03  0.47000000000E+01 0. -1.
         -5    1    1    2    0  502 -0.54057279662E+02  0.24941694902E+02 -0.71098956200E+01  0.60140820120E+02  0.47000000000E+01 0.  1.
        -11    1    1    2    0    0 -0.31246003785E+02 -0.39164403229E+02  0.89850532875E+02  0.10287507711E+03  0.00000000000E+00 0.  1.
         11    1    1    2    0    0  0.38606315871E+02 -0.43314963657E+02  0.15672084397E+02  0.60101979427E+02  0.00000000000E+00 0. -1.
<mgrwt>
<rscale>  0 0.17352725E+03</rscale>
<asrwt>0</asrwt>
<pdfrwt beam="2">  1        2 0.49984682E-01 0.19398985E+03</pdfrwt>
<pdfrwt beam="1">  1       -2 0.25540782E-01 0.19398985E+03</pdfrwt>
<totfact> 0.13625363E+03</totfact>
</mgrwt>
</event>
<event>
 6    1  0.8165933E-006  0.1622378E+03  0.7546771E-02  0.1196419E+00
         -2   -1    0    0    0  501 -0.00000000000E+00  0.00000000000E+00  0.28576331853E+02  0.28576331853E+02  0.00000000000E+00 0.  1.
          2   -1    0    0  501    0  0.00000000000E+00 -0.00000000000E+00 -0.77123731331E+03  0.77123731331E+03  0.00000000000E+00 0. -1.
          5    1    1    2  502    0 -0.64359145216E+00  0.54090628602E+02 -0.30467348118E+03  0.30947411919E+03  0.47000000000E+01 0. -1.
         -5    1    1    2    0  502 -0.86744455330E+02 -0.26960091840E+02 -0.18080793072E+03  0.20239823342E+03  0.47000000000E+01 0.  1.
        -11    1    1    2    0    0 -0.19068310480E+02 -0.12923648280E+01 -0.51052408758E+02  0.54512559208E+02  0.00000000000E+00 0. -1.
         11    1    1    2    0    0  0.10645635726E+03 -0.25838171934E+02 -0.20612716080E+03  0.23342873335E+03  0.00000000000E+00 0.  1.
<mgrwt>
<rscale>  0 0.15334760E+03</rscale>
<asrwt>0</asrwt>
<pdfrwt beam="2">  1        2 0.11865190E+00 0.16223780E+03</pdfrwt>
<pdfrwt beam="1">  1       -2 0.43963585E-02 0.16223780E+03</pdfrwt>
<totfact> 0.86021359E+03</totfact>
</mgrwt>
</event>
<event>
 7    1  0.8165933E-006  0.2817235E+03  0.7546771E-02  0.1094751E+00
         -1   -1    0    0    0  501 -0.00000000000E+00  0.00000000000E+00  0.31819251666E+02  0.31819251666E+02  0.00000000000E+00 0.  1.
          1   -1    0    0  501    0  0.00000000000E+00 -0.00000000000E+00 -0.62358577351E+03  0.62358577351E+03  0.00000000000E+00 0. -1.
         23    2    1    2    0    0  0.55470551821E+01  0.12613925243E+02 -0.29672771913E+03  0.32227773634E+03  0.12500287641E+03 0.  0.
          5    1    3    3  502    0 -0.20580649429E+01  0.32611104892E+02 -0.29848282137E+03  0.30030285455E+03  0.47000000000E+01 0.  1.
         -5    1    3    3    0  502  0.76051201249E+01 -0.19997179649E+02  0.17551022422E+01  0.21974881796E+02  0.47000000000E+01 0.  1.
        -11    1    1    2    0    0 -0.16704010526E+02  0.60543014261E+02 -0.60555937201E+02  0.87243922847E+02  0.00000000000E+00 0.  1.
         11    1    1    2    0    0  0.11156955344E+02 -0.73156939504E+02 -0.23448286552E+03  0.24588336599E+03  0.00000000000E+00 0. -1.
<mgrwt>
<rscale>  0 0.28172350E+03</rscale>
<asrwt>0</asrwt>
<pdfrwt beam="2">  1        1 0.95936271E-01 0.28172350E+03</pdfrwt>
<pdfrwt beam="1">  1       -1 0.48952696E-02 0.28172350E+03</pdfrwt>
<totfact> 0.60374049E+03</totfact>
</mgrwt>
</event>
<event>
 7    1  0.8165933E-006  0.1327690E+03  0.7546771E-02  0.1233879E+00
          2   -1    0    0  501    0  0.00000000000E+00  0.00000000000E+00  0.95715038848E+02  0.95715038848E+02  0.00000000000E+00 0. -1.
         -2   -1    0    0    0  501 -0.00000000000E+00 -0.00000000000E+00 -0.16432102317E+03  0.16432102317E+03  0.00000000000E+00 0.  1.
         23    2    1    2    0    0 -0.40667046802E+02 -0.18674391905E+02  0.46508188814E+00  0.13276980790E+03  0.12500025592E+03 0.  0.
          5    1    3    3  502    0 -0.43131631860E+02 -0.61586298094E+02  0.29263282808E+02  0.80818559134E+02  0.47000000000E+01 0.  1.
         -5    1    3    3    0  502  0.24645850582E+01  0.42911906189E+02 -0.28798200920E+02  0.51951248767E+02  0.47000000000E+01 0.  1.
        -11    1    1    2    0    0 -0.81844212144E+01 -0.27744901645E+02  0.24110812934E+01  0.29027187789E+02  0.00000000000E+00 0.  1.
         11    1    1    2    0    0  0.48851468017E+02  0.46419293551E+02 -0.71482147505E+02  0.98239066328E+02  0.00000000000E+00 0. -1.
<mgrwt>
<rscale>  0 0.12576469E+03</rscale>
<asrwt>0</asrwt>
<pdfrwt beam="1">  1        2 0.14725391E-01 0.13276899E+03</pdfrwt>
<pdfrwt beam="2">  1       -2 0.25280157E-01 0.13276899E+03</pdfrwt>
<totfact> 0.52757224E+03</totfact>
</mgrwt>
</event>
<event>
 7    1  0.8165933E-006  0.2345394E+03  0.7546771E-02  0.1125368E+00
         -1   -1    0    0    0  501 -0.00000000000E+00  0.00000000000E+00  0.84842864733E+03  0.84842864733E+03  0.00000000000E+00 0.  1.
          1   -1    0    0  501    0  0.00000000000E+00 -0.00000000000E+00 -0.82049233466E+02  0.82049233466E+02  0.00000000000E+00 0. -1.
         23    2    1    2    0    0  0.15198796088E+03 -0.13421040128E+03  0.15949642037E+03  0.28363324162E+03  0.11788102298E+03 0.  0.
          5    1    3    3  502    0  0.10023335249E+03 -0.14928667266E+03  0.11419346582E+03  0.21306213466E+03  0.47000000000E+01 0. -1.
         -5    1    3    3    0  502  0.51754608386E+02  0.15076271381E+02  0.45302954546E+02  0.70571106967E+02  0.47000000000E+01 0.  1.
        -11    1    1    2    0    0 -0.93136753965E+02  0.13360582626E+03  0.48237447336E+03  0.50912680572E+03  0.00000000000E+00 0.  1.
         11    1    1    2    0    0 -0.58851206912E+02  0.60457502013E+00  0.12450852013E+03  0.13771783346E+03  0.00000000000E+00 0. -1.
<mgrwt>
<rscale>  0 0.23181557E+03</rscale>
<asrwt>0</asrwt>
<pdfrwt beam="2">  1        1 0.12622960E-01 0.23453935E+03</pdfrwt>
<pdfrwt beam="1">  1       -1 0.13052748E+00 0.23453935E+03</pdfrwt>
<totfact> 0.25384014E+02</totfact>
</mgrwt>
</event>
<event>
 7    1  0.8165933E-006  0.1562629E+03  0.7546771E-02  0.1201238E+00
          1   -1    0    0  501    0  0.00000000000E+00  0.00000000000E+00  0.29437258141E+04  0.29437258141E+04  0.00000000000E+00 0. -1.
         -1   -1    0    0    0  501 -0.00000000000E+00 -0.00000000000E+00 -0.16400197786E+02  0.16400197786E+02  0.00000000000E+00 0.  1.
         23    2    1    2    0    0 -0.93568463060E+02 -0.61118599625E+01  0.26392544534E+04  0.26438763504E+04  0.12500269897E+03 0.  0.
          5    1    3    3  502    0 -0.63628154866E+02  0.57438721651E+02  0.14631641741E+04  0.14656804697E+04  0.47000000000E+01 0.  1.
         -5    1    3    3    0  502 -0.29940308194E+02 -0.63550581614E+02  0.11760902792E+04  0.11781958808E+04  0.47000000000E+01 0.  1.
        -11    1    1    2    0    0  0.75452580370E+02  0.38153834175E+02  0.24713577968E+03  0.26119896735E+03  0.00000000000E+00 0. -1.
         11    1    1    2    0    0  0.18115882690E+02 -0.32041974213E+02  0.40935383312E+02  0.55050694128E+02  0.00000000000E+00 0.  1.
<mgrwt>
<rscale>  0 0.14937917E+03</rscale>
<asrwt>0</asrwt>
<pdfrwt beam="1">  1        1 0.45288047E+00 0.15626288E+03</pdfrwt>
<pdfrwt beam="2">  1       -1 0.25231097E-02 0.15626288E+03</pdfrwt>
<totfact> 0.39696728E+02</totfact>
</mgrwt>
</event>
<event>
 6    1  0.8165933E-006  0.2352933E+03  0.7546771E-02  0.1131336E+00
         -2   -1    0    0    0  501 -0.00000000000E+00  0.00000000000E+00  0.51819827600E+03  0.51819827600E+03  0.00000000000E+00 0.  1.
          2   -1    0    0  501    0  0.00000000000E+00 -0.00000000000E+00 -0.13837070203E+03  0.13837070203E+03  0.00000000000E+00 0. -1.
          5    1    1    2  502    0  0.48928332146E+02 -0.18147216231E+03  0.73961640256E+01  0.18815663853E+03  0.47000000000E+01 0. -1.
         -5    1    1    2    0  502  0.31685783941E+02  0.34526547255E+02 -0.28133004684E+01  0.47181310164E+02  0.47000000000E+01 0.  1.
        -11    1    1    2    0    0 -0.69675606628E+02  0.10619357774E+03  0.17291942802E+03  0.21455277836E+03  0.00000000000E+00 0.  1.
         11    1    1    2    0    0 -0.10938509459E+02  0.40752037316E+02  0.20232528239E+03  0.20667825098E+03  0.00000000000E+00 0. -1.
<mgrwt>
<rscale>  0 0.22345102E+03</rscale>
<asrwt>0</asrwt>
<pdfrwt beam="2">  1        2 0.21287801E-01 0.23529332E+03</pdfrwt>
<pdfrwt beam="1">  1       -2 0.79722810E-01 0.23529332E+03</pdfrwt>
<totfact> 0.37185823E+02</totfact>
</mgrwt>
</event>
<event>
 7    1  0.8165933E-006  0.1371029E+03  0.7546771E-02  0.1228985E+00
         -4   -1    0    0    0  501 -0.00000000000E+00  0.00000000000E+00  0.34442823473E+03  0.34442823473E+03  0.00000000000E+00 0.  1.
          4   -1    0    0  501    0  0.00000000000E+00 -0.00000000000E+00 -0.44447338770E+02  0.44447338770E+02  0.00000000000E+00 0. -1.
         23    2    1    2    0    0  0.28812072675E+02  0.48391537640E+02  0.13789917253E+03  0.19445665917E+03  0.12500133625E+03 0.  0.
          5    1    3    3  502    0  0.71578368683E+02  0.49336858247E+02  0.11902022269E+03  0.14746352720E+03  0.47000000000E+01 0.  1.
         -5    1    3    3    0  502 -0.42766296009E+02 -0.94532060707E+00  0.18878949838E+02  0.46993131970E+02  0.47000000000E+01 0.  1.
        -11    1    1    2    0    0 -0.14376651041E+01  0.16018958780E+02 -0.18339371862E+01  0.16187564577E+02  0.00000000000E+00 0. -1.
         11    1    1    2    0    0 -0.27374407570E+02 -0.64410496420E+02  0.16391566062E+03  0.17823134975E+03  0.00000000000E+00 0.  1.
<mgrwt>
<rscale>  0 0.12897495E+03</rscale>
<asrwt>0</asrwt>
<pdfrwt beam="2">  1        4 0.68380523E-02 0.13710292E+03</pdfrwt>
<pdfrwt beam="1">  1       -4 0.52988957E-01 0.13710292E+03</pdfrwt>
<totfact> 0.81721227E+02</totfact>
</mgrwt>
</event>
<event>
 6    1  0.8165933E-006  0.2110537E+03  0.7546771E-02  0.1177102E+00
         -2   -1    0    0    0  501 -0.00000000000E+00  0.00000000000E+00  0.60914057296E+02  0.60914057296E+02  0.00000000000E+00 0.  1.
          2   -1    0    0  501    0  0.00000000000E+00 -0.00000000000E+00 -0.37488171897E+03  0.37488171897E+03  0.00000000000E+00 0. -1.
          5    1    1    2  502    0  0.45597620510E+02 -0.86279915519E+02 -0.84725073013E+02  0.12932051197E+03  0.47000000000E+01 0. -1.
         -5    1    1    2    0  502 -0.42453999765E+02  0.10201883063E+03 -0.14952284773E+03  0.18598213864E+03  0.47000000000E+01 0.  1.
        -11    1    1    2    0    0  0.24486856751E+02  0.28320772220E+02 -0.25099962655E+02  0.45074165750E+02  0.00000000000E+00 0.  1.
         11    1    1    2    0    0 -0.27630477497E+02 -0.44059687336E+02 -0.54619778279E+02  0.75418959911E+02  0.00000000000E+00 0. -1.
<mgrwt>
<rscale>  0 0.17071762E+03</rscale>
<asrwt>0</asrwt>
<pdfrwt beam="2">  1        2 0.57674110E-01 0.21105372E+03</pdfrwt>
<pdfrwt beam="1">  1       -2 0.93713935E-02 0.21105372E+03</pdfrwt>
<totfact> 0.61904879E+03</totfact>
</mgrwt>
</event>
<event>
 7    1  0.8165933E-006  0.1647387E+03  0.7546771E-02  0.1187188E+00
         -1   -1    0    0    0  501 -0.00000000000E+00  0.00000000000E+00  0.24652914382E+03  0.24652914382E+03  0.00000000000E+00 0.  1.
          1   -1    0    0  501    0  0.00000000000E+00 -0.00000000000E+00 -0.10176670669E+03  0.10176670669E+03  0.00000000000E+00 0. -1.
         23    2    1    2    0    0 -0.22392616426E+02  0.11949977487E+03  0.65864364274E+02  0.17741742729E+03  0.11116295948E+03 0.  0.
          5    1    3    3  502    0 -0.45936103659E+02  0.25827953255E+02 -0.10818645892E+02  0.54003165534E+02  0.47000000000E+01 0. -1.
         -5    1    3    3    0  502  0.23543487233E+02  0.93671821615E+02  0.76683010166E+02  0.12341426175E+03  0.47000000000E+01 0.  1.
        -11    1    1    2    0    0 -0.35393483146E+02 -0.44269182940E+02  0.27799844817E+02  0.63129157917E+02  0.00000000000E+00 0.  1.
         11    1    1    2    0    0  0.57786099572E+02 -0.75230591929E+02  0.51098228043E+02  0.10774926531E+03  0.00000000000E+00 0. -1.
<mgrwt>
<rscale>  0 0.16134388E+03</rscale>
<asrwt>0</asrwt>
<pdfrwt beam="2">  1        1 0.15656417E-01 0.16473867E+03</pdfrwt>
<pdfrwt beam="1">  1       -1 0.37927560E-01 0.16473867E+03</pdfrwt>
<totfact> 0.23385403E+03</totfact>
</mgrwt>
</event>
<event>
 6    1  0.8165933E-006  0.2282283E+03  0.7546771E-02  0.1134374E+00
         -1   -1    0    0    0  501 -0.00000000000E+00  0.00000000000E+00  0.17524087687E+03  0.17524087687E+03  0.00000000000E+00 0.  1.
          1   -1    0    0  501    0  0.00000000000E+00 -0.00000000000E+00 -0.63588107355E+03  0.63588107355E+03  0.00000000000E+00 0. -1.
          5    1    1    2  502    0 -0.62279285075E+01  0.71390377888E+02 -0.41918749615E+03  0.42529474495E+03  0.47000000000E+01 0. -1.
         -5    1    1    2    0  502 -0.69903071699E+02  0.83639683781E+02 -0.13186474373E+03  0.17115033384E+03  0.47000000000E+01 0.  1.
        -11    1    1    2    0    0  0.10363607993E+02 -0.61504395479E+01  0.43723307307E+02  0.45353719574E+02  0.00000000000E+00 0. -1.
         11    1    1    2    0    0  0.65767392213E+02 -0.14887962212E+03  0.46688735900E+02  0.16932315205E+03  0.00000000000E+00 0.  1.
<mgrwt>
<rscale>  0 0.21934309E+03</rscale>
<asrwt>0</asrwt>
<pdfrwt beam="2">  1        1 0.97827856E-01 0.22822831E+03</pdfrwt>
<pdfrwt beam="1">  1       -1 0.26960135E-01 0.22822831E+03</pdfrwt>
<totfact> 0.40133371E+02</totfact>
</mgrwt>
</event>
<event>
 7    1  0.8165933E-006  0.1546951E+03  0.7546771E-02  0.1203027E+00
         -1   -1    0    0    0  501 -0.00000000000E+00  0.00000000000E+00  0.18062582380E+02  0.18062582380E+02  0.00000000000E+00 0.  1.
          1   -1    0    0  501    0  0.00000000000E+00 -0.00000000000E+00 -0.11183356385E+04  0.11183356385E+04  0.00000000000E+00 0. -1.
         23    2    1    2    0    0  0.29521501505E+02 -0.86246657414E+02 -0.61825391444E+03  0.63731348854E+03  0.12498229868E+03 0.  0.
          5    1    3    3  502    0  0.57678794206E+02 -0.39379794345E+02 -0.52070192183E+03  0.52538575627E+03  0.47000000000E+01 0. -1.
         -5    1    3    3    0  502 -0.28157292702E+02 -0.46866863069E+02 -0.97551992619E+02  0.11192773227E+03  0.47000000000E+01 0. -1.
        -11    1    1    2    0    0  0.15827902252E+01  0.84506109802E+02 -0.43174881730E+03  0.43994412038E+03  0.00000000000E+00 0. -1.
         11    1    1    2    0    0 -0.31104291730E+02  0.17405476118E+01 -0.50270324384E+02  0.59140611966E+02  0.00000000000E+00 0.  1.
<mgrwt>
<rscale>  0 0.14794047E+03</rscale>
<asrwt>0</asrwt>
<pdfrwt beam="2">  1        1 0.17205161E+00 0.15469512E+03</pdfrwt>
<pdfrwt beam="1">  1       -1 0.27788592E-02 0.15469512E+03</pdfrwt>
<totfact> 0.54280171E+03</totfact>
</mgrwt>
</event>
<event>
 6    1  0.8165933E-006  0.2445916E+03  0.7546771E-02  0.1135149E+00
          1   -1    0    0  501    0  0.00000000000E+00  0.00000000000E+00  0.76528465263E+03  0.76528465263E+03  0.00000000000E+00 0. -1.
         -1   -1    0    0    0  501 -0.00000000000E+00 -0.00000000000E+00 -0.76966638666E+02  0.76966638666E+02  0.00000000000E+00 0.  1.
          5    1    1    2  502    0 -0.89473134620E+02  0.52565401011E+02  0.96263679203E+02  0.14162397091E+03  0.47000000000E+01 0. -1.
         -5    1    1    2    0  502 -0.19599990624E+02  0.18532438343E+01  0.53478777487E+03  0.53517067212E+03  0.47000000000E+01 0.  1.
        -11    1    1    2    0    0  0.77508990063E+02 -0.21237964569E+02 -0.13173430516E+02  0.81438528665E+02  0.00000000000E+00 0.  1.
         11    1    1    2    0    0  0.31564135181E+02 -0.33180680275E+02  0.70439990401E+02  0.84018119599E+02  0.00000000000E+00 0. -1.
<mgrwt>
<rscale>  0 0.21831083E+03</rscale>
<asrwt>0</asrwt>
<pdfrwt beam="1">  1        1 0.11773609E+00 0.24459160E+03</pdfrwt>
<pdfrwt beam="2">  1       -1 0.11841022E-01 0.24459160E+03</pdfrwt>
<totfact> 0.11553316E+03</totfact>
</mgrwt>
</event>
<event>
 7    1  0.8165933E-006  0.1311881E+03  0.7546771E-02  0.1239007E+00
         -1   -1    0    0    0  501 -0.00000000000E+00  0.00000000000E+00  0.11506183121E+03  0.11506183121E+03  0.00000000000E+00 0.  1.
          1   -1    0    0  501    0  0.00000000000E+00 -0.00000000000E+00 -0.11591474204E+03  0.11591474204E+03  0.00000000000E+00 0. -1.
         23    2    1    2    0    0  0.37714548554E+02 -0.12709941811E+02  0.20565621542E+00  0.13118823523E+03  0.12500552377E+03 0.  0.
          5    1    3    3  502    0 -0.28775833519E+02  0.36974922246E+02  0.77054279305E+01  0.47714327925E+02  0.47000000000E+01 0.  1.
         -5    1    3    3    0  502  0.66490382072E+02 -0.49684864056E+02 -0.74997717151E+01  0.83473907302E+02  0.47000000000E+01 0.  1.
        -11    1    1    2    0    0 -0.18245188066E+02 -0.17525355820E+02 -0.39653298446E+02  0.47036252634E+02  0.00000000000E+00 0. -1.
         11    1    1    2    0    0 -0.19469360487E+02  0.30235297630E+02  0.38594731405E+02  0.52752085388E+02  0.00000000000E+00 0.  1.
<mgrwt>
<rscale>  0 0.12251369E+03</rscale>
<asrwt>0</asrwt>
<pdfrwt beam="2">  1        1 0.17833037E-01 0.13118807E+03</pdfrwt>
<pdfrwt beam="1">  1       -1 0.17701820E-01 0.13118807E+03</pdfrwt>
<totfact> 0.69022904E+03</totfact>
</mgrwt>
</event>
<event>
 7    1  0.8165933E-006  0.1552862E+03  0.7546771E-02  0.1202023E+00
         -1   -1    0    0    0  501 -0.00000000000E+00  0.00000000000E+00  0.14284210357E+02  0.14284210357E+02  0.00000000000E+00 0.  1.
          1   -1    0    0  501    0  0.00000000000E+00 -0.00000000000E+00 -0.21638581598E+04  0.21638581598E+04  0.00000000000E+00 0. -1.
         23    2    1    2    0    0  0.92135165225E+02 -0.38804669809E+00 -0.17677753194E+04  0.17745825938E+04  0.12499905306E+03 0.  0.
          5    1    3    3  502    0  0.32553639162E+02  0.47891463257E+02 -0.12272229387E+04  0.12285973966E+04  0.47000000000E+01 0. -1.
         -5    1    3    3    0  502  0.59581526063E+02 -0.48279509956E+02 -0.54055238069E+03  0.54598519723E+03  0.47000000000E+01 0. -1.
        -11    1    1    2    0    0 -0.14503806685E+02 -0.27717301999E+02 -0.34451164732E+02  0.46534847049E+02  0.00000000000E+00 0.  1.
         11    1    1    2    0    0 -0.77631358539E+02  0.28105348697E+02 -0.34734746537E+03  0.35702492931E+03  0.00000000000E+00 0. -1.
<mgrwt>
<rscale>  0 0.14874533E+03</rscale>
<asrwt>0</asrwt>
<pdfrwt beam="2">  1        1 0.33290135E+00 0.15528620E+03</pdfrwt>
<pdfrwt beam="1">  1       -1 0.21975702E-02 0.15528620E+03</pdfrwt>
<totfact> 0.15865197E+03</totfact>
</mgrwt>
</event>
<event>
 7    1  0.8165933E-006  0.1562497E+03  0.7546771E-02  0.1204719E+00
         -1   -1    0    0    0  501 -0.00000000000E+00  0.00000000000E+00  0.14071563952E+03  0.14071563952E+03  0.00000000000E+00 0.  1.
          1   -1    0    0  501    0  0.00000000000E+00 -0.00000000000E+00 -0.15511193005E+03  0.15511193005E+03  0.00000000000E+00 0. -1.
         23    2    1    2    0    0  0.43352188548E+02 -0.83126244460E+02 -0.58693122010E+02  0.16690974402E+03  0.12499838122E+03 0.  0.
          5    1    3    3  502    0  0.10071627642E+02  0.34112644543E+01 -0.72170633437E+02  0.73101058400E+02  0.47000000000E+01 0.  1.
         -5    1    3    3    0  502  0.33280560906E+02 -0.86537508914E+02  0.13477511427E+02  0.93808685619E+02  0.47000000000E+01 0.  1.
        -11    1    1    2    0    0 -0.21243594158E+02  0.92497952788E+02  0.44690136611E+02  0.10490171530E+03  0.00000000000E+00 0. -1.
         11    1    1    2    0    0 -0.22108594390E+02 -0.93717083274E+01 -0.39330512634E+00  0.24016110255E+02  0.00000000000E+00 0.  1.
<mgrwt>
<rscale>  0 0.14659607E+03</rscale>
<asrwt>0</asrwt>
<pdfrwt beam="2">  1        1 0.23863374E-01 0.15624974E+03</pdfrwt>
<pdfrwt beam="1">  1       -1 0.21648560E-01 0.15624974E+03</pdfrwt>
<totfact> 0.34877578E+03</totfact>
</mgrwt>
</event>
<event>
 7    1  0.8165933E-006  0.1327994E+03  0.7546771E-02  0.1234195E+00
          1   -1    0    0  501    0  0.00000000000E+00  0.00000000000E+00  0.60346568039E+03  0.60346568039E+03  0.00000000000E+00 0. -1.
         -1   -1    0    0    0  501 -0.00000000000E+00 -0.00000000000E+00 -0.25547437760E+02  0.25547437760E+02  0.00000000000E+00 0.  1.
         23    2    1    2    0    0 -0.21395319766E+02  0.39405838702E+02  0.40404825814E+03  0.42531245050E+03  0.12500042325E+03 0.  0.
          5    1    3    3  502    0  0.18855820142E+02 -0.36824715144E+02  0.19001336721E+03  0.19452190447E+03  0.47000000000E+01 0. -1.
         -5    1    3    3    0  502 -0.40251139908E+02  0.76230553846E+02  0.21403489093E+03  0.23079054603E+03  0.47000000000E+01 0. -1.
        -11    1    1    2    0    0  0.23707807682E+02 -0.68706248093E+02  0.95581197925E+02  0.12007653421E+03  0.00000000000E+00 0.  1.
         11    1    1    2    0    0 -0.23124879159E+01  0.29300409392E+02  0.78288786570E+02  0.83624133439E+02  0.00000000000E+00 0. -1.
<mgrwt>
<rscale>  0 0.12556101E+03</rscale>
<asrwt>0</asrwt>
<pdfrwt beam="1">  1        1 0.92840864E-01 0.13279942E+03</pdfrwt>
<pdfrwt beam="2">  1       -1 0.39303755E-02 0.13279942E+03</pdfrwt>
<totfact> 0.84279341E+03</totfact>
</mgrwt>
</event>
<event>
 7    1  0.8165933E-006  0.1402894E+03  0.7546771E-02  0.1223321E+00
         -2   -1    0    0    0  501 -0.00000000000E+00  0.00000000000E+00  0.44824231636E+02  0.44824231636E+02  0.00000000000E+00 0.  1.
          2   -1    0    0  501    0  0.00000000000E+00 -0.00000000000E+00 -0.45106768823E+03  0.45106768823E+03  0.00000000000E+00 0. -1.
         23    2    1    2    0    0  0.50105949230E+02 -0.39311701734E+02 -0.33328570811E+03  0.36160818772E+03  0.12500040861E+03 0.  0.
          5    1    3    3  502    0  0.60952374838E+02  0.29124516516E+02 -0.12669365508E+03  0.14365514853E+03  0.47000000000E+01 0.  1.
         -5    1    3    3    0  502 -0.10846425608E+02 -0.68436218250E+02 -0.20659205303E+03  0.21795303919E+03  0.47000000000E+01 0.  1.
        -11    1    1    2    0    0 -0.15712031673E+02  0.91066418856E+01 -0.85027215630E+02  0.86944961116E+02  0.00000000000E+00 0. -1.
         11    1    1    2    0    0 -0.34393917558E+02  0.30205059848E+02  0.12069467150E+02  0.47338771031E+02  0.00000000000E+00 0.  1.
<mgrwt>
<rscale>  0 0.13282622E+03</rscale>
<asrwt>0</asrwt>
<pdfrwt beam="2">  1        2 0.69395029E-01 0.14028941E+03</pdfrwt>
<pdfrwt beam="1">  1       -2 0.68960356E-02 0.14028941E+03</pdfrwt>
<totfact> 0.79754874E+03</totfact>
</mgrwt>
</event>
<event>
 7    1  0.8165933E-006  0.1513939E+03  0.7546771E-02  0.1206366E+00
          1   -1    0    0  501    0  0.00000000000E+00  0.00000000000E+00  0.12741456122E+04  0.12741456122E+04  0.00000000000E+00 0. -1.
         -1   -1    0    0    0  501 -0.00000000000E+00 -0.00000000000E+00 -0.16316716593E+02  0.16316716593E+02  0.00000000000E+00 0.  1.
         23    2    1    2    0    0  0.74341818874E+02 -0.42037825705E+02  0.83260601248E+03  0.84625817085E+03  0.12500493946E+03 0.  0.
          5    1    3    3  502    0 -0.33092378421E+02  0.44141721300E+01  0.15796309642E+03  0.16152095919E+03  0.47000000000E+01 0. -1.
         -5    1    3    3    0  502  0.10743419730E+03 -0.46451997835E+02  0.67464291605E+03  0.68473721166E+03  0.47000000000E+01 0. -1.
        -11    1    1    2    0    0 -0.54724480054E+02  0.56792032926E+02  0.40438980069E+03  0.41200875552E+03  0.00000000000E+00 0. -1.
         11    1    1    2    0    0 -0.19617338820E+02 -0.14754207221E+02  0.20833082424E+02  0.32195402411E+02  0.00000000000E+00 0.  1.
<mgrwt>
<rscale>  0 0.14530352E+03</rscale>
<asrwt>0</asrwt>
<pdfrwt beam="1">  1        1 0.19602232E+00 0.15139392E+03</pdfrwt>
<pdfrwt beam="2">  1       -1 0.25102651E-02 0.15139392E+03</pdfrwt>
<totfact> 0.49130947E+03</totfact>
</mgrwt>
</event>
<event>
 7    1  0.8165933E-006  0.2195196E+03  0.7546771E-02  0.1137740E+00
         -1   -1    0    0    0  501 -0.00000000000E+00  0.00000000000E+00  0.14766908487E+03  0.14766908487E+03  0.00000000000E+00 0.  1.
          1   -1    0    0  501    0  0.00000000000E+00 -0.00000000000E+00 -0.30033363871E+03  0.30033363871E+03  0.00000000000E+00 0. -1.
         23    2    1    2    0    0 -0.12053366680E+03 -0.13428006565E+03 -0.76563682424E+02  0.23248836513E+03  0.12501736516E+03 0.  0.
          5    1    3    3  502    0 -0.10026088404E+03 -0.14640002606E+03 -0.95764615186E+02  0.20168828429E+03  0.47000000000E+01 0. -1.
         -5    1    3    3    0  502 -0.20272782753E+02  0.12119960406E+02  0.19200932761E+02  0.30800080840E+02  0.47000000000E+01 0. -1.
        -11    1    1    2    0    0  0.10047450616E+03  0.10513805602E+03 -0.96636952833E+02  0.17460766840E+03  0.00000000000E+00 0. -1.
         11    1    1    2    0    0  0.20059160642E+02  0.29142009633E+02  0.20536081417E+02  0.40906690052E+02  0.00000000000E+00 0.  1.
<mgrwt>
<rscale>  0 0.21490391E+03</rscale>
<asrwt>0</asrwt>
<pdfrwt beam="2">  1        1 0.46205175E-01 0.21951957E+03</pdfrwt>
<pdfrwt beam="1">  1       -1 0.22718321E-01 0.21951957E+03</pdfrwt>
<totfact> 0.14235933E+03</totfact>
</mgrwt>
</event>
<event>
 7    1  0.8165933E-006  0.1840422E+03  0.7546771E-02  0.1168831E+00
          2   -1    0    0  501    0  0.00000000000E+00  0.00000000000E+00  0.94509131781E+03  0.94509131781E+03  0.00000000000E+00 0. -1.
         -2   -1    0    0    0  501 -0.00000000000E+00 -0.00000000000E+00 -0.33977241711E+02  0.33977241711E+02  0.00000000000E+00 0.  1.
         23    2    1    2    0    0 -0.44070080601E+02  0.12768889985E+03  0.59371935789E+03  0.62159006680E+03  0.12499963223E+03 0.  0.
          5    1    3    3  502    0  0.18900495434E+02  0.10789878803E+03  0.45311716669E+03  0.46619377294E+03  0.47000000000E+01 0.  1.
         -5    1    3    3    0  502 -0.62970576035E+02  0.19790111823E+02  0.14060219121E+03  0.15539629386E+03  0.47000000000E+01 0.  1.
        -11    1    1    2    0    0  0.52275065995E+02 -0.10238230504E+03  0.30882867471E+03  0.32952992160E+03  0.00000000000E+00 0. -1.
         11    1    1    2    0    0 -0.82049853939E+01 -0.25306594814E+02  0.85660434968E+01  0.27948571118E+02  0.00000000000E+00 0.  1.
<mgrwt>
<rscale>  0 0.17894185E+03</rscale>
<asrwt>0</asrwt>
<pdfrwt beam="1">  1        2 0.14539864E+00 0.18404221E+03</pdfrwt>
<pdfrwt beam="2">  1       -2 0.52272687E-02 0.18404221E+03</pdfrwt>
<totfact> 0.51240316E+03</totfact>
</mgrwt>
</event>
<event>
 7    1  0.8165933E-006  0.2266299E+03  0.7546771E-02  0.1132206E+00
         -1   -1    0    0    0  501 -0.00000000000E+00  0.00000000000E+00  0.85767185803E+03  0.85767185803E+03  0.00000000000E+00 0.  1.
          1   -1    0    0  501    0  0.00000000000E+00 -0.00000000000E+00 -0.95851084389E+02  0.95851084389E+02  0.00000000000E+00 0. -1.
         23    2    1    2    0    0 -0.77556354011E+01 -0.18888394994E+03  0.80228651101E+02  0.24041163191E+03  0.12499527941E+03 0.  0.
          5    1    3    3  502    0 -0.21749281033E+01  0.18193971927E+02  0.11332373409E+02  0.22051385758E+02  0.47000000000E+01 0.  1.
         -5    1    3    3    0  502 -0.55807072978E+01 -0.20707792187E+03  0.68896277692E+02  0.21836024615E+03  0.47000000000E+01 0.  1.
        -11    1    1    2    0    0  0.30375557554E+02  0.43213998811E+02  0.28830669127E+03  0.29310556532E+03  0.00000000000E+00 0.  1.
         11    1    1    2    0    0 -0.22619922153E+02  0.14566995113E+03  0.39328543127E+03  0.42000574519E+03  0.00000000000E+00 0. -1.
<mgrwt>
<rscale>  0 0.22226446E+03</rscale>
<asrwt>0</asrwt>
<pdfrwt beam="2">  1        1 0.14746321E-01 0.22662991E+03</pdfrwt>
<pdfrwt beam="1">  1       -1 0.13194951E+00 0.22662991E+03</pdfrwt>
<totfact> 0.20137937E+02</totfact>
</mgrwt>
</event>
<event>
 7    1  0.8165933E-006  0.1281646E+03  0.7546771E-02  0.1247197E+00
         -3   -1    0    0    0  501 -0.00000000000E+00  0.00000000000E+00  0.69104669169E+02  0.69104669169E+02  0.00000000000E+00 0.  1.
          3   -1    0    0  501    0  0.00000000000E+00 -0.00000000000E+00 -0.17555434410E+03  0.17555434410E+03  0.00000000000E+00 0. -1.
         23    2    1    2    0    0  0.10424729144E+02 -0.26333553691E+02 -0.75947025718E+02  0.14897693841E+03  0.12499618568E+03 0.  0.
          5    1    3    3  502    0 -0.49109236630E+02 -0.28810526150E+02 -0.67307790425E+01  0.57525272063E+02  0.47000000000E+01 0.  1.
         -5    1    3    3    0  502  0.59533965774E+02  0.24769724597E+01 -0.69216246676E+02  0.91451666345E+02  0.47000000000E+01 0.  1.
        -11    1    1    2    0    0 -0.28063364183E+02 -0.62489204279E+01  0.18545338968E+02  0.34213024029E+02  0.00000000000E+00 0.  1.
         11    1    1    2    0    0  0.17638635039E+02  0.32582474119E+02 -0.49047988183E+02  0.61469050834E+02  0.00000000000E+00 0. -1.
<mgrwt>
<rscale>  0 0.11754817E+03</rscale>
<asrwt>0</asrwt>
<pdfrwt beam="2">  1        3 0.27008360E-01 0.12816465E+03</pdfrwt>
<pdfrwt beam="1">  1       -3 0.10631488E-01 0.12816465E+03</pdfrwt>
<totfact> 0.19718163E+03</totfact>
</mgrwt>
</event>
<event>
 7    1  0.8165933E-006  0.3428626E+03  0.7546771E-02  0.1066632E+00
          1   -1    0    0  501    0  0.00000000000E+00  0.00000000000E+00  0.19780086939E+03  0.19780086939E+03  0.00000000000E+00 0. -1.
         -1   -1    0    0    0  501 -0.00000000000E+00 -0.00000000000E+00 -0.62718362845E+03  0.62718362845E+03  0.00000000000E+00 0.  1.
         23    2    1    2    0    0 -0.31839021306E+03 -0.23781469704E+02 -0.10140340871E+03  0.35754358783E+03  0.12496751508E+03 0.  0.
          5    1    3    3  502    0 -0.13285159747E+03 -0.66231224187E+02 -0.71442867505E+02  0.16480987629E+03  0.47000000000E+01 0. -1.
         -5    1    3    3    0  502 -0.18553861560E+03  0.42449754482E+02 -0.29960541201E+02  0.19273371153E+03  0.47000000000E+01 0. -1.
        -11    1    1    2    0    0  0.22884820007E+03  0.29404771297E+02 -0.28851099098E+03  0.36942486539E+03  0.00000000000E+00 0.  1.
         11    1    1    2    0    0  0.89542012989E+02 -0.56233015929E+01 -0.39468359367E+02  0.98016044615E+02  0.00000000000E+00 0. -1.
<mgrwt>
<rscale>  0 0.34038584E+03</rscale>
<asrwt>0</asrwt>
<pdfrwt beam="1">  1        1 0.30430904E-01 0.34286260E+03</pdfrwt>
<pdfrwt beam="2">  1       -1 0.96489787E-01 0.34286260E+03</pdfrwt>
<totfact> 0.16228725E+02</totfact>
</mgrwt>
</event>
<event>
 7    1  0.8165933E-006  0.1847174E+03  0.7546771E-02  0.1168521E+00
         -2   -1    0    0    0  501 -0.00000000000E+00  0.00000000000E+00  0.29926959017E+03  0.29926959017E+03  0.00000000000E+00 0.  1.
          2   -1    0    0  501    0  0.00000000000E+00 -0.00000000000E+00 -0.10768209265E+03  0.10768209265E+03  0.00000000000E+00 0. -1.
         23    2    1    2    0    0 -0.13530732112E+03  0.13752129108E+02  0.14991572622E+03  0.23789751514E+03  0.12499324196E+03 0.  0.
          5    1    3    3  502    0 -0.49149009051E+02 -0.55313603150E+02  0.57482596422E+02  0.93816622597E+02  0.47000000000E+01 0. -1.
         -5    1    3    3    0  502 -0.86158312069E+02  0.69065732258E+02  0.92433129802E+02  0.14408089254E+03  0.47000000000E+01 0. -1.
        -11    1    1    2    0    0  0.61314250808E+02  0.24454508755E+02 -0.15796121592E+02  0.67874721420E+02  0.00000000000E+00 0. -1.
         11    1    1    2    0    0  0.73993070313E+02 -0.38206637863E+02  0.57467892895E+02  0.10117944626E+03  0.00000000000E+00 0.  1.
<mgrwt>
<rscale>  0 0.17926034E+03</rscale>
<asrwt>0</asrwt>
<pdfrwt beam="2">  1        2 0.16566476E-01 0.18471736E+03</pdfrwt>
<pdfrwt beam="1">  1       -2 0.46041475E-01 0.18471736E+03</pdfrwt>
<totfact> 0.15453744E+03</totfact>
</mgrwt>
</event>
<event>
 7    1  0.8165933E-006  0.1580023E+03  0.7546771E-02  0.1198855E+00
          4   -1    0    0  501    0  0.00000000000E+00  0.00000000000E+00  0.14462378667E+02  0.14462378667E+02  0.00000000000E+00 0. -1.
         -4   -1    0    0    0  501 -0.00000000000E+00 -0.00000000000E+00 -0.16104798689E+04  0.16104798689E+04  0.00000000000E+00 0.  1.
         23    2    1    2    0    0  0.51212659064E+02  0.81962764046E+02 -0.11053264318E+04  0.11165622388E+04  0.12499632463E+03 0.  0.
          5    1    3    3  502    0 -0.40678887948E+02  0.14289773603E+02 -0.34155544443E+03  0.34429809929E+03  0.47000000000E+01 0. -1.
         -5    1    3    3    0  502  0.91891547012E+02  0.67672990443E+02 -0.76377098737E+03  0.77226413952E+03  0.47000000000E+01 0. -1.
        -11    1    1    2    0    0 -0.73143608058E+02 -0.40339561521E+02 -0.35733943032E+03  0.36697239145E+03  0.00000000000E+00 0.  1.
         11    1    1    2    0    0  0.21930948994E+02 -0.41623202525E+02 -0.13335162815E+03  0.14140761735E+03  0.00000000000E+00 0. -1.
<mgrwt>
<rscale>  0 0.15132468E+03</rscale>
<asrwt>0</asrwt>
<pdfrwt beam="1">  1        4 0.22249816E-02 0.15800225E+03</pdfrwt>
<pdfrwt beam="2">  1       -4 0.24776610E+00 0.15800225E+03</pdfrwt>
<totfact> 0.11170634E+02</totfact>
</mgrwt>
</event>
<event>
 7    1  0.8165933E-006  0.1287181E+03  0.7546771E-02  0.1231637E+00
         -2   -1    0    0    0  501 -0.00000000000E+00  0.00000000000E+00  0.53945133336E+02  0.53945133336E+02  0.00000000000E+00 0.  1.
          2   -1    0    0  501    0  0.00000000000E+00 -0.00000000000E+00 -0.34167930130E+03  0.34167930130E+03  0.00000000000E+00 0. -1.
         23    2    1    2    0    0  0.34082684036E+01  0.63741155086E+02 -0.22119856556E+03  0.25592411955E+03  0.11177566111E+03 0.  0.
          5    1    3    3  502    0 -0.35375386793E+02  0.77622049819E+02 -0.16802912361E+03  0.18850060210E+03  0.47000000000E+01 0. -1.
         -5    1    3    3    0  502  0.38783655196E+02 -0.13880894733E+02 -0.53169441944E+02  0.67423517452E+02  0.47000000000E+01 0.  1.
        -11    1    1    2    0    0 -0.15087217232E+02 -0.46118740402E+02  0.18609418215E+02  0.51969921939E+02  0.00000000000E+00 0.  1.
         11    1    1    2    0    0  0.11678948829E+02 -0.17622414684E+02 -0.85145020621E+02  0.87730393146E+02  0.00000000000E+00 0. -1.
<mgrwt>
<rscale>  0 0.12722222E+03</rscale>
<asrwt>0</asrwt>
<pdfrwt beam="2">  1        2 0.52566046E-01 0.12871810E+03</pdfrwt>
<pdfrwt beam="1">  1       -2 0.82992513E-02 0.12871810E+03</pdfrwt>
<totfact> 0.80254008E+03</totfact>
</mgrwt>
</event>
<event>
 7    1  0.8165933E-006  0.1708832E+03  0.7546771E-02  0.1182186E+00
          1   -1    0    0  501    0  0.00000000000E+00  0.00000000000E+00  0.14574844029E+04  0.14574844029E+04  0.00000000000E+00 0. -1.
         -1   -1    0    0    0  501 -0.00000000000E+00 -0.00000000000E+00 -0.19778605433E+02  0.19778605433E+02  0.00000000000E+00 0.  1.
         23    2    1    2    0    0  0.11077107296E+03 -0.36126759148E+02  0.98669089536E+03  0.10013790507E+04  0.12500282725E+03 0.  0.
          5    1    3    3  502    0  0.13268935088E+03 -0.15903362699E+02  0.66743856039E+03  0.68070235983E+03  0.47000000000E+01 0.  1.
         -5    1    3    3    0  502 -0.21918277917E+02 -0.20223396449E+02  0.31925233496E+03  0.32067669084E+03  0.47000000000E+01 0.  1.
        -11    1    1    2    0    0 -0.11140916527E+03  0.59664511963E+02  0.34873006778E+03  0.37092386856E+03  0.00000000000E+00 0.  1.
         11    1    1    2    0    0  0.63809231180E+00 -0.23537752815E+02  0.10228483435E+03  0.10496008911E+03  0.00000000000E+00 0. -1.
<mgrwt>
<rscale>  0 0.16590560E+03</rscale>
<asrwt>0</asrwt>
<pdfrwt beam="1">  1        1 0.22422829E+00 0.17088324E+03</pdfrwt>
<pdfrwt beam="2">  1       -1 0.30428635E-02 0.17088324E+03</pdfrwt>
<totfact> 0.28095396E+03</totfact>
</mgrwt>
</event>
<event>
 7    1  0.8165933E-006  0.1329261E+03  0.7546771E-02  0.1235647E+00
          1   -1    0    0  501    0  0.00000000000E+00  0.00000000000E+00  0.56758170701E+03  0.56758170701E+03  0.00000000000E+00 0. -1.
         -1   -1    0    0    0  501 -0.00000000000E+00 -0.00000000000E+00 -0.26121551557E+02  0.26121551557E+02  0.00000000000E+00 0.  1.
         23    2    1    2    0    0 -0.37011190394E+02  0.25964199391E+02  0.37751570916E+03  0.40023424912E+03  0.12500150258E+03 0.  0.
          5    1    3    3  502    0 -0.68694495903E+01  0.34111816828E+02  0.36432722642E+03  0.36601533205E+03  0.47000000000E+01 0. -1.
         -5    1    3    3    0  502 -0.30141740804E+02 -0.81476174371E+01  0.13188482733E+02  0.34218917069E+02  0.47000000000E+01 0. -1.
        -11    1    1    2    0    0 -0.11649185628E+02  0.90205639841E+01 -0.39040891892E+01  0.15241916309E+02  0.00000000000E+00 0.  1.
         11    1    1    2    0    0  0.48660376022E+02 -0.34984763375E+02  0.16784853549E+03  0.17822709314E+03  0.00000000000E+00 0. -1.
<mgrwt>
<rscale>  0 0.12463125E+03</rscale>
<asrwt>0</asrwt>
<pdfrwt beam="1">  1        1 0.87320254E-01 0.13292608E+03</pdfrwt>
<pdfrwt beam="2">  1       -1 0.40187007E-02 0.13292608E+03</pdfrwt>
<totfact> 0.88625928E+03</totfact>
</mgrwt>
</event>
<event>
 7    1  0.8165933E-006  0.1507571E+03  0.7546771E-02  0.1212320E+00
         -1   -1    0    0    0  501 -0.00000000000E+00  0.00000000000E+00  0.32852883952E+03  0.32852883952E+03  0.00000000000E+00 0.  1.
          1   -1    0    0  501    0  0.00000000000E+00 -0.00000000000E+00 -0.59350689033E+02  0.59350689033E+02  0.00000000000E+00 0. -1.
         23    2    1    2    0    0 -0.78414391411E+02  0.30887012074E+02  0.91113056787E+02  0.17615133474E+03  0.12499951727E+03 0.  0.
          5    1    3    3  502    0 -0.85727941198E+02 -0.19057283638E+02  0.89429655587E+02  0.12542811989E+03  0.47000000000E+01 0. -1.
         -5    1    3    3    0  502  0.73135497872E+01  0.49944295712E+02  0.16834011993E+01  0.50723214846E+02  0.47000000000E+01 0. -1.
        -11    1    1    2    0    0  0.39585297263E+02  0.16120037407E+02  0.31829286662E+02  0.53291226809E+02  0.00000000000E+00 0. -1.
         11    1    1    2    0    0  0.38829094148E+02 -0.47007049482E+02  0.14623580704E+03  0.15843696701E+03  0.00000000000E+00 0.  1.
<mgrwt>
<rscale>  0 0.14075275E+03</rscale>
<asrwt>0</asrwt>
<pdfrwt beam="2">  1        1 0.91308755E-02 0.15075710E+03</pdfrwt>
<pdfrwt beam="1">  1       -1 0.50542897E-01 0.15075710E+03</pdfrwt>
<totfact> 0.28365936E+03</totfact>
</mgrwt>
</event>
<event>
 7    1  0.8165933E-006  0.1288168E+03  0.7546771E-02  0.1242542E+00
          3   -1    0    0  501    0  0.00000000000E+00  0.00000000000E+00  0.52664373933E+02  0.52664373933E+02  0.00000000000E+00 0. -1.
         -3   -1    0    0    0  501 -0.00000000000E+00 -0.00000000000E+00 -0.24469557203E+03  0.24469557203E+03  0.00000000000E+00 0.  1.
         23    2    1    2    0    0 -0.17238858017E+01 -0.31087595601E+02 -0.10422211790E+03  0.16569860063E+03  0.12499746402E+03 0.  0.
          5    1    3    3  502    0  0.20485172727E+02  0.34229227356E+02 -0.84865818250E+02  0.93891317033E+02  0.47000000000E+01 0. -1.
         -5    1    3    3    0  502 -0.22209058528E+02 -0.65316822957E+02 -0.19356299647E+02  0.71807283600E+02  0.47000000000E+01 0. -1.
        -11    1    1    2    0    0 -0.20967777191E+02  0.37998276172E+02 -0.96965530773E+02  0.10623479106E+03  0.00000000000E+00 0.  1.
         11    1    1    2    0    0  0.22691662993E+02 -0.69106805711E+01  0.91564505708E+01  0.25426554277E+02  0.00000000000E+00 0. -1.
<mgrwt>
<rscale>  0 0.12033736E+03</rscale>
<asrwt>0</asrwt>
<pdfrwt beam="1">  1        3 0.81022114E-02 0.12881683E+03</pdfrwt>
<pdfrwt beam="2">  1       -3 0.37645473E-01 0.12881683E+03</pdfrwt>
<totfact> 0.16605272E+03</totfact>
</mgrwt>
</event>
<event>
 7    1  0.8165933E-006  0.1529947E+03  0.7546771E-02  0.1205166E+00
         -1   -1    0    0    0  501 -0.00000000000E+00  0.00000000000E+00  0.34977654277E+02  0.34977654277E+02  0.00000000000E+00 0.  1.
          1   -1    0    0  501    0  0.00000000000E+00 -0.00000000000E+00 -0.57328137752E+03  0.57328137752E+03  0.00000000000E+00 0. -1.
         23    2    1    2    0    0  0.88176668991E+02 -0.26269284659E+01 -0.33302401028E+03  0.36648651001E+03  0.12500137953E+03 0.  0.
          5    1    3    3  502    0 -0.27462372927E+02  0.20618329281E+02 -0.85349847333E+02  0.92119400068E+02  0.47000000000E+01 0.  1.
         -5    1    3    3    0  502  0.11563904192E+03 -0.23245257747E+02 -0.24767416295E+03  0.27436710994E+03  0.47000000000E+01 0.  1.
        -11    1    1    2    0    0  0.66617967869E+01  0.25695924636E+02 -0.23528936686E+02  0.35472114976E+02  0.00000000000E+00 0.  1.
         11    1    1    2    0    0 -0.94838465778E+02 -0.23068996170E+02 -0.18175077627E+03  0.20630040681E+03  0.00000000000E+00 0. -1.
<mgrwt>
<rscale>  0 0.14624396E+03</rscale>
<asrwt>0</asrwt>
<pdfrwt beam="2">  1        1 0.88197142E-01 0.15299468E+03</pdfrwt>
<pdfrwt beam="1">  1       -1 0.53811771E-02 0.15299468E+03</pdfrwt>
<totfact> 0.57268752E+03</totfact>
</mgrwt>
</event>
<event>
 7    1  0.8165933E-006  0.3083957E+03  0.7546771E-02  0.1082797E+00
         -2   -1    0    0    0  501 -0.00000000000E+00  0.00000000000E+00  0.10115993108E+03  0.10115993108E+03  0.00000000000E+00 0.  1.
          2   -1    0    0  501    0  0.00000000000E+00 -0.00000000000E+00 -0.90467380910E+03  0.90467380910E+03  0.00000000000E+00 0. -1.
         23    2    1    2    0    0  0.18948806599E+03 -0.20875379899E+03 -0.44988142550E+03  0.54543668267E+03  0.12499600810E+03 0.  0.
          5    1    3    3  502    0  0.12595970603E+03 -0.20589671496E+03 -0.32106450913E+03  0.40170114986E+03  0.47000000000E+01 0.  1.
         -5    1    3    3    0  502  0.63528359957E+02 -0.28570840334E+01 -0.12881691637E+03  0.14373553281E+03  0.47000000000E+01 0.  1.
        -11    1    1    2    0    0 -0.64127875183E+02  0.13458867774E+03 -0.17412189766E+03  0.22922681299E+03  0.00000000000E+00 0.  1.
         11    1    1    2    0    0 -0.12536019080E+03  0.74165121255E+02 -0.17951055485E+03  0.23117024452E+03  0.00000000000E+00 0. -1.
<mgrwt>
<rscale>  0 0.30494015E+03</rscale>
<asrwt>0</asrwt>
<pdfrwt beam="2">  1        2 0.13918058E+00 0.30839565E+03</pdfrwt>
<pdfrwt beam="1">  1       -2 0.15563067E-01 0.30839565E+03</pdfrwt>
<totfact> 0.97198834E+02</totfact>
</mgrwt>
</event>
<event>
 7    1  0.8165933E-006  0.1261952E+03  0.7546771E-02  0.1248730E+00
         -2   -1    0    0    0  501 -0.00000000000E+00  0.00000000000E+00  0.10309380084E+03  0.10309380084E+03  0.00000000000E+00 0.  1.
          2   -1    0    0  501    0  0.00000000000E+00 -0.00000000000E+00 -0.11566913584E+03  0.11566913584E+03  0.00000000000E+00 0. -1.
         23    2    1    2    0    0 -0.29754782859E+01  0.17086649551E+02 -0.10154398198E+02  0.12660311439E+03  0.12499771880E+03 0.  0.
          5    1    3    3  502    0 -0.96405241367E+01 -0.20829086617E+01 -0.66052120204E+02  0.66949613872E+02  0.47000000000E+01 0.  1.
         -5    1    3    3    0  502  0.66650458507E+01  0.19169558213E+02  0.55897722006E+02  0.59653500515E+02  0.47000000000E+01 0.  1.
        -11    1    1    2    0    0  0.14700985371E+02 -0.51588467235E+02 -0.10918843586E+02  0.54742214677E+02  0.00000000000E+00 0.  1.
         11    1    1    2    0    0 -0.11725507086E+02  0.34501817683E+02  0.84979067870E+01  0.37417607615E+02  0.00000000000E+00 0. -1.
<mgrwt>
<rscale>  0 0.11664876E+03</rscale>
<asrwt>0</asrwt>
<pdfrwt beam="2">  1        2 0.17795252E-01 0.12619523E+03</pdfrwt>
<pdfrwt beam="1">  1       -2 0.15860585E-01 0.12619523E+03</pdfrwt>
<totfact> 0.92868006E+03</totfact>
</mgrwt>
</event>
<event>
 7    1  0.8165933E-006  0.1396982E+03  0.7546771E-02  0.1223981E+00
         -2   -1    0    0    0  501 -0.00000000000E+00  0.00000000000E+00  0.45121957993E+02  0.45121957993E+02  0.00000000000E+00 0.  1.
          2   -1    0    0  501    0  0.00000000000E+00 -0.00000000000E+00 -0.43917348028E+03  0.43917348028E+03  0.00000000000E+00 0. -1.
         23    2    1    2    0    0 -0.62244105075E+02 -0.40162139019E+01 -0.32095316769E+03  0.35003787559E+03  0.12500047962E+03 0.  0.
          5    1    3    3  502    0 -0.46634068237E+02 -0.22497435331E+02 -0.34205655636E+02  0.62233333466E+02  0.47000000000E+01 0. -1.
         -5    1    3    3    0  502 -0.15610036837E+02  0.18481221429E+02 -0.28674751206E+03  0.28780454212E+03  0.47000000000E+01 0. -1.
        -11    1    1    2    0    0  0.85917799927E+02  0.12541320562E+02 -0.50552621555E+02  0.10047248684E+03  0.00000000000E+00 0. -1.
         11    1    1    2    0    0 -0.23673694853E+02 -0.85251066597E+01 -0.22545733043E+02  0.33785075847E+02  0.00000000000E+00 0.  1.
<mgrwt>
<rscale>  0 0.13237023E+03</rscale>
<asrwt>0</asrwt>
<pdfrwt beam="2">  1        2 0.67565150E-01 0.13969817E+03</pdfrwt>
<pdfrwt beam="1">  1       -2 0.69418398E-02 0.13969817E+03</pdfrwt>
<totfact> 0.81244101E+03</totfact>
</mgrwt>
</event>
<event>
 7    1  0.8165933E-006  0.1689168E+03  0.7546771E-02  0.1185383E+00
          1   -1    0    0  501    0  0.00000000000E+00  0.00000000000E+00  0.18161462994E+03  0.18161462994E+03  0.00000000000E+00 0. -1.
         -1   -1    0    0    0  501 -0.00000000000E+00 -0.00000000000E+00 -0.13682685239E+03  0.13682685239E+03  0.00000000000E+00 0.  1.
         23    2    1    2    0    0  0.11313260800E+03 -0.10486152213E+02  0.23718299510E+02  0.17057387681E+03  0.12499577328E+03 0.  0.
          5    1    3    3  502    0  0.52787312607E+02  0.41945268824E+02  0.52392191840E+02  0.85515716186E+02  0.47000000000E+01 0. -1.
         -5    1    3    3    0  502  0.60345295391E+02 -0.52431421038E+02 -0.28673892330E+02  0.85058160627E+02  0.47000000000E+01 0. -1.
        -11    1    1    2    0    0 -0.63912830157E+02  0.70942027119E+01  0.57717568687E+02  0.86408884416E+02  0.00000000000E+00 0. -1.
         11    1    1    2    0    0 -0.49219777841E+02  0.33919495015E+01 -0.36648090646E+02  0.61458721107E+02  0.00000000000E+00 0.  1.
<mgrwt>
<rscale>  0 0.16297065E+03</rscale>
<asrwt>0</asrwt>
<pdfrwt beam="1">  1        1 0.27940713E-01 0.16891681E+03</pdfrwt>
<pdfrwt beam="2">  1       -1 0.21050285E-01 0.16891681E+03</pdfrwt>
<totfact> 0.30030688E+03</totfact>
</mgrwt>
</event>
<event>
 7    1  0.8165933E-006  0.1277451E+03  0.7546771E-02  0.1244943E+00
         -2   -1    0    0    0  501 -0.00000000000E+00  0.00000000000E+00  0.21354411842E+02  0.21354411842E+02  0.00000000000E+00 0.  1.
          2   -1    0    0  501    0  0.00000000000E+00 -0.00000000000E+00 -0.58991893323E+03  0.58991893323E+03  0.00000000000E+00 0. -1.
         23    2    1    2    0    0  0.11666062813E+02  0.23574478415E+02 -0.35154354741E+03  0.37403432946E+03  0.12500784308E+03 0.  0.
          5    1    3    3  502    0  0.52805766853E+02 -0.26104406342E+02 -0.12206209676E+03  0.13561391709E+03  0.47000000000E+01 0. -1.
         -5    1    3    3    0  502 -0.41139704040E+02  0.49678884756E+02 -0.22948145066E+03  0.23842041237E+03  0.47000000000E+01 0. -1.
        -11    1    1    2    0    0  0.15781791334E+01  0.16423552446E+02 -0.34325013842E+00  0.16502773858E+02  0.00000000000E+00 0.  1.
         11    1    1    2    0    0 -0.13244241946E+02 -0.39998030861E+02 -0.21667772384E+03  0.22073624176E+03  0.00000000000E+00 0. -1.
<mgrwt>
<rscale>  0 0.11888818E+03</rscale>
<asrwt>0</asrwt>
<pdfrwt beam="2">  1        2 0.90756737E-01 0.12774511E+03</pdfrwt>
<pdfrwt beam="1">  1       -2 0.32852949E-02 0.12774511E+03</pdfrwt>
<totfact> 0.17892028E+04</totfact>
</mgrwt>
</event>
<event>
 7    1  0.8165933E-006  0.1641986E+03  0.7546771E-02  0.1191031E+00
          1   -1    0    0  501    0  0.00000000000E+00  0.00000000000E+00  0.16056322698E+03  0.16056322698E+03  0.00000000000E+00 0. -1.
         -1   -1    0    0    0  501 -0.00000000000E+00 -0.00000000000E+00 -0.14467634433E+03  0.14467634433E+03  0.00000000000E+00 0.  1.
         23    2    1    2    0    0  0.71184122790E+02  0.79175763420E+02  0.63575401668E+01  0.16432158589E+03  0.12500073769E+03 0.  0.
          5    1    3    3  502    0 -0.18686148304E+02 -0.20800634343E+02 -0.68238369520E+01  0.29163217900E+02  0.47000000000E+01 0.  1.
         -5    1    3    3    0  502  0.89870271094E+02  0.99976397764E+02  0.13181377119E+02  0.13515836800E+03  0.47000000000E+01 0.  1.
        -11    1    1    2    0    0 -0.17146236122E+02 -0.22253125495E+02  0.46368759940E+02  0.54214914054E+02  0.00000000000E+00 0. -1.
         11    1    1    2    0    0 -0.54037886667E+02 -0.56922637926E+02 -0.36839417457E+02  0.86703071355E+02  0.00000000000E+00 0.  1.
<mgrwt>
<rscale>  0 0.15795006E+03</rscale>
<asrwt>0</asrwt>
<pdfrwt beam="1">  1        1 0.24702035E-01 0.16419855E+03</pdfrwt>
<pdfrwt beam="2">  1       -1 0.22257899E-01 0.16419855E+03</pdfrwt>
<totfact> 0.31989831E+03</totfact>
</mgrwt>
</event>
<event>
 7    1  0.8165933E-006  0.1687698E+03  0.7546771E-02  0.1185882E+00
          2   -1    0    0  501    0  0.00000000000E+00  0.00000000000E+00  0.52944848619E+03  0.52944848619E+03  0.00000000000E+00 0.  1.
         -2   -1    0    0    0  501 -0.00000000000E+00 -0.00000000000E+00 -0.47712790640E+02  0.47712790640E+02  0.00000000000E+00 0. -1.
         23    2    1    2    0    0  0.56906512661E+02  0.98219927897E+02  0.30399896121E+03  0.34770477263E+03  0.12489089267E+03 0.  0.
          5    1    3    3  502    0  0.56873956401E+02  0.89242876144E+02  0.31524533538E+03  0.33256675922E+03  0.47000000000E+01 0.  1.
         -5    1    3    3    0  502  0.32556260415E-01  0.89770517532E+01 -0.11246374168E+02  0.15138013410E+02  0.47000000000E+01 0.  1.
        -11    1    1    2    0    0 -0.63548522476E+02 -0.62108655779E+02  0.62834797702E+02  0.10883065576E+03  0.00000000000E+00 0. -1.
         11    1    1    2    0    0  0.66420098142E+01 -0.36111272118E+02  0.11490193663E+03  0.12062584843E+03  0.00000000000E+00 0.  1.
<mgrwt>
<rscale>  0 0.16251864E+03</rscale>
<asrwt>0</asrwt>
<pdfrwt beam="1">  1        2 0.81453609E-01 0.16876979E+03</pdfrwt>
<pdfrwt beam="2">  1       -2 0.73404297E-02 0.16876979E+03</pdfrwt>
<totfact> 0.61397767E+03</totfact>
</mgrwt>
</event>
<event>
 7    1  0.8165933E-006  0.1397538E+03  0.7546771E-02  0.1223814E+00
          1   -1    0    0  501    0  0.00000000000E+00  0.00000000000E+00  0.75660563544E+03  0.75660563544E+03  0.00000000000E+00 0. -1.
         -1   -1    0    0    0  501 -0.00000000000E+00 -0.00000000000E+00 -0.21123438437E+02  0.21123438437E+02  0.00000000000E+00 0.  1.
         23    2    1    2    0    0  0.30684888401E+02 -0.54437863003E+02  0.42281980354E+03  0.44531753777E+03  0.12500431942E+03 0.  0.
          5    1    3    3  502    0 -0.22495879490E+02  0.73460213491E+01  0.12929738237E+02  0.27373285418E+02  0.47000000000E+01 0.  1.
         -5    1    3    3    0  502  0.53180767891E+02 -0.61783884353E+02  0.40989006531E+03  0.41794425236E+03  0.47000000000E+01 0.  1.
        -11    1    1    2    0    0 -0.41340665996E+02  0.33560693416E+02  0.30200462159E+03  0.30666294571E+03  0.00000000000E+00 0. -1.
         11    1    1    2    0    0  0.10655777595E+02  0.20877169587E+02  0.10657771866E+02  0.25748590394E+02  0.00000000000E+00 0.  1.
<mgrwt>
<rscale>  0 0.13248522E+03</rscale>
<asrwt>0</asrwt>
<pdfrwt beam="1">  1        1 0.11640085E+00 0.13975379E+03</pdfrwt>
<pdfrwt beam="2">  1       -1 0.32497603E-02 0.13975379E+03</pdfrwt>
<totfact> 0.81100502E+03</totfact>
</mgrwt>
</event>
<event>
 7    1  0.8165933E-006  0.1325338E+03  0.7546771E-02  0.1236902E+00
          4   -1    0    0  501    0  0.00000000000E+00  0.00000000000E+00  0.22432534060E+03  0.22432534060E+03  0.00000000000E+00 0. -1.
         -4   -1    0    0    0  501 -0.00000000000E+00 -0.00000000000E+00 -0.61705534422E+02  0.61705534422E+02  0.00000000000E+00 0.  1.
         23    2    1    2    0    0  0.43948432652E+02  0.28857848865E+01  0.10940010857E+03  0.17185338857E+03  0.12500164367E+03 0.  0.
          5    1    3    3  502    0 -0.16614044082E+02 -0.46225159574E+02  0.66270530039E+02  0.82623634573E+02  0.47000000000E+01 0.  1.
         -5    1    3    3    0  502  0.60562476734E+02  0.49110944460E+02  0.43129578534E+02  0.89229753998E+02  0.47000000000E+01 0.  1.
        -11    1    1    2    0    0 -0.61963873620E+02  0.13600691825E+02  0.95641915338E+01  0.64155858749E+02  0.00000000000E+00 0.  1.
         11    1    1    2    0    0  0.18015440968E+02 -0.16486476711E+02  0.43655506069E+02  0.50021627700E+02  0.00000000000E+00 0. -1.
<mgrwt>
<rscale>  0 0.12383463E+03</rscale>
<asrwt>0</asrwt>
<pdfrwt beam="1">  1        4 0.34511590E-01 0.13253378E+03</pdfrwt>
<pdfrwt beam="2">  1       -4 0.94931592E-02 0.13253378E+03</pdfrwt>
<totfact> 0.11052477E+03</totfact>
</mgrwt>
</event>
<event>
 7    1  0.8165933E-006  0.1445596E+03  0.7546771E-02  0.1217485E+00
          2   -1    0    0  501    0  0.00000000000E+00  0.00000000000E+00  0.29996414648E+03  0.29996414648E+03  0.00000000000E+00 0. -1.
         -2   -1    0    0    0  501 -0.00000000000E+00 -0.00000000000E+00 -0.67617422767E+02  0.67617422767E+02  0.00000000000E+00 0.  1.
         23    2    1    2    0    0 -0.67211531974E+02 -0.27602118892E+02  0.19988360883E+03  0.24667979871E+03  0.12497279308E+03 0.  0.
          5    1    3    3  502    0 -0.21211551114E+02  0.18726167728E+02 -0.71375916822E+01  0.29557308292E+02  0.47000000000E+01 0. -1.
         -5    1    3    3    0  502 -0.45999980860E+02 -0.46328286620E+02  0.20702120052E+03  0.21712249041E+03  0.47000000000E+01 0. -1.
        -11    1    1    2    0    0  0.12221526121E+01  0.18534506288E+02  0.48887444150E+02  0.52297263560E+02  0.00000000000E+00 0. -1.
         11    1    1    2    0    0  0.65989379362E+02  0.90676126032E+01 -0.16424329266E+02  0.68604506985E+02  0.00000000000E+00 0.  1.
<mgrwt>
<rscale>  0 0.13695602E+03</rscale>
<asrwt>0</asrwt>
<pdfrwt beam="1">  1        2 0.46148329E-01 0.14455956E+03</pdfrwt>
<pdfrwt beam="2">  1       -2 0.10402681E-01 0.14455956E+03</pdfrwt>
<totfact> 0.65231640E+03</totfact>
</mgrwt>
</event>
<event>
 7    1  0.8165933E-006  0.1904258E+03  0.7546771E-02  0.1163332E+00
          2   -1    0    0  501    0  0.00000000000E+00  0.00000000000E+00  0.21193959328E+03  0.21193959328E+03  0.00000000000E+00 0. -1.
         -2   -1    0    0    0  501 -0.00000000000E+00 -0.00000000000E+00 -0.18137167876E+03  0.18137167876E+03  0.00000000000E+00 0.  1.
         23    2    1    2    0    0  0.11382210111E+03  0.86713067175E+02  0.95096580757E+02  0.21285053620E+03  0.12564777900E+03 0.  0.
          5    1    3    3  502    0  0.22362724404E+02  0.36286633703E+02 -0.28103446822E+02  0.51270897706E+02  0.47000000000E+01 0.  1.
         -5    1    3    3    0  502  0.91459376703E+02  0.50426433472E+02  0.12320002758E+03  0.16157963849E+03  0.47000000000E+01 0.  1.
        -11    1    1    2    0    0 -0.50182594930E+02 -0.83383971191E+02 -0.12355612401E+02  0.98101175545E+02  0.00000000000E+00 0. -1.
         11    1    1    2    0    0 -0.63639506177E+02 -0.33290959847E+01 -0.52173053839E+02  0.82359560304E+02  0.00000000000E+00 0.  1.
<mgrwt>
<rscale>  0 0.18469844E+03</rscale>
<asrwt>0</asrwt>
<pdfrwt beam="1">  1        2 0.32606091E-01 0.19042582E+03</pdfrwt>
<pdfrwt beam="2">  1       -2 0.27903335E-01 0.19042582E+03</pdfrwt>
<totfact> 0.18429535E+03</totfact>
</mgrwt>
</event>
<event>
 7    1  0.8165933E-006  0.1267191E+03  0.7546771E-02  0.1242737E+00
         -2   -1    0    0    0  501 -0.00000000000E+00  0.00000000000E+00  0.65310287156E+02  0.65310287156E+02  0.00000000000E+00 0.  1.
          2   -1    0    0  501    0  0.00000000000E+00 -0.00000000000E+00 -0.23670467532E+03  0.23670467532E+03  0.00000000000E+00 0. -1.
         23    2    1    2    0    0 -0.12331259460E+02 -0.16730132907E+02 -0.15140581599E+03  0.19743721740E+03  0.12500310553E+03 0.  0.
          5    1    3    3  502    0  0.52420497731E+02  0.13678423073E+02 -0.75300039535E+02  0.92882688345E+02  0.47000000000E+01 0.  1.
         -5    1    3    3    0  502 -0.64751757190E+02 -0.30408555980E+02 -0.76105776459E+02  0.10455452906E+03  0.47000000000E+01 0.  1.
        -11    1    1    2    0    0  0.54500609387E+02  0.22836493707E+02 -0.18585481133E+02  0.61945475842E+02  0.00000000000E+00 0.  1.
         11    1    1    2    0    0 -0.42169349927E+02 -0.61063608004E+01 -0.14030910372E+01  0.42632269233E+02  0.00000000000E+00 0. -1.
<mgrwt>
<rscale>  0 0.12021842E+03</rscale>
<asrwt>0</asrwt>
<pdfrwt beam="2">  1        2 0.36416104E-01 0.12671911E+03</pdfrwt>
<pdfrwt beam="1">  1       -2 0.10047736E-01 0.12671911E+03</pdfrwt>
<totfact> 0.87812195E+03</totfact>
</mgrwt>
</event>
<event>
 7    1  0.8165933E-006  0.1289110E+03  0.7546771E-02  0.1243574E+00
          1   -1    0    0  501    0  0.00000000000E+00  0.00000000000E+00  0.15006109821E+03  0.15006109821E+03  0.00000000000E+00 0. -1.
         -1   -1    0    0    0  501 -0.00000000000E+00 -0.00000000000E+00 -0.87909145274E+02  0.87909145274E+02  0.00000000000E+00 0.  1.
         23    2    1    2    0    0  0.74747669883E+01  0.30630933331E+02  0.59719858352E+02  0.14207221383E+03  0.12499570489E+03 0.  0.
          5    1    3    3  502    0  0.16325915708E+02 -0.45731007533E+02  0.38609997616E+02  0.62214809247E+02  0.47000000000E+01 0. -1.
         -5    1    3    3    0  502 -0.88511487195E+01  0.76361940864E+02  0.21109860736E+02  0.79857404581E+02  0.47000000000E+01 0. -1.
        -11    1    1    2    0    0  0.15590154945E+01 -0.50623866125E+02  0.31375939162E+02  0.59578988822E+02  0.00000000000E+00 0. -1.
         11    1    1    2    0    0 -0.90337824828E+01  0.19992932794E+02 -0.28943844582E+02  0.36319040831E+02  0.00000000000E+00 0.  1.
<mgrwt>
<rscale>  0 0.11971127E+03</rscale>
<asrwt>0</asrwt>
<pdfrwt beam="1">  1        1 0.23086323E-01 0.12891103E+03</pdfrwt>
<pdfrwt beam="2">  1       -1 0.13524484E-01 0.12891103E+03</pdfrwt>
<totfact> 0.75793652E+03</totfact>
</mgrwt>
</event>
<event>
 6    1  0.8165933E-006  0.1389557E+03  0.7546771E-02  0.1230110E+00
          2   -1    0    0  501    0  0.00000000000E+00  0.00000000000E+00  0.45383870036E+03  0.45383870036E+03  0.00000000000E+00 0. -1.
         -2   -1    0    0    0  501 -0.00000000000E+00 -0.00000000000E+00 -0.44371591700E+02  0.44371591700E+02  0.00000000000E+00 0.  1.
          5    1    1    2  502    0 -0.48916252852E+02 -0.91434135649E+01  0.23383736061E+03  0.23912005985E+03  0.47000000000E+01 0. -1.
         -5    1    1    2    0  502  0.57183103601E+02  0.48319204303E+02  0.12631413205E+03  0.14690814408E+03  0.47000000000E+01 0.  1.
        -11    1    1    2    0    0  0.36752782916E+02 -0.38220168146E+02  0.13687429823E+02  0.54762158835E+02  0.00000000000E+00 0.  1.
         11    1    1    2    0    0 -0.45019633665E+02 -0.95562259217E+00  0.35628186171E+02  0.57419929290E+02  0.00000000000E+00 0. -1.
<mgrwt>
<rscale>  0 0.12822726E+03</rscale>
<asrwt>0</asrwt>
<pdfrwt beam="1">  1        2 0.69821335E-01 0.13895566E+03</pdfrwt>
<pdfrwt beam="2">  1       -2 0.68263990E-02 0.13895566E+03</pdfrwt>
<totfact> 0.80418449E+03</totfact>
</mgrwt>
</event>
<event>
 7    1  0.8165933E-006  0.1654998E+03  0.7546771E-02  0.1189253E+00
         -2   -1    0    0    0  501 -0.00000000000E+00  0.00000000000E+00  0.96172343823E+02  0.96172343823E+02  0.00000000000E+00 0.  1.
          2   -1    0    0  501    0  0.00000000000E+00 -0.00000000000E+00 -0.24815848920E+03  0.24815848920E+03  0.00000000000E+00 0. -1.
         23    2    1    2    0    0 -0.70333086296E+02  0.82573786033E+02 -0.92846399833E+02  0.18976472741E+03  0.12500009855E+03 0.  0.
          5    1    3    3  502    0 -0.87852553673E+02  0.79213334896E+02 -0.11214400811E+03  0.16306805993E+03  0.47000000000E+01 0.  1.
         -5    1    3    3    0  502  0.17519467377E+02  0.33604511362E+01  0.19297608282E+02  0.26696667478E+02  0.47000000000E+01 0.  1.
        -11    1    1    2    0    0  0.81227716801E+01 -0.56762956311E+02 -0.65335492499E+02  0.86929507125E+02  0.00000000000E+00 0. -1.
         11    1    1    2    0    0  0.62210314616E+02 -0.25810829722E+02  0.61957469541E+01  0.67636598494E+02  0.00000000000E+00 0.  1.
<mgrwt>
<rscale>  0 0.15950848E+03</rscale>
<asrwt>0</asrwt>
<pdfrwt beam="2">  1        2 0.38178229E-01 0.16549984E+03</pdfrwt>
<pdfrwt beam="1">  1       -2 0.14795745E-01 0.16549984E+03</pdfrwt>
<totfact> 0.45674473E+03</totfact>
</mgrwt>
</event>
<event>
 7    1  0.8165933E-006  0.1694726E+03  0.7546771E-02  0.1185273E+00
          2   -1    0    0  501    0  0.00000000000E+00  0.00000000000E+00  0.12982020589E+04  0.12982020589E+04  0.00000000000E+00 0.  1.
         -2   -1    0    0    0  501 -0.00000000000E+00 -0.00000000000E+00 -0.26988489826E+02  0.26988489826E+02  0.00000000000E+00 0. -1.
         23    2    1    2    0    0  0.11436332813E+03 -0.41161432318E+01  0.10281151085E+04  0.10419892712E+04  0.12500020612E+03 0.  0.
          5    1    3    3  502    0  0.61655142457E+02 -0.60712223713E+02  0.67050975060E+03  0.67608634534E+03  0.47000000000E+01 0. -1.
         -5    1    3    3    0  502  0.52708185675E+02  0.56596080482E+02  0.35760535792E+03  0.36590292589E+03  0.47000000000E+01 0. -1.
        -11    1    1    2    0    0 -0.82049164903E+02 -0.30533369925E+01  0.23527388784E+03  0.24918906603E+03  0.00000000000E+00 0.  1.
         11    1    1    2    0    0 -0.32314163229E+02  0.71694802243E+01  0.78245727311E+01  0.34012211488E+02  0.00000000000E+00 0. -1.
<mgrwt>
<rscale>  0 0.16307059E+03</rscale>
<asrwt>0</asrwt>
<pdfrwt beam="1">  1        2 0.19972334E+00 0.16947261E+03</pdfrwt>
<pdfrwt beam="2">  1       -2 0.41520764E-02 0.16947261E+03</pdfrwt>
<totfact> 0.45219823E+03</totfact>
</mgrwt>
</event>
<event>
 7    1  0.8165933E-006  0.1142941E+03  0.7546771E-02  0.1263716E+00
          2   -1    0    0  501    0  0.00000000000E+00  0.00000000000E+00  0.79514876270E+02  0.79514876270E+02  0.00000000000E+00 0. -1.
         -2   -1    0    0    0  501 -0.00000000000E+00 -0.00000000000E+00 -0.13406544272E+03  0.13406544272E+03  0.00000000000E+00 0.  1.
         23    2    1    2    0    0 -0.15747417787E+02 -0.18583901126E+02 -0.30584816138E+02  0.11831559596E+03  0.11166828879E+03 0.  0.
          5    1    3    3  502    0 -0.18616501154E+02 -0.31532982130E+02  0.35219528226E+02  0.51023604790E+02  0.47000000000E+01 0. -1.
         -5    1    3    3    0  502  0.28690833667E+01  0.12949081005E+02 -0.65804344364E+02  0.67291991168E+02  0.47000000000E+01 0.  1.
        -11    1    1    2    0    0  0.47460417262E+02  0.18210243983E+02  0.65479166422E+01  0.51254067204E+02  0.00000000000E+00 0. -1.
         11    1    1    2    0    0 -0.31712999475E+02  0.37365714269E+00 -0.30513666955E+02  0.44010655828E+02  0.00000000000E+00 0.  1.
<mgrwt>
<rscale>  0 0.10831829E+03</rscale>
<asrwt>0</asrwt>
<pdfrwt beam="1">  1        2 0.12233058E-01 0.11429413E+03</pdfrwt>
<pdfrwt beam="2">  1       -2 0.20625453E-01 0.11429413E+03</pdfrwt>
<totfact> 0.92141001E+03</totfact>
</mgrwt>
</event>
<event>
 7    1  0.8165933E-006  0.1552308E+03  0.7546771E-02  0.1202564E+00
         -1   -1    0    0    0  501 -0.00000000000E+00  0.00000000000E+00  0.39489482521E+02  0.39489482521E+02  0.00000000000E+00 0.  1.
          1   -1    0    0  501    0  0.00000000000E+00 -0.00000000000E+00 -0.56014970983E+03  0.56014970983E+03  0.00000000000E+00 0. -1.
         23    2    1    2    0    0  0.36058618163E+02 -0.84681770689E+02 -0.36893574147E+03  0.40026263337E+03  0.12500147243E+03 0.  0.
          5    1    3    3  502    0  0.77677213796E+02 -0.26001662006E+02 -0.17260491933E+03  0.19111353732E+03  0.47000000000E+01 0.  1.
         -5    1    3    3    0  502 -0.41618595633E+02 -0.58680108683E+02 -0.19633082213E+03  0.20914909605E+03  0.47000000000E+01 0.  1.
        -11    1    1    2    0    0 -0.30341603795E+02  0.22632673522E+00 -0.61188531874E+01  0.30953263301E+02  0.00000000000E+00 0.  1.
         11    1    1    2    0    0 -0.57170143684E+01  0.84455443954E+02 -0.14560563265E+03  0.16842329568E+03  0.00000000000E+00 0. -1.
<mgrwt>
<rscale>  0 0.14831074E+03</rscale>
<asrwt>0</asrwt>
<pdfrwt beam="2">  1        1 0.86176873E-01 0.15523078E+03</pdfrwt>
<pdfrwt beam="1">  1       -1 0.60753054E-02 0.15523078E+03</pdfrwt>
<totfact> 0.49340163E+03</totfact>
</mgrwt>
</event>
<event>
 7    1  0.8165933E-006  0.1669932E+03  0.7546771E-02  0.1188380E+00
          4   -1    0    0  501    0  0.00000000000E+00  0.00000000000E+00  0.83976808479E+02  0.83976808479E+02  0.00000000000E+00 0. -1.
         -4   -1    0    0    0  501 -0.00000000000E+00 -0.00000000000E+00 -0.33649285734E+03  0.33649285734E+03  0.00000000000E+00 0.  1.
         23    2    1    2    0    0 -0.11059871303E+03 -0.54143577954E+01 -0.51953261790E+02  0.17488817899E+03  0.12500137257E+03 0.  0.
          5    1    3    3  502    0 -0.12988057083E+03  0.89486333116E+01 -0.15816462601E+02  0.13122991735E+03  0.47000000000E+01 0. -1.
         -5    1    3    3    0  502  0.19281857801E+02 -0.14362991107E+02 -0.36136799189E+02  0.43658261640E+02  0.47000000000E+01 0. -1.
        -11    1    1    2    0    0  0.63851089890E+02 -0.24025021460E+02 -0.48251256200E+02  0.83560439570E+02  0.00000000000E+00 0.  1.
         11    1    1    2    0    0  0.46747623139E+02  0.29439379255E+02 -0.15231153087E+03  0.16202104726E+03  0.00000000000E+00 0. -1.
<mgrwt>
<rscale>  0 0.16028122E+03</rscale>
<asrwt>0</asrwt>
<pdfrwt beam="1">  1        4 0.12919509E-01 0.16699321E+03</pdfrwt>
<pdfrwt beam="2">  1       -4 0.51768132E-01 0.16699321E+03</pdfrwt>
<totfact> 0.30510391E+02</totfact>
</mgrwt>
</event>
<event>
 7    1  0.8165933E-006  0.1267102E+03  0.7546771E-02  0.1247979E+00
         -1   -1    0    0    0  501 -0.00000000000E+00  0.00000000000E+00  0.28754897509E+03  0.28754897509E+03  0.00000000000E+00 0.  1.
          1   -1    0    0  501    0  0.00000000000E+00 -0.00000000000E+00 -0.44320423886E+02  0.44320423886E+02  0.00000000000E+00 0. -1.
         23    2    1    2    0    0  0.16097873373E+02 -0.13039730177E+02  0.99951114949E+02  0.16138680392E+03  0.12500519594E+03 0.  0.
          5    1    3    3  502    0  0.64657803840E+02  0.17594431210E+02  0.39703437971E+02  0.78029792988E+02  0.47000000000E+01 0.  1.
         -5    1    3    3    0  502 -0.48559930467E+02 -0.30634161387E+02  0.60247676978E+02  0.83357010936E+02  0.47000000000E+01 0.  1.
        -11    1    1    2    0    0 -0.28124091997E+02  0.47730647019E+02  0.79666048424E+02  0.97035346586E+02  0.00000000000E+00 0.  1.
         11    1    1    2    0    0  0.12026218624E+02 -0.34690916842E+02  0.63611387831E+02  0.73447248468E+02  0.00000000000E+00 0. -1.
<mgrwt>
<rscale>  0 0.11708865E+03</rscale>
<asrwt>0</asrwt>
<pdfrwt beam="2">  1        1 0.68185269E-02 0.12671020E+03</pdfrwt>
<pdfrwt beam="1">  1       -1 0.44238303E-01 0.12671020E+03</pdfrwt>
<totfact> 0.52852471E+03</totfact>
</mgrwt>
</event>
<event>
 7    1  0.8165933E-006  0.1275825E+03  0.7546771E-02  0.1245673E+00
         -2   -1    0    0    0  501 -0.00000000000E+00  0.00000000000E+00  0.26125319981E+03  0.26125319981E+03  0.00000000000E+00 0. -1.
          2   -1    0    0  501    0  0.00000000000E+00 -0.00000000000E+00 -0.52568157286E+02  0.52568157286E+02  0.00000000000E+00 0.  1.
         23    2    1    2    0    0  0.24636709855E+02 -0.67121993804E+01  0.69111623948E+02  0.14509892571E+03  0.12500104234E+03 0.  0.
          5    1    3    3  502    0 -0.65572783224E+01  0.38397875697E+02  0.79892266014E+02  0.89007072336E+02  0.47000000000E+01 0.  1.
         -5    1    3    3    0  502  0.31193988177E+02 -0.45110075077E+02 -0.10780642066E+02  0.56091853376E+02  0.47000000000E+01 0.  1.
        -11    1    1    2    0    0  0.88059321781E-01  0.30786663930E+02  0.67883129527E+01  0.31526300499E+02  0.00000000000E+00 0.  1.
         11    1    1    2    0    0 -0.24724769176E+02 -0.24074464550E+02  0.13278510562E+03  0.13719613088E+03  0.00000000000E+00 0. -1.
<mgrwt>
<rscale>  0 0.11845193E+03</rscale>
<asrwt>0</asrwt>
<pdfrwt beam="2">  1        2 0.80874090E-02 0.12758245E+03</pdfrwt>
<pdfrwt beam="1">  1       -2 0.40192799E-01 0.12758245E+03</pdfrwt>
<totfact> 0.46874683E+03</totfact>
</mgrwt>
</event>
<event>
 7    1  0.8165933E-006  0.1627443E+03  0.7546771E-02  0.1192908E+00
          1   -1    0    0  501    0  0.00000000000E+00  0.00000000000E+00  0.16522534990E+03  0.16522534990E+03  0.00000000000E+00 0. -1.
         -1   -1    0    0    0  501 -0.00000000000E+00 -0.00000000000E+00 -0.17982983607E+03  0.17982983607E+03  0.00000000000E+00 0.  1.
         23    2    1    2    0    0  0.17931244288E+02 -0.10265723072E+03  0.75889779103E+02  0.17956885815E+03  0.12500271879E+03 0.  0.
          5    1    3    3  502    0  0.56018924611E+02 -0.38056134189E+01  0.32069571263E+02  0.64831705277E+02  0.47000000000E+01 0.  1.
         -5    1    3    3    0  502 -0.38087680323E+02 -0.98851617297E+02  0.43820207840E+02  0.11473715287E+03  0.47000000000E+01 0.  1.
        -11    1    1    2    0    0  0.21340424428E+01  0.46022549320E+02 -0.94640834306E+02  0.10525928321E+03  0.00000000000E+00 0.  1.
         11    1    1    2    0    0 -0.20065286731E+02  0.56634681395E+02  0.41465690320E+01  0.60227044615E+02  0.00000000000E+00 0. -1.
<mgrwt>
<rscale>  0 0.15632635E+03</rscale>
<asrwt>0</asrwt>
<pdfrwt beam="1">  1        1 0.25419285E-01 0.16274433E+03</pdfrwt>
<pdfrwt beam="2">  1       -1 0.27666129E-01 0.16274433E+03</pdfrwt>
<totfact> 0.21546044E+03</totfact>
</mgrwt>
</event>
<event>
 7    1  0.8165933E-006  0.1578570E+03  0.7546771E-02  0.1199265E+00
          2   -1    0    0  501    0  0.00000000000E+00  0.00000000000E+00  0.29300455840E+03  0.29300455840E+03  0.00000000000E+00 0.  1.
         -2   -1    0    0    0  501 -0.00000000000E+00 -0.00000000000E+00 -0.74636148593E+02  0.74636148593E+02  0.00000000000E+00 0. -1.
         23    2    1    2    0    0 -0.94492824192E+02 -0.19130161739E+02  0.15453909203E+03  0.22090985357E+03  0.12499590204E+03 0.  0.
          5    1    3    3  502    0 -0.23071285699E+02  0.48934488089E+02  0.30277464386E+02  0.62174618599E+02  0.47000000000E+01 0.  1.
         -5    1    3    3    0  502 -0.71421538493E+02 -0.68064649828E+02  0.12426162764E+03  0.15873523497E+03  0.47000000000E+01 0.  1.
        -11    1    1    2    0    0  0.46979611045E+02  0.53630189109E+02  0.47891238787E+02  0.85888601051E+02  0.00000000000E+00 0.  1.
         11    1    1    2    0    0  0.47513213147E+02 -0.34500027371E+02  0.15938078995E+02  0.60842252376E+02  0.00000000000E+00 0. -1.
<mgrwt>
<rscale>  0 0.15098724E+03</rscale>
<asrwt>0</asrwt>
<pdfrwt beam="1">  1        2 0.45077624E-01 0.15785700E+03</pdfrwt>
<pdfrwt beam="2">  1       -2 0.11482485E-01 0.15785700E+03</pdfrwt>
<totfact> 0.57482801E+03</totfact>
</mgrwt>
</event>
<event>
 7    1  0.8165933E-006  0.1357075E+03  0.7546771E-02  0.1224483E+00
          2   -1    0    0  501    0  0.00000000000E+00  0.00000000000E+00  0.12307885029E+04  0.12307885029E+04  0.00000000000E+00 0. -1.
         -2   -1    0    0    0  501 -0.00000000000E+00 -0.00000000000E+00 -0.31608279871E+02  0.31608279871E+02  0.00000000000E+00 0.  1.
         23    2    1    2    0    0  0.52956220103E+02  0.25913515226E+02  0.10917920047E+04  0.11001937540E+04  0.12223192482E+03 0.  0.
          5    1    3    3  502    0  0.62925010297E+02 -0.35680360502E+02  0.53214196579E+03  0.53705661415E+03  0.47000000000E+01 0. -1.
         -5    1    3    3    0  502 -0.99687901932E+01  0.61593875729E+02  0.55965003886E+03  0.56313713987E+03  0.47000000000E+01 0.  1.
        -11    1    1    2    0    0 -0.82317653299E+02 -0.13380876075E+02  0.52024302895E+02  0.98294313064E+02  0.00000000000E+00 0.  1.
         11    1    1    2    0    0  0.29361433195E+02 -0.12532639151E+02  0.55363915499E+02  0.63908715703E+02  0.00000000000E+00 0. -1.
<mgrwt>
<rscale>  0 0.13202411E+03</rscale>
<asrwt>0</asrwt>
<pdfrwt beam="1">  1        2 0.18935204E+00 0.13570746E+03</pdfrwt>
<pdfrwt beam="2">  1       -2 0.48628132E-02 0.13570746E+03</pdfrwt>
<totfact> 0.38641235E+03</totfact>
</mgrwt>
</event>
<event>
 7    1  0.8165933E-006  0.1650912E+03  0.7546771E-02  0.1192544E+00
         -2   -1    0    0    0  501 -0.00000000000E+00  0.00000000000E+00  0.12130577153E+03  0.12130577153E+03  0.00000000000E+00 0.  1.
          2   -1    0    0  501    0  0.00000000000E+00 -0.00000000000E+00 -0.18668397816E+03  0.18668397816E+03  0.00000000000E+00 0. -1.
         23    2    1    2    0    0  0.38555433459E+02 -0.10071924047E+03 -0.54068973487E+02  0.17371977832E+03  0.12499688250E+03 0.  0.
          5    1    3    3  502    0  0.48341124248E+02 -0.25865912698E+02  0.28311457912E+02  0.61883264154E+02  0.47000000000E+01 0. -1.
         -5    1    3    3    0  502 -0.97856907891E+01 -0.74853327769E+02 -0.82380431399E+02  0.11183651416E+03  0.47000000000E+01 0. -1.
        -11    1    1    2    0    0 -0.32023850967E+02  0.12606739412E+02  0.20856969573E+02  0.40242640186E+02  0.00000000000E+00 0.  1.
         11    1    1    2    0    0 -0.65315824923E+01  0.88112501055E+02 -0.32166202716E+02  0.94027331182E+02  0.00000000000E+00 0. -1.
<mgrwt>
<rscale>  0 0.15663946E+03</rscale>
<asrwt>0</asrwt>
<pdfrwt beam="2">  1        2 0.28720612E-01 0.16509121E+03</pdfrwt>
<pdfrwt beam="1">  1       -2 0.18662426E-01 0.16509121E+03</pdfrwt>
<totfact> 0.42259452E+03</totfact>
</mgrwt>
</event>
<event>
 7    1  0.8165933E-006  0.1297331E+03  0.7546771E-02  0.1242794E+00
         -2   -1    0    0    0  501 -0.00000000000E+00  0.00000000000E+00  0.22319304242E+02  0.22319304242E+02  0.00000000000E+00 0. -1.
          2   -1    0    0  501    0  0.00000000000E+00 -0.00000000000E+00 -0.63858069971E+03  0.63858069971E+03  0.00000000000E+00 0.  1.
         23    2    1    2    0    0  0.10776529465E+02  0.32985119146E+02 -0.45810761626E+03  0.47612316327E+03  0.12500610730E+03 0.  0.
          5    1    3    3  502    0 -0.33636087159E+02  0.31545163250E+02 -0.61528244088E+02  0.77034398190E+02  0.47000000000E+01 0.  1.
         -5    1    3    3    0  502  0.44412616624E+02  0.14399558961E+01 -0.39657937217E+03  0.39908876509E+03  0.47000000000E+01 0.  1.
        -11    1    1    2    0    0 -0.29818934747E+02  0.10061154726E+02 -0.12037548943E+03  0.12442127695E+03  0.00000000000E+00 0.  1.
         11    1    1    2    0    0  0.19042405282E+02 -0.43046273873E+02 -0.37778289785E+02  0.60355563723E+02  0.00000000000E+00 0. -1.
<mgrwt>
<rscale>  0 0.12018386E+03</rscale>
<asrwt>0</asrwt>
<pdfrwt beam="2">  1        2 0.98243169E-01 0.12973311E+03</pdfrwt>
<pdfrwt beam="1">  1       -2 0.34337397E-02 0.12973311E+03</pdfrwt>
<totfact> 0.15332309E+04</totfact>
</mgrwt>
</event>
<event>
 7    1  0.8165933E-006  0.1334381E+03  0.7546771E-02  0.1236150E+00
         -2   -1    0    0    0  501 -0.00000000000E+00  0.00000000000E+00  0.36770471105E+02  0.36770471105E+02  0.00000000000E+00 0.  1.
          2   -1    0    0  501    0  0.00000000000E+00 -0.00000000000E+00 -0.49219205501E+03  0.49219205501E+03  0.00000000000E+00 0. -1.
         23    2    1    2    0    0 -0.24094745922E+02 -0.38838274759E+02 -0.38159856979E+03  0.40425633468E+03  0.12536645203E+03 0.  0.
          5    1    3    3  502    0  0.13848209184E+02  0.23903586956E+02 -0.26474255215E+03  0.26622145535E+03  0.47000000000E+01 0. -1.
         -5    1    3    3    0  502 -0.37942955106E+02 -0.62741861715E+02 -0.11685601764E+03  0.13803487933E+03  0.47000000000E+01 0. -1.
        -11    1    1    2    0    0 -0.59081314199E+01  0.25803816743E+02 -0.85861402290E+02  0.89849448404E+02  0.00000000000E+00 0. -1.
         11    1    1    2    0    0  0.30002877342E+02  0.13034458017E+02  0.12038388179E+02  0.34856743028E+02  0.00000000000E+00 0.  1.
<mgrwt>
<rscale>  0 0.12431102E+03</rscale>
<asrwt>0</asrwt>
<pdfrwt beam="2">  1        2 0.75721852E-01 0.13343806E+03</pdfrwt>
<pdfrwt beam="1">  1       -2 0.56569958E-02 0.13343806E+03</pdfrwt>
<totfact> 0.97688021E+03</totfact>
</mgrwt>
</event>
<event>
 7    1  0.8165933E-006  0.1364539E+03  0.7546771E-02  0.1229775E+00
         -2   -1    0    0    0  501 -0.00000000000E+00  0.00000000000E+00  0.20405792388E+03  0.20405792388E+03  0.00000000000E+00 0.  1.
          2   -1    0    0  501    0  0.00000000000E+00 -0.00000000000E+00 -0.90775608077E+02  0.90775608077E+02  0.00000000000E+00 0. -1.
         23    2    1    2    0    0 -0.53781400755E+02 -0.99681574269E+01 -0.33012932491E+01  0.13649385335E+03  0.12501148042E+03 0.  0.
          5    1    3    3  502    0 -0.87783019824E+01 -0.18396088482E+02 -0.59955625104E+02  0.63499934163E+02  0.47000000000E+01 0. -1.
         -5    1    3    3    0  502 -0.45003098773E+02  0.84279310552E+01  0.56654331854E+02  0.72993919191E+02  0.47000000000E+01 0. -1.
        -11    1    1    2    0    0 -0.11322357590E+02  0.89715918654E+00 -0.10368952118E+02  0.15379071624E+02  0.00000000000E+00 0. -1.
         11    1    1    2    0    0  0.65103758345E+02  0.90709982404E+01  0.12695256117E+03  0.14296060697E+03  0.00000000000E+00 0.  1.
<mgrwt>
<rscale>  0 0.12844906E+03</rscale>
<asrwt>0</asrwt>
<pdfrwt beam="2">  1        2 0.13965478E-01 0.13645392E+03</pdfrwt>
<pdfrwt beam="1">  1       -2 0.31393527E-01 0.13645392E+03</pdfrwt>
<totfact> 0.38258015E+03</totfact>
</mgrwt>
</event>
<event>
 7    1  0.8165933E-006  0.1340707E+03  0.7546771E-02  0.1232152E+00
         -4   -1    0    0    0  501 -0.00000000000E+00  0.00000000000E+00  0.10159812335E+03  0.10159812335E+03  0.00000000000E+00 0. -1.
          4   -1    0    0  501    0  0.00000000000E+00 -0.00000000000E+00 -0.16087559815E+03  0.16087559815E+03  0.00000000000E+00 0.  1.
         23    2    1    2    0    0 -0.34873181344E+02 -0.33673675047E+02 -0.75236478023E+02  0.15373830877E+03  0.12499953916E+03 0.  0.
          5    1    3    3  502    0 -0.40022668627E+02  0.25046378014E+02  0.11445251369E+02  0.48807979210E+02  0.47000000000E+01 0.  1.
         -5    1    3    3    0  502  0.51494872829E+01 -0.58720053061E+02 -0.86681729392E+02  0.10493032956E+03  0.47000000000E+01 0.  1.
        -11    1    1    2    0    0  0.31488605282E+02  0.39243138226E+01  0.52591722793E+02  0.61423300204E+02  0.00000000000E+00 0.  1.
         11    1    1    2    0    0  0.33845760620E+01  0.29749361225E+02 -0.36632719577E+02  0.47312112530E+02  0.00000000000E+00 0. -1.
<mgrwt>
<rscale>  0 0.12688517E+03</rscale>
<asrwt>0</asrwt>
<pdfrwt beam="2">  1        4 0.24750092E-01 0.13407065E+03</pdfrwt>
<pdfrwt beam="1">  1       -4 0.15630481E-01 0.13407065E+03</pdfrwt>
<totfact> 0.88188570E+02</totfact>
</mgrwt>
</event>
<event>
 7    1  0.8165933E-006  0.1680380E+03  0.7546771E-02  0.1186608E+00
         -1   -1    0    0    0  501 -0.00000000000E+00  0.00000000000E+00  0.24221193683E+03  0.24221193683E+03  0.00000000000E+00 0.  1.
          1   -1    0    0  501    0  0.00000000000E+00 -0.00000000000E+00 -0.15468435625E+03  0.15468435625E+03  0.00000000000E+00 0. -1.
         23    2    1    2    0    0 -0.11052995897E+03 -0.19817288008E+02 -0.70872370516E+02  0.18237234524E+03  0.12500873039E+03 0.  0.
          5    1    3    3  502    0 -0.12066946973E+03  0.12763464168E+02 -0.23314684166E+02  0.12365149186E+03  0.47000000000E+01 0.  1.
         -5    1    3    3    0  502  0.10139510758E+02 -0.32580752176E+02 -0.47557686350E+02  0.58720853381E+02  0.47000000000E+01 0.  1.
        -11    1    1    2    0    0  0.64987793234E+02  0.85893220441E+01  0.15404931908E+03  0.16741679256E+03  0.00000000000E+00 0. -1.
         11    1    1    2    0    0  0.45542165732E+02  0.11227965964E+02  0.43506320139E+01  0.47107155276E+02  0.00000000000E+00 0.  1.
<mgrwt>
<rscale>  0 0.16186457E+03</rscale>
<asrwt>0</asrwt>
<pdfrwt beam="2">  1        1 0.23797593E-01 0.16803803E+03</pdfrwt>
<pdfrwt beam="1">  1       -1 0.37263375E-01 0.16803803E+03</pdfrwt>
<totfact> 0.14110431E+03</totfact>
</mgrwt>
</event>
<event>
 7    1  0.8165933E-006  0.1434410E+03  0.7546771E-02  0.1217928E+00
         -1   -1    0    0    0  501 -0.00000000000E+00  0.00000000000E+00  0.17890550759E+03  0.17890550759E+03  0.00000000000E+00 0.  1.
          1   -1    0    0  501    0  0.00000000000E+00 -0.00000000000E+00 -0.11556120400E+03  0.11556120400E+03  0.00000000000E+00 0. -1.
         23    2    1    2    0    0 -0.27238203183E+02  0.64881512876E+02 -0.26766412756E+02  0.14591700177E+03  0.12499520042E+03 0.  0.
          5    1    3    3  502    0 -0.14173845475E+02  0.99611787508E+02 -0.36725286757E+02  0.10721120647E+03  0.47000000000E+01 0.  1.
         -5    1    3    3    0  502 -0.13064357708E+02 -0.34730274633E+02  0.99588740011E+01  0.38705795299E+02  0.47000000000E+01 0.  1.
        -11    1    1    2    0    0  0.55203137171E+02 -0.35008126776E+02  0.85124016114E+02  0.10732685318E+03  0.00000000000E+00 0.  1.
         11    1    1    2    0    0 -0.27964933988E+02 -0.29873386099E+02  0.49867002276E+01  0.41222856635E+02  0.00000000000E+00 0. -1.
<mgrwt>
<rscale>  0 0.13663610E+03</rscale>
<asrwt>0</asrwt>
<pdfrwt beam="2">  1        1 0.17778647E-01 0.14344104E+03</pdfrwt>
<pdfrwt beam="1">  1       -1 0.27523924E-01 0.14344104E+03</pdfrwt>
<totfact> 0.34042004E+03</totfact>
</mgrwt>
</event>
<event>
 7    1  0.8165933E-006  0.1820230E+03  0.7546771E-02  0.1171604E+00
         -2   -1    0    0    0  501 -0.00000000000E+00  0.00000000000E+00  0.90444308022E+02  0.90444308022E+02  0.00000000000E+00 0.  1.
          2   -1    0    0  501    0  0.00000000000E+00 -0.00000000000E+00 -0.32341501500E+03  0.32341501500E+03  0.00000000000E+00 0. -1.
         23    2    1    2    0    0  0.10900238635E+03 -0.75006034637E+02 -0.11328977297E+03  0.21439901644E+03  0.12499976052E+03 0.  0.
          5    1    3    3  502    0 -0.20021076371E+02 -0.55957093552E+01  0.93535401662E+01  0.23275183691E+02  0.47000000000E+01 0. -1.
         -5    1    3    3    0  502  0.12902346272E+03 -0.69410325282E+02 -0.12264331314E+03  0.19112383275E+03  0.47000000000E+01 0. -1.
        -11    1    1    2    0    0 -0.10648300203E+03  0.51707234750E+02 -0.54734481341E+02  0.13041522647E+03  0.00000000000E+00 0.  1.
         11    1    1    2    0    0 -0.25193843130E+01  0.23298799887E+02 -0.64946452667E+02  0.69045080111E+02  0.00000000000E+00 0. -1.
<mgrwt>
<rscale>  0 0.17612819E+03</rscale>
<asrwt>0</asrwt>
<pdfrwt beam="2">  1        2 0.49756155E-01 0.18202298E+03</pdfrwt>
<pdfrwt beam="1">  1       -2 0.13914509E-01 0.18202298E+03</pdfrwt>
<totfact> 0.38220085E+03</totfact>
</mgrwt>
</event>
<event>
 7    1  0.8959387E-006  0.2305715E+03  0.7546771E-02  0.1129455E+00
          1   -1    0    0  501    0  0.00000000000E+00  0.00000000000E+00  0.40987524963E+03  0.40987524963E+03  0.00000000000E+00 0. -1.
         -1   -1    0    0    0  501 -0.00000000000E+00 -0.00000000000E+00 -0.12137786626E+03  0.12137786626E+03  0.00000000000E+00 0.  1.
         23    2    1    2    0    0  0.14232272770E+03  0.13146064451E+03  0.17814836578E+03  0.29137613035E+03  0.12500219690E+03 0.  0.
          5    1    3    3  502    0 -0.16555829495E+02 -0.18953803085E+00 -0.21252031783E+01  0.17341796431E+02  0.47000000000E+01 0.  1.
         -5    1    3    3    0  502  0.15887855719E+03  0.13165018254E+03  0.18027356896E+03  0.27403433392E+03  0.47000000000E+01 0.  1.
        -11    1    1    2    0    0 -0.57631034006E+02 -0.69298290594E+02  0.99514135878E+02  0.13426336954E+03  0.00000000000E+00 0.  1.
         11    1    1    2    0    0 -0.84691693690E+02 -0.62162353917E+02  0.10834881706E+02  0.10561361601E+03  0.00000000000E+00 0. -1.
<mgrwt>
<rscale>  0 0.22604411E+03</rscale>
<asrwt>0</asrwt>
<pdfrwt beam="1">  1        1 0.63057730E-01 0.23057148E+03</pdfrwt>
<pdfrwt beam="2">  1       -1 0.18673518E-01 0.23057148E+03</pdfrwt>
<totfact> 0.13219190E+03</totfact>
</mgrwt>
</event>
<event>
 7    1  0.8165933E-006  0.1872495E+03  0.7546771E-02  0.1165690E+00
         -1   -1    0    0    0  501 -0.00000000000E+00  0.00000000000E+00  0.49830751967E+02  0.49830751967E+02  0.00000000000E+00 0.  1.
          1   -1    0    0  501    0  0.00000000000E+00 -0.00000000000E+00 -0.71656303360E+03  0.71656303360E+03  0.00000000000E+00 0. -1.
         23    2    1    2    0    0  0.12124845701E+03 -0.68827736223E+02 -0.48040212637E+03  0.51560506905E+03  0.12499575438E+03 0.  0.
          5    1    3    3  502    0  0.62831084792E+02 -0.84307985513E+02 -0.17473258272E+03  0.20398320299E+03  0.47000000000E+01 0. -1.
         -5    1    3    3    0  502  0.58417372218E+02  0.15480249290E+02 -0.30566954365E+03  0.31162186607E+03  0.47000000000E+01 0. -1.
        -11    1    1    2    0    0 -0.72862707835E+02  0.67208319488E+02 -0.17491200793E+03  0.20104761357E+03  0.00000000000E+00 0. -1.
         11    1    1    2    0    0 -0.48385749175E+02  0.16194167357E+01 -0.11418147329E+02  0.49741102945E+02  0.00000000000E+00 0.  1.
<mgrwt>
<rscale>  0 0.18220092E+03</rscale>
<asrwt>0</asrwt>
<pdfrwt beam="2">  1        1 0.11024046E+00 0.18724952E+03</pdfrwt>
<pdfrwt beam="1">  1       -1 0.76662698E-02 0.18724952E+03</pdfrwt>
<totfact> 0.24802103E+03</totfact>
</mgrwt>
</event>
<event>
 7    1  0.8165933E-006  0.1257839E+03  0.7546771E-02  0.1249664E+00
         -1   -1    0    0    0  501 -0.00000000000E+00  0.00000000000E+00  0.37967351379E+02  0.37967351379E+02  0.00000000000E+00 0.  1.
          1   -1    0    0  501    0  0.00000000000E+00 -0.00000000000E+00 -0.31067879222E+03  0.31067879222E+03  0.00000000000E+00 0. -1.
         23    2    1    2    0    0 -0.82401914433E+01 -0.11298516433E+02 -0.15230186910E+03  0.19752837078E+03  0.12500416274E+03 0.  0.
          5    1    3    3  502    0  0.50992432327E+02 -0.30071997821E+01 -0.25577403291E+02  0.57319847909E+02  0.47000000000E+01 0. -1.
         -5    1    3    3    0  502 -0.59232623771E+02 -0.82913166513E+01 -0.12672446581E+03  0.14020852287E+03  0.47000000000E+01 0. -1.
        -11    1    1    2    0    0 -0.32673386090E+02  0.19615866679E+02 -0.21496096498E+02  0.43754023230E+02  0.00000000000E+00 0.  1.
         11    1    1    2    0    0  0.40913577534E+02 -0.83173502454E+01 -0.98913475246E+02  0.10736374959E+03  0.00000000000E+00 0. -1.
<mgrwt>
<rscale>  0 0.11610539E+03</rscale>
<asrwt>0</asrwt>
<pdfrwt beam="2">  1        1 0.47796736E-01 0.12578393E+03</pdfrwt>
<pdfrwt beam="1">  1       -1 0.58411312E-02 0.12578393E+03</pdfrwt>
<totfact> 0.10949336E+04</totfact>
</mgrwt>
</event>
<event>
 7    1  0.8165933E-006  0.1541907E+03  0.7546771E-02  0.1201828E+00
          2   -1    0    0  501    0  0.00000000000E+00  0.00000000000E+00  0.47327534482E+03  0.47327534482E+03  0.00000000000E+00 0. -1.
         -2   -1    0    0    0  501 -0.00000000000E+00 -0.00000000000E+00 -0.48022734964E+02  0.48022734964E+02  0.00000000000E+00 0.  1.
         23    2    1    2    0    0  0.23151373147E+02  0.87255475596E+02  0.30234548193E+03  0.33939292363E+03  0.12500104826E+03 0.  0.
          5    1    3    3  502    0 -0.31746407911E+02  0.53419554517E+02  0.24554243505E+03  0.25332718100E+03  0.47000000000E+01 0. -1.
         -5    1    3    3    0  502  0.54897781058E+02  0.33835921079E+02  0.56803046881E+02  0.86065742635E+02  0.47000000000E+01 0. -1.
        -11    1    1    2    0    0 -0.58207349568E+02 -0.45485339233E+02  0.43981036539E+02  0.85972921341E+02  0.00000000000E+00 0.  1.
         11    1    1    2    0    0  0.35055976421E+02 -0.41770136363E+02  0.78926091379E+02  0.95932234807E+02  0.00000000000E+00 0. -1.
<mgrwt>
<rscale>  0 0.14890262E+03</rscale>
<asrwt>0</asrwt>
<pdfrwt beam="1">  1        2 0.72811588E-01 0.15419068E+03</pdfrwt>
<pdfrwt beam="2">  1       -2 0.73881134E-02 0.15419068E+03</pdfrwt>
<totfact> 0.68478600E+03</totfact>
</mgrwt>
</event>
<event>
 7    1  0.8165933E-006  0.2609852E+03  0.7546771E-02  0.1108798E+00
          2   -1    0    0  501    0  0.00000000000E+00  0.00000000000E+00  0.15531788542E+03  0.15531788542E+03  0.00000000000E+00 0. -1.
         -2   -1    0    0    0  501 -0.00000000000E+00 -0.00000000000E+00 -0.41441012204E+03  0.41441012204E+03  0.00000000000E+00 0.  1.
         23    2    1    2    0    0  0.16841478269E+03 -0.15531994697E+03 -0.13195143825E+03  0.29244561623E+03  0.12500172575E+03 0.  0.
          5    1    3    3  502    0  0.91683346734E+02 -0.13289097613E+03 -0.32490169251E+02  0.16475299300E+03  0.47000000000E+01 0. -1.
         -5    1    3    3    0  502  0.76731435954E+02 -0.22428970840E+02 -0.99461268996E+02  0.12769262323E+03  0.47000000000E+01 0. -1.
        -11    1    1    2    0    0 -0.14436726141E+03  0.11369649759E+03 -0.13572467116E+03  0.22845127729E+03  0.00000000000E+00 0.  1.
         11    1    1    2    0    0 -0.24047521276E+02  0.41623449371E+02  0.85838727864E+01  0.48831113944E+02  0.00000000000E+00 0. -1.
<mgrwt>
<rscale>  0 0.25726399E+03</rscale>
<asrwt>0</asrwt>
<pdfrwt beam="1">  1        2 0.23895059E-01 0.26098517E+03</pdfrwt>
<pdfrwt beam="2">  1       -2 0.63755403E-01 0.26098517E+03</pdfrwt>
<totfact> 0.52833224E+02</totfact>
</mgrwt>
</event>
<event>
 7    1  0.8165933E-006  0.1257576E+03  0.7546771E-02  0.1252395E+00
          2   -1    0    0  501    0  0.00000000000E+00  0.00000000000E+00  0.16263202377E+03  0.16263202377E+03  0.00000000000E+00 0. -1.
         -2   -1    0    0    0  501 -0.00000000000E+00 -0.00000000000E+00 -0.69571559683E+02  0.69571559683E+02  0.00000000000E+00 0.  1.
         23    2    1    2    0    0  0.12808689710E+02 -0.52788742240E+01  0.47622887031E+02  0.13447275086E+03  0.12499220900E+03 0.  0.
          5    1    3    3  502    0 -0.21895806304E+02  0.14171052936E+02  0.79166534897E+02  0.83484581346E+02  0.47000000000E+01 0. -1.
         -5    1    3    3    0  502  0.34704496013E+02 -0.19449927160E+02 -0.31543647866E+02  0.50988169518E+02  0.47000000000E+01 0. -1.
        -11    1    1    2    0    0  0.23166406838E+02  0.14043994758E+02 -0.11809219239E+02  0.29552899241E+02  0.00000000000E+00 0.  1.
         11    1    1    2    0    0 -0.35975096547E+02 -0.87651205336E+01  0.57246796295E+02  0.68177933348E+02  0.00000000000E+00 0. -1.
<mgrwt>
<rscale>  0 0.11453477E+03</rscale>
<asrwt>0</asrwt>
<pdfrwt beam="1">  1        2 0.25020311E-01 0.12575763E+03</pdfrwt>
<pdfrwt beam="2">  1       -2 0.10703317E-01 0.12575763E+03</pdfrwt>
<totfact> 0.11921975E+04</totfact>
</mgrwt>
</event>
<event>
 7    1  0.8165933E-006  0.2031548E+03  0.7546771E-02  0.1151070E+00
          1   -1    0    0  501    0  0.00000000000E+00  0.00000000000E+00  0.73411669054E+03  0.73411669054E+03  0.00000000000E+00 0. -1.
         -1   -1    0    0    0  501 -0.00000000000E+00 -0.00000000000E+00 -0.55602223244E+02  0.55602223244E+02  0.00000000000E+00 0.  1.
         23    2    1    2    0    0  0.14318771233E+03 -0.71723304419E+02  0.46390691712E+03  0.50644000747E+03  0.12499960021E+03 0.  0.
          5    1    3    3  502    0  0.12496024492E+03  0.18909843633E+01  0.32272339017E+03  0.34610853094E+03  0.47000000000E+01 0. -1.
         -5    1    3    3    0  502  0.18227467412E+02 -0.73614288783E+02  0.14118352695E+03  0.16033147652E+03  0.47000000000E+01 0. -1.
        -11    1    1    2    0    0 -0.11569191690E+03  0.93675202863E+02  0.18373723176E+03  0.23647205671E+03  0.00000000000E+00 0.  1.
         11    1    1    2    0    0 -0.27495795426E+02 -0.21951898443E+02  0.30870318419E+02  0.46806849612E+02  0.00000000000E+00 0. -1.
<mgrwt>
<rscale>  0 0.19843053E+03</rscale>
<asrwt>0</asrwt>
<pdfrwt beam="1">  1        1 0.11294102E+00 0.20315475E+03</pdfrwt>
<pdfrwt beam="2">  1       -1 0.85541888E-02 0.20315475E+03</pdfrwt>
<totfact> 0.20289351E+03</totfact>
</mgrwt>
</event>
<event>
 7    1  0.8165933E-006  0.1396131E+03  0.7546771E-02  0.1224185E+00
          2   -1    0    0  501    0  0.00000000000E+00  0.00000000000E+00  0.23081879005E+03  0.23081879005E+03  0.00000000000E+00 0. -1.
         -2   -1    0    0    0  501 -0.00000000000E+00 -0.00000000000E+00 -0.75685284377E+02  0.75685284377E+02  0.00000000000E+00 0.  1.
         23    2    1    2    0    0  0.18382681433E+02  0.59236289010E+02  0.13131922669E+03  0.19166785623E+03  0.12507984211E+03 0.  0.
          5    1    3    3  502    0 -0.25990618583E+02  0.82823003819E+02  0.66145442767E+02  0.10923585407E+03  0.47000000000E+01 0. -1.
         -5    1    3    3    0  502  0.44373300016E+02 -0.23586714808E+02  0.65173783924E+02  0.82432002163E+02  0.47000000000E+01 0. -1.
        -11    1    1    2    0    0 -0.13985277662E+02  0.14359078839E+02  0.34933761702E+02  0.40275784822E+02  0.00000000000E+00 0. -1.
         11    1    1    2    0    0 -0.43974037710E+01 -0.73595367849E+02 -0.11119482717E+02  0.74560433373E+02  0.00000000000E+00 0.  1.
<mgrwt>
<rscale>  0 0.13222944E+03</rscale>
<asrwt>0</asrwt>
<pdfrwt beam="1">  1        2 0.35510583E-01 0.13961314E+03</pdfrwt>
<pdfrwt beam="2">  1       -2 0.11643890E-01 0.13961314E+03</pdfrwt>
<totfact> 0.71947466E+03</totfact>
</mgrwt>
</event>
<event>
 7    1  0.8165933E-006  0.1605373E+03  0.7546771E-02  0.1196390E+00
          2   -1    0    0  501    0  0.00000000000E+00  0.00000000000E+00  0.24732136090E+03  0.24732136090E+03  0.00000000000E+00 0. -1.
         -2   -1    0    0    0  501 -0.00000000000E+00 -0.00000000000E+00 -0.97692812173E+02  0.97692812173E+02  0.00000000000E+00 0.  1.
         23    2    1    2    0    0  0.80992384885E+02 -0.59898103998E+02  0.13633846815E+03  0.21061910612E+03  0.12499872277E+03 0.  0.
          5    1    3    3  502    0 -0.19154944542E+02  0.87677766294E+01  0.67697098847E+02  0.71054718349E+02  0.47000000000E+01 0. -1.
         -5    1    3    3    0  502  0.10014732943E+03 -0.68665880627E+02  0.68641369300E+02  0.13956438777E+03  0.47000000000E+01 0. -1.
        -11    1    1    2    0    0 -0.13429857771E+02 -0.14907436634E+02 -0.19912044939E+02  0.28268043449E+02  0.00000000000E+00 0.  1.
         11    1    1    2    0    0 -0.67562527113E+02  0.74805540631E+02  0.33202125516E+02  0.10612702350E+03  0.00000000000E+00 0. -1.
<mgrwt>
<rscale>  0 0.15337139E+03</rscale>
<asrwt>0</asrwt>
<pdfrwt beam="1">  1        2 0.38049440E-01 0.16053732E+03</pdfrwt>
<pdfrwt beam="2">  1       -2 0.15029663E-01 0.16053732E+03</pdfrwt>
<totfact> 0.44606140E+03</totfact>
</mgrwt>
</event>
<event>
 7    1  0.8165933E-006  0.1990539E+03  0.7546771E-02  0.1155461E+00
          1   -1    0    0  501    0  0.00000000000E+00  0.00000000000E+00  0.14578476474E+04  0.14578476474E+04  0.00000000000E+00 0. -1.
         -1   -1    0    0    0  501 -0.00000000000E+00 -0.00000000000E+00 -0.24992178662E+02  0.24992178662E+02  0.00000000000E+00 0.  1.
         23    2    1    2    0    0  0.14077434573E+02  0.15426857663E+03  0.88139555368E+03  0.90359315139E+03  0.12500197312E+03 0.  0.
          5    1    3    3  502    0  0.20229120006E+01  0.82328649896E+02  0.73845697956E+03  0.74304972877E+03  0.47000000000E+01 0.  1.
         -5    1    3    3    0  502  0.12054522573E+02  0.71939926739E+02  0.14293857412E+03  0.16054342262E+03  0.47000000000E+01 0.  1.
        -11    1    1    2    0    0 -0.30021775914E+02 -0.87053836680E+02  0.18872392913E+03  0.20999142587E+03  0.00000000000E+00 0.  1.
         11    1    1    2    0    0  0.15944341341E+02 -0.67214739955E+02  0.36273598591E+03  0.36925524879E+03  0.00000000000E+00 0. -1.
<mgrwt>
<rscale>  0 0.19336440E+03</rscale>
<asrwt>0</asrwt>
<pdfrwt beam="1">  1        1 0.22428419E+00 0.19905392E+03</pdfrwt>
<pdfrwt beam="2">  1       -1 0.38449517E-02 0.19905392E+03</pdfrwt>
<totfact> 0.19915825E+03</totfact>
</mgrwt>
</event>
<event>
 7    1  0.8165933E-006  0.1293365E+03  0.7546771E-02  0.1242549E+00
          2   -1    0    0  501    0  0.00000000000E+00  0.00000000000E+00  0.86199078176E+03  0.86199078176E+03  0.00000000000E+00 0. -1.
         -2   -1    0    0    0  501 -0.00000000000E+00 -0.00000000000E+00 -0.15713551637E+02  0.15713551637E+02  0.00000000000E+00 0.  1.
         23    2    1    2    0    0 -0.26736913402E+02 -0.19691751694E+02  0.58254954721E+03  0.59673436331E+03  0.12500119111E+03 0.  0.
          5    1    3    3  502    0 -0.26425766150E+02 -0.38378743510E+02  0.57356078057E+03  0.57546964131E+03  0.47000000000E+01 0.  1.
         -5    1    3    3    0  502 -0.31114725124E+00  0.18686991816E+02  0.89887666398E+01  0.21264721993E+02  0.47000000000E+01 0.  1.
        -11    1    1    2    0    0  0.70571227033E+01  0.41526603549E+02  0.23862777691E+03  0.24231689519E+03  0.00000000000E+00 0. -1.
         11    1    1    2    0    0  0.19679790698E+02 -0.21834851855E+02  0.25099906009E+02  0.38653074899E+02  0.00000000000E+00 0.  1.
<mgrwt>
<rscale>  0 0.12033295E+03</rscale>
<asrwt>0</asrwt>
<pdfrwt beam="1">  1        2 0.13261393E+00 0.12933648E+03</pdfrwt>
<pdfrwt beam="2">  1       -2 0.24174702E-02 0.12933648E+03</pdfrwt>
<totfact> 0.17832835E+04</totfact>
</mgrwt>
</event>
<event>
 7    1  0.8165933E-006  0.1311711E+03  0.7546771E-02  0.1245784E+00
         -2   -1    0    0    0  501 -0.00000000000E+00  0.00000000000E+00  0.16726916599E+02  0.16726916599E+02  0.00000000000E+00 0.  1.
          2   -1    0    0  501    0  0.00000000000E+00 -0.00000000000E+00 -0.75529508693E+03  0.75529508693E+03  0.00000000000E+00 0. -1.
         23    2    1    2    0    0  0.28864639322E+02  0.27370338711E+02 -0.53067722049E+03  0.54664811247E+03  0.12499417458E+03 0.  0.
          5    1    3    3  502    0 -0.31372209543E+02  0.33795572120E+02 -0.39835292816E+03  0.40104052363E+03  0.47000000000E+01 0.  1.
         -5    1    3    3    0  502  0.60236848865E+02 -0.64252334090E+01 -0.13232429234E+03  0.14560758884E+03  0.47000000000E+01 0.  1.
        -11    1    1    2    0    0 -0.33070738068E+02 -0.51935002419E+02 -0.15881594281E+03  0.17033326711E+03  0.00000000000E+00 0.  1.
         11    1    1    2    0    0  0.42060987455E+01  0.24564663708E+02 -0.49075007026E+02  0.55040623946E+02  0.00000000000E+00 0. -1.
<mgrwt>
<rscale>  0 0.11838577E+03</rscale>
<asrwt>0</asrwt>
<pdfrwt beam="2">  1        2 0.11619922E+00 0.13117106E+03</pdfrwt>
<pdfrwt beam="1">  1       -2 0.25733723E-02 0.13117106E+03</pdfrwt>
<totfact> 0.19213519E+04</totfact>
</mgrwt>
</event>
<event>
 7    1  0.8165933E-006  0.2054854E+03  0.7546771E-02  0.1149201E+00
         -2   -1    0    0    0  501 -0.00000000000E+00  0.00000000000E+00  0.38584880982E+02  0.38584880982E+02  0.00000000000E+00 0. -1.
          2   -1    0    0  501    0  0.00000000000E+00 -0.00000000000E+00 -0.10224181224E+04  0.10224181224E+04  0.00000000000E+00 0.  1.
         23    2    1    2    0    0  0.11278026526E+03  0.11780727373E+03 -0.59842216246E+03  0.63271899480E+03  0.12500519940E+03 0.  0.
          5    1    3    3  502    0  0.34290223542E+02  0.75918078338E+02 -0.12051754075E+03  0.14658083667E+03  0.47000000000E+01 0. -1.
         -5    1    3    3    0  502  0.78490041718E+02  0.41889195392E+02 -0.47790462171E+03  0.48613815813E+03  0.47000000000E+01 0. -1.
        -11    1    1    2    0    0  0.13392563046E+02 -0.13752066763E+02 -0.18896063583E+02  0.26935873926E+02  0.00000000000E+00 0.  1.
         11    1    1    2    0    0 -0.12617282831E+03 -0.10405520697E+03 -0.36651501537E+03  0.40134813465E+03  0.00000000000E+00 0. -1.
<mgrwt>
<rscale>  0 0.20063944E+03</rscale>
<asrwt>0</asrwt>
<pdfrwt beam="2">  1        2 0.15729511E+00 0.20548538E+03</pdfrwt>
<pdfrwt beam="1">  1       -2 0.59361349E-02 0.20548538E+03</pdfrwt>
<totfact> 0.37978455E+03</totfact>
</mgrwt>
</event>
<event>
 7    1  0.8165933E-006  0.1512236E+03  0.7546771E-02  0.1208659E+00
          1   -1    0    0  501    0  0.00000000000E+00  0.00000000000E+00  0.71563396037E+02  0.71563396037E+02  0.00000000000E+00 0. -1.
         -1   -1    0    0    0  501 -0.00000000000E+00 -0.00000000000E+00 -0.26973274339E+03  0.26973274339E+03  0.00000000000E+00 0.  1.
         23    2    1    2    0    0 -0.28070952651E+02  0.80497638857E+02 -0.80644538348E+02  0.17138296137E+03  0.12490288083E+03 0.  0.
          5    1    3    3  502    0  0.37236446825E+02  0.15105418203E+02 -0.66400575739E+02  0.77755084012E+02  0.47000000000E+01 0.  1.
         -5    1    3    3    0  502 -0.65307399477E+02  0.65392220654E+02 -0.14243962609E+02  0.93627877362E+02  0.47000000000E+01 0.  1.
        -11    1    1    2    0    0 -0.17406025722E+02 -0.21278461828E+02 -0.83408006566E+02  0.87821627339E+02  0.00000000000E+00 0.  1.
         11    1    1    2    0    0  0.45476978373E+02 -0.59219177030E+02 -0.34116802439E+02  0.82091550714E+02  0.00000000000E+00 0. -1.
<mgrwt>
<rscale>  0 0.14352814E+03</rscale>
<asrwt>0</asrwt>
<pdfrwt beam="1">  1        1 0.11009753E-01 0.15122360E+03</pdfrwt>
<pdfrwt beam="2">  1       -1 0.41497345E-01 0.15122360E+03</pdfrwt>
<totfact> 0.31550064E+03</totfact>
</mgrwt>
</event>
<event>
 7    1  0.8165933E-006  0.1580266E+03  0.7546771E-02  0.1195071E+00
         -1   -1    0    0    0  501 -0.00000000000E+00  0.00000000000E+00  0.10790225133E+03  0.10790225133E+03  0.00000000000E+00 0.  1.
          1   -1    0    0  501    0  0.00000000000E+00 -0.00000000000E+00 -0.21740098254E+03  0.21740098254E+03  0.00000000000E+00 0. -1.
         23    2    1    2    0    0  0.96765488308E+02  0.33653829734E+02 -0.31077992863E+02  0.16105353402E+03  0.12031732709E+03 0.  0.
          5    1    3    3  502    0  0.90699039148E+02 -0.89781219572E+01  0.20663522940E+02  0.93573466092E+02  0.47000000000E+01 0. -1.
         -5    1    3    3    0  502  0.60664491598E+01  0.42631951691E+02 -0.51741515802E+02  0.67480067931E+02  0.47000000000E+01 0.  1.
        -11    1    1    2    0    0 -0.22611487392E+02 -0.19666795230E+02  0.23041620882E+02  0.37801831828E+02  0.00000000000E+00 0.  1.
         11    1    1    2    0    0 -0.74154000916E+02 -0.13987034504E+02 -0.10146235923E+03  0.12644786802E+03  0.00000000000E+00 0. -1.
<mgrwt>
<rscale>  0 0.15448238E+03</rscale>
<asrwt>0</asrwt>
<pdfrwt beam="2">  1        1 0.33446305E-01 0.15802658E+03</pdfrwt>
<pdfrwt beam="1">  1       -1 0.16600347E-01 0.15802658E+03</pdfrwt>
<totfact> 0.34994483E+03</totfact>
</mgrwt>
</event>
<event>
 7    1  0.8165933E-006  0.1263708E+03  0.7546771E-02  0.1247766E+00
         -1   -1    0    0    0  501 -0.00000000000E+00  0.00000000000E+00  0.55683536928E+02  0.55683536928E+02  0.00000000000E+00 0.  1.
          1   -1    0    0  501    0  0.00000000000E+00 -0.00000000000E+00 -0.26816829175E+03  0.26816829175E+03  0.00000000000E+00 0. -1.
         23    2    1    2    0    0  0.17279973446E+02  0.69167936876E+01 -0.18910083242E+03  0.22743945604E+03  0.12499256708E+03 0.  0.
          5    1    3    3  502    0  0.31997712953E+02  0.50369533092E+02 -0.16475110033E+03  0.17528821568E+03  0.47000000000E+01 0. -1.
         -5    1    3    3    0  502 -0.14717739507E+02 -0.43452739404E+02 -0.24349732093E+02  0.52151240358E+02  0.47000000000E+01 0. -1.
        -11    1    1    2    0    0  0.25277901543E+02 -0.29329078099E+02 -0.28450076047E+02  0.48047621748E+02  0.00000000000E+00 0. -1.
         11    1    1    2    0    0 -0.42557874989E+02  0.22412284412E+02  0.50661536413E+01  0.48364750892E+02  0.00000000000E+00 0.  1.
<mgrwt>
<rscale>  0 0.11721333E+03</rscale>
<asrwt>0</asrwt>
<pdfrwt beam="2">  1        1 0.41256660E-01 0.12637081E+03</pdfrwt>
<pdfrwt beam="1">  1       -1 0.85666980E-02 0.12637081E+03</pdfrwt>
<totfact> 0.74020405E+03</totfact>
</mgrwt>
</event>
<event>
 7    1  0.8165933E-006  0.1657124E+03  0.7546771E-02  0.1189121E+00
          2   -1    0    0  501    0  0.00000000000E+00  0.00000000000E+00  0.13855105602E+04  0.13855105602E+04  0.00000000000E+00 0. -1.
         -2   -1    0    0    0  501 -0.00000000000E+00 -0.00000000000E+00 -0.29462739166E+02  0.29462739166E+02  0.00000000000E+00 0.  1.
         23    2    1    2    0    0  0.38910312784E+02  0.10158616947E+03  0.11639636511E+04  0.11757006406E+04  0.12500741217E+03 0.  0.
          5    1    3    3  502    0 -0.19752391399E+02 -0.17015650394E+02  0.35372353262E+03  0.35471413400E+03  0.47000000000E+01 0. -1.
         -5    1    3    3    0  502  0.58662704183E+02  0.11860181986E+03  0.81024011845E+03  0.82098650663E+03  0.47000000000E+01 0. -1.
        -11    1    1    2    0    0 -0.81237495762E+01 -0.59056518719E+02  0.25907247529E+02  0.64998870643E+02  0.00000000000E+00 0.  1.
         11    1    1    2    0    0 -0.30786563208E+02 -0.42529650747E+02  0.16617692246E+03  0.17427378812E+03  0.00000000000E+00 0. -1.
<mgrwt>
<rscale>  0 0.15962483E+03</rscale>
<asrwt>0</asrwt>
<pdfrwt beam="1">  1        2 0.21315542E+00 0.16571245E+03</pdfrwt>
<pdfrwt beam="2">  1       -2 0.45327302E-02 0.16571245E+03</pdfrwt>
<totfact> 0.35557286E+03</totfact>
</mgrwt>
</event>
<event>
 7    1  0.8165933E-006  0.1558113E+03  0.7546771E-02  0.1202008E+00
          2   -1    0    0  501    0  0.00000000000E+00  0.00000000000E+00  0.53686709334E+03  0.53686709334E+03  0.00000000000E+00 0. -1.
         -2   -1    0    0    0  501 -0.00000000000E+00 -0.00000000000E+00 -0.38572991228E+02  0.38572991228E+02  0.00000000000E+00 0.  1.
         23    2    1    2    0    0  0.72551884121E+02  0.58194761071E+02  0.30975211506E+03  0.34673267482E+03  0.12500707537E+03 0.  0.
          5    1    3    3  502    0  0.98454429489E+02  0.79451445492E+01  0.20512234973E+03  0.22771400564E+03  0.47000000000E+01 0.  1.
         -5    1    3    3    0  502 -0.25902545367E+02  0.50249616522E+02  0.10462976533E+03  0.11901866917E+03  0.47000000000E+01 0.  1.
        -11    1    1    2    0    0 -0.51094029142E+02 -0.39365347184E+02  0.18946656871E+03  0.20014447540E+03  0.00000000000E+00 0.  1.
         11    1    1    2    0    0 -0.21457854980E+02 -0.18829413888E+02 -0.92458166494E+00  0.28562934354E+02  0.00000000000E+00 0. -1.
<mgrwt>
<rscale>  0 0.14875799E+03</rscale>
<asrwt>0</asrwt>
<pdfrwt beam="1">  1        2 0.82594932E-01 0.15581134E+03</pdfrwt>
<pdfrwt beam="2">  1       -2 0.59343067E-02 0.15581134E+03</pdfrwt>
<totfact> 0.83356753E+03</totfact>
</mgrwt>
</event>
<event>
 7    1  0.8165933E-006  0.1266782E+03  0.7546771E-02  0.1261452E+00
         -1   -1    0    0    0  501 -0.00000000000E+00  0.00000000000E+00  0.21548383865E+02  0.21548383865E+02  0.00000000000E+00 0.  1.
          1   -1    0    0  501    0  0.00000000000E+00 -0.00000000000E+00 -0.45665383123E+03  0.45665383123E+03  0.00000000000E+00 0. -1.
         23    2    1    2    0    0  0.20827457476E+02  0.16339675288E+01 -0.30074963848E+03  0.32633988966E+03  0.12494369012E+03 0.  0.
          5    1    3    3  502    0  0.35079885290E+02 -0.56446446683E+02 -0.16348010447E+03  0.17653507939E+03  0.47000000000E+01 0.  1.
         -5    1    3    3    0  502 -0.14252427814E+02  0.58080414212E+02 -0.13726953401E+03  0.14980481027E+03  0.47000000000E+01 0.  1.
        -11    1    1    2    0    0 -0.34786708632E+02 -0.25469801153E+02 -0.79099754322E+02  0.90086608340E+02  0.00000000000E+00 0.  1.
         11    1    1    2    0    0  0.13959251157E+02  0.23835833625E+02 -0.55256054557E+02  0.61775717095E+02  0.00000000000E+00 0. -1.
<mgrwt>
<rscale>  0 0.10952510E+03</rscale>
<asrwt>0</asrwt>
<pdfrwt beam="2">  1        1 0.70254435E-01 0.12667825E+03</pdfrwt>
<pdfrwt beam="1">  1       -1 0.33151360E-02 0.12667825E+03</pdfrwt>
<totfact> 0.15549676E+04</totfact>
</mgrwt>
</event>
<event>
 7    1  0.8165933E-006  0.1283875E+03  0.7546771E-02  0.1240293E+00
         -2   -1    0    0    0  501 -0.00000000000E+00  0.00000000000E+00  0.15008727012E+03  0.15008727012E+03  0.00000000000E+00 0.  1.
          2   -1    0    0  501    0  0.00000000000E+00 -0.00000000000E+00 -0.11775027031E+03  0.11775027031E+03  0.00000000000E+00 0. -1.
         23    2    1    2    0    0  0.51659556619E+02 -0.13763705393E+02 -0.47566715803E+02  0.13691586012E+03  0.11672707879E+03 0.  0.
          5    1    3    3  502    0 -0.13497395034E+01 -0.58109422135E+02 -0.29371929295E+02  0.65294157228E+02  0.47000000000E+01 0. -1.
         -5    1    3    3    0  502  0.53009296123E+02  0.44345716742E+02 -0.18194786508E+02  0.71621702890E+02  0.47000000000E+01 0.  1.
        -11    1    1    2    0    0 -0.43010643604E+02 -0.29981429181E+02  0.19712741186E+02  0.56012442583E+02  0.00000000000E+00 0. -1.
         11    1    1    2    0    0 -0.86489130152E+01  0.43745134574E+02  0.60190974426E+02  0.74909237732E+02  0.00000000000E+00 0.  1.
<mgrwt>
<rscale>  0 0.12171607E+03</rscale>
<asrwt>0</asrwt>
<pdfrwt beam="2">  1        2 0.18115426E-01 0.12838754E+03</pdfrwt>
<pdfrwt beam="1">  1       -2 0.23090349E-01 0.12838754E+03</pdfrwt>
<totfact> 0.48465754E+03</totfact>
</mgrwt>
</event>
<event>
 7    1  0.8165933E-006  0.2128965E+03  0.7546771E-02  0.1142916E+00
         -1   -1    0    0    0  501 -0.00000000000E+00  0.00000000000E+00  0.24871965279E+03  0.24871965279E+03  0.00000000000E+00 0.  1.
          1   -1    0    0  501    0  0.00000000000E+00 -0.00000000000E+00 -0.44465880677E+03  0.44465880677E+03  0.00000000000E+00 0. -1.
         23    2    1    2    0    0 -0.16376406766E+03 -0.53681994451E+02 -0.37327300010E+03  0.42971808422E+03  0.12499789163E+03 0.  0.
          5    1    3    3  502    0 -0.10744337842E+03  0.84059661585E+01 -0.29812101023E+03  0.31703779991E+03  0.47000000000E+01 0. -1.
         -5    1    3    3    0  502 -0.56320689237E+02 -0.62087960609E+02 -0.75151989876E+02  0.11268028431E+03  0.47000000000E+01 0. -1.
        -11    1    1    2    0    0  0.70017849898E+02  0.70136967920E+02  0.78297164128E+02  0.12630177942E+03  0.00000000000E+00 0. -1.
         11    1    1    2    0    0  0.93746217757E+02 -0.16454973469E+02  0.99036681987E+02  0.13735859593E+03  0.00000000000E+00 0.  1.
<mgrwt>
<rscale>  0 0.20830441E+03</rscale>
<asrwt>0</asrwt>
<pdfrwt beam="2">  1        1 0.68409046E-01 0.21289645E+03</pdfrwt>
<pdfrwt beam="1">  1       -1 0.38264563E-01 0.21289645E+03</pdfrwt>
<totfact> 0.35670064E+02</totfact>
</mgrwt>
</event>
<event>
 7    1  0.8165933E-006  0.1287172E+03  0.7546771E-02  0.1246419E+00
         -2   -1    0    0    0  501 -0.00000000000E+00  0.00000000000E+00  0.10546197727E+02  0.10546197727E+02  0.00000000000E+00 0.  1.
          2   -1    0    0  501    0  0.00000000000E+00 -0.00000000000E+00 -0.17248416354E+04  0.17248416354E+04  0.00000000000E+00 0. -1.
         23    2    1    2    0    0 -0.76614998159E+01  0.29755351675E+02 -0.14535776399E+04  0.14592655961E+04  0.12499618082E+03 0.  0.
          5    1    3    3  502    0 -0.10105118392E+02 -0.47850291110E+02 -0.68579602651E+03  0.68755366609E+03  0.47000000000E+01 0.  1.
         -5    1    3    3    0  502  0.24436185762E+01  0.77605642785E+02 -0.76778161336E+03  0.77171192998E+03  0.47000000000E+01 0.  1.
        -11    1    1    2    0    0 -0.53475514264E+01 -0.55173893073E+02 -0.11536814151E+03  0.12799438604E+03  0.00000000000E+00 0.  1.
         11    1    1    2    0    0  0.13009051242E+02  0.25418541399E+02 -0.14534965634E+03  0.14812785106E+03  0.00000000000E+00 0. -1.
<mgrwt>
<rscale>  0 0.11800865E+03</rscale>
<asrwt>0</asrwt>
<pdfrwt beam="2">  1        2 0.26536038E+00 0.12871723E+03</pdfrwt>
<pdfrwt beam="1">  1       -2 0.16224912E-02 0.12871723E+03</pdfrwt>
<totfact> 0.10634975E+04</totfact>
</mgrwt>
</event>
<event>
 7    1  0.8165933E-006  0.1419514E+03  0.7546771E-02  0.1220798E+00
         -1   -1    0    0    0  501 -0.00000000000E+00  0.00000000000E+00  0.45483185922E+02  0.45483185922E+02  0.00000000000E+00 0.  1.
          1   -1    0    0  501    0  0.00000000000E+00 -0.00000000000E+00 -0.37139190742E+03  0.37139190742E+03  0.00000000000E+00 0. -1.
         23    2    1    2    0    0 -0.15459693825E+02 -0.65454899769E+02 -0.21256398231E+03  0.25560446241E+03  0.12500739414E+03 0.  0.
          5    1    3    3  502    0  0.50609609523E+02 -0.60376070257E+01 -0.58862036956E+02  0.78003940088E+02  0.47000000000E+01 0.  1.
         -5    1    3    3    0  502 -0.66069303348E+02 -0.59417292744E+02 -0.15370194535E+03  0.17760052232E+03  0.47000000000E+01 0.  1.
        -11    1    1    2    0    0  0.53941632913E+02  0.48823073224E+02 -0.74054741567E+02  0.10381472434E+03  0.00000000000E+00 0.  1.
         11    1    1    2    0    0 -0.38481939088E+02  0.16631826545E+02 -0.39289997622E+02  0.57455906601E+02  0.00000000000E+00 0. -1.
<mgrwt>
<rscale>  0 0.13459118E+03</rscale>
<asrwt>0</asrwt>
<pdfrwt beam="2">  1        1 0.57137219E-01 0.14195138E+03</pdfrwt>
<pdfrwt beam="1">  1       -1 0.69974129E-02 0.14195138E+03</pdfrwt>
<totfact> 0.67530922E+03</totfact>
</mgrwt>
</event>
<event>
 7    1  0.8165933E-006  0.1470400E+03  0.7546771E-02  0.1213518E+00
         -2   -1    0    0    0  501 -0.00000000000E+00  0.00000000000E+00  0.33847028486E+02  0.33847028486E+02  0.00000000000E+00 0.  1.
          2   -1    0    0  501    0  0.00000000000E+00 -0.00000000000E+00 -0.87439471437E+03  0.87439471437E+03  0.00000000000E+00 0. -1.
         23    2    1    2    0    0  0.63632172820E+02 -0.43957382220E+02 -0.73052772480E+03  0.74517884502E+03  0.12505778462E+03 0.  0.
          5    1    3    3  502    0  0.74552806491E+02 -0.60734335959E+02 -0.70863000465E+03  0.71514009398E+03  0.47000000000E+01 0.  1.
         -5    1    3    3    0  502 -0.10920633671E+02  0.16776953738E+02 -0.21897720143E+02  0.30038751039E+02  0.47000000000E+01 0.  1.
        -11    1    1    2    0    0  0.13220150108E+02  0.40267212753E+02 -0.29146974593E+02  0.51437018962E+02  0.00000000000E+00 0. -1.
         11    1    1    2    0    0 -0.76852322928E+02  0.36901694668E+01 -0.80872986492E+02  0.11162587887E+03  0.00000000000E+00 0.  1.
<mgrwt>
<rscale>  0 0.13985945E+03</rscale>
<asrwt>0</asrwt>
<pdfrwt beam="2">  1        2 0.13452223E+00 0.14703998E+03</pdfrwt>
<pdfrwt beam="1">  1       -2 0.52072364E-02 0.14703998E+03</pdfrwt>
<totfact> 0.56639981E+03</totfact>
</mgrwt>
</event>
<event>
 7    1  0.8165933E-006  0.1455391E+03  0.7546771E-02  0.1213665E+00
          1   -1    0    0  501    0  0.00000000000E+00  0.00000000000E+00  0.39309814812E+02  0.39309814812E+02  0.00000000000E+00 0. -1.
         -1   -1    0    0    0  501 -0.00000000000E+00 -0.00000000000E+00 -0.50838806961E+03  0.50838806961E+03  0.00000000000E+00 0.  1.
         23    2    1    2    0    0  0.10275503327E+02  0.85964989077E+02 -0.16851537437E+03  0.22266354906E+03  0.11698743251E+03 0.  0.
          5    1    3    3  502    0  0.26287781409E+02  0.83460479408E+02 -0.18138384576E+03  0.20144202287E+03  0.47000000000E+01 0. -1.
         -5    1    3    3    0  502 -0.16012278082E+02  0.25045096687E+01  0.12868471388E+02  0.21221526192E+02  0.47000000000E+01 0.  1.
        -11    1    1    2    0    0 -0.35579198188E+02 -0.62926905203E+02 -0.11138725862E+03  0.13278853913E+03  0.00000000000E+00 0.  1.
         11    1    1    2    0    0  0.25303694861E+02 -0.23038083874E+02 -0.18917562181E+03  0.19224579623E+03  0.00000000000E+00 0. -1.
<mgrwt>
<rscale>  0 0.13975072E+03</rscale>
<asrwt>0</asrwt>
<pdfrwt beam="1">  1        1 0.60476637E-02 0.14553908E+03</pdfrwt>
<pdfrwt beam="2">  1       -1 0.78213550E-01 0.14553908E+03</pdfrwt>
<totfact> 0.21270117E+03</totfact>
</mgrwt>
</event>
<event>
 7    1  0.8165933E-006  0.1267801E+03  0.7546771E-02  0.1247077E+00
         -4   -1    0    0    0  501 -0.00000000000E+00  0.00000000000E+00  0.30353172229E+03  0.30353172229E+03  0.00000000000E+00 0. -1.
          4   -1    0    0  501    0  0.00000000000E+00 -0.00000000000E+00 -0.44143202155E+02  0.44143202155E+02  0.00000000000E+00 0.  1.
         23    2    1    2    0    0 -0.10556437954E+02  0.18345671179E+02  0.95283114922E+02  0.15859399302E+03  0.12500072240E+03 0.  0.
          5    1    3    3  502    0  0.39345381403E+02  0.39681526540E+02  0.93546842940E+01  0.56853167938E+02  0.47000000000E+01 0.  1.
         -5    1    3    3    0  502 -0.49901819356E+02 -0.21335855362E+02  0.85928430628E+02  0.10174082509E+03  0.47000000000E+01 0.  1.
        -11    1    1    2    0    0 -0.16113264372E+02  0.32489082914E+02  0.56930500992E+02  0.67500072152E+02  0.00000000000E+00 0. -1.
         11    1    1    2    0    0  0.26669702325E+02 -0.50834754092E+02  0.10717490422E+03  0.12158085927E+03  0.00000000000E+00 0.  1.
<mgrwt>
<rscale>  0 0.11761915E+03</rscale>
<asrwt>0</asrwt>
<pdfrwt beam="2">  1        4 0.67912621E-02 0.12678006E+03</pdfrwt>
<pdfrwt beam="1">  1       -4 0.46697187E-01 0.12678006E+03</pdfrwt>
<totfact> 0.10512777E+03</totfact>
</mgrwt>
</event>
<event>
 7    1  0.8165933E-006  0.1274780E+03  0.7546771E-02  0.1246085E+00
          1   -1    0    0  501    0  0.00000000000E+00  0.00000000000E+00  0.43342803511E+03  0.43342803511E+03  0.00000000000E+00 0. -1.
         -1   -1    0    0    0  501 -0.00000000000E+00 -0.00000000000E+00 -0.29955278081E+02  0.29955278081E+02  0.00000000000E+00 0.  1.
         23    2    1    2    0    0 -0.17984307766E+02 -0.17403818867E+02  0.28331698787E+03  0.31067533864E+03  0.12499728871E+03 0.  0.
          5    1    3    3  502    0 -0.24059954938E+02 -0.52894726723E+02  0.57245261518E+02  0.81705835245E+02  0.47000000000E+01 0.  1.
         -5    1    3    3    0  502  0.60756471722E+01  0.35490907856E+02  0.22607172635E+03  0.22896950339E+03  0.47000000000E+01 0.  1.
        -11    1    1    2    0    0  0.70618468280E+00 -0.36288866179E+02  0.34013597895E+02  0.49742389841E+02  0.00000000000E+00 0.  1.
         11    1    1    2    0    0  0.17278123083E+02  0.53692685046E+02  0.86142171270E+02  0.10296558472E+03  0.00000000000E+00 0. -1.
<mgrwt>
<rscale>  0 0.11820676E+03</rscale>
<asrwt>0</asrwt>
<pdfrwt beam="1">  1        1 0.66681231E-01 0.12747804E+03</pdfrwt>
<pdfrwt beam="2">  1       -1 0.46085046E-02 0.12747804E+03</pdfrwt>
<totfact> 0.10263610E+04</totfact>
</mgrwt>
</event>
<event>
 7    1  0.8165933E-006  0.1252808E+03  0.7546771E-02  0.1250203E+00
         -1   -1    0    0    0  501 -0.00000000000E+00  0.00000000000E+00  0.13881943757E+02  0.13881943757E+02  0.00000000000E+00 0.  1.
          1   -1    0    0  501    0  0.00000000000E+00 -0.00000000000E+00 -0.88323702315E+03  0.88323702315E+03  0.00000000000E+00 0. -1.
         23    2    1    2    0    0 -0.42697729235E+01  0.71858943442E+01 -0.59101905968E+03  0.60415130911E+03  0.12500162941E+03 0.  0.
          5    1    3    3  502    0  0.29813274380E+02 -0.44369257380E+02 -0.39332735987E+03  0.39697098679E+03  0.47000000000E+01 0.  1.
         -5    1    3    3    0  502 -0.34083047303E+02  0.51555151725E+02 -0.19769169981E+03  0.20718032232E+03  0.47000000000E+01 0.  1.
        -11    1    1    2    0    0 -0.29249464147E+02  0.21693345739E+02 -0.19737089271E+03  0.20070227127E+03  0.00000000000E+00 0. -1.
         11    1    1    2    0    0  0.33519237070E+02 -0.28879240083E+02 -0.80965127005E+02  0.92265386535E+02  0.00000000000E+00 0.  1.
<mgrwt>
<rscale>  0 0.11579328E+03</rscale>
<asrwt>0</asrwt>
<pdfrwt beam="2">  1        1 0.13588262E+00 0.12528079E+03</pdfrwt>
<pdfrwt beam="1">  1       -1 0.21356836E-02 0.12528079E+03</pdfrwt>
<totfact> 0.11704192E+04</totfact>
</mgrwt>
</event>
<event>
 7    1  0.8165933E-006  0.1812578E+03  0.7546771E-02  0.1171760E+00
          1   -1    0    0  501    0  0.00000000000E+00  0.00000000000E+00  0.26340505644E+02  0.26340505644E+02  0.00000000000E+00 0. -1.
         -1   -1    0    0    0  501 -0.00000000000E+00 -0.00000000000E+00 -0.11177154372E+04  0.11177154372E+04  0.00000000000E+00 0.  1.
         23    2    1    2    0    0  0.11571323028E+03 -0.61979643125E+02 -0.53661043212E+03  0.56639664846E+03  0.12499351864E+03 0.  0.
          5    1    3    3  502    0  0.41872766908E+02 -0.18720721104E+02 -0.35985272443E+02  0.58487809328E+02  0.47000000000E+01 0. -1.
         -5    1    3    3    0  502  0.73840463371E+02 -0.43258922022E+02 -0.50062515968E+03  0.50790883913E+03  0.47000000000E+01 0. -1.
        -11    1    1    2    0    0 -0.80791712653E+02  0.55761905861E+02 -0.51542400373E+03  0.52468904563E+03  0.00000000000E+00 0.  1.
         11    1    1    2    0    0 -0.34921517626E+02  0.62177372643E+01 -0.39340495663E+02  0.52970248716E+02  0.00000000000E+00 0. -1.
<mgrwt>
<rscale>  0 0.17597089E+03</rscale>
<asrwt>0</asrwt>
<pdfrwt beam="1">  1        1 0.40523857E-02 0.18125785E+03</pdfrwt>
<pdfrwt beam="2">  1       -1 0.17195621E+00 0.18125785E+03</pdfrwt>
<totfact> 0.57948579E+02</totfact>
</mgrwt>
</event>
<event>
 7    1  0.8165933E-006  0.1299418E+03  0.7546771E-02  0.1246199E+00
          1   -1    0    0  501    0  0.00000000000E+00  0.00000000000E+00  0.17793937278E+03  0.17793937278E+03  0.00000000000E+00 0. -1.
         -1   -1    0    0    0  501 -0.00000000000E+00 -0.00000000000E+00 -0.68317919339E+02  0.68317919339E+02  0.00000000000E+00 0.  1.
         23    2    1    2    0    0 -0.35495660706E+02 -0.15813314856E+00  0.80329377400E+02  0.15276671407E+03  0.12499957247E+03 0.  0.
          5    1    3    3  502    0  0.42536301372E+02 -0.67315473546E+01  0.55655869367E+02  0.70528834239E+02  0.47000000000E+01 0. -1.
         -5    1    3    3    0  502 -0.78031962078E+02  0.65734142060E+01  0.24673508034E+02  0.82237879829E+02  0.47000000000E+01 0. -1.
        -11    1    1    2    0    0  0.32247940181E+02 -0.36250336275E+02  0.32840661612E+01  0.48629225950E+02  0.00000000000E+00 0.  1.
         11    1    1    2    0    0  0.32477205250E+01  0.36408469423E+02  0.26008009878E+02  0.44861352099E+02  0.00000000000E+00 0. -1.
<mgrwt>
<rscale>  0 0.11813927E+03</rscale>
<asrwt>0</asrwt>
<pdfrwt beam="1">  1        1 0.27375288E-01 0.12994176E+03</pdfrwt>
<pdfrwt beam="2">  1       -1 0.10510449E-01 0.12994176E+03</pdfrwt>
<totfact> 0.90335471E+03</totfact>
</mgrwt>
</event>
<event>
 7    1  0.8165933E-006  0.1288433E+03  0.7546771E-02  0.1243334E+00
         -2   -1    0    0    0  501 -0.00000000000E+00  0.00000000000E+00  0.10008960336E+03  0.10008960336E+03  0.00000000000E+00 0.  1.
          2   -1    0    0  501    0  0.00000000000E+00 -0.00000000000E+00 -0.18105963362E+03  0.18105963362E+03  0.00000000000E+00 0. -1.
         23    2    1    2    0    0  0.12496594190E+02 -0.28616850647E+02 -0.12094092983E+03  0.17671247382E+03  0.12500200353E+03 0.  0.
          5    1    3    3  502    0 -0.51949620572E+02  0.73491992065E+01 -0.34571759058E+02  0.63008494117E+02  0.47000000000E+01 0.  1.
         -5    1    3    3    0  502  0.64446214762E+02 -0.35966049853E+02 -0.86369170773E+02  0.11370397970E+03  0.47000000000E+01 0.  1.
        -11    1    1    2    0    0 -0.39308451839E+01  0.15621066596E+02  0.69346311122E+02  0.71192556715E+02  0.00000000000E+00 0.  1.
         11    1    1    2    0    0 -0.85657490057E+01  0.12995784051E+02 -0.29375411545E+02  0.33244206451E+02  0.00000000000E+00 0. -1.
<mgrwt>
<rscale>  0 0.11985643E+03</rscale>
<asrwt>0</asrwt>
<pdfrwt beam="2">  1        2 0.27855328E-01 0.12884328E+03</pdfrwt>
<pdfrwt beam="1">  1       -2 0.15398400E-01 0.12884328E+03</pdfrwt>
<totfact> 0.59227645E+03</totfact>
</mgrwt>
</event>
<event>
 7    1  0.8165933E-006  0.1592328E+03  0.7546771E-02  0.1195819E+00
         -2   -1    0    0    0  501 -0.00000000000E+00  0.00000000000E+00  0.17306360608E+02  0.17306360608E+02  0.00000000000E+00 0.  1.
          2   -1    0    0  501    0  0.00000000000E+00 -0.00000000000E+00 -0.12853046650E+04  0.12853046650E+04  0.00000000000E+00 0. -1.
         23    2    1    2    0    0  0.70186663514E+01 -0.98391916161E+02 -0.64921970731E+03  0.66846190087E+03  0.12499941484E+03 0.  0.
          5    1    3    3  502    0  0.29474852913E+02 -0.11029641961E+03 -0.35113465623E+03  0.36925831600E+03  0.47000000000E+01 0. -1.
         -5    1    3    3    0  502 -0.22456186561E+02  0.11904503451E+02 -0.29808505108E+03  0.29920358487E+03  0.47000000000E+01 0. -1.
        -11    1    1    2    0    0  0.19690614342E+02  0.97890726545E+02 -0.56861699179E+03  0.57731758850E+03  0.00000000000E+00 0. -1.
         11    1    1    2    0    0 -0.26709280693E+02  0.50118961672E+00 -0.50161605291E+02  0.56831536241E+02  0.00000000000E+00 0.  1.
<mgrwt>
<rscale>  0 0.15385133E+03</rscale>
<asrwt>0</asrwt>
<pdfrwt beam="2">  1        2 0.19773918E+00 0.15923280E+03</pdfrwt>
<pdfrwt beam="1">  1       -2 0.26625170E-02 0.15923280E+03</pdfrwt>
<totfact> 0.88628563E+03</totfact>
</mgrwt>
</event>
<event>
 7    1  0.8165933E-006  0.1371260E+03  0.7546771E-02  0.1229323E+00
         -1   -1    0    0    0  501 -0.00000000000E+00  0.00000000000E+00  0.68039659417E+02  0.68039659417E+02  0.00000000000E+00 0.  1.
          1   -1    0    0  501    0  0.00000000000E+00 -0.00000000000E+00 -0.24771022954E+03  0.24771022954E+03  0.00000000000E+00 0. -1.
         23    2    1    2    0    0  0.34324122167E+02 -0.44729738272E+02 -0.15386776776E+03  0.20610392362E+03  0.12499857010E+03 0.  0.
          5    1    3    3  502    0  0.57211684888E+02 -0.55448309503E+02 -0.16076715051E+03  0.17948776727E+03  0.47000000000E+01 0. -1.
         -5    1    3    3    0  502 -0.22887562721E+02  0.10718571231E+02  0.68993827546E+01  0.26616156352E+02  0.47000000000E+01 0. -1.
        -11    1    1    2    0    0 -0.17878943736E+02 -0.10555934376E+02  0.25199561194E+02  0.32651221478E+02  0.00000000000E+00 0.  1.
         11    1    1    2    0    0 -0.16445178431E+02  0.55285672647E+02 -0.51002363559E+02  0.76994743862E+02  0.00000000000E+00 0. -1.
<mgrwt>
<rscale>  0 0.12874939E+03</rscale>
<asrwt>0</asrwt>
<pdfrwt beam="2">  1        1 0.38109266E-01 0.13712599E+03</pdfrwt>
<pdfrwt beam="1">  1       -1 0.10467640E-01 0.13712599E+03</pdfrwt>
<totfact> 0.60526211E+03</totfact>
</mgrwt>
</event>
<event>
 7    1  0.8165933E-006  0.1279517E+03  0.7546771E-02  0.1244862E+00
         -1   -1    0    0    0  501 -0.00000000000E+00  0.00000000000E+00  0.28664951132E+02  0.28664951132E+02  0.00000000000E+00 0.  1.
          1   -1    0    0  501    0  0.00000000000E+00 -0.00000000000E+00 -0.49147739282E+03  0.49147739282E+03  0.00000000000E+00 0. -1.
         23    2    1    2    0    0  0.26575792340E+02  0.61707342092E+01 -0.34805846545E+03  0.37083193307E+03  0.12500910571E+03 0.  0.
          5    1    3    3  502    0 -0.60993900870E+01  0.29675837857E+02 -0.32017876485E+03  0.32164326415E+03  0.47000000000E+01 0. -1.
         -5    1    3    3    0  502  0.32675182427E+02 -0.23505103648E+02 -0.27879700600E+02  0.49188668916E+02  0.47000000000E+01 0. -1.
        -11    1    1    2    0    0  0.38441420135E+01  0.24736685228E+02 -0.10063748353E+03  0.10370431098E+03  0.00000000000E+00 0. -1.
         11    1    1    2    0    0 -0.30419934354E+02 -0.30907419437E+02 -0.14116492702E+02  0.45606099905E+02  0.00000000000E+00 0.  1.
<mgrwt>
<rscale>  0 0.11893626E+03</rscale>
<asrwt>0</asrwt>
<pdfrwt beam="2">  1        1 0.75611909E-01 0.12795166E+03</pdfrwt>
<pdfrwt beam="1">  1       -1 0.44099923E-02 0.12795166E+03</pdfrwt>
<totfact> 0.93222813E+03</totfact>
</mgrwt>
</event>
<event>
 7    1  0.8165933E-006  0.1466560E+03  0.7546771E-02  0.1213664E+00
          1   -1    0    0  501    0  0.00000000000E+00  0.00000000000E+00  0.79259115707E+02  0.79259115707E+02  0.00000000000E+00 0. -1.
         -1   -1    0    0    0  501 -0.00000000000E+00 -0.00000000000E+00 -0.23729694729E+03  0.23729694729E+03  0.00000000000E+00 0.  1.
         23    2    1    2    0    0 -0.45066358207E+02  0.62069738151E+02 -0.51628738327E+02  0.15547831386E+03  0.12499740166E+03 0.  0.
          5    1    3    3  502    0  0.22583715534E+02  0.45480716626E+02  0.20623377634E+02  0.55008485683E+02  0.47000000000E+01 0. -1.
         -5    1    3    3    0  502 -0.67650073741E+02  0.16589021525E+02 -0.72252115961E+02  0.10046982817E+03  0.47000000000E+01 0. -1.
        -11    1    1    2    0    0  0.52148846214E+02 -0.46431466017E+02 -0.12023248178E+03  0.13903680402E+03  0.00000000000E+00 0.  1.
         11    1    1    2    0    0 -0.70824880077E+01 -0.15638272133E+02  0.13823388520E+02  0.22040945122E+02  0.00000000000E+00 0. -1.
<mgrwt>
<rscale>  0 0.13975101E+03</rscale>
<asrwt>0</asrwt>
<pdfrwt beam="1">  1        1 0.12193710E-01 0.14665599E+03</pdfrwt>
<pdfrwt beam="2">  1       -1 0.36507223E-01 0.14665599E+03</pdfrwt>
<totfact> 0.34445427E+03</totfact>
</mgrwt>
</event>
<event>
 6    1  0.8165933E-006  0.2567001E+03  0.7546771E-02  0.1138691E+00
         -2   -1    0    0    0  501 -0.00000000000E+00  0.00000000000E+00  0.30152415666E+02  0.30152415666E+02  0.00000000000E+00 0.  1.
          2   -1    0    0  501    0  0.00000000000E+00 -0.00000000000E+00 -0.21034730141E+04  0.21034730141E+04  0.00000000000E+00 0. -1.
          5    1    1    2  502    0  0.58217673110E+02 -0.85241423786E+02 -0.16085510767E+04  0.16118666366E+04  0.47000000000E+01 0. -1.
         -5    1    1    2    0  502 -0.92728466546E+02  0.11333766465E+02 -0.31067530106E+03  0.32445069804E+03  0.47000000000E+01 0.  1.
        -11    1    1    2    0    0 -0.18562154274E+02 -0.10325803393E+02 -0.44094419809E+02  0.48943780455E+02  0.00000000000E+00 0. -1.
         11    1    1    2    0    0  0.53072947711E+02  0.84233460713E+02 -0.10999980089E+03  0.14836431471E+03  0.00000000000E+00 0.  1.
<mgrwt>
<rscale>  0 0.21367218E+03</rscale>
<asrwt>0</asrwt>
<pdfrwt beam="2">  1        2 0.32361122E+00 0.25670008E+03</pdfrwt>
<pdfrwt beam="1">  1       -2 0.46388334E-02 0.25670008E+03</pdfrwt>
<totfact> 0.14399174E+03</totfact>
</mgrwt>
</event>
<event>
 7    1  0.8165933E-006  0.1555416E+03  0.7546771E-02  0.1202068E+00
          1   -1    0    0  501    0  0.00000000000E+00  0.00000000000E+00  0.15091952818E+02  0.15091952818E+02  0.00000000000E+00 0. -1.
         -1   -1    0    0    0  501 -0.00000000000E+00 -0.00000000000E+00 -0.13610220170E+04  0.13610220170E+04  0.00000000000E+00 0.  1.
         23    2    1    2    0    0  0.71792478032E+02  0.58441433463E+02 -0.79374885860E+03  0.80884513497E+03  0.12499456303E+03 0.  0.
          5    1    3    3  502    0 -0.80013857837E+00 -0.15840027363E+02 -0.43551487651E+03  0.43582891638E+03  0.47000000000E+01 0. -1.
         -5    1    3    3    0  502  0.72592616610E+02  0.74281460826E+02 -0.35823398208E+03  0.37301621859E+03  0.47000000000E+01 0. -1.
        -11    1    1    2    0    0 -0.50080168221E+02  0.12879384662E+02 -0.16280483734E+03  0.17081954472E+03  0.00000000000E+00 0. -1.
         11    1    1    2    0    0 -0.21712309811E+02 -0.71320818125E+02 -0.38937636823E+03  0.39644929012E+03  0.00000000000E+00 0.  1.
<mgrwt>
<rscale>  0 0.14870933E+03</rscale>
<asrwt>0</asrwt>
<pdfrwt beam="1">  1        1 0.23218396E-02 0.15554164E+03</pdfrwt>
<pdfrwt beam="2">  1       -1 0.20938794E+00 0.15554164E+03</pdfrwt>
<totfact> 0.70141364E+02</totfact>
</mgrwt>
</event>
<event>
 7    1  0.8165933E-006  0.1350210E+03  0.7546771E-02  0.1232927E+00
         -1   -1    0    0    0  501 -0.00000000000E+00  0.00000000000E+00  0.12286693424E+02  0.12286693424E+02  0.00000000000E+00 0.  1.
          1   -1    0    0  501    0  0.00000000000E+00 -0.00000000000E+00 -0.11987752127E+04  0.11987752127E+04  0.00000000000E+00 0. -1.
         23    2    1    2    0    0 -0.42483513192E+02 -0.28272637879E+02 -0.77812759268E+03  0.78975516398E+03  0.12500591024E+03 0.  0.
          5    1    3    3  502    0 -0.14374419503E+02  0.39314178984E+02 -0.11300645032E+03  0.12060172644E+03  0.47000000000E+01 0. -1.
         -5    1    3    3    0  502 -0.28109093690E+02 -0.67586816862E+02 -0.66512114236E+03  0.66915343754E+03  0.47000000000E+01 0. -1.
        -11    1    1    2    0    0  0.61212652760E+02  0.10096044163E+02 -0.36833651959E+03  0.37352471221E+03  0.00000000000E+00 0. -1.
         11    1    1    2    0    0 -0.18729139568E+02  0.18176593716E+02 -0.40024406954E+02  0.47782029886E+02  0.00000000000E+00 0.  1.
<mgrwt>
<rscale>  0 0.12638053E+03</rscale>
<asrwt>0</asrwt>
<pdfrwt beam="2">  1        1 0.18442704E+00 0.13502099E+03</pdfrwt>
<pdfrwt beam="1">  1       -1 0.18902596E-02 0.13502099E+03</pdfrwt>
<totfact> 0.82953334E+03</totfact>
</mgrwt>
</event>
<event>
 7    1  0.8165933E-006  0.1290260E+03  0.7546771E-02  0.1234927E+00
         -1   -1    0    0    0  501 -0.00000000000E+00  0.00000000000E+00  0.25886761711E+02  0.25886761711E+02  0.00000000000E+00 0.  1.
          1   -1    0    0  501    0  0.00000000000E+00 -0.00000000000E+00 -0.59838931129E+03  0.59838931129E+03  0.00000000000E+00 0. -1.
         23    2    1    2    0    0  0.21770793584E+02 -0.23425946693E+02 -0.37057741147E+03  0.39239690748E+03  0.12499989071E+03 0.  0.
          5    1    3    3  502    0  0.88886736840E+01 -0.48794985268E+02 -0.50204266966E+02  0.70728477495E+02  0.47000000000E+01 0.  1.
         -5    1    3    3    0  502  0.12882119900E+02  0.25369038575E+02 -0.32037314451E+03  0.32166842999E+03  0.47000000000E+01 0.  1.
        -11    1    1    2    0    0 -0.48586095988E+02  0.28436817148E+02 -0.19605200754E+03  0.20397463312E+03  0.00000000000E+00 0. -1.
         11    1    1    2    0    0  0.26815302404E+02 -0.50108704545E+01 -0.58731305600E+01  0.27904532397E+02  0.00000000000E+00 0.  1.
<mgrwt>
<rscale>  0 0.12509116E+03</rscale>
<asrwt>0</asrwt>
<pdfrwt beam="2">  1        1 0.92059896E-01 0.12902602E+03</pdfrwt>
<pdfrwt beam="1">  1       -1 0.39825786E-02 0.12902602E+03</pdfrwt>
<totfact> 0.83464039E+03</totfact>
</mgrwt>
</event>
<event>
 7    1  0.8165933E-006  0.1571449E+03  0.7546771E-02  0.1201278E+00
          1   -1    0    0  501    0  0.00000000000E+00  0.00000000000E+00  0.76538415056E+03  0.76538415056E+03  0.00000000000E+00 0. -1.
         -1   -1    0    0    0  501 -0.00000000000E+00 -0.00000000000E+00 -0.32044207841E+02  0.32044207841E+02  0.00000000000E+00 0.  1.
         23    2    1    2    0    0 -0.94153483688E+02 -0.14277672039E+02  0.56126387308E+03  0.58284788296E+03  0.12500315611E+03 0.  0.
          5    1    3    3  502    0 -0.16638814329E+02 -0.54334283520E+02  0.11800420845E+03  0.13105780297E+03  0.47000000000E+01 0. -1.
         -5    1    3    3    0  502 -0.77514669359E+02  0.40056611481E+02  0.44325966463E+03  0.45179007999E+03  0.47000000000E+01 0. -1.
        -11    1    1    2    0    0  0.60374973691E+02  0.22413631444E+02  0.16760176618E+03  0.17954904720E+03  0.00000000000E+00 0. -1.
         11    1    1    2    0    0  0.33778509997E+02 -0.81359594056E+01  0.44743034545E+01  0.35031428239E+02  0.00000000000E+00 0.  1.
<mgrwt>
<rscale>  0 0.14934653E+03</rscale>
<asrwt>0</asrwt>
<pdfrwt beam="1">  1        1 0.11775139E+00 0.15714490E+03</pdfrwt>
<pdfrwt beam="2">  1       -1 0.49298787E-02 0.15714490E+03</pdfrwt>
<totfact> 0.43418931E+03</totfact>
</mgrwt>
</event>
<event>
 7    1  0.8165933E-006  0.1399498E+03  0.7546771E-02  0.1224638E+00
         -1   -1    0    0    0  501 -0.00000000000E+00  0.00000000000E+00  0.18724525623E+03  0.18724525623E+03  0.00000000000E+00 0.  1.
          1   -1    0    0  501    0  0.00000000000E+00 -0.00000000000E+00 -0.86807350326E+02  0.86807350326E+02  0.00000000000E+00 0. -1.
         23    2    1    2    0    0 -0.42531607139E+02 -0.46375020022E+02  0.30313995899E+02  0.14319529816E+03  0.12500549980E+03 0.  0.
          5    1    3    3  502    0 -0.43056760395E+02 -0.27515271915E+01  0.71092766711E+02  0.83293018892E+02  0.47000000000E+01 0. -1.
         -5    1    3    3    0  502  0.52515325582E+00 -0.43623492831E+02 -0.40778770812E+02  0.59902279269E+02  0.47000000000E+01 0. -1.
        -11    1    1    2    0    0  0.31832964870E+02  0.56040167491E+02  0.55448562499E+01  0.64688356415E+02  0.00000000000E+00 0. -1.
         11    1    1    2    0    0  0.10698642269E+02 -0.96651474686E+01  0.64579053758E+02  0.66168951981E+02  0.00000000000E+00 0.  1.
<mgrwt>
<rscale>  0 0.13191742E+03</rscale>
<asrwt>0</asrwt>
<pdfrwt beam="2">  1        1 0.13354977E-01 0.13994983E+03</pdfrwt>
<pdfrwt beam="1">  1       -1 0.28806962E-01 0.13994983E+03</pdfrwt>
<totfact> 0.45621007E+03</totfact>
</mgrwt>
</event>
<event>
 7    1  0.8165933E-006  0.1315530E+03  0.7546771E-02  0.1236176E+00
         -2   -1    0    0    0  501 -0.00000000000E+00  0.00000000000E+00  0.57058390013E+02  0.57058390013E+02  0.00000000000E+00 0.  1.
          2   -1    0    0  501    0  0.00000000000E+00 -0.00000000000E+00 -0.30704243052E+03  0.30704243052E+03  0.00000000000E+00 0. -1.
         23    2    1    2    0    0 -0.40125643999E+02 -0.84821636448E+01 -0.21778475673E+03  0.25443346400E+03  0.12499669169E+03 0.  0.
          5    1    3    3  502    0  0.84113659159E+01  0.47720964642E+02 -0.44950259001E+02  0.66262035338E+02  0.47000000000E+01 0.  1.
         -5    1    3    3    0  502 -0.48537009915E+02 -0.56203128287E+02 -0.17283449773E+03  0.18817142866E+03  0.47000000000E+01 0.  1.
        -11    1    1    2    0    0  0.47335620981E+02 -0.28381477314E+02  0.66945543571E+01  0.55596639522E+02  0.00000000000E+00 0.  1.
         11    1    1    2    0    0 -0.72099769815E+01  0.36863640958E+02 -0.38893838135E+02  0.54070717007E+02  0.00000000000E+00 0. -1.
<mgrwt>
<rscale>  0 0.12429421E+03</rscale>
<asrwt>0</asrwt>
<pdfrwt beam="2">  1        2 0.47237297E-01 0.13155298E+03</pdfrwt>
<pdfrwt beam="1">  1       -2 0.87782139E-02 0.13155298E+03</pdfrwt>
<totfact> 0.82512528E+03</totfact>
</mgrwt>
</event>
<event>
 7    1  0.8165933E-006  0.1258515E+03  0.7546771E-02  0.1251609E+00
          2   -1    0    0  501    0  0.00000000000E+00  0.00000000000E+00  0.10313159181E+04  0.10313159181E+04  0.00000000000E+00 0.  1.
         -2   -1    0    0    0  501 -0.00000000000E+00 -0.00000000000E+00 -0.22168730388E+02  0.22168730388E+02  0.00000000000E+00 0. -1.
         23    2    1    2    0    0 -0.35626837779E+01  0.14165579262E+02  0.91951681717E+03  0.92808932193E+03  0.12500102431E+03 0.  0.
          5    1    3    3  502    0  0.26790181306E+02  0.55221763196E+02  0.69830757348E+03  0.70101548779E+03  0.47000000000E+01 0.  1.
         -5    1    3    3    0  502 -0.30352865084E+02 -0.41056183934E+02  0.22120924369E+03  0.22707383414E+03  0.47000000000E+01 0.  1.
        -11    1    1    2    0    0  0.33437759691E+02 -0.35820887263E+02  0.63372114413E+02  0.80107706387E+02  0.00000000000E+00 0.  1.
         11    1    1    2    0    0 -0.29875075913E+02  0.21655308001E+02  0.26258256132E+02  0.45287620168E+02  0.00000000000E+00 0. -1.
<mgrwt>
<rscale>  0 0.11498401E+03</rscale>
<asrwt>0</asrwt>
<pdfrwt beam="1">  1        2 0.15866395E+00 0.12585155E+03</pdfrwt>
<pdfrwt beam="2">  1       -2 0.34105747E-02 0.12585155E+03</pdfrwt>
<totfact> 0.84643914E+03</totfact>
</mgrwt>
</event>
<event>
 7    1  0.8165933E-006  0.1417041E+03  0.7546771E-02  0.1222005E+00
         -2   -1    0    0    0  501 -0.00000000000E+00  0.00000000000E+00  0.54546143828E+03  0.54546143828E+03  0.00000000000E+00 0.  1.
          2   -1    0    0  501    0  0.00000000000E+00 -0.00000000000E+00 -0.33092035337E+02  0.33092035337E+02  0.00000000000E+00 0. -1.
         23    2    1    2    0    0 -0.57753453803E+02 -0.33471526962E+02  0.18921154142E+03  0.23639177873E+03  0.12499704437E+03 0.  0.
          5    1    3    3  502    0 -0.44212004544E+02 -0.45076842133E+02  0.20318543489E+02  0.66494783645E+02  0.47000000000E+01 0. -1.
         -5    1    3    3    0  502 -0.13541449259E+02  0.11605315171E+02  0.16889299793E+03  0.16989699508E+03  0.47000000000E+01 0. -1.
        -11    1    1    2    0    0  0.40561108568E+02  0.52332097435E+02  0.30151647439E+03  0.30870056086E+03  0.00000000000E+00 0.  1.
         11    1    1    2    0    0  0.17192345235E+02 -0.18860570473E+02  0.21641387142E+02  0.33461134031E+02  0.00000000000E+00 0. -1.
<mgrwt>
<rscale>  0 0.13374294E+03</rscale>
<asrwt>0</asrwt>
<pdfrwt beam="2">  1        2 0.50910828E-02 0.14170415E+03</pdfrwt>
<pdfrwt beam="1">  1       -2 0.83917138E-01 0.14170415E+03</pdfrwt>
<totfact> 0.18954505E+03</totfact>
</mgrwt>
</event>
<event>
 7    1  0.8165933E-006  0.1874380E+03  0.7546771E-02  0.1165938E+00
          2   -1    0    0  501    0  0.00000000000E+00  0.00000000000E+00  0.17734358835E+03  0.17734358835E+03  0.00000000000E+00 0. -1.
         -2   -1    0    0    0  501 -0.00000000000E+00 -0.00000000000E+00 -0.17953639578E+03  0.17953639578E+03  0.00000000000E+00 0.  1.
         23    2    1    2    0    0  0.13753668320E+03 -0.24298262955E+02  0.22028646901E+02  0.18872798466E+03  0.12500498431E+03 0.  0.
          5    1    3    3  502    0  0.30199403210E+02  0.47811994829E+02 -0.34384855029E+01  0.56849837171E+02  0.47000000000E+01 0. -1.
         -5    1    3    3    0  502  0.10733727999E+03 -0.72110257784E+02  0.25467132404E+02  0.13187814749E+03  0.47000000000E+01 0. -1.
        -11    1    1    2    0    0 -0.12675727185E+03  0.42648364986E+02  0.27840235222E+01  0.13376860540E+03  0.00000000000E+00 0.  1.
         11    1    1    2    0    0 -0.10779411345E+02 -0.18350102031E+02 -0.27005477857E+02  0.34383394071E+02  0.00000000000E+00 0. -1.
<mgrwt>
<rscale>  0 0.18194094E+03</rscale>
<asrwt>0</asrwt>
<pdfrwt beam="1">  1        2 0.27283629E-01 0.18743797E+03</pdfrwt>
<pdfrwt beam="2">  1       -2 0.27620984E-01 0.18743797E+03</pdfrwt>
<totfact> 0.22796578E+03</totfact>
</mgrwt>
</event>
<event>
 7    1  0.8165933E-006  0.1666955E+03  0.7546771E-02  0.1187776E+00
         -2   -1    0    0    0  501 -0.00000000000E+00  0.00000000000E+00  0.26474949221E+03  0.26474949221E+03  0.00000000000E+00 0.  1.
          2   -1    0    0  501    0  0.00000000000E+00 -0.00000000000E+00 -0.10310786087E+03  0.10310786087E+03  0.00000000000E+00 0. -1.
         23    2    1    2    0    0 -0.10195686699E+03  0.42040124025E+02  0.24089846343E+02  0.16842719047E+03  0.12499929215E+03 0.  0.
          5    1    3    3  502    0 -0.60800159396E+02  0.31848528623E+02 -0.48538853973E+02  0.84196784398E+02  0.47000000000E+01 0.  1.
         -5    1    3    3    0  502 -0.41156707596E+02  0.10191595402E+02  0.72628700315E+02  0.84230406069E+02  0.47000000000E+01 0.  1.
        -11    1    1    2    0    0  0.10274995182E+02  0.24668043948E+02  0.48043169630E+02  0.54974849398E+02  0.00000000000E+00 0. -1.
         11    1    1    2    0    0  0.91681871810E+02 -0.66708167973E+02  0.89508615369E+02  0.14445531322E+03  0.00000000000E+00 0.  1.
<mgrwt>
<rscale>  0 0.16081855E+03</rscale>
<asrwt>0</asrwt>
<pdfrwt beam="2">  1        2 0.15862748E-01 0.16669552E+03</pdfrwt>
<pdfrwt beam="1">  1       -2 0.40730691E-01 0.16669552E+03</pdfrwt>
<totfact> 0.20516655E+03</totfact>
</mgrwt>
</event>
<event>
 7    1  0.8165933E-006  0.1453209E+03  0.7546771E-02  0.1216877E+00
         -1   -1    0    0    0  501 -0.00000000000E+00  0.00000000000E+00  0.38357663093E+02  0.38357663093E+02  0.00000000000E+00 0.  1.
          1   -1    0    0  501    0  0.00000000000E+00 -0.00000000000E+00 -0.44555638377E+03  0.44555638377E+03  0.00000000000E+00 0. -1.
         23    2    1    2    0    0  0.44338024393E+02  0.59396960776E+02 -0.22331801027E+03  0.26643780687E+03  0.12499724741E+03 0.  0.
          5    1    3    3  502    0  0.85194664410E+02  0.45068738776E+02 -0.11774162897E+03  0.15223174193E+03  0.47000000000E+01 0. -1.
         -5    1    3    3    0  502 -0.40856640017E+02  0.14328222000E+02 -0.10557638130E+03  0.11420606494E+03  0.47000000000E+01 0. -1.
        -11    1    1    2    0    0  0.56300013256E+01 -0.31626653812E+02 -0.88121965785E+01  0.33310613246E+02  0.00000000000E+00 0.  1.
         11    1    1    2    0    0 -0.49968025719E+02 -0.27770306964E+02 -0.17506851383E+03  0.18416562675E+03  0.00000000000E+00 0. -1.
<mgrwt>
<rscale>  0 0.13739554E+03</rscale>
<asrwt>0</asrwt>
<pdfrwt beam="2">  1        1 0.68547137E-01 0.14532092E+03</pdfrwt>
<pdfrwt beam="1">  1       -1 0.59011789E-02 0.14532092E+03</pdfrwt>
<totfact> 0.69296096E+03</totfact>
</mgrwt>
</event>
<event>
 6    1  0.8165933E-006  0.3033559E+03  0.7546771E-02  0.1146920E+00
          2   -1    0    0  501    0  0.00000000000E+00  0.00000000000E+00  0.88307470499E+03  0.88307470499E+03  0.00000000000E+00 0. -1.
         -2   -1    0    0    0  501 -0.00000000000E+00 -0.00000000000E+00 -0.37662756943E+02  0.37662756943E+02  0.00000000000E+00 0.  1.
          5    1    1    2  502    0  0.22669361238E+02 -0.11990304345E+03  0.63796212968E+03  0.64954477034E+03  0.47000000000E+01 0. -1.
         -5    1    1    2    0  502  0.57715305237E+01  0.99369358333E+02  0.73288737103E+02  0.12369684283E+03  0.47000000000E+01 0.  1.
        -11    1    1    2    0    0 -0.23659328978E+02 -0.13237075041E+02  0.62846121763E+02  0.68444276780E+02  0.00000000000E+00 0. -1.
         11    1    1    2    0    0 -0.47815627840E+01  0.33770760160E+02  0.71314959507E+02  0.79051571989E+02  0.00000000000E+00 0.  1.
<mgrwt>
<rscale>  0 0.20337734E+03</rscale>
<asrwt>0</asrwt>
<pdfrwt beam="1">  1        2 0.13585763E+00 0.30335589E+03</pdfrwt>
<pdfrwt beam="2">  1       -2 0.57942710E-02 0.30335589E+03</pdfrwt>
<totfact> 0.48679115E+03</totfact>
</mgrwt>
</event>
<event>
 7    1  0.8165933E-006  0.1487250E+03  0.7546771E-02  0.1211268E+00
         -2   -1    0    0    0  501 -0.00000000000E+00  0.00000000000E+00  0.42744160497E+02  0.42744160497E+02  0.00000000000E+00 0.  1.
          2   -1    0    0  501    0  0.00000000000E+00 -0.00000000000E+00 -0.43890850059E+03  0.43890850059E+03  0.00000000000E+00 0. -1.
         23    2    1    2    0    0 -0.73319120880E+02  0.33438708680E+02 -0.25371537737E+03  0.29409286054E+03  0.12500110872E+03 0.  0.
          5    1    3    3  502    0 -0.73023039643E+02  0.14147920835E+02 -0.26213517020E+03  0.27252424743E+03  0.47000000000E+01 0.  1.
         -5    1    3    3    0  502 -0.29608123708E+00  0.19290787845E+02  0.84197928339E+01  0.21568613102E+02  0.47000000000E+01 0.  1.
        -11    1    1    2    0    0  0.65648673259E+02 -0.61599176415E+02 -0.88599841052E+02  0.12630969349E+03  0.00000000000E+00 0. -1.
         11    1    1    2    0    0  0.76704476212E+01  0.28160467735E+02 -0.53849121670E+02  0.61250107056E+02  0.00000000000E+00 0.  1.
<mgrwt>
<rscale>  0 0.14154311E+03</rscale>
<asrwt>0</asrwt>
<pdfrwt beam="2">  1        2 0.67524391E-01 0.14872497E+03</pdfrwt>
<pdfrwt beam="1">  1       -2 0.65760241E-02 0.14872497E+03</pdfrwt>
<totfact> 0.88673864E+03</totfact>
</mgrwt>
</event>
<event>
 6    1  0.8165933E-006  0.1499282E+03  0.7546771E-02  0.1212015E+00
         -4   -1    0    0    0  501 -0.00000000000E+00  0.00000000000E+00  0.11427824760E+03  0.11427824760E+03  0.00000000000E+00 0.  1.
          4   -1    0    0  501    0  0.00000000000E+00 -0.00000000000E+00 -0.22617921519E+03  0.22617921519E+03  0.00000000000E+00 0. -1.
          5    1    1    2  502    0 -0.38849985385E+02 -0.27271815229E+02 -0.78620548447E+02  0.91958435766E+02  0.47000000000E+01 0. -1.
         -5    1    1    2    0  502  0.12111020024E+02  0.96407146486E+02 -0.76305708765E+02  0.12363521298E+03  0.47000000000E+01 0.  1.
        -11    1    1    2    0    0  0.43294207224E+02 -0.11539368672E+02 -0.87683263512E+01  0.45655546820E+02  0.00000000000E+00 0. -1.
         11    1    1    2    0    0 -0.16555241863E+02 -0.57595962585E+02  0.51793615980E+02  0.79208267217E+02  0.00000000000E+00 0.  1.
<mgrwt>
<rscale>  0 0.14098085E+03</rscale>
<asrwt>0</asrwt>
<pdfrwt beam="2">  1        4 0.34796802E-01 0.14992824E+03</pdfrwt>
<pdfrwt beam="1">  1       -4 0.17581269E-01 0.14992824E+03</pdfrwt>
<totfact> 0.38501841E+02</totfact>
</mgrwt>
</event>
<event>
 7    1  0.8165933E-006  0.1938764E+03  0.7546771E-02  0.1158463E+00
         -2   -1    0    0    0  501 -0.00000000000E+00  0.00000000000E+00  0.10339434922E+03  0.10339434922E+03  0.00000000000E+00 0.  1.
          2   -1    0    0  501    0  0.00000000000E+00 -0.00000000000E+00 -0.33848911140E+03  0.33848911140E+03  0.00000000000E+00 0. -1.
         23    2    1    2    0    0 -0.14201572623E+03 -0.42353459334E+02 -0.10280623414E+03  0.21944741921E+03  0.12500306397E+03 0.  0.
          5    1    3    3  502    0 -0.56883099235E+02 -0.81940789695E+02 -0.54166022059E+02  0.11360470034E+03  0.47000000000E+01 0. -1.
         -5    1    3    3    0  502 -0.85132626996E+02  0.39587330361E+02 -0.48640212085E+02  0.10584271886E+03  0.47000000000E+01 0. -1.
        -11    1    1    2    0    0  0.88282226461E+02  0.26225280243E+02 -0.16209623493E+02  0.93510794706E+02  0.00000000000E+00 0.  1.
         11    1    1    2    0    0  0.53733499770E+02  0.16128179091E+02 -0.11607890455E+03  0.12892524671E+03  0.00000000000E+00 0. -1.
<mgrwt>
<rscale>  0 0.18999812E+03</rscale>
<asrwt>0</asrwt>
<pdfrwt beam="2">  1        2 0.52075248E-01 0.19387637E+03</pdfrwt>
<pdfrwt beam="1">  1       -2 0.15906823E-01 0.19387637E+03</pdfrwt>
<totfact> 0.29284187E+03</totfact>
</mgrwt>
</event>
<event>
 7    1  0.8165933E-006  0.1361914E+03  0.7546771E-02  0.1229105E+00
          1   -1    0    0  501    0  0.00000000000E+00  0.00000000000E+00  0.18875012310E+03  0.18875012310E+03  0.00000000000E+00 0. -1.
         -1   -1    0    0    0  501 -0.00000000000E+00 -0.00000000000E+00 -0.80187190916E+02  0.80187190916E+02  0.00000000000E+00 0.  1.
         23    2    1    2    0    0 -0.50215714195E+02  0.20049600435E+02  0.69475607943E+02  0.15288873768E+03  0.12499800630E+03 0.  0.
          5    1    3    3  502    0 -0.91034739507E+02  0.55891912765E+01  0.36917590120E+02  0.98506656205E+02  0.47000000000E+01 0. -1.
         -5    1    3    3    0  502  0.40819025312E+02  0.14460409158E+02  0.32558017823E+02  0.54382081471E+02  0.47000000000E+01 0. -1.
        -11    1    1    2    0    0  0.67033468314E+02 -0.16508567082E+02 -0.45124811494E+01  0.69183676886E+02  0.00000000000E+00 0.  1.
         11    1    1    2    0    0 -0.16817754119E+02 -0.35410333529E+01  0.43599805386E+02  0.46864899451E+02  0.00000000000E+00 0. -1.
<mgrwt>
<rscale>  0 0.12889480E+03</rscale>
<asrwt>0</asrwt>
<pdfrwt beam="1">  1        1 0.29038480E-01 0.13619143E+03</pdfrwt>
<pdfrwt beam="2">  1       -1 0.12336491E-01 0.13619143E+03</pdfrwt>
<totfact> 0.65837834E+03</totfact>
</mgrwt>
</event>
<event>
 7    1  0.8165933E-006  0.1311223E+03  0.7546771E-02  0.1238798E+00
         -2   -1    0    0    0  501 -0.00000000000E+00  0.00000000000E+00  0.49147108186E+02  0.49147108186E+02  0.00000000000E+00 0.  1.
          2   -1    0    0  501    0  0.00000000000E+00 -0.00000000000E+00 -0.27257490568E+03  0.27257490568E+03  0.00000000000E+00 0. -1.
         23    2    1    2    0    0 -0.25627642198E+02  0.30186370977E+02 -0.12735731629E+03  0.18279205793E+03  0.12500022957E+03 0.  0.
          5    1    3    3  502    0  0.25067373549E+02  0.60599753553E+02 -0.94114971707E+02  0.11480601573E+03  0.47000000000E+01 0.  1.
         -5    1    3    3    0  502 -0.50695015748E+02 -0.30413382576E+02 -0.33242344578E+02  0.67986042203E+02  0.47000000000E+01 0.  1.
        -11    1    1    2    0    0  0.52243884820E+02 -0.70656079461E+01 -0.88279549164E+02  0.10282327128E+03  0.00000000000E+00 0. -1.
         11    1    1    2    0    0 -0.26616242621E+02 -0.23120763031E+02 -0.77909320415E+01  0.36106684651E+02  0.00000000000E+00 0.  1.
<mgrwt>
<rscale>  0 0.12264414E+03</rscale>
<asrwt>0</asrwt>
<pdfrwt beam="2">  1        2 0.41934601E-01 0.13112227E+03</pdfrwt>
<pdfrwt beam="1">  1       -2 0.75610936E-02 0.13112227E+03</pdfrwt>
<totfact> 0.11784297E+04</totfact>
</mgrwt>
</event>
<event>
 7    1  0.8165933E-006  0.1670497E+03  0.7546771E-02  0.1187743E+00
          2   -1    0    0  501    0  0.00000000000E+00  0.00000000000E+00  0.23549831413E+04  0.23549831413E+04  0.00000000000E+00 0. -1.
         -2   -1    0    0    0  501 -0.00000000000E+00 -0.00000000000E+00 -0.15314770314E+02  0.15314770314E+02  0.00000000000E+00 0.  1.
         23    2    1    2    0    0  0.23477269272E+02  0.10830236025E+03  0.19095920156E+04  0.19168847798E+04  0.12500003740E+03 0.  0.
          5    1    3    3  502    0  0.39400971033E+02  0.68193057875E+02  0.46538013163E+03  0.47202064211E+03  0.47000000000E+01 0.  1.
         -5    1    3    3    0  502 -0.15923701762E+02  0.40109302374E+02  0.14442118840E+04  0.14448641377E+04  0.47000000000E+01 0.  1.
        -11    1    1    2    0    0  0.27068638028E+02 -0.29232650811E+02  0.21639976296E+03  0.22003662525E+03  0.00000000000E+00 0. -1.
         11    1    1    2    0    0 -0.50545907300E+02 -0.79069709437E+02  0.21367659237E+03  0.23337650658E+03  0.00000000000E+00 0.  1.
<mgrwt>
<rscale>  0 0.16084757E+03</rscale>
<asrwt>0</asrwt>
<pdfrwt beam="1">  1        2 0.36230481E+00 0.16704967E+03</pdfrwt>
<pdfrwt beam="2">  1       -2 0.23561204E-02 0.16704967E+03</pdfrwt>
<totfact> 0.29343512E+03</totfact>
</mgrwt>
</event>
<event>
 7    1  0.8165933E-006  0.1699512E+03  0.7546771E-02  0.1184425E+00
          1   -1    0    0  501    0  0.00000000000E+00  0.00000000000E+00  0.15742461155E+03  0.15742461155E+03  0.00000000000E+00 0. -1.
         -1   -1    0    0    0  501 -0.00000000000E+00 -0.00000000000E+00 -0.17092000584E+03  0.17092000584E+03  0.00000000000E+00 0.  1.
         23    2    1    2    0    0  0.30222142756E+02  0.11112398302E+03  0.35422046724E+02  0.17360336451E+03  0.12498595625E+03 0.  0.
          5    1    3    3  502    0 -0.47080593612E+02  0.35203061814E+02  0.26894052657E+02  0.64816802792E+02  0.47000000000E+01 0.  1.
         -5    1    3    3    0  502  0.77302736368E+02  0.75920921207E+02  0.85279940668E+01  0.10878656171E+03  0.47000000000E+01 0.  1.
        -11    1    1    2    0    0 -0.93462066669E+01 -0.10087778493E+03 -0.70170243793E+02  0.12323774659E+03  0.00000000000E+00 0.  1.
         11    1    1    2    0    0 -0.20875936089E+02 -0.10246198089E+02  0.21252802772E+02  0.31503506290E+02  0.00000000000E+00 0. -1.
<mgrwt>
<rscale>  0 0.16384340E+03</rscale>
<asrwt>0</asrwt>
<pdfrwt beam="1">  1        1 0.24219171E-01 0.16995119E+03</pdfrwt>
<pdfrwt beam="2">  1       -1 0.26295385E-01 0.16995119E+03</pdfrwt>
<totfact> 0.24966370E+03</totfact>
</mgrwt>
</event>
<event>
 7    1  0.8165933E-006  0.1264798E+03  0.7546771E-02  0.1248076E+00
         -2   -1    0    0    0  501 -0.00000000000E+00  0.00000000000E+00  0.29776832085E+03  0.29776832085E+03  0.00000000000E+00 0.  1.
          2   -1    0    0  501    0  0.00000000000E+00 -0.00000000000E+00 -0.68372782904E+02  0.68372782904E+02  0.00000000000E+00 0. -1.
         23    2    1    2    0    0  0.95043072649E+01  0.16817924212E+02  0.87195329450E+01  0.12678004741E+03  0.12499590287E+03 0.  0.
          5    1    3    3  502    0  0.48857288463E+02 -0.35655512244E+02  0.60434060400E+01  0.60966900412E+02  0.47000000000E+01 0.  1.
         -5    1    3    3    0  502 -0.39352981198E+02  0.52473436456E+02  0.26761269050E+01  0.65813146999E+02  0.47000000000E+01 0.  1.
        -11    1    1    2    0    0 -0.18198201735E+02 -0.35809573016E+02  0.21354539270E+03  0.21729043884E+03  0.00000000000E+00 0.  1.
         11    1    1    2    0    0  0.86938944701E+01  0.18991648804E+02  0.71306122990E+01  0.22070617506E+02  0.00000000000E+00 0. -1.
<mgrwt>
<rscale>  0 0.11703126E+03</rscale>
<asrwt>0</asrwt>
<pdfrwt beam="2">  1        2 0.10518890E-01 0.12647984E+03</pdfrwt>
<pdfrwt beam="1">  1       -2 0.45810510E-01 0.12647984E+03</pdfrwt>
<totfact> 0.26355753E+03</totfact>
</mgrwt>
</event>
<event>
 7    1  0.8165933E-006  0.1316010E+03  0.7546771E-02  0.1238487E+00
         -1   -1    0    0    0  501 -0.00000000000E+00  0.00000000000E+00  0.25295120728E+02  0.25295120728E+02  0.00000000000E+00 0.  1.
          1   -1    0    0  501    0  0.00000000000E+00 -0.00000000000E+00 -0.53158320516E+03  0.53158320516E+03  0.00000000000E+00 0. -1.
         23    2    1    2    0    0 -0.22669663986E+02  0.34415403928E+02 -0.30426406627E+03  0.33150480266E+03  0.12498191257E+03 0.  0.
          5    1    3    3  502    0  0.43660333577E+02  0.45747093805E+02 -0.13001340463E+03  0.14465336741E+03  0.47000000000E+01 0. -1.
         -5    1    3    3    0  502 -0.66329997563E+02 -0.11331689877E+02 -0.17425066164E+03  0.18685143525E+03  0.47000000000E+01 0. -1.
        -11    1    1    2    0    0  0.57225946291E+02 -0.11368927420E+02 -0.12003965008E+03  0.13346752051E+03  0.00000000000E+00 0. -1.
         11    1    1    2    0    0 -0.34556282306E+02 -0.23046476508E+02 -0.81984368086E+02  0.91906002724E+02  0.00000000000E+00 0.  1.
<mgrwt>
<rscale>  0 0.12283807E+03</rscale>
<asrwt>0</asrwt>
<pdfrwt beam="2">  1        1 0.81782026E-01 0.13160096E+03</pdfrwt>
<pdfrwt beam="1">  1       -1 0.38915573E-02 0.13160096E+03</pdfrwt>
<totfact> 0.10129277E+04</totfact>
</mgrwt>
</event>
<event>
 7    1  0.8165933E-006  0.1370599E+03  0.7546771E-02  0.1229271E+00
         -1   -1    0    0    0  501 -0.00000000000E+00  0.00000000000E+00  0.25477977079E+02  0.25477977079E+02  0.00000000000E+00 0.  1.
          1   -1    0    0  501    0  0.00000000000E+00 -0.00000000000E+00 -0.64111598027E+03  0.64111598027E+03  0.00000000000E+00 0. -1.
         23    2    1    2    0    0  0.11514947481E+02 -0.55029060527E+02 -0.44159531132E+03  0.46237628594E+03  0.12499847719E+03 0.  0.
          5    1    3    3  502    0 -0.23707902100E+02 -0.66938068370E+01 -0.36117426330E+03  0.36204393399E+03  0.47000000000E+01 0.  1.
         -5    1    3    3    0  502  0.35222849580E+02 -0.48335253690E+02 -0.80421048025E+02  0.10033235195E+03  0.47000000000E+01 0.  1.
        -11    1    1    2    0    0  0.10911401682E+02 -0.18980990371E+02 -0.12729056728E+02  0.25325196294E+02  0.00000000000E+00 0.  1.
         11    1    1    2    0    0 -0.22426349163E+02  0.74010050898E+02 -0.16131363514E+03  0.17889247512E+03  0.00000000000E+00 0. -1.
<mgrwt>
<rscale>  0 0.12878417E+03</rscale>
<asrwt>0</asrwt>
<pdfrwt beam="2">  1        1 0.98633238E-01 0.13705988E+03</pdfrwt>
<pdfrwt beam="1">  1       -1 0.39196884E-02 0.13705988E+03</pdfrwt>
<totfact> 0.78008802E+03</totfact>
</mgrwt>
</event>
<event>
 7    1  0.8165933E-006  0.1437827E+03  0.7546771E-02  0.1217005E+00
         -2   -1    0    0    0  501 -0.00000000000E+00  0.00000000000E+00  0.22309101408E+02  0.22309101408E+02  0.00000000000E+00 0.  1.
          2   -1    0    0  501    0  0.00000000000E+00 -0.00000000000E+00 -0.83166904710E+03  0.83166904710E+03  0.00000000000E+00 0. -1.
         23    2    1    2    0    0 -0.48034721366E+02  0.52356557491E+02 -0.54833030508E+03  0.56686822564E+03  0.12499967279E+03 0.  0.
          5    1    3    3  502    0 -0.54028738721E+02  0.85644850554E+02 -0.47868997753E+03  0.48930596728E+03  0.47000000000E+01 0. -1.
         -5    1    3    3    0  502  0.59940173549E+01 -0.33288293063E+02 -0.69640327551E+02  0.77562258351E+02  0.47000000000E+01 0. -1.
        -11    1    1    2    0    0  0.51543037827E+02  0.12820040429E+02 -0.97360814374E+02  0.11090611507E+03  0.00000000000E+00 0.  1.
         11    1    1    2    0    0 -0.35083164612E+01 -0.65176597920E+02 -0.16366882624E+03  0.17620380780E+03  0.00000000000E+00 0. -1.
<mgrwt>
<rscale>  0 0.13730311E+03</rscale>
<asrwt>0</asrwt>
<pdfrwt beam="2">  1        2 0.12794906E+00 0.14378269E+03</pdfrwt>
<pdfrwt beam="1">  1       -2 0.34321700E-02 0.14378269E+03</pdfrwt>
<totfact> 0.11237888E+04</totfact>
</mgrwt>
</event>
<event>
 7    1  0.8165933E-006  0.2809292E+03  0.7546771E-02  0.1097140E+00
          2   -1    0    0  501    0  0.00000000000E+00  0.00000000000E+00  0.78301283298E+03  0.78301283298E+03  0.00000000000E+00 0. -1.
         -2   -1    0    0    0  501 -0.00000000000E+00 -0.00000000000E+00 -0.96909040497E+02  0.96909040497E+02  0.00000000000E+00 0.  1.
         23    2    1    2    0    0 -0.10749325413E+03 -0.22746827709E+03  0.39820377553E+03  0.48732688176E+03  0.12499850430E+03 0.  0.
          5    1    3    3  502    0 -0.10617515697E+03 -0.84062157291E+02  0.16494658235E+03  0.21346914362E+03  0.47000000000E+01 0. -1.
         -5    1    3    3    0  502 -0.13180971630E+01 -0.14340611980E+03  0.23325719317E+03  0.27385773815E+03  0.47000000000E+01 0. -1.
        -11    1    1    2    0    0  0.95210092749E+02  0.18182799390E+03  0.17327778613E+03  0.26861044710E+03  0.00000000000E+00 0.  1.
         11    1    1    2    0    0  0.12283161383E+02  0.45640283195E+02  0.11462223082E+03  0.12398454461E+03  0.00000000000E+00 0. -1.
<mgrwt>
<rscale>  0 0.27735855E+03</rscale>
<asrwt>0</asrwt>
<pdfrwt beam="1">  1        2 0.12046351E+00 0.28092925E+03</pdfrwt>
<pdfrwt beam="2">  1       -2 0.14909084E-01 0.28092925E+03</pdfrwt>
<totfact> 0.12620463E+03</totfact>
</mgrwt>
</event>
<event>
 7    1  0.8165933E-006  0.1727220E+03  0.7546771E-02  0.1176206E+00
         -1   -1    0    0    0  501 -0.00000000000E+00  0.00000000000E+00  0.71776555188E+02  0.71776555188E+02  0.00000000000E+00 0.  1.
          1   -1    0    0  501    0  0.00000000000E+00 -0.00000000000E+00 -0.54911577238E+03  0.54911577238E+03  0.00000000000E+00 0. -1.
         23    2    1    2    0    0  0.85872686673E+02 -0.82668851075E+02 -0.40010140773E+03  0.43579125233E+03  0.12499848752E+03 0.  0.
          5    1    3    3  502    0 -0.80186300797E+01  0.26700037005E+02 -0.57585803409E+02  0.64151423668E+02  0.47000000000E+01 0. -1.
         -5    1    3    3    0  502  0.93891316753E+02 -0.10936888808E+03 -0.34251560432E+03  0.37163982866E+03  0.47000000000E+01 0. -1.
        -11    1    1    2    0    0 -0.13484989765E+02  0.37847027050E+02  0.28563691936E+02  0.49296317333E+02  0.00000000000E+00 0.  1.
         11    1    1    2    0    0 -0.72387696908E+02  0.44821824025E+02 -0.10580150140E+03  0.13580475791E+03  0.00000000000E+00 0. -1.
<mgrwt>
<rscale>  0 0.17158437E+03</rscale>
<asrwt>0</asrwt>
<pdfrwt beam="2">  1        1 0.84479348E-01 0.17272197E+03</pdfrwt>
<pdfrwt beam="1">  1       -1 0.11042547E-01 0.17272197E+03</pdfrwt>
<totfact> 0.20532716E+03</totfact>
</mgrwt>
</event>
<event>
 7    1  0.8165933E-006  0.1187304E+03  0.7546771E-02  0.1255956E+00
         -1   -1    0    0    0  501 -0.00000000000E+00  0.00000000000E+00  0.30625874480E+02  0.30625874480E+02  0.00000000000E+00 0.  1.
          1   -1    0    0  501    0  0.00000000000E+00 -0.00000000000E+00 -0.37607234433E+03  0.37607234433E+03  0.00000000000E+00 0. -1.
         23    2    1    2    0    0  0.20969573840E+02  0.21159870420E+02 -0.19748910066E+03  0.23043187733E+03  0.11493233691E+03 0.  0.
          5    1    3    3  502    0  0.57834257855E+02  0.10712777805E+02 -0.17731431179E+03  0.18687434322E+03  0.47000000000E+01 0. -1.
         -5    1    3    3    0  502 -0.36864684015E+02  0.10447092615E+02 -0.20174788869E+02  0.43557534108E+02  0.47000000000E+01 0.  1.
        -11    1    1    2    0    0 -0.35329302857E+02 -0.51263495655E+02 -0.90927532466E+02  0.11019946364E+03  0.00000000000E+00 0.  1.
         11    1    1    2    0    0  0.14359729017E+02  0.30103625235E+02 -0.57029836727E+02  0.66066877835E+02  0.00000000000E+00 0. -1.
<mgrwt>
<rscale>  0 0.11252979E+03</rscale>
<asrwt>0</asrwt>
<pdfrwt beam="2">  1        1 0.57857286E-01 0.11873039E+03</pdfrwt>
<pdfrwt beam="1">  1       -1 0.47116728E-02 0.11873039E+03</pdfrwt>
<totfact> 0.11811118E+04</totfact>
</mgrwt>
</event>
<event>
 7    1  0.8165933E-006  0.1686264E+03  0.7546771E-02  0.1184971E+00
          2   -1    0    0  501    0  0.00000000000E+00  0.00000000000E+00  0.14175695030E+04  0.14175695030E+04  0.00000000000E+00 0. -1.
         -2   -1    0    0    0  501 -0.00000000000E+00 -0.00000000000E+00 -0.20403758279E+02  0.20403758279E+02  0.00000000000E+00 0.  1.
         23    2    1    2    0    0  0.50390548498E+02  0.10717712065E+03  0.99682355185E+03  0.10109856839E+04  0.12003631549E+03 0.  0.
          5    1    3    3  502    0  0.12955544827E+02 -0.24429577873E+02  0.26375530373E+03  0.26524253177E+03  0.47000000000E+01 0. -1.
         -5    1    3    3    0  502  0.37435003671E+02  0.13160669853E+03  0.73306824813E+03  0.74574315217E+03  0.47000000000E+01 0.  1.
        -11    1    1    2    0    0  0.17482281924E+02 -0.18302946973E+01  0.10025917105E+03  0.10178841555E+03  0.00000000000E+00 0.  1.
         11    1    1    2    0    0 -0.67872830423E+02 -0.10534682596E+03  0.30008302186E+03  0.32519916184E+03  0.00000000000E+00 0. -1.
<mgrwt>
<rscale>  0 0.16334534E+03</rscale>
<asrwt>0</asrwt>
<pdfrwt beam="1">  1        2 0.21808754E+00 0.16862639E+03</pdfrwt>
<pdfrwt beam="2">  1       -2 0.31390408E-02 0.16862639E+03</pdfrwt>
<totfact> 0.59129619E+03</totfact>
</mgrwt>
</event>
<event>
 7    1  0.8165933E-006  0.1384858E+03  0.7546771E-02  0.1227472E+00
         -1   -1    0    0    0  501 -0.00000000000E+00  0.00000000000E+00  0.10731196508E+03  0.10731196508E+03  0.00000000000E+00 0.  1.
          1   -1    0    0  501    0  0.00000000000E+00 -0.00000000000E+00 -0.18430383423E+03  0.18430383423E+03  0.00000000000E+00 0. -1.
         23    2    1    2    0    0 -0.39694442742E+02  0.44594038436E+02 -0.11247940941E+03  0.17840947404E+03  0.12495617567E+03 0.  0.
          5    1    3    3  502    0  0.41804212449E+02  0.28438720079E+02 -0.21588980255E+02  0.55177233047E+02  0.47000000000E+01 0. -1.
         -5    1    3    3    0  502 -0.81498655191E+02  0.16155318357E+02 -0.90890429153E+02  0.12323224100E+03  0.47000000000E+01 0. -1.
        -11    1    1    2    0    0 -0.22073169261E+02 -0.94642887832E-01  0.29499210308E+02  0.36843414164E+02  0.00000000000E+00 0.  1.
         11    1    1    2    0    0  0.61767612003E+02 -0.44499395548E+02  0.59883299443E+01  0.76362911103E+02  0.00000000000E+00 0. -1.
<mgrwt>
<rscale>  0 0.12998893E+03</rscale>
<asrwt>0</asrwt>
<pdfrwt beam="2">  1        1 0.28354436E-01 0.13848582E+03</pdfrwt>
<pdfrwt beam="1">  1       -1 0.16509533E-01 0.13848582E+03</pdfrwt>
<totfact> 0.43067823E+03</totfact>
</mgrwt>
</event>
<event>
 7    1  0.8165933E-006  0.1518376E+03  0.7546771E-02  0.1207096E+00
          4   -1    0    0  501    0  0.00000000000E+00  0.00000000000E+00  0.99125415125E+02  0.99125415125E+02  0.00000000000E+00 0. -1.
         -4   -1    0    0    0  501 -0.00000000000E+00 -0.00000000000E+00 -0.19454408065E+03  0.19454408065E+03  0.00000000000E+00 0.  1.
         23    2    1    2    0    0  0.40319277299E+02 -0.76183953604E+02 -0.43151518920E+02  0.15785024266E+03  0.12500002645E+03 0.  0.
          5    1    3    3  502    0  0.86492981859E+01 -0.10376711426E+03 -0.49020334587E+02  0.11518466723E+03  0.47000000000E+01 0. -1.
         -5    1    3    3    0  502  0.31669979113E+02  0.27583160661E+02  0.58688156673E+01  0.42665575426E+02  0.47000000000E+01 0. -1.
        -11    1    1    2    0    0  0.75638317570E+01  0.65064138627E+02 -0.20317034019E+01  0.65533819551E+02  0.00000000000E+00 0. -1.
         11    1    1    2    0    0 -0.47883109056E+02  0.11119814976E+02 -0.50235443200E+02  0.70285433566E+02  0.00000000000E+00 0.  1.
<mgrwt>
<rscale>  0 0.14473507E+03</rscale>
<asrwt>0</asrwt>
<pdfrwt beam="1">  1        4 0.15250064E-01 0.15183756E+03</pdfrwt>
<pdfrwt beam="2">  1       -4 0.29929858E-01 0.15183756E+03</pdfrwt>
<totfact> 0.66179973E+02</totfact>
</mgrwt>
</event>
<event>
 7    1  0.8165933E-006  0.1298425E+03  0.7546771E-02  0.1242962E+00
         -1   -1    0    0    0  501 -0.00000000000E+00  0.00000000000E+00  0.38606310907E+02  0.38606310907E+02  0.00000000000E+00 0.  1.
          1   -1    0    0  501    0  0.00000000000E+00 -0.00000000000E+00 -0.35924717073E+03  0.35924717073E+03  0.00000000000E+00 0. -1.
         23    2    1    2    0    0  0.33829700435E+02 -0.95354836218E+01 -0.24160868317E+03  0.27428787043E+03  0.12499482390E+03 0.  0.
          5    1    3    3  502    0 -0.27069068352E+02 -0.42383522300E+02 -0.15679237735E+03  0.16472715932E+03  0.47000000000E+01 0. -1.
         -5    1    3    3    0  502  0.60898768787E+02  0.32848038678E+02 -0.84816305818E+02  0.10956071110E+03  0.47000000000E+01 0. -1.
        -11    1    1    2    0    0  0.52472210326E+01  0.34360436821E+02 -0.67393968643E+02  0.75829545406E+02  0.00000000000E+00 0. -1.
         11    1    1    2    0    0 -0.39076921467E+02 -0.24824953199E+02 -0.11638208013E+02  0.47736065804E+02  0.00000000000E+00 0.  1.
<mgrwt>
<rscale>  0 0.12008197E+03</rscale>
<asrwt>0</asrwt>
<pdfrwt beam="2">  1        1 0.55268795E-01 0.12984252E+03</pdfrwt>
<pdfrwt beam="1">  1       -1 0.59394325E-02 0.12984252E+03</pdfrwt>
<totfact> 0.89404436E+03</totfact>
</mgrwt>
</event>
<event>
 7    1  0.8165933E-006  0.2765623E+03  0.7546771E-02  0.1099834E+00
          2   -1    0    0  501    0  0.00000000000E+00  0.00000000000E+00  0.10525712365E+04  0.10525712365E+04  0.00000000000E+00 0. -1.
         -2   -1    0    0    0  501 -0.00000000000E+00 -0.00000000000E+00 -0.10974810006E+03  0.10974810006E+03  0.00000000000E+00 0.  1.
         23    2    1    2    0    0 -0.24309145702E+03 -0.42035627859E+02  0.83584273111E+03  0.88040886316E+03  0.12500497866E+03 0.  0.
          5    1    3    3  502    0 -0.60861740856E+02 -0.50057549171E+02  0.40331573981E+03  0.41096908121E+03  0.47000000000E+01 0. -1.
         -5    1    3    3    0  502 -0.18222971617E+03  0.80219213124E+01  0.43252699130E+03  0.46943978195E+03  0.47000000000E+01 0. -1.
        -11    1    1    2    0    0  0.23224329635E+03  0.33219570997E+02  0.73856689848E+02  0.24595792167E+03  0.00000000000E+00 0.  1.
         11    1    1    2    0    0  0.10848160671E+02  0.88160568613E+01  0.33123715531E+02  0.35952551774E+02  0.00000000000E+00 0. -1.
<mgrwt>
<rscale>  0 0.27254062E+03</rscale>
<asrwt>0</asrwt>
<pdfrwt beam="1">  1        2 0.16193403E+00 0.27656228E+03</pdfrwt>
<pdfrwt beam="2">  1       -2 0.16884324E-01 0.27656228E+03</pdfrwt>
<totfact> 0.68663823E+02</totfact>
</mgrwt>
</event>
<event>
 7    1  0.8165933E-006  0.1942461E+03  0.7546771E-02  0.1163806E+00
         -1   -1    0    0    0  501 -0.00000000000E+00  0.00000000000E+00  0.19093293568E+03  0.19093293568E+03  0.00000000000E+00 0.  1.
          1   -1    0    0  501    0  0.00000000000E+00 -0.00000000000E+00 -0.16315182697E+03  0.16315182697E+03  0.00000000000E+00 0. -1.
         23    2    1    2    0    0 -0.91298125307E+02 -0.11730990163E+03  0.32605588962E+02  0.19696364885E+03  0.12503836944E+03 0.  0.
          5    1    3    3  502    0 -0.34416757059E+02  0.23240243568E+02  0.14270154781E+02  0.44162760387E+02  0.47000000000E+01 0. -1.
         -5    1    3    3    0  502 -0.56881368247E+02 -0.14055014520E+03  0.18335434181E+02  0.15280088846E+03  0.47000000000E+01 0. -1.
        -11    1    1    2    0    0  0.39432684367E+02  0.26878864878E+02  0.16912224749E+02  0.50630359662E+02  0.00000000000E+00 0.  1.
         11    1    1    2    0    0  0.51865440940E+02  0.90431036752E+02 -0.21736704998E+02  0.10649075413E+03  0.00000000000E+00 0. -1.
<mgrwt>
<rscale>  0 0.18419239E+03</rscale>
<asrwt>0</asrwt>
<pdfrwt beam="2">  1        1 0.25100281E-01 0.19424612E+03</pdfrwt>
<pdfrwt beam="1">  1       -1 0.29374298E-01 0.19424612E+03</pdfrwt>
<totfact> 0.19915696E+03</totfact>
</mgrwt>
</event>
<event>
 7    1  0.8165933E-006  0.1530394E+03  0.7546771E-02  0.1208056E+00
          1   -1    0    0  501    0  0.00000000000E+00  0.00000000000E+00  0.38111601197E+02  0.38111601197E+02  0.00000000000E+00 0. -1.
         -1   -1    0    0    0  501 -0.00000000000E+00 -0.00000000000E+00 -0.52823599759E+03  0.52823599759E+03  0.00000000000E+00 0.  1.
         23    2    1    2    0    0  0.86063976183E+02  0.19696301532E+02 -0.19571088140E+03  0.24844276385E+03  0.12500442200E+03 0.  0.
          5    1    3    3  502    0  0.45365483707E+01  0.15467446777E+02 -0.15713272400E+03  0.15802722908E+03  0.47000000000E+01 0. -1.
         -5    1    3    3    0  502  0.81527427813E+02  0.42288547549E+01 -0.38578157400E+02  0.90415534764E+02  0.47000000000E+01 0. -1.
        -11    1    1    2    0    0 -0.19943383262E+02  0.29668359456E+02 -0.66262624369E+02  0.75290673241E+02  0.00000000000E+00 0.  1.
         11    1    1    2    0    0 -0.66120592922E+02 -0.49364660988E+02 -0.22815089062E+03  0.24261416169E+03  0.00000000000E+00 0. -1.
<mgrwt>
<rscale>  0 0.14399189E+03</rscale>
<asrwt>0</asrwt>
<pdfrwt beam="1">  1        1 0.58633232E-02 0.15303940E+03</pdfrwt>
<pdfrwt beam="2">  1       -1 0.81267077E-01 0.15303940E+03</pdfrwt>
<totfact> 0.20557671E+03</totfact>
</mgrwt>
</event>
<event>
 7    1  0.8165933E-006  0.1813011E+03  0.7546771E-02  0.1171891E+00
          2   -1    0    0  501    0  0.00000000000E+00  0.00000000000E+00  0.90212378132E+03  0.90212378132E+03  0.00000000000E+00 0. -1.
         -2   -1    0    0    0  501 -0.00000000000E+00 -0.00000000000E+00 -0.32718333229E+02  0.32718333229E+02  0.00000000000E+00 0.  1.
         23    2    1    2    0    0  0.12992563035E+03  0.19096152408E+02  0.41223091705E+03  0.45033811628E+03  0.12499903018E+03 0.  0.
          5    1    3    3  502    0  0.15919176813E+02 -0.10568472946E+02  0.24465404251E+03  0.24544409410E+03  0.47000000000E+01 0.  1.
         -5    1    3    3    0  502  0.11400645354E+03  0.29664625353E+02  0.16757687453E+03  0.20489402218E+03  0.47000000000E+01 0.  1.
        -11    1    1    2    0    0  0.60970190019E-01 -0.16521259520E+02  0.11186964029E+02  0.19952541134E+02  0.00000000000E+00 0.  1.
         11    1    1    2    0    0 -0.12998660054E+03 -0.25748928871E+01  0.44598756701E+03  0.46455145713E+03  0.00000000000E+00 0. -1.
<mgrwt>
<rscale>  0 0.17583975E+03</rscale>
<asrwt>0</asrwt>
<pdfrwt beam="1">  1        2 0.13878826E+00 0.18130110E+03</pdfrwt>
<pdfrwt beam="2">  1       -2 0.50335904E-02 0.18130110E+03</pdfrwt>
<totfact> 0.57712540E+03</totfact>
</mgrwt>
</event>
<event>
 7    1  0.8165933E-006  0.1307954E+03  0.7546771E-02  0.1239584E+00
          1   -1    0    0  501    0  0.00000000000E+00  0.00000000000E+00  0.77346955370E+03  0.77346955370E+03  0.00000000000E+00 0. -1.
         -1   -1    0    0    0  501 -0.00000000000E+00 -0.00000000000E+00 -0.17372821345E+02  0.17372821345E+02  0.00000000000E+00 0.  1.
         23    2    1    2    0    0 -0.32501166422E+02 -0.20616735442E+02  0.38373374078E+03  0.40541217158E+03  0.12500427773E+03 0.  0.
          5    1    3    3  502    0  0.39826553984E+02  0.22943920412E+02  0.13146729449E+03  0.13934962291E+03  0.47000000000E+01 0.  1.
         -5    1    3    3    0  502 -0.72327720406E+02 -0.43560655854E+02  0.25226644630E+03  0.26606254867E+03  0.47000000000E+01 0.  1.
        -11    1    1    2    0    0  0.12035888941E+02 -0.33956349900E+02  0.86791682206E+02  0.93971763958E+02  0.00000000000E+00 0.  1.
         11    1    1    2    0    0  0.20465277481E+02  0.54573085342E+02  0.28557130937E+03  0.29145843951E+03  0.00000000000E+00 0. -1.
<mgrwt>
<rscale>  0 0.12215497E+03</rscale>
<asrwt>0</asrwt>
<pdfrwt beam="1">  1        1 0.11899529E+00 0.13079543E+03</pdfrwt>
<pdfrwt beam="2">  1       -1 0.26727423E-02 0.13079543E+03</pdfrwt>
<totfact> 0.10391529E+04</totfact>
</mgrwt>
</event>
<event>
 7    1  0.8165933E-006  0.1374927E+03  0.7546771E-02  0.1228644E+00
          2   -1    0    0  501    0  0.00000000000E+00  0.00000000000E+00  0.67199647424E+03  0.67199647424E+03  0.00000000000E+00 0. -1.
         -2   -1    0    0    0  501 -0.00000000000E+00 -0.00000000000E+00 -0.23703658971E+02  0.23703658971E+02  0.00000000000E+00 0.  1.
         23    2    1    2    0    0 -0.38977601162E+02 -0.41951163528E+02  0.44655992835E+03  0.46724726638E+03  0.12500033927E+03 0.  0.
          5    1    3    3  502    0 -0.26732088898E+02 -0.16691616491E+02  0.43557508203E+03  0.43673900298E+03  0.47000000000E+01 0.  1.
         -5    1    3    3    0  502 -0.12245512263E+02 -0.25259547037E+02  0.10984846321E+02  0.30508263402E+02  0.47000000000E+01 0.  1.
        -11    1    1    2    0    0  0.82652760726E+01  0.16121390386E+02 -0.42407067881E+01  0.18606386285E+02  0.00000000000E+00 0.  1.
         11    1    1    2    0    0  0.30712325089E+02  0.25829773142E+02  0.20597359370E+03  0.20984648054E+03  0.00000000000E+00 0. -1.
<mgrwt>
<rscale>  0 0.12920259E+03</rscale>
<asrwt>0</asrwt>
<pdfrwt beam="1">  1        2 0.10338406E+00 0.13749268E+03</pdfrwt>
<pdfrwt beam="2">  1       -2 0.36467173E-02 0.13749268E+03</pdfrwt>
<totfact> 0.13276005E+04</totfact>
</mgrwt>
</event>
<event>
 7    1  0.8165933E-006  0.1525164E+03  0.7546771E-02  0.1202669E+00
         -1   -1    0    0    0  501 -0.00000000000E+00  0.00000000000E+00  0.12197608025E+03  0.12197608025E+03  0.00000000000E+00 0.  1.
          1   -1    0    0  501    0  0.00000000000E+00 -0.00000000000E+00 -0.17404594541E+03  0.17404594541E+03  0.00000000000E+00 0. -1.
         23    2    1    2    0    0 -0.83389580741E+02  0.26208745880E+02 -0.48005555171E+02  0.15989303173E+03  0.12498210964E+03 0.  0.
          5    1    3    3  502    0 -0.43747132795E+01 -0.38516488020E+02  0.12602345067E+02  0.41031293751E+02  0.47000000000E+01 0. -1.
         -5    1    3    3    0  502 -0.79014867462E+02  0.64725233900E+02 -0.60607900239E+02  0.11886173798E+03  0.47000000000E+01 0. -1.
        -11    1    1    2    0    0  0.12712416869E+02  0.16996162004E+02 -0.40429164408E+02  0.45661717009E+02  0.00000000000E+00 0. -1.
         11    1    1    2    0    0  0.70677163872E+02 -0.43204907884E+02  0.36364854415E+02  0.90467276929E+02  0.00000000000E+00 0.  1.
<mgrwt>
<rscale>  0 0.14822676E+03</rscale>
<asrwt>0</asrwt>
<pdfrwt beam="2">  1        1 0.26776299E-01 0.15251639E+03</pdfrwt>
<pdfrwt beam="1">  1       -1 0.18765551E-01 0.15251639E+03</pdfrwt>
<totfact> 0.37938650E+03</totfact>
</mgrwt>
</event>
<event>
 7    1  0.8165933E-006  0.1599381E+03  0.7546771E-02  0.1196468E+00
         -1   -1    0    0    0  501 -0.00000000000E+00  0.00000000000E+00  0.94830932814E+02  0.94830932814E+02  0.00000000000E+00 0.  1.
          1   -1    0    0  501    0  0.00000000000E+00 -0.00000000000E+00 -0.41852152111E+03  0.41852152111E+03  0.00000000000E+00 0. -1.
         23    2    1    2    0    0  0.35972762679E+02  0.92949262164E+02 -0.34156767207E+03  0.37715869957E+03  0.12508639042E+03 0.  0.
          5    1    3    3  502    0  0.68268717882E+02  0.42159125684E+02 -0.27844499490E+03  0.28981324142E+03  0.47000000000E+01 0. -1.
         -5    1    3    3    0  502 -0.32295955203E+02  0.50790136480E+02 -0.63122677166E+02  0.87345458146E+02  0.47000000000E+01 0. -1.
        -11    1    1    2    0    0  0.17474179821E+02  0.66640515037E+01 -0.78085106790E+01  0.20266459530E+02  0.00000000000E+00 0.  1.
         11    1    1    2    0    0 -0.53446942500E+02 -0.99613313668E+02  0.25685594450E+02  0.11592729482E+03  0.00000000000E+00 0. -1.
<mgrwt>
<rscale>  0 0.15330624E+03</rscale>
<asrwt>0</asrwt>
<pdfrwt beam="2">  1        1 0.64387927E-01 0.15993814E+03</pdfrwt>
<pdfrwt beam="1">  1       -1 0.14589374E-01 0.15993814E+03</pdfrwt>
<totfact> 0.18932628E+03</totfact>
</mgrwt>
</event>
<event>
 7    1  0.8165933E-006  0.1554823E+03  0.7546771E-02  0.1201858E+00
         -2   -1    0    0    0  501 -0.00000000000E+00  0.00000000000E+00  0.34965788747E+02  0.34965788747E+02  0.00000000000E+00 0. -1.
          2   -1    0    0  501    0  0.00000000000E+00 -0.00000000000E+00 -0.14523201743E+04  0.14523201743E+04  0.00000000000E+00 0.  1.
         23    2    1    2    0    0  0.91719490219E+02 -0.11714530035E+02 -0.13070299471E+04  0.13162454293E+04  0.12500020911E+03 0.  0.
          5    1    3    3  502    0  0.62795996295E+02 -0.62413819404E+02 -0.98099612742E+03  0.98499457563E+03  0.47000000000E+01 0.  1.
         -5    1    3    3    0  502  0.28923493924E+02  0.50699289369E+02 -0.32603381969E+03  0.33125085362E+03  0.47000000000E+01 0.  1.
        -11    1    1    2    0    0 -0.49354219911E+02  0.10316641017E+02 -0.11767263356E+03  0.12802000154E+03  0.00000000000E+00 0.  1.
         11    1    1    2    0    0 -0.42365270308E+02  0.13978890179E+01  0.73481951407E+01  0.43020532235E+02  0.00000000000E+00 0. -1.
<mgrwt>
<rscale>  0 0.14887866E+03</rscale>
<asrwt>0</asrwt>
<pdfrwt beam="2">  1        2 0.22343379E+00 0.15548231E+03</pdfrwt>
<pdfrwt beam="1">  1       -2 0.53793542E-02 0.15548231E+03</pdfrwt>
<totfact> 0.25297834E+03</totfact>
</mgrwt>
</event>
<event>
 7    1  0.8165933E-006  0.1471550E+03  0.7546771E-02  0.1214506E+00
         -1   -1    0    0    0  501 -0.00000000000E+00  0.00000000000E+00  0.81845854510E+02  0.81845854510E+02  0.00000000000E+00 0.  1.
          1   -1    0    0  501    0  0.00000000000E+00 -0.00000000000E+00 -0.21538969656E+03  0.21538969656E+03  0.00000000000E+00 0. -1.
         23    2    1    2    0    0 -0.72609410799E+02  0.27483734642E+02 -0.85709241232E+02  0.17029584739E+03  0.12500847731E+03 0.  0.
          5    1    3    3  502    0 -0.10540001678E+03  0.86835076937E+01 -0.77848893008E+02  0.13140436441E+03  0.47000000000E+01 0.  1.
         -5    1    3    3    0  502  0.32790605985E+02  0.18800226948E+02 -0.78603482246E+01  0.38891482980E+02  0.47000000000E+01 0.  1.
        -11    1    1    2    0    0  0.89904279582E+01  0.16686960854E+02 -0.45684178393E+02  0.49460353950E+02  0.00000000000E+00 0. -1.
         11    1    1    2    0    0  0.63618982841E+02 -0.44170695496E+02 -0.21504224271E+01  0.77479349732E+02  0.00000000000E+00 0.  1.
<mgrwt>
<rscale>  0 0.13912865E+03</rscale>
<asrwt>0</asrwt>
<pdfrwt beam="2">  1        1 0.33136876E-01 0.14715503E+03</pdfrwt>
<pdfrwt beam="1">  1       -1 0.12591670E-01 0.14715503E+03</pdfrwt>
<totfact> 0.54388520E+03</totfact>
</mgrwt>
</event>
<event>
 6    1  0.8165933E-006  0.1485468E+03  0.7546771E-02  0.1214699E+00
          2   -1    0    0  501    0  0.00000000000E+00  0.00000000000E+00  0.10496575946E+04  0.10496575946E+04  0.00000000000E+00 0. -1.
         -2   -1    0    0    0  501 -0.00000000000E+00 -0.00000000000E+00 -0.16578444340E+02  0.16578444340E+02  0.00000000000E+00 0.  1.
          5    1    1    2  502    0  0.13256538163E+02 -0.73285218875E+02  0.28378067104E+03  0.29342804632E+03  0.47000000000E+01 0. -1.
         -5    1    1    2    0  502  0.51504462040E+02  0.51282681482E+02  0.35551777668E+03  0.36290164310E+03  0.47000000000E+01 0.  1.
        -11    1    1    2    0    0 -0.65119700037E+02 -0.14778187579E+02  0.32619579776E+03  0.33296046107E+03  0.00000000000E+00 0. -1.
         11    1    1    2    0    0  0.35869983373E+00  0.36780724972E+02  0.67584904773E+02  0.76945888442E+02  0.00000000000E+00 0.  1.
<mgrwt>
<rscale>  0 0.13898663E+03</rscale>
<asrwt>0</asrwt>
<pdfrwt beam="1">  1        2 0.16148573E+00 0.14854681E+03</pdfrwt>
<pdfrwt beam="2">  1       -2 0.25505307E-02 0.14854681E+03</pdfrwt>
<totfact> 0.12770232E+04</totfact>
</mgrwt>
</event>
<event>
 7    1  0.8165933E-006  0.1299792E+03  0.7546771E-02  0.1242079E+00
         -4   -1    0    0    0  501 -0.00000000000E+00  0.00000000000E+00  0.67816337012E+02  0.67816337012E+02  0.00000000000E+00 0. -1.
          4   -1    0    0  501    0  0.00000000000E+00 -0.00000000000E+00 -0.20669699464E+03  0.20669699464E+03  0.00000000000E+00 0.  1.
         23    2    1    2    0    0 -0.24015484265E+02 -0.26345290511E+02 -0.11871635224E+03  0.17603456018E+03  0.12499510500E+03 0.  0.
          5    1    3    3  502    0  0.58799995855E+01 -0.39828083023E+02  0.11125722645E+02  0.42032395801E+02  0.47000000000E+01 0.  1.
         -5    1    3    3    0  502 -0.29895483850E+02  0.13482792512E+02 -0.12984207488E+03  0.13400216438E+03  0.47000000000E+01 0.  1.
        -11    1    1    2    0    0 -0.26165963622E+02  0.15447297195E+02 -0.33697759074E+02  0.45374173376E+02  0.00000000000E+00 0.  1.
         11    1    1    2    0    0  0.50181447887E+02  0.10897993316E+02  0.13533453683E+02  0.53104598096E+02  0.00000000000E+00 0. -1.
<mgrwt>
<rscale>  0 0.12061907E+03</rscale>
<asrwt>0</asrwt>
<pdfrwt beam="2">  1        4 0.31799538E-01 0.12997921E+03</pdfrwt>
<pdfrwt beam="1">  1       -4 0.10433283E-01 0.12997921E+03</pdfrwt>
<totfact> 0.10980277E+03</totfact>
</mgrwt>
</event>
<event>
 7    1  0.8165933E-006  0.1315385E+03  0.7546771E-02  0.1235173E+00
          2   -1    0    0  501    0  0.00000000000E+00  0.00000000000E+00  0.33379939921E+02  0.33379939921E+02  0.00000000000E+00 0. -1.
         -2   -1    0    0    0  501 -0.00000000000E+00 -0.00000000000E+00 -0.42671467074E+03  0.42671467074E+03  0.00000000000E+00 0.  1.
         23    2    1    2    0    0 -0.33063835821E+02  0.16937040141E+01 -0.20978831537E+03  0.24761568377E+03  0.12730398153E+03 0.  0.
          5    1    3    3  502    0 -0.44177992971E+02  0.15581795573E+02 -0.11485557306E+02  0.48461277768E+02  0.47000000000E+01 0. -1.
         -5    1    3    3    0  502  0.11114157149E+02 -0.13888091559E+02 -0.19830275806E+03  0.19915440601E+03  0.47000000000E+01 0.  1.
        -11    1    1    2    0    0 -0.23838380415E+02  0.11840187290E+02 -0.13155957157E+03  0.13422510677E+03  0.00000000000E+00 0.  1.
         11    1    1    2    0    0  0.56902216236E+02 -0.13533891305E+02 -0.51986843883E+02  0.78253820120E+02  0.00000000000E+00 0. -1.
<mgrwt>
<rscale>  0 0.12493336E+03</rscale>
<asrwt>0</asrwt>
<pdfrwt beam="1">  1        2 0.51353756E-02 0.13153855E+03</pdfrwt>
<pdfrwt beam="2">  1       -2 0.65648408E-01 0.13153855E+03</pdfrwt>
<totfact> 0.31639261E+03</totfact>
</mgrwt>
</event>
<event>
 7    1  0.8165933E-006  0.1475955E+03  0.7546771E-02  0.1213113E+00
         -2   -1    0    0    0  501 -0.00000000000E+00  0.00000000000E+00  0.35333798595E+02  0.35333798595E+02  0.00000000000E+00 0.  1.
          2   -1    0    0  501    0  0.00000000000E+00 -0.00000000000E+00 -0.59371638069E+03  0.59371638069E+03  0.00000000000E+00 0. -1.
         23    2    1    2    0    0 -0.78402224285E+02  0.36184776615E+01 -0.42356178714E+03  0.44854100582E+03  0.12499777688E+03 0.  0.
          5    1    3    3  502    0 -0.48454838018E+02  0.18674501431E+02 -0.46200430317E+02  0.69664755024E+02  0.47000000000E+01 0.  1.
         -5    1    3    3    0  502 -0.29947386267E+02 -0.15056023770E+02 -0.37736135682E+03  0.37887625080E+03  0.47000000000E+01 0.  1.
        -11    1    1    2    0    0  0.75457291030E+02  0.30755933236E+02 -0.71531986883E+02  0.10842765029E+03  0.00000000000E+00 0.  1.
         11    1    1    2    0    0  0.29449332546E+01 -0.34374410898E+02 -0.63288808069E+02  0.72081523175E+02  0.00000000000E+00 0. -1.
<mgrwt>
<rscale>  0 0.14016072E+03</rscale>
<asrwt>0</asrwt>
<pdfrwt beam="2">  1        2 0.91340977E-01 0.14759555E+03</pdfrwt>
<pdfrwt beam="1">  1       -2 0.54359693E-02 0.14759555E+03</pdfrwt>
<totfact> 0.84716717E+03</totfact>
</mgrwt>
</event>
<event>
 7    1  0.8165933E-006  0.4311353E+03  0.7546771E-02  0.1033502E+00
         -2   -1    0    0    0  501 -0.00000000000E+00  0.00000000000E+00  0.19557363809E+03  0.19557363809E+03  0.00000000000E+00 0.  1.
          2   -1    0    0  501    0  0.00000000000E+00 -0.00000000000E+00 -0.23760566596E+03  0.23760566596E+03  0.00000000000E+00 0. -1.
         23    2    1    2    0    0  0.56488070156E+02 -0.10070379088E+03 -0.13946156940E+03  0.21998829335E+03  0.12495264825E+03 0.  0.
          5    1    3    3  502    0  0.70421192778E+02 -0.52844591683E+02 -0.14491036524E+03  0.16962546748E+03  0.47000000000E+01 0.  1.
         -5    1    3    3    0  502 -0.13933122622E+02 -0.47859199200E+02  0.54487958378E+01  0.50362825876E+02  0.47000000000E+01 0.  1.
        -11    1    1    2    0    0  0.38497213901E+02  0.82108404823E+02  0.31159462268E+02  0.95889194957E+02  0.00000000000E+00 0.  1.
         11    1    1    2    0    0 -0.94985284057E+02  0.18595386060E+02  0.66270079271E+02  0.11730181574E+03  0.00000000000E+00 0. -1.
<mgrwt>
<rscale>  0 0.43113527E+03</rscale>
<asrwt>0</asrwt>
<pdfrwt beam="2">  1        2 0.36554718E-01 0.43113527E+03</pdfrwt>
<pdfrwt beam="1">  1       -2 0.30088252E-01 0.43113527E+03</pdfrwt>
<totfact> 0.14448434E+03</totfact>
</mgrwt>
</event>
<event>
 7    1  0.8165933E-006  0.1679039E+03  0.7546771E-02  0.1187032E+00
          2   -1    0    0  501    0  0.00000000000E+00  0.00000000000E+00  0.49595870873E+03  0.49595870873E+03  0.00000000000E+00 0. -1.
         -2   -1    0    0    0  501 -0.00000000000E+00 -0.00000000000E+00 -0.49153677411E+02  0.49153677411E+02  0.00000000000E+00 0.  1.
         23    2    1    2    0    0 -0.35944230239E+02  0.10618245521E+03  0.25899862514E+03  0.30866162585E+03  0.12500003988E+03 0.  0.
          5    1    3    3  502    0 -0.19250282903E+02 -0.25600760068E+02  0.31446221535E+02  0.45132329396E+02  0.47000000000E+01 0.  1.
         -5    1    3    3    0  502 -0.16693947336E+02  0.13178321528E+03  0.22755240360E+03  0.26352929646E+03  0.47000000000E+01 0.  1.
        -11    1    1    2    0    0  0.14885158015E+02 -0.22326775286E+02  0.12930228741E+03  0.13205731466E+03  0.00000000000E+00 0. -1.
         11    1    1    2    0    0  0.21059072224E+02 -0.83855679922E+02  0.58504118770E+02  0.10439344563E+03  0.00000000000E+00 0.  1.
<mgrwt>
<rscale>  0 0.16148353E+03</rscale>
<asrwt>0</asrwt>
<pdfrwt beam="1">  1        2 0.76301336E-01 0.16790388E+03</pdfrwt>
<pdfrwt beam="2">  1       -2 0.75621046E-02 0.16790388E+03</pdfrwt>
<totfact> 0.63040720E+03</totfact>
</mgrwt>
</event>
<event>
 7    1  0.8165933E-006  0.1546500E+03  0.7546771E-02  0.1203394E+00
          1   -1    0    0  501    0  0.00000000000E+00  0.00000000000E+00  0.11189904853E+04  0.11189904853E+04  0.00000000000E+00 0. -1.
         -1   -1    0    0    0  501 -0.00000000000E+00 -0.00000000000E+00 -0.18016739507E+02  0.18016739507E+02  0.00000000000E+00 0.  1.
         23    2    1    2    0    0 -0.14143027325E+02 -0.89953667059E+02  0.64457677547E+03  0.66286940726E+03  0.12499977666E+03 0.  0.
          5    1    3    3  502    0  0.16504363515E+02  0.20706960077E+02  0.26275292320E+03  0.26412565354E+03  0.47000000000E+01 0. -1.
         -5    1    3    3    0  502 -0.30647390840E+02 -0.11066062714E+03  0.38182385227E+03  0.39874375372E+03  0.47000000000E+01 0. -1.
        -11    1    1    2    0    0  0.27161378916E+02  0.10139485070E+03  0.42949445819E+03  0.44213589072E+03  0.00000000000E+00 0. -1.
         11    1    1    2    0    0 -0.13018351591E+02 -0.11441183639E+02  0.26902512132E+02  0.32001926820E+02  0.00000000000E+00 0.  1.
<mgrwt>
<rscale>  0 0.14764742E+03</rscale>
<asrwt>0</asrwt>
<pdfrwt beam="1">  1        1 0.17215233E+00 0.15465003E+03</pdfrwt>
<pdfrwt beam="2">  1       -1 0.27718070E-02 0.15465003E+03</pdfrwt>
<totfact> 0.54423293E+03</totfact>
</mgrwt>
</event>
<event>
 6    1  0.8165933E-006  0.4091598E+03  0.7546771E-02  0.1118307E+00
         -2   -1    0    0    0  501 -0.00000000000E+00  0.00000000000E+00  0.99169054419E+02  0.99169054419E+02  0.00000000000E+00 0.  1.
          2   -1    0    0  501    0  0.00000000000E+00 -0.00000000000E+00 -0.60110863772E+03  0.60110863772E+03  0.00000000000E+00 0. -1.
          5    1    1    2  502    0 -0.13173768636E+02 -0.57964178465E+02 -0.54854473704E+03  0.55177605304E+03  0.47000000000E+01 0. -1.
         -5    1    1    2    0  502 -0.11410989438E+02  0.87055188097E+02  0.43592040424E+02  0.98138536991E+02  0.47000000000E+01 0.  1.
        -11    1    1    2    0    0  0.25676629965E+02 -0.55375194237E+01 -0.16844775297E+01  0.26320921569E+02  0.00000000000E+00 0. -1.
         11    1    1    2    0    0 -0.10918718911E+01 -0.23553490208E+02  0.46975908534E+01  0.24042180538E+02  0.00000000000E+00 0.  1.
<mgrwt>
<rscale>  0 0.24224409E+03</rscale>
<asrwt>0</asrwt>
<pdfrwt beam="2">  1        2 0.92478252E-01 0.40915981E+03</pdfrwt>
<pdfrwt beam="1">  1       -2 0.15256778E-01 0.40915981E+03</pdfrwt>
<totfact> 0.16810028E+03</totfact>
</mgrwt>
</event>
<event>
 7    1  0.8165933E-006  0.2310363E+03  0.7546771E-02  0.1128895E+00
         -1   -1    0    0    0  501 -0.00000000000E+00  0.00000000000E+00  0.43448264519E+02  0.43448264519E+02  0.00000000000E+00 0.  1.
          1   -1    0    0  501    0  0.00000000000E+00 -0.00000000000E+00 -0.11488966797E+04  0.11488966797E+04  0.00000000000E+00 0. -1.
         23    2    1    2    0    0  0.87190648580E+02 -0.17364944180E+03 -0.61587577376E+03  0.65778471187E+03  0.12498568170E+03 0.  0.
          5    1    3    3  502    0  0.99941186928E+02 -0.13472997967E+03 -0.34344323278E+03  0.38225090243E+03  0.47000000000E+01 0. -1.
         -5    1    3    3    0  502 -0.12750538348E+02 -0.38919462127E+02 -0.27243254097E+03  0.27553380944E+03  0.47000000000E+01 0. -1.
        -11    1    1    2    0    0 -0.91156074064E+02  0.93194174788E+02 -0.25234251774E+03  0.28402698870E+03  0.00000000000E+00 0.  1.
         11    1    1    2    0    0  0.39654254837E+01  0.80455267009E+02 -0.23723012369E+03  0.25053324365E+03  0.00000000000E+00 0. -1.
<mgrwt>
<rscale>  0 0.22682518E+03</rscale>
<asrwt>0</asrwt>
<pdfrwt beam="2">  1        1 0.17675334E+00 0.23103627E+03</pdfrwt>
<pdfrwt beam="1">  1       -1 0.66843483E-02 0.23103627E+03</pdfrwt>
<totfact> 0.14121094E+03</totfact>
</mgrwt>
</event>
<event>
 7    1  0.8165933E-006  0.1258575E+03  0.7546771E-02  0.1252137E+00
         -1   -1    0    0    0  501 -0.00000000000E+00  0.00000000000E+00  0.31789838820E+02  0.31789838820E+02  0.00000000000E+00 0.  1.
          1   -1    0    0  501    0  0.00000000000E+00 -0.00000000000E+00 -0.36566363445E+03  0.36566363445E+03  0.00000000000E+00 0. -1.
         23    2    1    2    0    0 -0.23941632714E+00 -0.24775088308E+02 -0.22931981765E+03  0.26158687498E+03  0.12339470034E+03 0.  0.
          5    1    3    3  502    0 -0.50764153560E+02 -0.45573695567E+02 -0.10026491474E+03  0.12136352064E+03  0.47000000000E+01 0. -1.
         -5    1    3    3    0  502  0.50524737232E+02  0.20798607259E+02 -0.12905490291E+03  0.14022335434E+03  0.47000000000E+01 0.  1.
        -11    1    1    2    0    0  0.14160733662E+02  0.40945333652E+02 -0.18332006794E+02  0.47043694570E+02  0.00000000000E+00 0.  1.
         11    1    1    2    0    0 -0.13921317334E+02 -0.16170245344E+02 -0.86221971185E+02  0.88822903723E+02  0.00000000000E+00 0. -1.
<mgrwt>
<rscale>  0 0.11468213E+03</rscale>
<asrwt>0</asrwt>
<pdfrwt beam="2">  1        1 0.56255943E-01 0.12585752E+03</pdfrwt>
<pdfrwt beam="1">  1       -1 0.48907445E-02 0.12585752E+03</pdfrwt>
<totfact> 0.11632727E+04</totfact>
</mgrwt>
</event>
<event>
 7    1  0.8165933E-006  0.1305762E+03  0.7546771E-02  0.1240243E+00
         -1   -1    0    0    0  501 -0.00000000000E+00  0.00000000000E+00  0.11015296451E+03  0.11015296451E+03  0.00000000000E+00 0.  1.
          1   -1    0    0  501    0  0.00000000000E+00 -0.00000000000E+00 -0.12821302604E+03  0.12821302604E+03  0.00000000000E+00 0. -1.
         23    2    1    2    0    0 -0.27768063447E+02 -0.25576523089E+02 -0.41362238401E+02  0.13697067674E+03  0.12499963057E+03 0.  0.
          5    1    3    3  502    0 -0.52389272449E+02 -0.64708378796E+02 -0.19632999481E+02  0.85670034567E+02  0.47000000000E+01 0. -1.
         -5    1    3    3    0  502  0.24621209002E+02  0.39131855707E+02 -0.21729238920E+02  0.51300642178E+02  0.47000000000E+01 0. -1.
        -11    1    1    2    0    0  0.21847330925E+02  0.54043693610E+02  0.37217737024E+02  0.69160585862E+02  0.00000000000E+00 0.  1.
         11    1    1    2    0    0  0.59207325218E+01 -0.28467170521E+02 -0.13915560151E+02  0.32234727940E+02  0.00000000000E+00 0. -1.
<mgrwt>
<rscale>  0 0.12174657E+03</rscale>
<asrwt>0</asrwt>
<pdfrwt beam="2">  1        1 0.19725081E-01 0.13057615E+03</pdfrwt>
<pdfrwt beam="1">  1       -1 0.16946610E-01 0.13057615E+03</pdfrwt>
<totfact> 0.65012255E+03</totfact>
</mgrwt>
</event>
<event>
 7    1  0.8165933E-006  0.1250123E+03  0.7546771E-02  0.1251954E+00
         -1   -1    0    0    0  501 -0.00000000000E+00  0.00000000000E+00  0.64651404657E+02  0.64651404657E+02  0.00000000000E+00 0.  1.
          1   -1    0    0  501    0  0.00000000000E+00 -0.00000000000E+00 -0.21664554726E+03  0.21664554726E+03  0.00000000000E+00 0. -1.
         23    2    1    2    0    0  0.92286634640E-01 -0.21735668949E+01 -0.14603784845E+03  0.19223715435E+03  0.12499334951E+03 0.  0.
          5    1    3    3  502    0  0.45156926401E+02 -0.43896281650E+02 -0.67640760368E+02  0.92538608202E+02  0.47000000000E+01 0.  1.
         -5    1    3    3    0  502 -0.45064639767E+02  0.41722714755E+02 -0.78397088086E+02  0.99698546149E+02  0.47000000000E+01 0.  1.
        -11    1    1    2    0    0 -0.15279854564E+01  0.38463562122E+02  0.20982533694E+02  0.43841157271E+02  0.00000000000E+00 0.  1.
         11    1    1    2    0    0  0.14356988218E+01 -0.36289995227E+02 -0.26938827842E+02  0.45218640295E+02  0.00000000000E+00 0. -1.
<mgrwt>
<rscale>  0 0.11478670E+03</rscale>
<asrwt>0</asrwt>
<pdfrwt beam="2">  1        1 0.33330085E-01 0.12501228E+03</pdfrwt>
<pdfrwt beam="1">  1       -1 0.99463698E-02 0.12501228E+03</pdfrwt>
<totfact> 0.76740454E+03</totfact>
</mgrwt>
</event>
<event>
 7    1  0.8165933E-006  0.1335194E+03  0.7546771E-02  0.1235030E+00
         -2   -1    0    0    0  501 -0.00000000000E+00  0.00000000000E+00  0.21695482452E+03  0.21695482452E+03  0.00000000000E+00 0.  1.
          2   -1    0    0  501    0  0.00000000000E+00 -0.00000000000E+00 -0.64276244907E+02  0.64276244907E+02  0.00000000000E+00 0. -1.
         23    2    1    2    0    0  0.82403052347E+01 -0.46192593010E+02  0.85016627386E+02  0.15828850653E+03  0.12500306432E+03 0.  0.
          5    1    3    3  502    0 -0.49989081134E+02 -0.37793602576E+02  0.11292393407E+02  0.63850393712E+02  0.47000000000E+01 0.  1.
         -5    1    3    3    0  502  0.58229386369E+02 -0.83989904342E+01  0.73724233978E+02  0.94438112819E+02  0.47000000000E+01 0.  1.
        -11    1    1    2    0    0 -0.32678770592E+02  0.35127568525E+02 -0.22805696385E+01  0.48031751121E+02  0.00000000000E+00 0. -1.
         11    1    1    2    0    0  0.24438465358E+02  0.11065024485E+02  0.69942521865E+02  0.74910811775E+02  0.00000000000E+00 0.  1.
<mgrwt>
<rscale>  0 0.12502489E+03</rscale>
<asrwt>0</asrwt>
<pdfrwt beam="2">  1        2 0.98886531E-02 0.13351938E+03</pdfrwt>
<pdfrwt beam="1">  1       -2 0.33377665E-01 0.13351938E+03</pdfrwt>
<totfact> 0.51788134E+03</totfact>
</mgrwt>
</event>
<event>
 7    1  0.8165933E-006  0.1281682E+03  0.7546771E-02  0.1244173E+00
         -2   -1    0    0    0  501 -0.00000000000E+00  0.00000000000E+00  0.26543135951E+02  0.26543135951E+02  0.00000000000E+00 0. -1.
          2   -1    0    0  501    0  0.00000000000E+00 -0.00000000000E+00 -0.50439885465E+03  0.50439885465E+03  0.00000000000E+00 0.  1.
         23    2    1    2    0    0 -0.13858041095E+02  0.24714375380E+02 -0.33440515349E+03  0.35812553405E+03  0.12499698318E+03 0.  0.
          5    1    3    3  502    0  0.39549920062E+02 -0.31260015684E+02 -0.13584002381E+03  0.14496891676E+03  0.47000000000E+01 0. -1.
         -5    1    3    3    0  502 -0.53407961157E+02  0.55974391064E+02 -0.19856512968E+03  0.21315661729E+03  0.47000000000E+01 0. -1.
        -11    1    1    2    0    0 -0.39320136720E+01 -0.52024164088E+02 -0.12479525677E+03  0.13526208077E+03  0.00000000000E+00 0. -1.
         11    1    1    2    0    0  0.17790054767E+02  0.27309788708E+02 -0.18655308443E+02  0.37554375790E+02  0.00000000000E+00 0.  1.
<mgrwt>
<rscale>  0 0.11934999E+03</rscale>
<asrwt>0</asrwt>
<pdfrwt beam="2">  1        2 0.77599826E-01 0.12816822E+03</pdfrwt>
<pdfrwt beam="1">  1       -2 0.40835592E-02 0.12816822E+03</pdfrwt>
<totfact> 0.15445480E+04</totfact>
</mgrwt>
</event>
<event>
 7    1  0.8165933E-006  0.1133847E+03  0.7546771E-02  0.1264949E+00
         -1   -1    0    0    0  501 -0.00000000000E+00  0.00000000000E+00  0.13234984496E+02  0.13234984496E+02  0.00000000000E+00 0.  1.
          1   -1    0    0  501    0  0.00000000000E+00 -0.00000000000E+00 -0.85564355788E+03  0.85564355788E+03  0.00000000000E+00 0. -1.
         23    2    1    2    0    0  0.85549482430E+01  0.24024408733E+02 -0.57363309885E+03  0.58473158979E+03  0.11047959378E+03 0.  0.
          5    1    3    3  502    0  0.46387164668E+02  0.47836174571E+02 -0.38986356336E+03  0.39554488580E+03  0.47000000000E+01 0. -1.
         -5    1    3    3    0  502 -0.37832216425E+02 -0.23811765839E+02 -0.18376953549E+03  0.18918670399E+03  0.47000000000E+01 0.  1.
        -11    1    1    2    0    0  0.33968769730E+01  0.33329534487E+02 -0.10432742904E+03  0.10957467359E+03  0.00000000000E+00 0. -1.
         11    1    1    2    0    0 -0.11951825216E+02 -0.57353943220E+02 -0.16444804549E+03  0.17457227900E+03  0.00000000000E+00 0.  1.
<mgrwt>
<rscale>  0 0.10766845E+03</rscale>
<asrwt>0</asrwt>
<pdfrwt beam="2">  1        1 0.13163751E+00 0.11338474E+03</pdfrwt>
<pdfrwt beam="1">  1       -1 0.20361509E-02 0.11338474E+03</pdfrwt>
<totfact> 0.13080061E+04</totfact>
</mgrwt>
</event>
<event>
 7    1  0.8165933E-006  0.1282195E+03  0.7546771E-02  0.1243724E+00
         -1   -1    0    0    0  501 -0.00000000000E+00  0.00000000000E+00  0.13907121677E+02  0.13907121677E+02  0.00000000000E+00 0.  1.
          1   -1    0    0  501    0  0.00000000000E+00 -0.00000000000E+00 -0.12129507292E+04  0.12129507292E+04  0.00000000000E+00 0. -1.
         23    2    1    2    0    0  0.11955966245E+02 -0.25983635360E+02 -0.96467414793E+03  0.97315797950E+03  0.12498858725E+03 0.  0.
          5    1    3    3  502    0  0.46321181036E+02 -0.57535934492E+02 -0.73689637267E+03  0.74060407076E+03  0.47000000000E+01 0.  1.
         -5    1    3    3    0  502 -0.34365214791E+02  0.31552299132E+02 -0.22777777526E+03  0.23255390874E+03  0.47000000000E+01 0.  1.
        -11    1    1    2    0    0  0.40191896888E+02  0.19201765006E+02 -0.10819865089E+03  0.11700873646E+03  0.00000000000E+00 0. -1.
         11    1    1    2    0    0 -0.52147863133E+02  0.67818703539E+01 -0.12617080872E+03  0.13669113493E+03  0.00000000000E+00 0.  1.
<mgrwt>
<rscale>  0 0.11962058E+03</rscale>
<asrwt>0</asrwt>
<pdfrwt beam="2">  1        1 0.18660776E+00 0.12821950E+03</pdfrwt>
<pdfrwt beam="1">  1       -1 0.21395577E-02 0.12821950E+03</pdfrwt>
<totfact> 0.67696214E+03</totfact>
</mgrwt>
</event>
<event>
 7    1  0.8165933E-006  0.2366417E+03  0.7546771E-02  0.1124818E+00
         -1   -1    0    0    0  501 -0.00000000000E+00  0.00000000000E+00  0.13239473932E+03  0.13239473932E+03  0.00000000000E+00 0. -1.
          1   -1    0    0  501    0  0.00000000000E+00 -0.00000000000E+00 -0.39942657747E+03  0.39942657747E+03  0.00000000000E+00 0.  1.
         23    2    1    2    0    0  0.13762733817E+02  0.20046039149E+03 -0.11112404520E+03  0.26143425247E+03  0.12500213417E+03 0.  0.
          5    1    3    3  502    0 -0.15974641153E+02  0.13145906903E+03 -0.12805136902E+03  0.18427131925E+03  0.47000000000E+01 0.  1.
         -5    1    3    3    0  502  0.29737374970E+02  0.69001322461E+02  0.16927323826E+02  0.77162933221E+02  0.47000000000E+01 0.  1.
        -11    1    1    2    0    0  0.28941093394E+01 -0.20385608098E+03 -0.14259474407E+03  0.24879497313E+03  0.00000000000E+00 0.  1.
         11    1    1    2    0    0 -0.16656843156E+02  0.33956894899E+01 -0.13313048890E+02  0.21592091186E+02  0.00000000000E+00 0. -1.
<mgrwt>
<rscale>  0 0.23260719E+03</rscale>
<asrwt>0</asrwt>
<pdfrwt beam="2">  1        1 0.61450242E-01 0.23664174E+03</pdfrwt>
<pdfrwt beam="1">  1       -1 0.20368422E-01 0.23664174E+03</pdfrwt>
<totfact> 0.11871319E+03</totfact>
</mgrwt>
</event>
<event>
 7    1  0.8165933E-006  0.1265553E+03  0.7546771E-02  0.1246059E+00
          1   -1    0    0  501    0  0.00000000000E+00  0.00000000000E+00  0.26926643050E+03  0.26926643050E+03  0.00000000000E+00 0. -1.
         -1   -1    0    0    0  501 -0.00000000000E+00 -0.00000000000E+00 -0.60869862861E+02  0.60869862861E+02  0.00000000000E+00 0.  1.
         23    2    1    2    0    0 -0.63725173456E+01 -0.18753636863E+02  0.19552382108E+03  0.23290731517E+03  0.12499577983E+03 0.  0.
          5    1    3    3  502    0 -0.64023197619E+02 -0.15419365745E+02  0.12729644682E+03  0.14339875190E+03  0.47000000000E+01 0. -1.
         -5    1    3    3    0  502  0.57650680273E+02 -0.33342711172E+01  0.68227374259E+02  0.89508563267E+02  0.47000000000E+01 0. -1.
        -11    1    1    2    0    0 -0.21748158048E+02  0.47411664008E+02  0.21059261884E+02  0.56252473489E+02  0.00000000000E+00 0.  1.
         11    1    1    2    0    0  0.28120675394E+02 -0.28658027145E+02 -0.81865153270E+01  0.40976504703E+02  0.00000000000E+00 0. -1.
<mgrwt>
<rscale>  0 0.11822226E+03</rscale>
<asrwt>0</asrwt>
<pdfrwt beam="1">  1        1 0.41425604E-01 0.12655534E+03</pdfrwt>
<pdfrwt beam="2">  1       -1 0.93645944E-02 0.12655534E+03</pdfrwt>
<totfact> 0.64363561E+03</totfact>
</mgrwt>
</event>
<event>
 7    1  0.8165933E-006  0.1375461E+03  0.7546771E-02  0.1230123E+00
          1   -1    0    0  501    0  0.00000000000E+00  0.00000000000E+00  0.33165766451E+03  0.33165766451E+03  0.00000000000E+00 0. -1.
         -1   -1    0    0    0  501 -0.00000000000E+00 -0.00000000000E+00 -0.55030292555E+02  0.55030292555E+02  0.00000000000E+00 0.  1.
         23    2    1    2    0    0 -0.56295723038E+02  0.11166773258E+02  0.23987766490E+03  0.27651442620E+03  0.12500011409E+03 0.  0.
          5    1    3    3  502    0 -0.80916537057E+02 -0.20376337268E+02  0.96869780409E+02  0.12793953824E+03  0.47000000000E+01 0. -1.
         -5    1    3    3    0  502  0.24620814019E+02  0.31543110526E+02  0.14300788449E+03  0.14857488796E+03  0.47000000000E+01 0. -1.
        -11    1    1    2    0    0  0.14856292469E+02 -0.28474935004E+02  0.53369300329E+02  0.62288149490E+02  0.00000000000E+00 0. -1.
         11    1    1    2    0    0  0.41439430569E+02  0.17308161745E+02 -0.16619593272E+02  0.47885381375E+02  0.00000000000E+00 0.  1.
<mgrwt>
<rscale>  0 0.12821894E+03</rscale>
<asrwt>0</asrwt>
<pdfrwt beam="1">  1        1 0.51024255E-01 0.13754612E+03</pdfrwt>
<pdfrwt beam="2">  1       -1 0.84661990E-02 0.13754612E+03</pdfrwt>
<totfact> 0.58257775E+03</totfact>
</mgrwt>
</event>
<event>
 7    1  0.8165933E-006  0.1363439E+03  0.7546771E-02  0.1229611E+00
         -1   -1    0    0    0  501 -0.00000000000E+00  0.00000000000E+00  0.36486000341E+02  0.36486000341E+02  0.00000000000E+00 0.  1.
          1   -1    0    0  501    0  0.00000000000E+00 -0.00000000000E+00 -0.40907457459E+03  0.40907457459E+03  0.00000000000E+00 0. -1.
         23    2    1    2    0    0 -0.21602984285E+02  0.49979557463E+02 -0.21760341945E+03  0.25678964307E+03  0.12500011015E+03 0.  0.
          5    1    3    3  502    0  0.19944809948E+01  0.89550399655E+02 -0.13479219262E+03  0.16190823705E+03  0.47000000000E+01 0.  1.
         -5    1    3    3    0  502 -0.23597465280E+02 -0.39570842191E+02 -0.82811226830E+02  0.94881406021E+02  0.47000000000E+01 0.  1.
        -11    1    1    2    0    0  0.55701665909E+02 -0.12477623985E+02 -0.82015905118E+02  0.99924848649E+02  0.00000000000E+00 0.  1.
         11    1    1    2    0    0 -0.34098681624E+02 -0.37501933478E+02 -0.72969249683E+02  0.88846083213E+02  0.00000000000E+00 0. -1.
<mgrwt>
<rscale>  0 0.12855825E+03</rscale>
<asrwt>0</asrwt>
<pdfrwt beam="2">  1        1 0.62934547E-01 0.13634395E+03</pdfrwt>
<pdfrwt beam="1">  1       -1 0.56132311E-02 0.13634395E+03</pdfrwt>
<totfact> 0.82890246E+03</totfact>
</mgrwt>
</event>
<event>
 7    1  0.8165933E-006  0.1743862E+03  0.7546771E-02  0.1178004E+00
         -3   -1    0    0    0  501 -0.00000000000E+00  0.00000000000E+00  0.19724780211E+03  0.19724780211E+03  0.00000000000E+00 0.  1.
          3   -1    0    0  501    0  0.00000000000E+00 -0.00000000000E+00 -0.14244689198E+03  0.14244689198E+03  0.00000000000E+00 0. -1.
         23    2    1    2    0    0  0.10954035726E+03  0.52790040904E+02  0.54678353761E+02  0.18275739684E+03  0.12499866177E+03 0.  0.
          5    1    3    3  502    0  0.11388004026E+03  0.73842210267E+02  0.14021283250E+02  0.13652846579E+03  0.47000000000E+01 0.  1.
         -5    1    3    3    0  502 -0.43396830047E+01 -0.21052169362E+02  0.40657070512E+02  0.46228931050E+02  0.47000000000E+01 0.  1.
        -11    1    1    2    0    0 -0.98872740585E+02 -0.23045082993E+02 -0.37118925517E+02  0.10809583393E+03  0.00000000000E+00 0. -1.
         11    1    1    2    0    0 -0.10667616673E+02 -0.29744957912E+02  0.37241481886E+02  0.48841463325E+02  0.00000000000E+00 0.  1.
<mgrwt>
<rscale>  0 0.16985001E+03</rscale>
<asrwt>0</asrwt>
<pdfrwt beam="2">  1        3 0.21914906E-01 0.17438619E+03</pdfrwt>
<pdfrwt beam="1">  1       -3 0.30345816E-01 0.17438619E+03</pdfrwt>
<totfact> 0.48077950E+02</totfact>
</mgrwt>
</event>
<event>
 7    1  0.8165933E-006  0.1365831E+03  0.7546771E-02  0.1230149E+00
         -1   -1    0    0    0  501 -0.00000000000E+00  0.00000000000E+00  0.23949448105E+02  0.23949448105E+02  0.00000000000E+00 0.  1.
          1   -1    0    0  501    0  0.00000000000E+00 -0.00000000000E+00 -0.61827238069E+03  0.61827238069E+03  0.00000000000E+00 0. -1.
         23    2    1    2    0    0  0.17732735044E+02 -0.52112505493E+02 -0.35966115397E+03  0.38472209640E+03  0.12499913064E+03 0.  0.
          5    1    3    3  502    0 -0.25178147012E+02 -0.54129173333E+02 -0.32162580787E+03  0.32715310908E+03  0.47000000000E+01 0. -1.
         -5    1    3    3    0  502  0.42910882056E+02  0.20166678400E+01 -0.38035346108E+02  0.57568987324E+02  0.47000000000E+01 0. -1.
        -11    1    1    2    0    0 -0.53561155895E+02  0.35633320915E+02 -0.11864636833E+03  0.13496477947E+03  0.00000000000E+00 0.  1.
         11    1    1    2    0    0  0.35828420851E+02  0.16479184579E+02 -0.11601541028E+03  0.12253495292E+03  0.00000000000E+00 0. -1.
<mgrwt>
<rscale>  0 0.12820157E+03</rscale>
<asrwt>0</asrwt>
<pdfrwt beam="2">  1        1 0.95118817E-01 0.13658311E+03</pdfrwt>
<pdfrwt beam="1">  1       -1 0.36845309E-02 0.13658311E+03</pdfrwt>
<totfact> 0.89784493E+03</totfact>
</mgrwt>
</event>
<event>
 7    1  0.8165933E-006  0.1282810E+03  0.7546771E-02  0.1244477E+00
          4   -1    0    0  501    0  0.00000000000E+00  0.00000000000E+00  0.75680254883E+02  0.75680254883E+02  0.00000000000E+00 0. -1.
         -4   -1    0    0    0  501 -0.00000000000E+00 -0.00000000000E+00 -0.18368655618E+03  0.18368655618E+03  0.00000000000E+00 0.  1.
         23    2    1    2    0    0 -0.17415805574E+02  0.22944102465E+02 -0.20678991129E+02  0.12993701037E+03  0.12500505537E+03 0.  0.
          5    1    3    3  502    0  0.21838540542E+02 -0.56281292797E+01 -0.61916356270E+02  0.66063021926E+02  0.47000000000E+01 0. -1.
         -5    1    3    3    0  502 -0.39254346116E+02  0.28572231745E+02  0.41237365141E+02  0.63873988443E+02  0.47000000000E+01 0. -1.
        -11    1    1    2    0    0 -0.37237380641E+02 -0.10245493870E+02 -0.43953753997E+02  0.58510897721E+02  0.00000000000E+00 0.  1.
         11    1    1    2    0    0  0.54653186215E+02 -0.12698608595E+02 -0.43373556168E+02  0.70918902969E+02  0.00000000000E+00 0. -1.
<mgrwt>
<rscale>  0 0.11916722E+03</rscale>
<asrwt>0</asrwt>
<pdfrwt beam="1">  1        4 0.11643116E-01 0.12828097E+03</pdfrwt>
<pdfrwt beam="2">  1       -4 0.28259470E-01 0.12828097E+03</pdfrwt>
<totfact> 0.11357619E+03</totfact>
</mgrwt>
</event>
<event>
 7    1  0.8165933E-006  0.1486837E+03  0.7546771E-02  0.1211535E+00
          1   -1    0    0  501    0  0.00000000000E+00  0.00000000000E+00  0.37447259344E+03  0.37447259344E+03  0.00000000000E+00 0. -1.
         -1   -1    0    0    0  501 -0.00000000000E+00 -0.00000000000E+00 -0.53973467927E+02  0.53973467927E+02  0.00000000000E+00 0.  1.
         23    2    1    2    0    0  0.26208309466E+02  0.76120900970E+02  0.24145943607E+03  0.28356569256E+03  0.12500230270E+03 0.  0.
          5    1    3    3  502    0  0.48391674649E+02  0.41645607463E+02  0.34874980164E+02  0.72900377487E+02  0.47000000000E+01 0. -1.
         -5    1    3    3    0  502 -0.22183365182E+02  0.34475293507E+02  0.20658445591E+03  0.21066531507E+03  0.47000000000E+01 0. -1.
        -11    1    1    2    0    0  0.85130822268E+01 -0.30552441521E+02 -0.14749581654E+02  0.34978199080E+02  0.00000000000E+00 0.  1.
         11    1    1    2    0    0 -0.34721391693E+02 -0.45568459449E+02  0.93789271101E+02  0.10990216973E+03  0.00000000000E+00 0. -1.
<mgrwt>
<rscale>  0 0.14134190E+03</rscale>
<asrwt>0</asrwt>
<pdfrwt beam="1">  1        1 0.57611167E-01 0.14868370E+03</pdfrwt>
<pdfrwt beam="2">  1       -1 0.83036107E-02 0.14868370E+03</pdfrwt>
<totfact> 0.51772525E+03</totfact>
</mgrwt>
</event>
<event>
 7    1  0.8165933E-006  0.1808688E+03  0.7546771E-02  0.1172387E+00
          1   -1    0    0  501    0  0.00000000000E+00  0.00000000000E+00  0.77431313196E+03  0.77431313196E+03  0.00000000000E+00 0. -1.
         -1   -1    0    0    0  501 -0.00000000000E+00 -0.00000000000E+00 -0.41472691952E+02  0.41472691952E+02  0.00000000000E+00 0.  1.
         23    2    1    2    0    0 -0.37626092353E+02  0.12519128532E+03  0.51356171949E+03  0.54448063043E+03  0.12499974576E+03 0.  0.
          5    1    3    3  502    0 -0.25146168306E+02  0.14841599164E+03  0.46794555957E+03  0.49158394306E+03  0.47000000000E+01 0.  1.
         -5    1    3    3    0  502 -0.12479924047E+02 -0.23224706328E+02  0.45616159924E+02  0.52896687367E+02  0.47000000000E+01 0.  1.
        -11    1    1    2    0    0  0.61276454576E+02 -0.44913586860E+02  0.10907821953E+03  0.13292889883E+03  0.00000000000E+00 0. -1.
         11    1    1    2    0    0 -0.23650362223E+02 -0.80277698456E+02  0.11020050099E+03  0.13837629465E+03  0.00000000000E+00 0.  1.
<mgrwt>
<rscale>  0 0.17534360E+03</rscale>
<asrwt>0</asrwt>
<pdfrwt beam="1">  1        1 0.11912509E+00 0.18086878E+03</pdfrwt>
<pdfrwt beam="2">  1       -1 0.63804147E-02 0.18086878E+03</pdfrwt>
<totfact> 0.29159363E+03</totfact>
</mgrwt>
</event>
<event>
 7    1  0.8165933E-006  0.1256840E+03  0.7546771E-02  0.1249540E+00
         -2   -1    0    0    0  501 -0.00000000000E+00  0.00000000000E+00  0.10290138912E+03  0.10290138912E+03  0.00000000000E+00 0.  1.
          2   -1    0    0  501    0  0.00000000000E+00 -0.00000000000E+00 -0.13856167486E+03  0.13856167486E+03  0.00000000000E+00 0. -1.
         23    2    1    2    0    0  0.13014205157E+02  0.13084547510E+01 -0.69552139574E+02  0.14364525773E+03  0.12500151343E+03 0.  0.
          5    1    3    3  502    0  0.17340788674E+02 -0.33336594354E+02  0.23211531090E+02  0.44417301252E+02  0.47000000000E+01 0. -1.
         -5    1    3    3    0  502 -0.43265835166E+01  0.34645049105E+02 -0.92763670664E+02  0.99227956482E+02  0.47000000000E+01 0. -1.
        -11    1    1    2    0    0 -0.21230190886E+01  0.43793226667E+02  0.25332550790E+02  0.50636864452E+02  0.00000000000E+00 0. -1.
         11    1    1    2    0    0 -0.10891186069E+02 -0.45101681418E+02  0.85593030416E+01  0.47180941802E+02  0.00000000000E+00 0.  1.
<mgrwt>
<rscale>  0 0.11617743E+03</rscale>
<asrwt>0</asrwt>
<pdfrwt beam="2">  1        2 0.21317181E-01 0.12568397E+03</pdfrwt>
<pdfrwt beam="1">  1       -2 0.15830983E-01 0.12568397E+03</pdfrwt>
<totfact> 0.75909486E+03</totfact>
</mgrwt>
</event>
<event>
 7    1  0.8165933E-006  0.1292034E+03  0.7546771E-02  0.1243062E+00
         -2   -1    0    0    0  501 -0.00000000000E+00  0.00000000000E+00  0.25294663157E+02  0.25294663157E+02  0.00000000000E+00 0. -1.
          2   -1    0    0  501    0  0.00000000000E+00 -0.00000000000E+00 -0.51366706535E+03  0.51366706535E+03  0.00000000000E+00 0.  1.
         23    2    1    2    0    0 -0.28716924055E+02 -0.15533277153E+02 -0.31900220287E+03  0.34417427094E+03  0.12501031523E+03 0.  0.
          5    1    3    3  502    0  0.43400243898E+02 -0.53281454112E+01 -0.55842206141E+02  0.71080322809E+02  0.47000000000E+01 0.  1.
         -5    1    3    3    0  502 -0.72117167953E+02 -0.10205131742E+02 -0.26315999673E+03  0.27309394813E+03  0.47000000000E+01 0.  1.
        -11    1    1    2    0    0 -0.93803560994E+01  0.37436904906E+02 -0.30683994860E+02  0.49305379728E+02  0.00000000000E+00 0. -1.
         11    1    1    2    0    0  0.38097280154E+02 -0.21903627753E+02 -0.13868620446E+03  0.14548207784E+03  0.00000000000E+00 0.  1.
<mgrwt>
<rscale>  0 0.12002115E+03</rscale>
<asrwt>0</asrwt>
<pdfrwt beam="2">  1        2 0.79025700E-01 0.12920342E+03</pdfrwt>
<pdfrwt beam="1">  1       -2 0.38914868E-02 0.12920342E+03</pdfrwt>
<totfact> 0.16272110E+04</totfact>
</mgrwt>
</event>
<event>
 7    1  0.8165933E-006  0.2085112E+03  0.7546771E-02  0.1146740E+00
         -1   -1    0    0    0  501 -0.00000000000E+00  0.00000000000E+00  0.42462200359E+03  0.42462200359E+03  0.00000000000E+00 0.  1.
          1   -1    0    0  501    0  0.00000000000E+00 -0.00000000000E+00 -0.96955569839E+02  0.96955569839E+02  0.00000000000E+00 0. -1.
         23    2    1    2    0    0 -0.10011542020E+03  0.13352312640E+03  0.12064920664E+03  0.24090067043E+03  0.12500151720E+03 0.  0.
          5    1    3    3  502    0  0.49737524573E+01  0.18481694921E+02 -0.22042788489E+02  0.29568324014E+02  0.47000000000E+01 0.  1.
         -5    1    3    3    0  502 -0.10508917265E+03  0.11504143148E+03  0.14269199513E+03  0.21133234641E+03  0.47000000000E+01 0.  1.
        -11    1    1    2    0    0  0.78406595643E+02 -0.86911144276E+02  0.19568843083E+03  0.22802434783E+03  0.00000000000E+00 0.  1.
         11    1    1    2    0    0  0.21708824553E+02 -0.46611982128E+02  0.11328796278E+02  0.52652555175E+02  0.00000000000E+00 0. -1.
<mgrwt>
<rscale>  0 0.20359595E+03</rscale>
<asrwt>0</asrwt>
<pdfrwt beam="2">  1        1 0.14916242E-01 0.20851116E+03</pdfrwt>
<pdfrwt beam="1">  1       -1 0.65326461E-01 0.20851116E+03</pdfrwt>
<totfact> 0.92061342E+02</totfact>
</mgrwt>
</event>
<event>
 7    1  0.8165933E-006  0.1250166E+03  0.7546771E-02  0.1235391E+00
          2   -1    0    0  501    0  0.00000000000E+00  0.00000000000E+00  0.10109174870E+04  0.10109174870E+04  0.00000000000E+00 0. -1.
         -2   -1    0    0    0  501 -0.00000000000E+00 -0.00000000000E+00 -0.15704306284E+02  0.15704306284E+02  0.00000000000E+00 0.  1.
         23    2    1    2    0    0 -0.11797047404E+01 -0.14430873785E+01  0.57632642351E+03  0.58972985428E+03  0.12500272152E+03 0.  0.
          5    1    3    3  502    0  0.24113703230E+02 -0.37003494343E+02  0.80300963249E+02  0.91766355359E+02  0.47000000000E+01 0. -1.
         -5    1    3    3    0  502 -0.25293407971E+02  0.35560406965E+02  0.49602546026E+03  0.49796349892E+03  0.47000000000E+01 0. -1.
        -11    1    1    2    0    0 -0.46647425806E+02 -0.25479245641E+02  0.99338011882E+02  0.11266416865E+03  0.00000000000E+00 0.  1.
         11    1    1    2    0    0  0.47827130547E+02  0.26922333020E+02  0.31954874530E+03  0.32422777033E+03  0.00000000000E+00 0. -1.
<mgrwt>
<rscale>  0 0.12479457E+03</rscale>
<asrwt>0</asrwt>
<pdfrwt beam="1">  1        2 0.15552572E+00 0.12501662E+03</pdfrwt>
<pdfrwt beam="2">  1       -2 0.24160479E-02 0.12501662E+03</pdfrwt>
<totfact> 0.14412580E+04</totfact>
</mgrwt>
</event>
<event>
 7    1  0.8165933E-006  0.1293959E+03  0.7546771E-02  0.1241086E+00
         -1   -1    0    0    0  501 -0.00000000000E+00  0.00000000000E+00  0.11355815548E+03  0.11355815548E+03  0.00000000000E+00 0.  1.
          1   -1    0    0  501    0  0.00000000000E+00 -0.00000000000E+00 -0.11604085037E+03  0.11604085037E+03  0.00000000000E+00 0. -1.
         23    2    1    2    0    0 -0.31977158620E+02  0.98113690626E+01  0.61298973664E+01  0.12954097018E+03  0.12499794269E+03 0.  0.
          5    1    3    3  502    0  0.42332582658E+02 -0.13913416253E+02  0.21814860354E+02  0.49835818831E+02  0.47000000000E+01 0. -1.
         -5    1    3    3    0  502 -0.74309741278E+02  0.23724785316E+02 -0.15684962987E+02  0.79705151345E+02  0.47000000000E+01 0. -1.
        -11    1    1    2    0    0  0.53325808721E+01  0.36630604539E+02 -0.24281553204E+02  0.44269983438E+02  0.00000000000E+00 0. -1.
         11    1    1    2    0    0  0.26644577748E+02 -0.46441973601E+02  0.15668960945E+02  0.55788052237E+02  0.00000000000E+00 0.  1.
<mgrwt>
<rscale>  0 0.12122705E+03</rscale>
<asrwt>0</asrwt>
<pdfrwt beam="2">  1        1 0.17852438E-01 0.12939586E+03</pdfrwt>
<pdfrwt beam="1">  1       -1 0.17470485E-01 0.12939586E+03</pdfrwt>
<totfact> 0.70307514E+03</totfact>
</mgrwt>
</event>
<event>
 7    1  0.8165933E-006  0.1345846E+03  0.7546771E-02  0.1231458E+00
          2   -1    0    0  501    0  0.00000000000E+00  0.00000000000E+00  0.10030777206E+04  0.10030777206E+04  0.00000000000E+00 0. -1.
         -2   -1    0    0    0  501 -0.00000000000E+00 -0.00000000000E+00 -0.20590432307E+02  0.20590432307E+02  0.00000000000E+00 0.  1.
         23    2    1    2    0    0 -0.24174183200E+02 -0.43646300581E+02  0.80350302687E+03  0.81469634036E+03  0.12499448836E+03 0.  0.
          5    1    3    3  502    0 -0.48452154589E+02 -0.77663883298E+02  0.59184232422E+03  0.59889791851E+03  0.47000000000E+01 0. -1.
         -5    1    3    3    0  502  0.24277971389E+02  0.34017582717E+02  0.21166070265E+03  0.21579842185E+03  0.47000000000E+01 0. -1.
        -11    1    1    2    0    0 -0.30945143548E+02 -0.20057615653E+01  0.27565297153E+02  0.41490608525E+02  0.00000000000E+00 0.  1.
         11    1    1    2    0    0  0.55119326747E+02  0.45652062147E+02  0.15141896426E+03  0.16748120402E+03  0.00000000000E+00 0. -1.
<mgrwt>
<rscale>  0 0.12733915E+03</rscale>
<asrwt>0</asrwt>
<pdfrwt beam="1">  1        2 0.15431961E+00 0.13458459E+03</pdfrwt>
<pdfrwt beam="2">  1       -2 0.31677596E-02 0.13458459E+03</pdfrwt>
<totfact> 0.98424849E+03</totfact>
</mgrwt>
</event>
<event>
 7    1  0.8165933E-006  0.1139927E+03  0.7546771E-02  0.1254389E+00
         -2   -1    0    0    0  501 -0.00000000000E+00  0.00000000000E+00  0.22328141869E+02  0.22328141869E+02  0.00000000000E+00 0.  1.
          2   -1    0    0  501    0  0.00000000000E+00 -0.00000000000E+00 -0.57173827772E+03  0.57173827772E+03  0.00000000000E+00 0. -1.
         23    2    1    2    0    0 -0.21559761349E+02  0.71214809524E+01 -0.29320668074E+03  0.31458621677E+03  0.11170851065E+03 0.  0.
          5    1    3    3  502    0 -0.94746367951E+01 -0.62918556041E+01 -0.29552971813E+03  0.29578583551E+03  0.47000000000E+01 0. -1.
         -5    1    3    3    0  502 -0.12085124554E+02  0.13413336556E+02  0.23230373859E+01  0.18800381266E+02  0.47000000000E+01 0.  1.
        -11    1    1    2    0    0 -0.18405490882E+02 -0.44566342110E+02 -0.67246329352E+02  0.82746539233E+02  0.00000000000E+00 0. -1.
         11    1    1    2    0    0  0.39965252231E+02  0.37444861158E+02 -0.18895712576E+03  0.19673366359E+03  0.00000000000E+00 0.  1.
<mgrwt>
<rscale>  0 0.11340613E+03</rscale>
<asrwt>0</asrwt>
<pdfrwt beam="2">  1        2 0.87959739E-01 0.11399268E+03</pdfrwt>
<pdfrwt beam="1">  1       -2 0.34350986E-02 0.11399268E+03</pdfrwt>
<totfact> 0.17190195E+04</totfact>
</mgrwt>
</event>
<event>
 7    1  0.8165933E-006  0.1359296E+03  0.7546771E-02  0.1231305E+00
         -2   -1    0    0    0  501 -0.00000000000E+00  0.00000000000E+00  0.16212477766E+03  0.16212477766E+03  0.00000000000E+00 0.  1.
          2   -1    0    0  501    0  0.00000000000E+00 -0.00000000000E+00 -0.10772190541E+03  0.10772190541E+03  0.00000000000E+00 0. -1.
         23    2    1    2    0    0  0.11182924052E+02 -0.52221621451E+02 -0.24970881898E+02  0.13820418735E+03  0.12499878768E+03 0.  0.
          5    1    3    3  502    0  0.65763969469E+02 -0.12508295627E+02 -0.34322380427E+01  0.67195441794E+02  0.47000000000E+01 0. -1.
         -5    1    3    3    0  502 -0.54581045418E+02 -0.39713325824E+02 -0.21538643855E+02  0.71008745560E+02  0.47000000000E+01 0. -1.
        -11    1    1    2    0    0  0.40639068713E+01 -0.18319486098E+02 -0.61408199647E+01  0.19744077081E+02  0.00000000000E+00 0. -1.
         11    1    1    2    0    0 -0.15246830923E+02  0.70541107549E+02  0.85514574115E+02  0.11189841864E+03  0.00000000000E+00 0.  1.
<mgrwt>
<rscale>  0 0.12743985E+03</rscale>
<asrwt>0</asrwt>
<pdfrwt beam="2">  1        2 0.16572601E-01 0.13592959E+03</pdfrwt>
<pdfrwt beam="1">  1       -2 0.24942273E-01 0.13592959E+03</pdfrwt>
<totfact> 0.47138837E+03</totfact>
</mgrwt>
</event>
<event>
 7    1  0.8165933E-006  0.1820880E+03  0.7546771E-02  0.1170983E+00
         -2   -1    0    0    0  501 -0.00000000000E+00  0.00000000000E+00  0.42281344324E+02  0.42281344324E+02  0.00000000000E+00 0.  1.
          2   -1    0    0  501    0  0.00000000000E+00 -0.00000000000E+00 -0.70132872541E+03  0.70132872541E+03  0.00000000000E+00 0. -1.
         23    2    1    2    0    0  0.22928844508E+02  0.13039888041E+03 -0.37173512066E+03  0.41393603296E+03  0.12500575798E+03 0.  0.
          5    1    3    3  502    0  0.56583751083E+01  0.64264897745E+02 -0.32409643592E+03  0.33048840232E+03  0.47000000000E+01 0. -1.
         -5    1    3    3    0  502  0.17270469400E+02  0.66133982661E+02 -0.47638684741E+02  0.83447630642E+02  0.47000000000E+01 0. -1.
        -11    1    1    2    0    0  0.24734425712E+02 -0.70536958355E+02 -0.20034869532E+03  0.21383838296E+03  0.00000000000E+00 0. -1.
         11    1    1    2    0    0 -0.47663270219E+02 -0.59861922050E+02 -0.86963565106E+02  0.11583565382E+03  0.00000000000E+00 0.  1.
<mgrwt>
<rscale>  0 0.17675317E+03</rscale>
<asrwt>0</asrwt>
<pdfrwt beam="2">  1        2 0.10789672E+00 0.18208800E+03</pdfrwt>
<pdfrwt beam="1">  1       -2 0.65048228E-02 0.18208800E+03</pdfrwt>
<totfact> 0.53621220E+03</totfact>
</mgrwt>
</event>
<event>
 7    1  0.8165933E-006  0.1338691E+03  0.7546771E-02  0.1230706E+00
          2   -1    0    0  501    0  0.00000000000E+00  0.00000000000E+00  0.80339862223E+03  0.80339862223E+03  0.00000000000E+00 0. -1.
         -2   -1    0    0    0  501 -0.00000000000E+00 -0.00000000000E+00 -0.18725239841E+02  0.18725239841E+02  0.00000000000E+00 0.  1.
         23    2    1    2    0    0  0.31897800695E+02  0.35752529987E+02  0.41524795226E+03  0.43629324789E+03  0.12500089285E+03 0.  0.
          5    1    3    3  502    0 -0.22454261008E+01  0.32695793740E+02  0.39462824488E+03  0.39601464433E+03  0.47000000000E+01 0. -1.
         -5    1    3    3    0  502  0.34143226796E+02  0.30567362471E+01  0.20619707375E+02  0.40278603560E+02  0.47000000000E+01 0. -1.
        -11    1    1    2    0    0  0.13198563336E+02  0.28357919587E+02  0.77727648041E+02  0.83785207212E+02  0.00000000000E+00 0.  1.
         11    1    1    2    0    0 -0.45096364031E+02 -0.64110449574E+02  0.29169778209E+03  0.30204540696E+03  0.00000000000E+00 0. -1.
<mgrwt>
<rscale>  0 0.12783350E+03</rscale>
<asrwt>0</asrwt>
<pdfrwt beam="1">  1        2 0.12359976E+00 0.13386910E+03</pdfrwt>
<pdfrwt beam="2">  1       -2 0.28808068E-02 0.13386910E+03</pdfrwt>
<totfact> 0.15119487E+04</totfact>
</mgrwt>
</event>
<event>
 7    1  0.8165933E-006  0.1265807E+03  0.7546771E-02  0.1247558E+00
          1   -1    0    0  501    0  0.00000000000E+00  0.00000000000E+00  0.10127879080E+04  0.10127879080E+04  0.00000000000E+00 0. -1.
         -1   -1    0    0    0  501 -0.00000000000E+00 -0.00000000000E+00 -0.12533107449E+02  0.12533107449E+02  0.00000000000E+00 0.  1.
         23    2    1    2    0    0  0.94083633205E+01  0.17584551543E+02  0.68115679846E+03  0.69281834684E+03  0.12499977546E+03 0.  0.
          5    1    3    3  502    0 -0.50571069707E+02  0.16519006231E+02  0.47694153716E+03  0.47992252555E+03  0.47000000000E+01 0. -1.
         -5    1    3    3    0  502  0.59979433027E+02  0.10655453117E+01  0.20421526130E+03  0.21289582129E+03  0.47000000000E+01 0. -1.
        -11    1    1    2    0    0  0.14991426888E+02  0.33174430097E+02  0.10548669748E+03  0.11159179646E+03  0.00000000000E+00 0.  1.
         11    1    1    2    0    0 -0.24399790208E+02 -0.50758981640E+02  0.21361130464E+03  0.22091087218E+03  0.00000000000E+00 0. -1.
<mgrwt>
<rscale>  0 0.11733575E+03</rscale>
<asrwt>0</asrwt>
<pdfrwt beam="1">  1        1 0.15581346E+00 0.12658072E+03</pdfrwt>
<pdfrwt beam="2">  1       -1 0.19281712E-02 0.12658072E+03</pdfrwt>
<totfact> 0.10855440E+04</totfact>
</mgrwt>
</event>
<event>
 7    1  0.8165933E-006  0.1467268E+03  0.7546771E-02  0.1214939E+00
         -2   -1    0    0    0  501 -0.00000000000E+00  0.00000000000E+00  0.86088498224E+02  0.86088498224E+02  0.00000000000E+00 0.  1.
          2   -1    0    0  501    0  0.00000000000E+00 -0.00000000000E+00 -0.27464298380E+03  0.27464298380E+03  0.00000000000E+00 0. -1.
         23    2    1    2    0    0  0.75094934039E+02  0.16042071626E+02 -0.19380517745E+03  0.24308267893E+03  0.12502857597E+03 0.  0.
          5    1    3    3  502    0 -0.49108192248E+01  0.54255040682E+02 -0.50096982701E+02  0.74158770625E+02  0.47000000000E+01 0. -1.
         -5    1    3    3    0  502  0.80005753264E+02 -0.38212969057E+02 -0.14370819475E+03  0.16892390831E+03  0.47000000000E+01 0. -1.
        -11    1    1    2    0    0  0.17153236731E+02 -0.84100127782E+01 -0.13257191088E+02  0.23253278496E+02  0.00000000000E+00 0.  1.
         11    1    1    2    0    0 -0.92248170770E+02 -0.76320588475E+01  0.18507882959E+02  0.94395524599E+02  0.00000000000E+00 0. -1.
<mgrwt>
<rscale>  0 0.13880996E+03</rscale>
<asrwt>0</asrwt>
<pdfrwt beam="2">  1        2 0.42252767E-01 0.14672676E+03</pdfrwt>
<pdfrwt beam="1">  1       -2 0.13244384E-01 0.14672676E+03</pdfrwt>
<totfact> 0.48761968E+03</totfact>
</mgrwt>
</event>
<event>
 7    1  0.8165933E-006  0.1411817E+03  0.7546771E-02  0.1223886E+00
          2   -1    0    0  501    0  0.00000000000E+00  0.00000000000E+00  0.16764525705E+03  0.16764525705E+03  0.00000000000E+00 0.  1.
         -2   -1    0    0    0  501 -0.00000000000E+00 -0.00000000000E+00 -0.11061293816E+03  0.11061293816E+03  0.00000000000E+00 0. -1.
         23    2    1    2    0    0  0.15509393688E+02 -0.63771894075E+02  0.85815165448E+02  0.16521655277E+03  0.12499948369E+03 0.  0.
          5    1    3    3  502    0 -0.36588744995E+02 -0.47626817161E+02 -0.36260780158E+01  0.60351374591E+02  0.47000000000E+01 0.  1.
         -5    1    3    3    0  502  0.52098138683E+02 -0.16145076914E+02  0.89441243464E+02  0.10486517818E+03  0.47000000000E+01 0.  1.
        -11    1    1    2    0    0 -0.23406850225E+02  0.27172756194E+01 -0.43743530077E+02  0.49686624436E+02  0.00000000000E+00 0. -1.
         11    1    1    2    0    0  0.78974565366E+01  0.61054618456E+02  0.14960683521E+02  0.63355018001E+02  0.00000000000E+00 0.  1.
<mgrwt>
<rscale>  0 0.13243555E+03</rscale>
<asrwt>0</asrwt>
<pdfrwt beam="1">  1        2 0.25791578E-01 0.14118168E+03</pdfrwt>
<pdfrwt beam="2">  1       -2 0.17017375E-01 0.14118168E+03</pdfrwt>
<totfact> 0.54975592E+03</totfact>
</mgrwt>
</event>
<event>
 7    1  0.8165933E-006  0.2776489E+03  0.7546771E-02  0.1098820E+00
         -2   -1    0    0    0  501 -0.00000000000E+00  0.00000000000E+00  0.31518509399E+02  0.31518509399E+02  0.00000000000E+00 0.  1.
          2   -1    0    0  501    0  0.00000000000E+00 -0.00000000000E+00 -0.33349911317E+04  0.33349911317E+04  0.00000000000E+00 0. -1.
         23    2    1    2    0    0 -0.18305188264E+03 -0.16720446058E+03 -0.26020312924E+04  0.26168025867E+04  0.12499443175E+03 0.  0.
          5    1    3    3  502    0 -0.18250156823E+03 -0.12441684590E+03 -0.24048622912E+04  0.24149888413E+04  0.47000000000E+01 0. -1.
         -5    1    3    3    0  502 -0.55031441263E+00 -0.42787614684E+02 -0.19716900121E+03  0.20181374546E+03  0.47000000000E+01 0. -1.
        -11    1    1    2    0    0  0.13679930109E+03  0.15305009915E+03 -0.63615531533E+03  0.66845491011E+03  0.00000000000E+00 0. -1.
         11    1    1    2    0    0  0.46252581550E+02  0.14154361435E+02 -0.65286014606E+02  0.81252144284E+02  0.00000000000E+00 0.  1.
<mgrwt>
<rscale>  0 0.27434108E+03</rscale>
<asrwt>0</asrwt>
<pdfrwt beam="2">  1        2 0.51307545E+00 0.27764894E+03</pdfrwt>
<pdfrwt beam="1">  1       -2 0.48490025E-02 0.27764894E+03</pdfrwt>
<totfact> 0.26585494E+02</totfact>
</mgrwt>
</event>
<event>
 7    1  0.8165933E-006  0.1596175E+03  0.7546771E-02  0.1196510E+00
         -2   -1    0    0    0  501 -0.00000000000E+00  0.00000000000E+00  0.70018850030E+02  0.70018850030E+02  0.00000000000E+00 0.  1.
          2   -1    0    0  501    0  0.00000000000E+00 -0.00000000000E+00 -0.31578343387E+03  0.31578343387E+03  0.00000000000E+00 0. -1.
         23    2    1    2    0    0 -0.11596098759E+02 -0.98583656010E+02 -0.11004935293E+03  0.19387783076E+03  0.12499818576E+03 0.  0.
          5    1    3    3  502    0  0.54759226937E+01  0.24695696727E+02 -0.48619825194E+02  0.55007640998E+02  0.47000000000E+01 0.  1.
         -5    1    3    3    0  502 -0.17072021453E+02 -0.12327935274E+03 -0.61429527736E+02  0.13887018977E+03  0.47000000000E+01 0.  1.
        -11    1    1    2    0    0  0.23109465426E+02  0.35939968263E+02 -0.80652775064E+00  0.42736157970E+02  0.00000000000E+00 0.  1.
         11    1    1    2    0    0 -0.11513366666E+02  0.62643687747E+02 -0.13490870316E+03  0.14918829517E+03  0.00000000000E+00 0. -1.
<mgrwt>
<rscale>  0 0.15327133E+03</rscale>
<asrwt>0</asrwt>
<pdfrwt beam="2">  1        2 0.48582066E-01 0.15961752E+03</pdfrwt>
<pdfrwt beam="1">  1       -2 0.10772131E-01 0.15961752E+03</pdfrwt>
<totfact> 0.58794795E+03</totfact>
</mgrwt>
</event>
<event>
 7    1  0.8165933E-006  0.1929862E+03  0.7546771E-02  0.1161054E+00
          1   -1    0    0  501    0  0.00000000000E+00  0.00000000000E+00  0.17874805178E+04  0.17874805178E+04  0.00000000000E+00 0. -1.
         -1   -1    0    0    0  501 -0.00000000000E+00 -0.00000000000E+00 -0.18652631882E+02  0.18652631882E+02  0.00000000000E+00 0.  1.
         23    2    1    2    0    0  0.12320640212E+03 -0.80236423248E+02  0.10201745009E+04  0.10382676426E+04  0.12500393715E+03 0.  0.
          5    1    3    3  502    0  0.33505673257E+02 -0.14568958329E+02  0.66618820921E+03  0.66720589384E+03  0.47000000000E+01 0.  1.
         -5    1    3    3    0  502  0.89700728863E+02 -0.65667464919E+02  0.35398629169E+03  0.37106174879E+03  0.47000000000E+01 0.  1.
        -11    1    1    2    0    0 -0.53068269174E+02  0.85149839845E+02  0.44913245602E+03  0.46020288946E+03  0.00000000000E+00 0.  1.
         11    1    1    2    0    0 -0.70138132946E+02 -0.49134165976E+01  0.29952092900E+03  0.30766261759E+03  0.00000000000E+00 0. -1.
<mgrwt>
<rscale>  0 0.18715336E+03</rscale>
<asrwt>0</asrwt>
<pdfrwt beam="1">  1        1 0.27499687E+00 0.19298623E+03</pdfrwt>
<pdfrwt beam="2">  1       -1 0.28696371E-02 0.19298623E+03</pdfrwt>
<totfact> 0.18710529E+03</totfact>
</mgrwt>
</event>
<event>
 7    1  0.8165933E-006  0.1670550E+03  0.7546771E-02  0.1188215E+00
          2   -1    0    0  501    0  0.00000000000E+00  0.00000000000E+00  0.89666782590E+02  0.89666782590E+02  0.00000000000E+00 0. -1.
         -2   -1    0    0    0  501 -0.00000000000E+00 -0.00000000000E+00 -0.26654511092E+03  0.26654511092E+03  0.00000000000E+00 0.  1.
         23    2    1    2    0    0  0.20177906538E+02 -0.10897999783E+03 -0.92134389470E+02  0.19077770375E+03  0.12499439462E+03 0.  0.
          5    1    3    3  502    0  0.52723710068E+02 -0.12012277606E+03 -0.63738315622E+02  0.14592441129E+03  0.47000000000E+01 0. -1.
         -5    1    3    3    0  502 -0.32545803531E+02  0.11142778240E+02 -0.28396073848E+02  0.44853292458E+02  0.47000000000E+01 0. -1.
        -11    1    1    2    0    0 -0.15026865931E+02  0.96237079329E+02 -0.20242233656E+02  0.99484321182E+02  0.00000000000E+00 0. -1.
         11    1    1    2    0    0 -0.51510406068E+01  0.12742918496E+02 -0.64501705201E+02  0.65949868575E+02  0.00000000000E+00 0.  1.
<mgrwt>
<rscale>  0 0.16042738E+03</rscale>
<asrwt>0</asrwt>
<pdfrwt beam="1">  1        2 0.13794890E-01 0.16705504E+03</pdfrwt>
<pdfrwt beam="2">  1       -2 0.41006940E-01 0.16705504E+03</pdfrwt>
<totfact> 0.23883357E+03</totfact>
</mgrwt>
</event>
<event>
 7    1  0.8165933E-006  0.1274639E+03  0.7546771E-02  0.1246092E+00
         -2   -1    0    0    0  501 -0.00000000000E+00  0.00000000000E+00  0.12627574782E+02  0.12627574782E+02  0.00000000000E+00 0.  1.
          2   -1    0    0  501    0  0.00000000000E+00 -0.00000000000E+00 -0.98782081546E+03  0.98782081546E+03  0.00000000000E+00 0. -1.
         23    2    1    2    0    0  0.29796958141E+01 -0.24745280544E+02 -0.61945111681E+03  0.63242923965E+03  0.12500339818E+03 0.  0.
          5    1    3    3  502    0 -0.51553552179E+02 -0.43991532189E+02 -0.28516821520E+03  0.29314846854E+03  0.47000000000E+01 0.  1.
         -5    1    3    3    0  502  0.54533247994E+02  0.19246251645E+02 -0.33428290160E+03  0.33928077111E+03  0.47000000000E+01 0.  1.
        -11    1    1    2    0    0  0.19287446528E+02  0.52391252141E+02 -0.25953839616E+03  0.26547509860E+03  0.00000000000E+00 0. -1.
         11    1    1    2    0    0 -0.22267142342E+02 -0.27645971597E+02 -0.96203727706E+02  0.10254405199E+03  0.00000000000E+00 0.  1.
<mgrwt>
<rscale>  0 0.11820248E+03</rscale>
<asrwt>0</asrwt>
<pdfrwt beam="2">  1        2 0.15197243E+00 0.12746394E+03</pdfrwt>
<pdfrwt beam="1">  1       -2 0.19427039E-02 0.12746394E+03</pdfrwt>
<totfact> 0.20447063E+04</totfact>
</mgrwt>
</event>
<event>
 7    1  0.8165933E-006  0.1259132E+03  0.7546771E-02  0.1249623E+00
          1   -1    0    0  501    0  0.00000000000E+00  0.00000000000E+00  0.12417764273E+04  0.12417764273E+04  0.00000000000E+00 0. -1.
         -1   -1    0    0    0  501 -0.00000000000E+00 -0.00000000000E+00 -0.10520818147E+02  0.10520818147E+02  0.00000000000E+00 0.  1.
         23    2    1    2    0    0  0.10871300639E+02 -0.10522189811E+02  0.89908197883E+03  0.90785601245E+03  0.12500093211E+03 0.  0.
          5    1    3    3  502    0 -0.52862709957E+02 -0.15736318054E+01  0.57269697144E+03  0.57515289578E+03  0.47000000000E+01 0.  1.
         -5    1    3    3    0  502  0.63734010596E+02 -0.89485580060E+01  0.32638500739E+03  0.33270311667E+03  0.47000000000E+01 0.  1.
        -11    1    1    2    0    0  0.11799767077E+02 -0.36584204187E+02  0.12526083299E+03  0.13102638964E+03  0.00000000000E+00 0.  1.
         11    1    1    2    0    0 -0.22671067716E+02  0.47106393998E+02  0.20691279729E+03  0.21341484332E+03  0.00000000000E+00 0. -1.
<mgrwt>
<rscale>  0 0.11612911E+03</rscale>
<asrwt>0</asrwt>
<pdfrwt beam="1">  1        1 0.19104241E+00 0.12591320E+03</pdfrwt>
<pdfrwt beam="2">  1       -1 0.16185884E-02 0.12591320E+03</pdfrwt>
<totfact> 0.96585521E+03</totfact>
</mgrwt>
</event>
<event>
 7    1  0.8165933E-006  0.1282873E+03  0.7546771E-02  0.1239517E+00
          1   -1    0    0  501    0  0.00000000000E+00  0.00000000000E+00  0.56242371951E+03  0.56242371951E+03  0.00000000000E+00 0. -1.
         -1   -1    0    0    0  501 -0.00000000000E+00 -0.00000000000E+00 -0.32670193532E+02  0.32670193532E+02  0.00000000000E+00 0.  1.
         23    2    1    2    0    0  0.18311177504E+02 -0.22339552389E+02  0.43392580659E+03  0.45249225654E+03  0.12499312694E+03 0.  0.
          5    1    3    3  502    0  0.14489946006E+02  0.31223606995E+02  0.35627737136E+03  0.35796721570E+03  0.47000000000E+01 0. -1.
         -5    1    3    3    0  502  0.38212314977E+01 -0.53563159384E+02  0.77648435226E+02  0.94525040843E+02  0.47000000000E+01 0. -1.
        -11    1    1    2    0    0 -0.12372140692E+02  0.61278766183E+02  0.76291779863E+02  0.98633628772E+02  0.00000000000E+00 0.  1.
         11    1    1    2    0    0 -0.59390368124E+01 -0.38939213794E+02  0.19535939526E+02  0.43968027728E+02  0.00000000000E+00 0. -1.
<mgrwt>
<rscale>  0 0.12219636E+03</rscale>
<asrwt>0</asrwt>
<pdfrwt beam="1">  1        1 0.86526719E-01 0.12828732E+03</pdfrwt>
<pdfrwt beam="2">  1       -1 0.50261840E-02 0.12828732E+03</pdfrwt>
<totfact> 0.64393986E+03</totfact>
</mgrwt>
</event>
<event>
 7    1  0.8165933E-006  0.1651521E+03  0.7546771E-02  0.1189938E+00
          1   -1    0    0  501    0  0.00000000000E+00  0.00000000000E+00  0.11584059572E+04  0.11584059572E+04  0.00000000000E+00 0. -1.
         -1   -1    0    0    0  501 -0.00000000000E+00 -0.00000000000E+00 -0.20393838298E+02  0.20393838298E+02  0.00000000000E+00 0.  1.
         23    2    1    2    0    0 -0.58386738912E+02  0.90778537926E+02  0.65232530529E+03  0.67290676989E+03  0.12500185125E+03 0.  0.
          5    1    3    3  502    0 -0.72849051818E+02  0.11492442440E+03  0.55727270327E+03  0.57366328407E+03  0.47000000000E+01 0.  1.
         -5    1    3    3    0  502  0.14462312905E+02 -0.24145886474E+02  0.95052602016E+02  0.99243485822E+02  0.47000000000E+01 0.  1.
        -11    1    1    2    0    0 -0.23993757947E+02 -0.16220414400E+02  0.13305545630E+03  0.13617105682E+03  0.00000000000E+00 0.  1.
         11    1    1    2    0    0  0.82380496859E+02 -0.74558123526E+02  0.35263135733E+03  0.36972196881E+03  0.00000000000E+00 0. -1.
<mgrwt>
<rscale>  0 0.15890577E+03</rscale>
<asrwt>0</asrwt>
<pdfrwt beam="1">  1        1 0.17821625E+00 0.16515210E+03</pdfrwt>
<pdfrwt beam="2">  1       -1 0.31375145E-02 0.16515210E+03</pdfrwt>
<totfact> 0.42701697E+03</totfact>
</mgrwt>
</event>
<event>
 7    1  0.8165933E-006  0.1384333E+03  0.7546771E-02  0.1227457E+00
          3   -1    0    0  501    0  0.00000000000E+00  0.00000000000E+00  0.12596309484E+03  0.12596309484E+03  0.00000000000E+00 0. -1.
         -3   -1    0    0    0  501 -0.00000000000E+00 -0.00000000000E+00 -0.12475040049E+03  0.12475040049E+03  0.00000000000E+00 0.  1.
         23    2    1    2    0    0 -0.59211284585E+02 -0.58129617803E+01  0.24456299357E+02  0.14057698510E+03  0.12499604560E+03 0.  0.
          5    1    3    3  502    0  0.56289996429E+01 -0.13036795486E+02 -0.43653237541E+02  0.46144759414E+02  0.47000000000E+01 0.  1.
         -5    1    3    3    0  502 -0.64840284228E+02  0.72238337061E+01  0.68109536898E+02  0.94432225689E+02  0.47000000000E+01 0.  1.
        -11    1    1    2    0    0  0.54998633284E+02  0.19742169404E+02 -0.51798254250E+02  0.78087528193E+02  0.00000000000E+00 0.  1.
         11    1    1    2    0    0  0.42126513007E+01 -0.13929207624E+02  0.28554649240E+02  0.32048982031E+02  0.00000000000E+00 0. -1.
<mgrwt>
<rscale>  0 0.12999895E+03</rscale>
<asrwt>0</asrwt>
<pdfrwt beam="1">  1        3 0.19378938E-01 0.13843330E+03</pdfrwt>
<pdfrwt beam="2">  1       -3 0.19192369E-01 0.13843330E+03</pdfrwt>
<totfact> 0.13222412E+03</totfact>
</mgrwt>
</event>
<event>
 7    1  0.8165933E-006  0.1412619E+03  0.7546771E-02  0.1222173E+00
          1   -1    0    0  501    0  0.00000000000E+00  0.00000000000E+00  0.59743335548E+03  0.59743335548E+03  0.00000000000E+00 0. -1.
         -1   -1    0    0    0  501 -0.00000000000E+00 -0.00000000000E+00 -0.29981199227E+02  0.29981199227E+02  0.00000000000E+00 0.  1.
         23    2    1    2    0    0 -0.44832393929E+02  0.48151315871E+02  0.40921376581E+03  0.43290973345E+03  0.12500575356E+03 0.  0.
          5    1    3    3  502    0 -0.35790425103E+02 -0.22255840508E+02  0.45079883893E+02  0.61891541405E+02  0.47000000000E+01 0. -1.
         -5    1    3    3    0  502 -0.90419688264E+01  0.70407156379E+02  0.36413388192E+03  0.37101819205E+03  0.47000000000E+01 0. -1.
        -11    1    1    2    0    0  0.17280534463E+02 -0.72764036656E+02  0.91035029998E+02  0.11781595218E+03  0.00000000000E+00 0.  1.
         11    1    1    2    0    0  0.27551859466E+02  0.24612720785E+02  0.67203360443E+02  0.76688869070E+02  0.00000000000E+00 0. -1.
<mgrwt>
<rscale>  0 0.13362548E+03</rscale>
<asrwt>0</asrwt>
<pdfrwt beam="1">  1        1 0.91912815E-01 0.14126192E+03</pdfrwt>
<pdfrwt beam="2">  1       -1 0.46124926E-02 0.14126192E+03</pdfrwt>
<totfact> 0.67759822E+03</totfact>
</mgrwt>
</event>
<event>
 7    1  0.8165933E-006  0.1275861E+03  0.7546771E-02  0.1245793E+00
          1   -1    0    0  501    0  0.00000000000E+00  0.00000000000E+00  0.45337089756E+03  0.45337089756E+03  0.00000000000E+00 0. -1.
         -1   -1    0    0    0  501 -0.00000000000E+00 -0.00000000000E+00 -0.27230938400E+02  0.27230938400E+02  0.00000000000E+00 0.  1.
         23    2    1    2    0    0  0.11801860966E+02  0.22693475565E+02  0.23847652650E+03  0.27046122549E+03  0.12499577211E+03 0.  0.
          5    1    3    3  502    0  0.51598238995E+02 -0.31045315391E+02  0.11959388742E+03  0.13398125907E+03  0.47000000000E+01 0.  1.
         -5    1    3    3    0  502 -0.39796378028E+02  0.53738790955E+02  0.11888263908E+03  0.13647996641E+03  0.47000000000E+01 0.  1.
        -11    1    1    2    0    0 -0.48487205270E+02 -0.63187682299E+01  0.13711033170E+03  0.14556846831E+03  0.00000000000E+00 0. -1.
         11    1    1    2    0    0  0.36685344303E+02 -0.16374707335E+02  0.50553100958E+02  0.64572142162E+02  0.00000000000E+00 0.  1.
<mgrwt>
<rscale>  0 0.11838017E+03</rscale>
<asrwt>0</asrwt>
<pdfrwt beam="1">  1        1 0.69749363E-01 0.12758613E+03</pdfrwt>
<pdfrwt beam="2">  1       -1 0.41893755E-02 0.12758613E+03</pdfrwt>
<totfact> 0.11151032E+04</totfact>
</mgrwt>
</event>
<event>
 7    1  0.8165933E-006  0.1560847E+03  0.7546771E-02  0.1198943E+00
          2   -1    0    0  501    0  0.00000000000E+00  0.00000000000E+00  0.88020882814E+03  0.88020882814E+03  0.00000000000E+00 0. -1.
         -2   -1    0    0    0  501 -0.00000000000E+00 -0.00000000000E+00 -0.24603606207E+02  0.24603606207E+02  0.00000000000E+00 0.  1.
         23    2    1    2    0    0 -0.46094034503E+02  0.81423938567E+02  0.42565637907E+03  0.45337158766E+03  0.12493168401E+03 0.  0.
          5    1    3    3  502    0 -0.62826877204E+02  0.44854774302E+01  0.28683009877E+03  0.29370211366E+03  0.47000000000E+01 0.  1.
         -5    1    3    3    0  502  0.16732842701E+02  0.76938461137E+02  0.13882628029E+03  0.15966947400E+03  0.47000000000E+01 0.  1.
        -11    1    1    2    0    0  0.68203952120E+02 -0.31662390593E+02  0.17059077094E+03  0.18642826286E+03  0.00000000000E+00 0.  1.
         11    1    1    2    0    0 -0.22109917617E+02 -0.49761547973E+02  0.25935807193E+03  0.26501258383E+03  0.00000000000E+00 0. -1.
<mgrwt>
<rscale>  0 0.15125193E+03</rscale>
<asrwt>0</asrwt>
<pdfrwt beam="1">  1        2 0.13541672E+00 0.15608473E+03</pdfrwt>
<pdfrwt beam="2">  1       -2 0.37851709E-02 0.15608473E+03</pdfrwt>
<totfact> 0.90789470E+03</totfact>
</mgrwt>
</event>
<event>
 7    1  0.8165933E-006  0.1430957E+03  0.7546771E-02  0.1219567E+00
          2   -1    0    0  501    0  0.00000000000E+00  0.00000000000E+00  0.14349500078E+03  0.14349500078E+03  0.00000000000E+00 0. -1.
         -2   -1    0    0    0  501 -0.00000000000E+00 -0.00000000000E+00 -0.12507725915E+03  0.12507725915E+03  0.00000000000E+00 0.  1.
         23    2    1    2    0    0 -0.69402739669E+02  0.59242917881E+01 -0.25861101174E+02  0.14541380560E+03  0.12499816318E+03 0.  0.
          5    1    3    3  502    0 -0.84107956593E+02  0.40309456485E+02 -0.44405935849E+02  0.10340685559E+03  0.47000000000E+01 0. -1.
         -5    1    3    3    0  502  0.14705216924E+02 -0.34385164697E+02  0.18544834675E+02  0.42006950010E+02  0.47000000000E+01 0. -1.
        -11    1    1    2    0    0  0.64929086330E+02  0.13612695374E+02 -0.83294303200E+01  0.66861581917E+02  0.00000000000E+00 0.  1.
         11    1    1    2    0    0  0.44736533393E+01 -0.19536987162E+02  0.52608273125E+02  0.56296872407E+02  0.00000000000E+00 0. -1.
<mgrwt>
<rscale>  0 0.13546342E+03</rscale>
<asrwt>0</asrwt>
<pdfrwt beam="1">  1        2 0.22076154E-01 0.14309570E+03</pdfrwt>
<pdfrwt beam="2">  1       -2 0.19242655E-01 0.14309570E+03</pdfrwt>
<totfact> 0.53247213E+03</totfact>
</mgrwt>
</event>
<event>
 7    1  0.8165933E-006  0.1459267E+03  0.7546771E-02  0.1216237E+00
          1   -1    0    0  501    0  0.00000000000E+00  0.00000000000E+00  0.14189100755E+04  0.14189100755E+04  0.00000000000E+00 0. -1.
         -1   -1    0    0    0  501 -0.00000000000E+00 -0.00000000000E+00 -0.13107075524E+02  0.13107075524E+02  0.00000000000E+00 0.  1.
         23    2    1    2    0    0 -0.73366189080E+02  0.16925614215E+02  0.97276676573E+03  0.98365124532E+03  0.12500207115E+03 0.  0.
          5    1    3    3  502    0 -0.23765690711E+02  0.67319625169E+02  0.38129257281E+03  0.38794697585E+03  0.47000000000E+01 0.  1.
         -5    1    3    3    0  502 -0.49600498369E+02 -0.50394010954E+02  0.59147419292E+03  0.59570426948E+03  0.47000000000E+01 0.  1.
        -11    1    1    2    0    0  0.65671265462E+00  0.29345776881E+02  0.89836447218E+02  0.94510280610E+02  0.00000000000E+00 0.  1.
         11    1    1    2    0    0  0.72709476425E+02 -0.46271391096E+02  0.34319978707E+03  0.35385562514E+03  0.00000000000E+00 0. -1.
<mgrwt>
<rscale>  0 0.13786035E+03</rscale>
<asrwt>0</asrwt>
<pdfrwt beam="1">  1        1 0.21829374E+00 0.14592667E+03</pdfrwt>
<pdfrwt beam="2">  1       -1 0.20164743E-02 0.14592667E+03</pdfrwt>
<totfact> 0.54008676E+03</totfact>
</mgrwt>
</event>
<event>
 7    1  0.8165933E-006  0.1273998E+03  0.7546771E-02  0.1239680E+00
          1   -1    0    0  501    0  0.00000000000E+00  0.00000000000E+00  0.49848322708E+02  0.49848322708E+02  0.00000000000E+00 0. -1.
         -1   -1    0    0    0  501 -0.00000000000E+00 -0.00000000000E+00 -0.32052369404E+03  0.32052369404E+03  0.00000000000E+00 0.  1.
         23    2    1    2    0    0  0.20946310514E+02 -0.53467984649E+02 -0.76956324637E+02  0.14883875742E+03  0.11372390471E+03 0.  0.
          5    1    3    3  502    0  0.30615961500E+02 -0.66332166841E+02 -0.97752179019E+02  0.12212645888E+03  0.47000000000E+01 0. -1.
         -5    1    3    3    0  502 -0.96696509860E+01  0.12864182192E+02  0.20795854382E+02  0.26712298537E+02  0.47000000000E+01 0.  1.
        -11    1    1    2    0    0  0.10899567325E+02  0.54278437737E+02 -0.50900843470E+02  0.75205353779E+02  0.00000000000E+00 0. -1.
         11    1    1    2    0    0 -0.31845877838E+02 -0.81045308836E+00 -0.14281820322E+03  0.14632790554E+03  0.00000000000E+00 0.  1.
<mgrwt>
<rscale>  0 0.12209526E+03</rscale>
<asrwt>0</asrwt>
<pdfrwt beam="1">  1        1 0.76689724E-02 0.12739976E+03</pdfrwt>
<pdfrwt beam="2">  1       -1 0.49311340E-01 0.12739976E+03</pdfrwt>
<totfact> 0.37134106E+03</totfact>
</mgrwt>
</event>
<event>
 7    1  0.8165933E-006  0.2404701E+03  0.7546771E-02  0.1122123E+00
         -2   -1    0    0    0  501 -0.00000000000E+00  0.00000000000E+00  0.59726240262E+03  0.59726240262E+03  0.00000000000E+00 0.  1.
          2   -1    0    0  501    0  0.00000000000E+00 -0.00000000000E+00 -0.90974683060E+02  0.90974683060E+02  0.00000000000E+00 0. -1.
         23    2    1    2    0    0  0.45313135727E+02 -0.20036845610E+03  0.24371576962E+03  0.34237883437E+03  0.12500036558E+03 0.  0.
          5    1    3    3  502    0  0.43546823179E+02 -0.77870621233E+02  0.18710003132E+03  0.20733709553E+03  0.47000000000E+01 0.  1.
         -5    1    3    3    0  502  0.17663125486E+01 -0.12249783487E+03  0.56615738293E+02  0.13504173884E+03  0.47000000000E+01 0.  1.
        -11    1    1    2    0    0 -0.49337224231E+01  0.12453536609E+03  0.21268162320E+03  0.24650937482E+03  0.00000000000E+00 0. -1.
         11    1    1    2    0    0 -0.40379413304E+02  0.75833090009E+02  0.49890326747E+02  0.99348876501E+02  0.00000000000E+00 0.  1.
<mgrwt>
<rscale>  0 0.23653418E+03</rscale>
<asrwt>0</asrwt>
<pdfrwt beam="2">  1        2 0.13996105E-01 0.24047014E+03</pdfrwt>
<pdfrwt beam="1">  1       -2 0.91886521E-01 0.24047014E+03</pdfrwt>
<totfact> 0.44170675E+02</totfact>
</mgrwt>
</event>
<event>
 7    1  0.8165933E-006  0.1284550E+03  0.7546771E-02  0.1244266E+00
         -1   -1    0    0    0  501 -0.00000000000E+00  0.00000000000E+00  0.20604083557E+02  0.20604083557E+02  0.00000000000E+00 0.  1.
          1   -1    0    0  501    0  0.00000000000E+00 -0.00000000000E+00 -0.60891424164E+03  0.60891424164E+03  0.00000000000E+00 0. -1.
         23    2    1    2    0    0  0.19990780746E+02  0.21797507513E+02 -0.33363359918E+03  0.35750814962E+03  0.12500374350E+03 0.  0.
          5    1    3    3  502    0  0.33435831438E+02  0.32685534009E+02 -0.33613725015E+03  0.33940630503E+03  0.47000000000E+01 0.  1.
         -5    1    3    3    0  502 -0.13445050692E+02 -0.10888026496E+02  0.25036509688E+01  0.18101844582E+02  0.47000000000E+01 0.  1.
        -11    1    1    2    0    0 -0.50499076377E+01 -0.52743698611E+02 -0.20408844085E+03  0.21085419369E+03  0.00000000000E+00 0.  1.
         11    1    1    2    0    0 -0.14940873108E+02  0.30946191097E+02 -0.50588118051E+02  0.61155981888E+02  0.00000000000E+00 0. -1.
<mgrwt>
<rscale>  0 0.11929399E+03</rscale>
<asrwt>0</asrwt>
<pdfrwt beam="2">  1        1 0.93679126E-01 0.12845504E+03</pdfrwt>
<pdfrwt beam="1">  1       -1 0.31698586E-02 0.12845504E+03</pdfrwt>
<totfact> 0.11373271E+04</totfact>
</mgrwt>
</event>
<event>
 7    1  0.8165933E-006  0.2295757E+03  0.7546771E-02  0.1130067E+00
         -2   -1    0    0    0  501 -0.00000000000E+00  0.00000000000E+00  0.23894167993E+03  0.23894167993E+03  0.00000000000E+00 0. -1.
          2   -1    0    0  501    0  0.00000000000E+00 -0.00000000000E+00 -0.21452429069E+03  0.21452429069E+03  0.00000000000E+00 0.  1.
         23    2    1    2    0    0  0.18390527572E+03  0.57191420438E+02 -0.36255092125E+02  0.23242083630E+03  0.12495200852E+03 0.  0.
          5    1    3    3  502    0  0.16782794151E+03  0.89762005731E+02 -0.43003586931E+02  0.19517897969E+03  0.47000000000E+01 0. -1.
         -5    1    3    3    0  502  0.16077334206E+02 -0.32570585294E+02  0.67484948063E+01  0.37241856609E+02  0.47000000000E+01 0. -1.
        -11    1    1    2    0    0 -0.12567924509E+03  0.46901572859E+01  0.21943569015E+02  0.12766671627E+03  0.00000000000E+00 0.  1.
         11    1    1    2    0    0 -0.58226030625E+02 -0.61881577724E+02  0.38728912355E+02  0.93378418042E+02  0.00000000000E+00 0. -1.
<mgrwt>
<rscale>  0 0.22519695E+03</rscale>
<asrwt>0</asrwt>
<pdfrwt beam="2">  1        2 0.33003737E-01 0.22957572E+03</pdfrwt>
<pdfrwt beam="1">  1       -2 0.36760258E-01 0.22957572E+03</pdfrwt>
<totfact> 0.11019750E+03</totfact>
</mgrwt>
</event>
<event>
 6    1  0.8165933E-006  0.1441499E+03  0.7546771E-02  0.1222320E+00
          4   -1    0    0  501    0  0.00000000000E+00  0.00000000000E+00  0.12216253692E+03  0.12216253692E+03  0.00000000000E+00 0. -1.
         -4   -1    0    0    0  501 -0.00000000000E+00 -0.00000000000E+00 -0.45800026245E+03  0.45800026245E+03  0.00000000000E+00 0.  1.
          5    1    1    2  502    0 -0.32602102667E+02  0.35087394093E+02  0.18869005356E+02  0.51692859136E+02  0.47000000000E+01 0. -1.
         -5    1    1    2    0  502  0.35167014697E+02 -0.88930124751E+02  0.51439960408E+02  0.10868967540E+03  0.47000000000E+01 0.  1.
        -11    1    1    2    0    0 -0.43419437958E+02  0.83990271747E+01 -0.14588819888E+03  0.15244394977E+03  0.00000000000E+00 0. -1.
         11    1    1    2    0    0  0.40854525928E+02  0.45443703483E+02 -0.26025849242E+03  0.26733631507E+03  0.00000000000E+00 0.  1.
<mgrwt>
<rscale>  0 0.13352260E+03</rscale>
<asrwt>0</asrwt>
<pdfrwt beam="1">  1        4 0.18794237E-01 0.14414995E+03</pdfrwt>
<pdfrwt beam="2">  1       -4 0.70461578E-01 0.14414995E+03</pdfrwt>
<totfact> 0.80472310E+01</totfact>
</mgrwt>
</event>
<event>
 7    1  0.1179799E-005  0.1283910E+03  0.7546771E-02  0.1242846E+00
          1   -1    0    0  501    0  0.00000000000E+00  0.00000000000E+00  0.96712331259E+03  0.96712331259E+03  0.00000000000E+00 0. -1.
         -1   -1    0    0    0  501 -0.00000000000E+00 -0.00000000000E+00 -0.15161137536E+02  0.15161137536E+02  0.00000000000E+00 0.  1.
         23    2    1    2    0    0 -0.63374673374E+01 -0.28611503578E+02  0.70161603518E+03  0.71326664040E+03  0.12500183138E+03 0.  0.
          5    1    3    3  502    0 -0.26125138674E+02  0.31270331504E+02  0.96509915946E+02  0.10486472419E+03  0.47000000000E+01 0. -1.
         -5    1    3    3    0  502  0.19787671336E+02 -0.59881835083E+02  0.60510611924E+03  0.60840191621E+03  0.47000000000E+01 0. -1.
        -11    1    1    2    0    0  0.23835330095E+02 -0.19976435719E+02  0.17456203599E+03  0.17731070287E+03  0.00000000000E+00 0.  1.
         11    1    1    2    0    0 -0.17497862758E+02  0.48587939298E+02  0.75784103878E+02  0.91707106851E+02  0.00000000000E+00 0. -1.
<mgrwt>
<rscale>  0 0.12015247E+03</rscale>
<asrwt>0</asrwt>
<pdfrwt beam="1">  1        1 0.14878815E+00 0.12839096E+03</pdfrwt>
<pdfrwt beam="2">  1       -1 0.23324835E-02 0.12839096E+03</pdfrwt>
<totfact> 0.89184664E+03</totfact>
</mgrwt>
</event>
<event>
 7    1  0.8165933E-006  0.1412865E+03  0.7546771E-02  0.1224303E+00
         -1   -1    0    0    0  501 -0.00000000000E+00  0.00000000000E+00  0.41244696470E+02  0.41244696470E+02  0.00000000000E+00 0.  1.
          1   -1    0    0  501    0  0.00000000000E+00 -0.00000000000E+00 -0.43002531202E+03  0.43002531202E+03  0.00000000000E+00 0. -1.
         23    2    1    2    0    0  0.42815917780E+02  0.50038866539E+02 -0.29909938418E+03  0.33079043960E+03  0.12499912933E+03 0.  0.
          5    1    3    3  502    0  0.26264963334E+02  0.90867428913E+02 -0.17440777654E+03  0.19846133239E+03  0.47000000000E+01 0. -1.
         -5    1    3    3    0  502  0.16550954446E+02 -0.40828562374E+02 -0.12469160764E+03  0.13232910721E+03  0.47000000000E+01 0. -1.
        -11    1    1    2    0    0 -0.72303237420E+01  0.10675853590E+02  0.11468795384E+02  0.17256439345E+02  0.00000000000E+00 0.  1.
         11    1    1    2    0    0 -0.35585594038E+02 -0.60714720129E+02 -0.10115002675E+03  0.12322312955E+03  0.00000000000E+00 0. -1.
<mgrwt>
<rscale>  0 0.13214800E+03</rscale>
<asrwt>0</asrwt>
<pdfrwt beam="2">  1        1 0.66157739E-01 0.14128649E+03</pdfrwt>
<pdfrwt beam="1">  1       -1 0.63453381E-02 0.14128649E+03</pdfrwt>
<totfact> 0.64955509E+03</totfact>
</mgrwt>
</event>
<event>
 7    1  0.8165933E-006  0.1719871E+03  0.7546771E-02  0.1181969E+00
         -2   -1    0    0    0  501 -0.00000000000E+00  0.00000000000E+00  0.54968486375E+03  0.54968486375E+03  0.00000000000E+00 0.  1.
          2   -1    0    0  501    0  0.00000000000E+00 -0.00000000000E+00 -0.47691811273E+02  0.47691811273E+02  0.00000000000E+00 0. -1.
         23    2    1    2    0    0  0.11811802428E+03  0.23496779330E+01  0.30279120792E+03  0.34822704616E+03  0.12498868524E+03 0.  0.
          5    1    3    3  502    0 -0.18408606200E+02 -0.15892626963E+02  0.14538753249E+02  0.28721380887E+02  0.47000000000E+01 0. -1.
         -5    1    3    3    0  502  0.13652663048E+03  0.18242304896E+02  0.28825245467E+03  0.31950566528E+03  0.47000000000E+01 0. -1.
        -11    1    1    2    0    0 -0.85686554824E+02  0.15289984843E+02  0.19299328608E+03  0.21171296084E+03  0.00000000000E+00 0.  1.
         11    1    1    2    0    0 -0.32431469459E+02 -0.17639662776E+02  0.62085584717E+01  0.37436668020E+02  0.00000000000E+00 0. -1.
<mgrwt>
<rscale>  0 0.16610731E+03</rscale>
<asrwt>0</asrwt>
<pdfrwt beam="2">  1        2 0.73372021E-02 0.17198709E+03</pdfrwt>
<pdfrwt beam="1">  1       -2 0.84566898E-01 0.17198709E+03</pdfrwt>
<totfact> 0.11740715E+03</totfact>
</mgrwt>
</event>
<event>
 7    1  0.8165933E-006  0.1742300E+03  0.7546771E-02  0.1178381E+00
          1   -1    0    0  501    0  0.00000000000E+00  0.00000000000E+00  0.12549843094E+04  0.12549843094E+04  0.00000000000E+00 0. -1.
         -1   -1    0    0    0  501 -0.00000000000E+00 -0.00000000000E+00 -0.30202425070E+02  0.30202425070E+02  0.00000000000E+00 0.  1.
         23    2    1    2    0    0 -0.21912611735E+02 -0.11931567280E+03  0.97668985466E+03  0.99210844872E+03  0.12505882420E+03 0.  0.
          5    1    3    3  502    0 -0.55194032975E+02 -0.12257220362E+03  0.86594840599E+03  0.87633273259E+03  0.47000000000E+01 0. -1.
         -5    1    3    3    0  502  0.33281421240E+02  0.32565308256E+01  0.11074144867E+03  0.11577571613E+03  0.47000000000E+01 0. -1.
        -11    1    1    2    0    0  0.27608360487E+01  0.50186316488E+02  0.20210810761E+02  0.54173475520E+02  0.00000000000E+00 0.  1.
         11    1    1    2    0    0  0.19151775686E+02  0.69129356310E+02  0.22788121892E+03  0.23890481024E+03  0.00000000000E+00 0. -1.
<mgrwt>
<rscale>  0 0.16948996E+03</rscale>
<asrwt>0</asrwt>
<pdfrwt beam="1">  1        1 0.19307447E+00 0.17423003E+03</pdfrwt>
<pdfrwt beam="2">  1       -1 0.46465279E-02 0.17423003E+03</pdfrwt>
<totfact> 0.20552219E+03</totfact>
</mgrwt>
</event>
<event>
 7    1  0.8165933E-006  0.1930665E+03  0.7546771E-02  0.1160318E+00
          1   -1    0    0  501    0  0.00000000000E+00  0.00000000000E+00  0.26777210374E+03  0.26777210374E+03  0.00000000000E+00 0. -1.
         -1   -1    0    0    0  501 -0.00000000000E+00 -0.00000000000E+00 -0.12771459246E+03  0.12771459246E+03  0.00000000000E+00 0.  1.
         23    2    1    2    0    0 -0.11973743251E+03  0.85508594337E+02  0.10029960739E+03  0.21756536211E+03  0.12500361235E+03 0.  0.
          5    1    3    3  502    0 -0.68798045276E+02  0.87624198648E+02  0.77201246925E+01  0.11177147019E+03  0.47000000000E+01 0. -1.
         -5    1    3    3    0  502 -0.50939387232E+02 -0.21156043113E+01  0.92579482693E+02  0.10579389193E+03  0.47000000000E+01 0. -1.
        -11    1    1    2    0    0  0.83221230828E+02 -0.80252198761E+01  0.39012144558E+02  0.92261177304E+02  0.00000000000E+00 0. -1.
         11    1    1    2    0    0  0.36516201681E+02 -0.77483374461E+02  0.74575934447E+00  0.85660156782E+02  0.00000000000E+00 0.  1.
<mgrwt>
<rscale>  0 0.18795612E+03</rscale>
<asrwt>0</asrwt>
<pdfrwt beam="1">  1        1 0.41195708E-01 0.19306651E+03</pdfrwt>
<pdfrwt beam="2">  1       -1 0.19648399E-01 0.19306651E+03</pdfrwt>
<totfact> 0.20764156E+03</totfact>
</mgrwt>
</event>
<event>
 7    1  0.8165933E-006  0.1303704E+03  0.7546771E-02  0.1240225E+00
         -2   -1    0    0    0  501 -0.00000000000E+00  0.00000000000E+00  0.15150318406E+02  0.15150318406E+02  0.00000000000E+00 0.  1.
          2   -1    0    0  501    0  0.00000000000E+00 -0.00000000000E+00 -0.98003564818E+03  0.98003564818E+03  0.00000000000E+00 0. -1.
         23    2    1    2    0    0 -0.63837240965E+01  0.36518427128E+02 -0.70628796226E+03  0.71821941439E+03  0.12498837596E+03 0.  0.
          5    1    3    3  502    0 -0.22977231137E+02 -0.37793741730E+02 -0.14214083582E+03  0.14893766237E+03  0.47000000000E+01 0. -1.
         -5    1    3    3    0  502  0.16593507041E+02  0.74312168858E+02 -0.56414712644E+03  0.56928175202E+03  0.47000000000E+01 0. -1.
        -11    1    1    2    0    0  0.26863597635E+02 -0.56706587913E+02 -0.22037552221E+03  0.22913459097E+03  0.00000000000E+00 0. -1.
         11    1    1    2    0    0 -0.20479873538E+02  0.20188160785E+02 -0.38221845318E+02  0.47831961234E+02  0.00000000000E+00 0.  1.
<mgrwt>
<rscale>  0 0.12175783E+03</rscale>
<asrwt>0</asrwt>
<pdfrwt beam="2">  1        2 0.15077474E+00 0.13037040E+03</pdfrwt>
<pdfrwt beam="1">  1       -2 0.23308179E-02 0.13037040E+03</pdfrwt>
<totfact> 0.15890321E+04</totfact>
</mgrwt>
</event>
<event>
 7    1  0.8165933E-006  0.1408784E+03  0.7546771E-02  0.1224384E+00
          2   -1    0    0  501    0  0.00000000000E+00  0.00000000000E+00  0.87853001153E+03  0.87853001153E+03  0.00000000000E+00 0. -1.
         -2   -1    0    0    0  501 -0.00000000000E+00 -0.00000000000E+00 -0.35904534535E+02  0.35904534535E+02  0.00000000000E+00 0.  1.
         23    2    1    2    0    0 -0.44396630359E+02  0.41410726191E+02  0.77177328148E+03  0.78452579997E+03  0.12712522873E+03 0.  0.
          5    1    3    3  502    0 -0.61195769964E+02  0.70922870191E+02  0.38597952539E+03  0.39721185758E+03  0.47000000000E+01 0. -1.
         -5    1    3    3    0  502  0.16799139605E+02 -0.29512144001E+02  0.38579375609E+03  0.38731394239E+03  0.47000000000E+01 0.  1.
        -11    1    1    2    0    0  0.27378332252E+02 -0.70054002778E+02  0.44175951098E+02  0.87227581862E+02  0.00000000000E+00 0.  1.
         11    1    1    2    0    0  0.17018298107E+02  0.28643276587E+02  0.26676244417E+02  0.42681164233E+02  0.00000000000E+00 0. -1.
<mgrwt>
<rscale>  0 0.13209209E+03</rscale>
<asrwt>0</asrwt>
<pdfrwt beam="1">  1        2 0.13515845E+00 0.14087843E+03</pdfrwt>
<pdfrwt beam="2">  1       -2 0.55237752E-02 0.14087843E+03</pdfrwt>
<totfact> 0.51407376E+03</totfact>
</mgrwt>
</event>
<event>
 7    1  0.8165933E-006  0.1412296E+03  0.7546771E-02  0.1222599E+00
         -2   -1    0    0    0  501 -0.00000000000E+00  0.00000000000E+00  0.75821957371E+02  0.75821957371E+02  0.00000000000E+00 0.  1.
          2   -1    0    0  501    0  0.00000000000E+00 -0.00000000000E+00 -0.22372679685E+03  0.22372679685E+03  0.00000000000E+00 0. -1.
         23    2    1    2    0    0 -0.37739527569E+02 -0.53824123951E+02 -0.11643924623E+03  0.18304070932E+03  0.12499797977E+03 0.  0.
          5    1    3    3  502    0 -0.24286943903E+02 -0.62744178193E+02 -0.21053896117E+01  0.67477479256E+02  0.47000000000E+01 0.  1.
         -5    1    3    3    0  502 -0.13452583667E+02  0.89200542425E+01 -0.11433385661E+03  0.11556323007E+03  0.47000000000E+01 0.  1.
        -11    1    1    2    0    0  0.59085252206E+02  0.79218932080E+01 -0.62142118698E+01  0.59936965634E+02  0.00000000000E+00 0.  1.
         11    1    1    2    0    0 -0.21345724637E+02  0.45902230743E+02 -0.25251381382E+02  0.56571079265E+02  0.00000000000E+00 0. -1.
<mgrwt>
<rscale>  0 0.13332815E+03</rscale>
<asrwt>0</asrwt>
<pdfrwt beam="2">  1        2 0.34419507E-01 0.14122961E+03</pdfrwt>
<pdfrwt beam="1">  1       -2 0.11664917E-01 0.14122961E+03</pdfrwt>
<totfact> 0.74239992E+03</totfact>
</mgrwt>
</event>
<event>
 7    1  0.8165933E-006  0.2163368E+03  0.7546771E-02  0.1147770E+00
          1   -1    0    0  501    0  0.00000000000E+00  0.00000000000E+00  0.17216977227E+03  0.17216977227E+03  0.00000000000E+00 0. -1.
         -1   -1    0    0    0  501 -0.00000000000E+00 -0.00000000000E+00 -0.47869245972E+03  0.47869245972E+03  0.00000000000E+00 0.  1.
         23    2    1    2    0    0  0.90724502805E+02  0.59687360327E+02  0.97788896651E+02  0.19231074731E+03  0.12500895500E+03 0.  0.
          5    1    3    3  502    0  0.93528684331E+02  0.45480046582E+02  0.12405570020E+03  0.16195047447E+03  0.47000000000E+01 0.  1.
         -5    1    3    3    0  502 -0.28041815258E+01  0.14207313746E+02 -0.26266803550E+02  0.30360272835E+02  0.47000000000E+01 0.  1.
        -11    1    1    2    0    0 -0.12557484950E+03 -0.27953346734E+02 -0.38784398720E+03  0.40862377663E+03  0.00000000000E+00 0.  1.
         11    1    1    2    0    0  0.34850346699E+02 -0.31734013593E+02 -0.16467596897E+02  0.49927708052E+02  0.00000000000E+00 0. -1.
<mgrwt>
<rscale>  0 0.20235210E+03</rscale>
<asrwt>0</asrwt>
<pdfrwt beam="1">  1        1 0.26487657E-01 0.21633679E+03</pdfrwt>
<pdfrwt beam="2">  1       -1 0.73644994E-01 0.21633679E+03</pdfrwt>
<totfact> 0.34615817E+02</totfact>
</mgrwt>
</event>
<event>
 7    1  0.8165933E-006  0.1670918E+03  0.7546771E-02  0.1184704E+00
         -2   -1    0    0    0  501 -0.00000000000E+00  0.00000000000E+00  0.66214774105E+03  0.66214774105E+03  0.00000000000E+00 0.  1.
          2   -1    0    0  501    0  0.00000000000E+00 -0.00000000000E+00 -0.39025207315E+02  0.39025207315E+02  0.00000000000E+00 0. -1.
         23    2    1    2    0    0  0.57539751055E+02 -0.94777555257E+02  0.29858195860E+03  0.34215620345E+03  0.12500429443E+03 0.  0.
          5    1    3    3  502    0  0.79702414458E+02 -0.48566010516E+02  0.26425474985E+03  0.28029233857E+03  0.47000000000E+01 0. -1.
         -5    1    3    3    0  502 -0.22162663404E+02 -0.46211544741E+02  0.34327208758E+02  0.61863864878E+02  0.47000000000E+01 0. -1.
        -11    1    1    2    0    0  0.31166885067E+02  0.18394896428E+02  0.85854937418E+02  0.93170903282E+02  0.00000000000E+00 0. -1.
         11    1    1    2    0    0 -0.88706636122E+02  0.76382658829E+02  0.23868563771E+03  0.26584584163E+03  0.00000000000E+00 0.  1.
<mgrwt>
<rscale>  0 0.16358865E+03</rscale>
<asrwt>0</asrwt>
<pdfrwt beam="2">  1        2 0.60038785E-02 0.16709184E+03</pdfrwt>
<pdfrwt beam="1">  1       -2 0.10186887E+00 0.16709184E+03</pdfrwt>
<totfact> 0.99432388E+02</totfact>
</mgrwt>
</event>
<event>
 7    1  0.8165933E-006  0.1251955E+03  0.7546771E-02  0.1249931E+00
         -2   -1    0    0    0  501 -0.00000000000E+00  0.00000000000E+00  0.65594836507E+02  0.65594836507E+02  0.00000000000E+00 0. -1.
          2   -1    0    0  501    0  0.00000000000E+00 -0.00000000000E+00 -0.24640704015E+03  0.24640704015E+03  0.00000000000E+00 0.  1.
         23    2    1    2    0    0  0.48663383257E+01  0.44443133925E+01 -0.18076761733E+03  0.21988824329E+03  0.12502189765E+03 0.  0.
          5    1    3    3  502    0 -0.80660394339E+01  0.60052960287E+02 -0.12933149203E+03  0.14289906879E+03  0.47000000000E+01 0.  1.
         -5    1    3    3    0  502  0.12932377760E+02 -0.55608646895E+02 -0.51436125302E+02  0.76989174499E+02  0.47000000000E+01 0.  1.
        -11    1    1    2    0    0 -0.18980226731E+02 -0.43987371209E+02  0.10005327757E+02  0.48941234314E+02  0.00000000000E+00 0.  1.
         11    1    1    2    0    0  0.14113888405E+02  0.39543057816E+02 -0.10049914073E+02  0.43172399056E+02  0.00000000000E+00 0. -1.
<mgrwt>
<rscale>  0 0.11595045E+03</rscale>
<asrwt>0</asrwt>
<pdfrwt beam="2">  1        2 0.37908776E-01 0.12519548E+03</pdfrwt>
<pdfrwt beam="1">  1       -2 0.10091513E-01 0.12519548E+03</pdfrwt>
<totfact> 0.83486198E+03</totfact>
</mgrwt>
</event>
<event>
 7    1  0.8165933E-006  0.1268132E+03  0.7546771E-02  0.1246911E+00
          2   -1    0    0  501    0  0.00000000000E+00  0.00000000000E+00  0.39340745150E+03  0.39340745150E+03  0.00000000000E+00 0. -1.
         -2   -1    0    0    0  501 -0.00000000000E+00 -0.00000000000E+00 -0.34114393165E+02  0.34114393165E+02  0.00000000000E+00 0.  1.
         23    2    1    2    0    0  0.13237440582E+02  0.16807653261E+02  0.26742985558E+03  0.29597349155E+03  0.12499541195E+03 0.  0.
          5    1    3    3  502    0 -0.18225668231E+02  0.63369576997E+02  0.10544310442E+03  0.12445166348E+03  0.47000000000E+01 0.  1.
         -5    1    3    3    0  502  0.31463108813E+02 -0.46561923736E+02  0.16198675115E+03  0.17152182808E+03  0.47000000000E+01 0.  1.
        -11    1    1    2    0    0 -0.17929752018E+02  0.36161453440E+02  0.47194173004E+02  0.62100053848E+02  0.00000000000E+00 0.  1.
         11    1    1    2    0    0  0.46923114358E+01 -0.52969106701E+02  0.44669029751E+02  0.69448299261E+02  0.00000000000E+00 0. -1.
<mgrwt>
<rscale>  0 0.11771721E+03</rscale>
<asrwt>0</asrwt>
<pdfrwt beam="1">  1        2 0.60524220E-01 0.12681317E+03</pdfrwt>
<pdfrwt beam="2">  1       -2 0.52483684E-02 0.12681317E+03</pdfrwt>
<totfact> 0.13870310E+04</totfact>
</mgrwt>
</event>
<event>
 7    1  0.8165933E-006  0.1263695E+03  0.7546771E-02  0.1257519E+00
         -2   -1    0    0    0  501 -0.00000000000E+00  0.00000000000E+00  0.23897166938E+02  0.23897166938E+02  0.00000000000E+00 0.  1.
          2   -1    0    0  501    0  0.00000000000E+00 -0.00000000000E+00 -0.43303569519E+03  0.43303569519E+03  0.00000000000E+00 0. -1.
         23    2    1    2    0    0 -0.11521484983E+02  0.14786432584E+02 -0.24964815938E+03  0.27980968028E+03  0.12497147872E+03 0.  0.
          5    1    3    3  502    0  0.54586879792E+02  0.10712516282E+02 -0.15012672406E+03  0.16017056136E+03  0.47000000000E+01 0. -1.
         -5    1    3    3    0  502 -0.66108364776E+02  0.40739163020E+01 -0.99521435326E+02  0.11963911892E+03  0.47000000000E+01 0. -1.
        -11    1    1    2    0    0 -0.15371733365E+02  0.38707602837E+01 -0.16642079123E+01  0.15938712614E+02  0.00000000000E+00 0.  1.
         11    1    1    2    0    0  0.26893218348E+02 -0.18657192868E+02 -0.15782616096E+03  0.16118446923E+03  0.00000000000E+00 0. -1.
<mgrwt>
<rscale>  0 0.11166405E+03</rscale>
<asrwt>0</asrwt>
<pdfrwt beam="2">  1        2 0.66620868E-01 0.12636951E+03</pdfrwt>
<pdfrwt beam="1">  1       -2 0.36764877E-02 0.12636951E+03</pdfrwt>
<totfact> 0.21266815E+04</totfact>
</mgrwt>
</event>
<event>
 7    1  0.8165933E-006  0.1266787E+03  0.7546771E-02  0.1246329E+00
          1   -1    0    0  501    0  0.00000000000E+00  0.00000000000E+00  0.11797328779E+04  0.11797328779E+04  0.00000000000E+00 0. -1.
         -1   -1    0    0    0  501 -0.00000000000E+00 -0.00000000000E+00 -0.17580921136E+02  0.17580921136E+02  0.00000000000E+00 0.  1.
         23    2    1    2    0    0  0.20311281498E+02 -0.28011099894E+01  0.10080728662E+04  0.10160011797E+04  0.12500839701E+03 0.  0.
          5    1    3    3  502    0 -0.95980027296E+01  0.82847110903E+01  0.94562001072E+03  0.94571668737E+03  0.47000000000E+01 0.  1.
         -5    1    3    3    0  502  0.29909284227E+02 -0.11085821080E+02  0.62452855447E+02  0.70284492354E+02  0.47000000000E+01 0.  1.
        -11    1    1    2    0    0 -0.42369865228E+02 -0.32816253597E+02  0.90243187176E+02  0.10495687120E+03  0.00000000000E+00 0.  1.
         11    1    1    2    0    0  0.22058583731E+02  0.35617363587E+02  0.63835903429E+02  0.76355748124E+02  0.00000000000E+00 0. -1.
<mgrwt>
<rscale>  0 0.11806189E+03</rscale>
<asrwt>0</asrwt>
<pdfrwt beam="1">  1        1 0.18149730E+00 0.12667870E+03</pdfrwt>
<pdfrwt beam="2">  1       -1 0.27047580E-02 0.12667870E+03</pdfrwt>
<totfact> 0.50796461E+03</totfact>
</mgrwt>
</event>
<event>
 7    1  0.8165933E-006  0.1636475E+03  0.7546771E-02  0.1190395E+00
          1   -1    0    0  501    0  0.00000000000E+00  0.00000000000E+00  0.94297970196E+02  0.94297970196E+02  0.00000000000E+00 0. -1.
         -1   -1    0    0    0  501 -0.00000000000E+00 -0.00000000000E+00 -0.25123165473E+03  0.25123165473E+03  0.00000000000E+00 0.  1.
         23    2    1    2    0    0  0.98353682403E+02  0.39218850803E+02 -0.77884664529E+02  0.18123612623E+03  0.12477558808E+03 0.  0.
          5    1    3    3  502    0  0.26830927246E+02 -0.53104181437E+01  0.32214141169E+02  0.42519878751E+02  0.47000000000E+01 0.  1.
         -5    1    3    3    0  502  0.71522755158E+02  0.44529268947E+02 -0.11009880570E+03  0.13871624748E+03  0.47000000000E+01 0.  1.
        -11    1    1    2    0    0 -0.62906958673E+02  0.12647457460E+02 -0.78606210005E+02  0.10147009353E+03  0.00000000000E+00 0.  1.
         11    1    1    2    0    0 -0.35446723730E+02 -0.51866308263E+02 -0.44281000044E+00  0.62823405167E+02  0.00000000000E+00 0. -1.
<mgrwt>
<rscale>  0 0.15850487E+03</rscale>
<asrwt>0</asrwt>
<pdfrwt beam="1">  1        1 0.14507380E-01 0.16364753E+03</pdfrwt>
<pdfrwt beam="2">  1       -1 0.38651024E-01 0.16364753E+03</pdfrwt>
<totfact> 0.24977705E+03</totfact>
</mgrwt>
</event>
<event>
 7    1  0.8165933E-006  0.1976078E+03  0.7546771E-02  0.1156098E+00
         -2   -1    0    0    0  501 -0.00000000000E+00  0.00000000000E+00  0.26539886788E+02  0.26539886788E+02  0.00000000000E+00 0.  1.
          2   -1    0    0  501    0  0.00000000000E+00 -0.00000000000E+00 -0.18741036727E+04  0.18741036727E+04  0.00000000000E+00 0. -1.
         23    2    1    2    0    0  0.33606704709E+02  0.14931145063E+03 -0.14676159191E+04  0.14808596603E+04  0.12500211104E+03 0.  0.
          5    1    3    3  502    0 -0.15554643171E+02  0.10277865736E+03 -0.49180463781E+03  0.50269204400E+03  0.47000000000E+01 0.  1.
         -5    1    3    3    0  502  0.49161347880E+02  0.46532793266E+02 -0.97581128127E+03  0.97816761632E+03  0.47000000000E+01 0.  1.
        -11    1    1    2    0    0 -0.53406918458E+01 -0.13758682309E+03 -0.24149982195E+03  0.27799428210E+03  0.00000000000E+00 0.  1.
         11    1    1    2    0    0 -0.28266012864E+02 -0.11724627533E+02 -0.13844804489E+03  0.14178961707E+03  0.00000000000E+00 0. -1.
<mgrwt>
<rscale>  0 0.19264407E+03</rscale>
<asrwt>0</asrwt>
<pdfrwt beam="2">  1        2 0.28832365E+00 0.19760781E+03</pdfrwt>
<pdfrwt beam="1">  1       -2 0.40830594E-02 0.19760781E+03</pdfrwt>
<totfact> 0.23114826E+03</totfact>
</mgrwt>
</event>
<event>
 7    1  0.8165933E-006  0.3660066E+03  0.7546771E-02  0.1057190E+00
         -2   -1    0    0    0  501 -0.00000000000E+00  0.00000000000E+00  0.14944673629E+03  0.14944673629E+03  0.00000000000E+00 0.  1.
          2   -1    0    0  501    0  0.00000000000E+00 -0.00000000000E+00 -0.87999571405E+03  0.87999571405E+03  0.00000000000E+00 0. -1.
         23    2    1    2    0    0  0.36898224817E+02  0.34201317632E+03 -0.41720457853E+03  0.55499593847E+03  0.12500535829E+03 0.  0.
          5    1    3    3  502    0  0.46290129768E+01  0.16180544719E+03 -0.28955767259E+03  0.33176522761E+03  0.47000000000E+01 0.  1.
         -5    1    3    3    0  502  0.32269211840E+02  0.18020772913E+03 -0.12764690594E+03  0.22323071085E+03  0.47000000000E+01 0.  1.
        -11    1    1    2    0    0  0.13805231157E+02 -0.19993679634E+03 -0.13899953404E+03  0.24389788315E+03  0.00000000000E+00 0.  1.
         11    1    1    2    0    0 -0.50703455975E+02 -0.14207637997E+03 -0.17434486519E+03  0.23054862874E+03  0.00000000000E+00 0. -1.
<mgrwt>
<rscale>  0 0.36354294E+03</rscale>
<asrwt>0</asrwt>
<pdfrwt beam="2">  1        2 0.13538396E+00 0.36600660E+03</pdfrwt>
<pdfrwt beam="1">  1       -2 0.22991805E-01 0.36600660E+03</pdfrwt>
<totfact> 0.51565436E+02</totfact>
</mgrwt>
</event>
<event>
 7    1  0.8165933E-006  0.1375064E+03  0.7546771E-02  0.1226497E+00
         -2   -1    0    0    0  501 -0.00000000000E+00  0.00000000000E+00  0.26918888729E+02  0.26918888729E+02  0.00000000000E+00 0.  1.
          2   -1    0    0  501    0  0.00000000000E+00 -0.00000000000E+00 -0.58895585993E+03  0.58895585993E+03  0.00000000000E+00 0. -1.
         23    2    1    2    0    0 -0.39975327180E+02  0.41090807572E+02 -0.26820391141E+03  0.30139897362E+03  0.12498608704E+03 0.  0.
          5    1    3    3  502    0 -0.53623940205E+02  0.73989556412E+02 -0.23613187717E+03  0.25323967864E+03  0.47000000000E+01 0. -1.
         -5    1    3    3    0  502  0.13648613025E+02 -0.32898748840E+02 -0.32072034244E+02  0.48159294984E+02  0.47000000000E+01 0. -1.
        -11    1    1    2    0    0 -0.14156003496E+02  0.11203239039E+02 -0.96005713591E+01  0.20446906132E+02  0.00000000000E+00 0.  1.
         11    1    1    2    0    0  0.54131330675E+02 -0.52294046611E+02 -0.28423248843E+03  0.29402886891E+03  0.00000000000E+00 0. -1.
<mgrwt>
<rscale>  0 0.13064822E+03</rscale>
<asrwt>0</asrwt>
<pdfrwt beam="2">  1        2 0.90608581E-01 0.13750638E+03</pdfrwt>
<pdfrwt beam="1">  1       -2 0.41413681E-02 0.13750638E+03</pdfrwt>
<totfact> 0.12796050E+04</totfact>
</mgrwt>
</event>
<event>
 7    1  0.8165933E-006  0.1251163E+03  0.7546771E-02  0.1250320E+00
          1   -1    0    0  501    0  0.00000000000E+00  0.00000000000E+00  0.60058360480E+02  0.60058360480E+02  0.00000000000E+00 0. -1.
         -1   -1    0    0    0  501 -0.00000000000E+00 -0.00000000000E+00 -0.21240907381E+03  0.21240907381E+03  0.00000000000E+00 0.  1.
         23    2    1    2    0    0 -0.36691147823E+01  0.39315303007E+01 -0.48962079737E+02  0.13435539764E+03  0.12500067316E+03 0.  0.
          5    1    3    3  502    0 -0.17133992839E+01  0.14351542513E+01 -0.91396156457E+02  0.91544212379E+02  0.47000000000E+01 0.  1.
         -5    1    3    3    0  502 -0.19557154983E+01  0.24963760494E+01  0.42434076721E+02  0.42811185263E+02  0.47000000000E+01 0.  1.
        -11    1    1    2    0    0  0.14923044241E+02  0.35872656058E+02 -0.17156837645E+02  0.42472364899E+02  0.00000000000E+00 0. -1.
         11    1    1    2    0    0 -0.11253929459E+02 -0.39804186359E+02 -0.86231795946E+02  0.95639671748E+02  0.00000000000E+00 0.  1.
<mgrwt>
<rscale>  0 0.11572521E+03</rscale>
<asrwt>0</asrwt>
<pdfrwt beam="1">  1        1 0.92397478E-02 0.12511630E+03</pdfrwt>
<pdfrwt beam="2">  1       -1 0.32678319E-01 0.12511630E+03</pdfrwt>
<totfact> 0.59480122E+03</totfact>
</mgrwt>
</event>
<event>
 7    1  0.8165933E-006  0.1284938E+03  0.7546771E-02  0.1243466E+00
         -2   -1    0    0    0  501 -0.00000000000E+00  0.00000000000E+00  0.31550948168E+02  0.31550948168E+02  0.00000000000E+00 0. -1.
          2   -1    0    0  501    0  0.00000000000E+00 -0.00000000000E+00 -0.40436475262E+03  0.40436475262E+03  0.00000000000E+00 0.  1.
         23    2    1    2    0    0  0.28928239149E+02 -0.70506170542E+01 -0.22509296267E+03  0.25918620982E+03  0.12499638114E+03 0.  0.
          5    1    3    3  502    0  0.24221409252E+02  0.50601748441E+02 -0.52052611596E+02  0.76673189482E+02  0.47000000000E+01 0. -1.
         -5    1    3    3    0  502  0.47068298969E+01 -0.57652365495E+02 -0.17304035107E+03  0.18251302034E+03  0.47000000000E+01 0. -1.
        -11    1    1    2    0    0  0.27746304900E+02  0.14796440090E+02 -0.21328992728E+02  0.37996289368E+02  0.00000000000E+00 0. -1.
         11    1    1    2    0    0 -0.56674544048E+02 -0.77458230357E+01 -0.12639184905E+03  0.13873320160E+03  0.00000000000E+00 0.  1.
<mgrwt>
<rscale>  0 0.11977634E+03</rscale>
<asrwt>0</asrwt>
<pdfrwt beam="2">  1        2 0.62209955E-01 0.12849377E+03</pdfrwt>
<pdfrwt beam="1">  1       -2 0.48539925E-02 0.12849377E+03</pdfrwt>
<totfact> 0.15161012E+04</totfact>
</mgrwt>
</event>
<event>
 7    1  0.8165933E-006  0.1334465E+03  0.7546771E-02  0.1234939E+00
          2   -1    0    0  501    0  0.00000000000E+00  0.00000000000E+00  0.61567765755E+03  0.61567765755E+03  0.00000000000E+00 0. -1.
         -2   -1    0    0    0  501 -0.00000000000E+00 -0.00000000000E+00 -0.30232138472E+02  0.30232138472E+02  0.00000000000E+00 0.  1.
         23    2    1    2    0    0 -0.46663655597E+02  0.21235986348E+01  0.48118010215E+03  0.49934183881E+03  0.12500389939E+03 0.  0.
          5    1    3    3  502    0 -0.11990612428E+02 -0.57336137563E+02  0.29485984105E+03  0.30065864917E+03  0.47000000000E+01 0.  1.
         -5    1    3    3    0  502 -0.34673043170E+02  0.59459736197E+02  0.18632026110E+03  0.19868318965E+03  0.47000000000E+01 0.  1.
        -11    1    1    2    0    0  0.68895258482E+02  0.17147898176E+02  0.87586568586E+02  0.11274756782E+03  0.00000000000E+00 0. -1.
         11    1    1    2    0    0 -0.22231602885E+02 -0.19271496810E+02  0.16678848344E+02  0.33820389386E+02  0.00000000000E+00 0.  1.
<mgrwt>
<rscale>  0 0.12508334E+03</rscale>
<asrwt>0</asrwt>
<pdfrwt beam="1">  1        2 0.94719630E-01 0.13344655E+03</pdfrwt>
<pdfrwt beam="2">  1       -2 0.46510987E-02 0.13344655E+03</pdfrwt>
<totfact> 0.10209840E+04</totfact>
</mgrwt>
</event>
<event>
 6    1  0.8165933E-006  0.1832590E+03  0.7546771E-02  0.1191549E+00
          2   -1    0    0  501    0  0.00000000000E+00  0.00000000000E+00  0.30177989270E+04  0.30177989270E+04  0.00000000000E+00 0. -1.
         -2   -1    0    0    0  501 -0.00000000000E+00 -0.00000000000E+00 -0.24746445901E+02  0.24746445901E+02  0.00000000000E+00 0.  1.
          5    1    1    2  502    0 -0.43957587521E+02  0.92888416406E+01  0.27620613805E+04  0.27624307614E+04  0.47000000000E+01 0. -1.
         -5    1    1    2    0  502  0.12004188771E+02 -0.36915941737E+02  0.13849729455E+03  0.14391135431E+03  0.47000000000E+01 0.  1.
        -11    1    1    2    0    0  0.40383866345E+02 -0.23459570459E+02  0.32197437797E+02  0.56726388108E+02  0.00000000000E+00 0. -1.
         11    1    1    2    0    0 -0.84304675953E+01  0.51086670556E+02  0.60296368350E+02  0.79476869142E+02  0.00000000000E+00 0.  1.
<mgrwt>
<rscale>  0 0.15749925E+03</rscale>
<asrwt>0</asrwt>
<pdfrwt beam="1">  1        2 0.46427647E+00 0.18325901E+03</pdfrwt>
<pdfrwt beam="2">  1       -2 0.38071479E-02 0.18325901E+03</pdfrwt>
<totfact> 0.61661663E+02</totfact>
</mgrwt>
</event>
<event>
 7    1  0.8165933E-006  0.1823683E+03  0.7546771E-02  0.1172732E+00
          2   -1    0    0  501    0  0.00000000000E+00  0.00000000000E+00  0.87551416308E+03  0.87551416308E+03  0.00000000000E+00 0. -1.
         -2   -1    0    0    0  501 -0.00000000000E+00 -0.00000000000E+00 -0.34006370626E+02  0.34006370626E+02  0.00000000000E+00 0.  1.
         23    2    1    2    0    0 -0.35489464069E+02 -0.12796870810E+03  0.55139566673E+03  0.58077135798E+03  0.12499078625E+03 0.  0.
          5    1    3    3  502    0  0.38216156815E+02 -0.44025157688E+02  0.10106815754E+03  0.11677136472E+03  0.47000000000E+01 0.  1.
         -5    1    3    3    0  502 -0.73705620884E+02 -0.83943550413E+02  0.45032750919E+03  0.46399999325E+03  0.47000000000E+01 0.  1.
        -11    1    1    2    0    0  0.18646623003E+02  0.74533684452E+02  0.24516363600E+03  0.25692056182E+03  0.00000000000E+00 0.  1.
         11    1    1    2    0    0  0.16842841066E+02  0.53435023649E+02  0.44948489717E+02  0.71828613904E+02  0.00000000000E+00 0. -1.
<mgrwt>
<rscale>  0 0.17499943E+03</rscale>
<asrwt>0</asrwt>
<pdfrwt beam="1">  1        2 0.13469447E+00 0.18236828E+03</pdfrwt>
<pdfrwt beam="2">  1       -2 0.52317500E-02 0.18236828E+03</pdfrwt>
<totfact> 0.56634507E+03</totfact>
</mgrwt>
</event>
<event>
 7    1  0.1381462E-005  0.1738650E+03  0.7546771E-02  0.1180370E+00
         -1   -1    0    0    0  501 -0.00000000000E+00  0.00000000000E+00  0.12701634242E+03  0.12701634242E+03  0.00000000000E+00 0.  1.
          1   -1    0    0  501    0  0.00000000000E+00 -0.00000000000E+00 -0.20909479362E+03  0.20909479362E+03  0.00000000000E+00 0. -1.
         23    2    1    2    0    0 -0.24956093531E+02 -0.11824335035E+03 -0.62226308270E+02  0.18466497863E+03  0.12499897754E+03 0.  0.
          5    1    3    3  502    0  0.51849144397E+00 -0.12208772896E+03 -0.85906889330E+02  0.14935784556E+03  0.47000000000E+01 0.  1.
         -5    1    3    3    0  502 -0.25474584975E+02  0.38443786086E+01  0.23680581061E+02  0.35307133074E+02  0.47000000000E+01 0.  1.
        -11    1    1    2    0    0 -0.15154345542E+02  0.49839999383E+02 -0.44389404157E+02  0.68440477268E+02  0.00000000000E+00 0. -1.
         11    1    1    2    0    0  0.40110439073E+02  0.68403350968E+02  0.24537261225E+02  0.83005680135E+02  0.00000000000E+00 0.  1.
<mgrwt>
<rscale>  0 0.16760339E+03</rscale>
<asrwt>0</asrwt>
<pdfrwt beam="2">  1        1 0.32168430E-01 0.17386501E+03</pdfrwt>
<pdfrwt beam="1">  1       -1 0.19540976E-01 0.17386501E+03</pdfrwt>
<totfact> 0.28424614E+03</totfact>
</mgrwt>
</event>
<event>
 7    1  0.8165933E-006  0.1304694E+03  0.7546771E-02  0.1241431E+00
         -2   -1    0    0    0  501 -0.00000000000E+00  0.00000000000E+00  0.17694292987E+03  0.17694292987E+03  0.00000000000E+00 0.  1.
          2   -1    0    0  501    0  0.00000000000E+00 -0.00000000000E+00 -0.72916489927E+02  0.72916489927E+02  0.00000000000E+00 0. -1.
         23    2    1    2    0    0 -0.36417665914E+02 -0.85053435513E+01  0.64028358557E+02  0.14533374316E+03  0.12499471566E+03 0.  0.
          5    1    3    3  502    0 -0.78426474344E+02  0.42284060428E+01  0.16362172081E+02  0.80364183383E+02  0.47000000000E+01 0.  1.
         -5    1    3    3    0  502  0.42008808430E+02 -0.12733749594E+02  0.47666186475E+02  0.64969559776E+02  0.47000000000E+01 0.  1.
        -11    1    1    2    0    0  0.59585146702E+02  0.28357001088E+02  0.29217427726E+02  0.72167633335E+02  0.00000000000E+00 0.  1.
         11    1    1    2    0    0 -0.23167480788E+02 -0.19851657537E+02  0.10780653659E+02  0.32358043302E+02  0.00000000000E+00 0. -1.
<mgrwt>
<rscale>  0 0.12101581E+03</rscale>
<asrwt>0</asrwt>
<pdfrwt beam="2">  1        2 0.11217922E-01 0.13046941E+03</pdfrwt>
<pdfrwt beam="1">  1       -2 0.27221989E-01 0.13046941E+03</pdfrwt>
<totfact> 0.63971170E+03</totfact>
</mgrwt>
</event>
<event>
 7    1  0.8165933E-006  0.1337475E+03  0.7546771E-02  0.1233427E+00
         -2   -1    0    0    0  501 -0.00000000000E+00  0.00000000000E+00  0.11525664710E+03  0.11525664710E+03  0.00000000000E+00 0.  1.
          2   -1    0    0  501    0  0.00000000000E+00 -0.00000000000E+00 -0.12619069708E+03  0.12619069708E+03  0.00000000000E+00 0. -1.
         23    2    1    2    0    0  0.15623580435E+02 -0.44931057900E+02  0.89776074851E+01  0.13404844105E+03  0.12500196351E+03 0.  0.
          5    1    3    3  502    0 -0.19456468785E+02 -0.58605185199E+02 -0.38767539864E+02  0.73062535248E+02  0.47000000000E+01 0.  1.
         -5    1    3    3    0  502  0.35080049221E+02  0.13674127299E+02  0.47745147349E+02  0.60985905799E+02  0.47000000000E+01 0.  1.
        -11    1    1    2    0    0  0.30506265093E+02  0.31829723333E+02  0.16617998661E+02  0.47116041609E+02  0.00000000000E+00 0.  1.
         11    1    1    2    0    0 -0.46129845528E+02  0.13101334568E+02 -0.36529656128E+02  0.60282861518E+02  0.00000000000E+00 0. -1.
<mgrwt>
<rscale>  0 0.12605653E+03</rscale>
<asrwt>0</asrwt>
<pdfrwt beam="2">  1        2 0.19413953E-01 0.13374748E+03</pdfrwt>
<pdfrwt beam="1">  1       -2 0.17731792E-01 0.13374748E+03</pdfrwt>
<totfact> 0.70258658E+03</totfact>
</mgrwt>
</event>
<event>
 7    1  0.8165933E-006  0.3134529E+03  0.7546771E-02  0.1080152E+00
          2   -1    0    0  501    0  0.00000000000E+00  0.00000000000E+00  0.18580223199E+04  0.18580223199E+04  0.00000000000E+00 0.  1.
         -2   -1    0    0    0  501 -0.00000000000E+00 -0.00000000000E+00 -0.51940965551E+02  0.51940965551E+02  0.00000000000E+00 0. -1.
         23    2    1    2    0    0  0.11079895113E+03  0.26523967016E+03  0.10573061322E+04  0.11027914610E+04  0.12499703648E+03 0.  0.
          5    1    3    3  502    0  0.76144707420E+02  0.72852484385E+02  0.23556487794E+03  0.25810540999E+03  0.47000000000E+01 0. -1.
         -5    1    3    3    0  502  0.34654243712E+02  0.19238718577E+03  0.82174125426E+03  0.84468605103E+03  0.47000000000E+01 0. -1.
        -11    1    1    2    0    0 -0.42914770346E+02 -0.17793278352E+03  0.55060792828E+03  0.58023343893E+03  0.00000000000E+00 0.  1.
         11    1    1    2    0    0 -0.67884180786E+02 -0.87306886631E+02  0.19816729391E+03  0.22693838554E+03  0.00000000000E+00 0. -1.
<mgrwt>
<rscale>  0 0.31040383E+03</rscale>
<asrwt>0</asrwt>
<pdfrwt beam="1">  1        2 0.28584954E+00 0.31345295E+03</pdfrwt>
<pdfrwt beam="2">  1       -2 0.79909192E-02 0.31345295E+03</pdfrwt>
<totfact> 0.83234315E+02</totfact>
</mgrwt>
</event>
<event>
 6    1  0.8165933E-006  0.3318938E+03  0.7546771E-02  0.1115443E+00
         -1   -1    0    0    0  501 -0.00000000000E+00  0.00000000000E+00  0.56501759068E+03  0.56501759068E+03  0.00000000000E+00 0.  1.
          1   -1    0    0  501    0  0.00000000000E+00 -0.00000000000E+00 -0.84242997704E+02  0.84242997704E+02  0.00000000000E+00 0. -1.
          5    1    1    2  502    0 -0.61533105125E+02 -0.81739485086E+02 -0.20028975276E+02  0.10435955298E+03  0.47000000000E+01 0. -1.
         -5    1    1    2    0  502  0.60961066990E+02  0.73603083980E+02  0.35312776921E+03  0.36586196448E+03  0.47000000000E+01 0.  1.
        -11    1    1    2    0    0 -0.28605926333E+02  0.29978839494E+02  0.19526494559E+02  0.45807355616E+02  0.00000000000E+00 0.  1.
         11    1    1    2    0    0  0.29177964468E+02 -0.21842438389E+02  0.12814930448E+03  0.13323171530E+03  0.00000000000E+00 0. -1.
<mgrwt>
<rscale>  0 0.24664545E+03</rscale>
<asrwt>0</asrwt>
<pdfrwt beam="2">  1        1 0.12960462E-01 0.33189376E+03</pdfrwt>
<pdfrwt beam="1">  1       -1 0.86925781E-01 0.33189376E+03</pdfrwt>
<totfact> 0.62041544E+02</totfact>
</mgrwt>
</event>
<event>
 7    1  0.8165933E-006  0.1374453E+03  0.7546771E-02  0.1229808E+00
          1   -1    0    0  501    0  0.00000000000E+00  0.00000000000E+00  0.16263358667E+03  0.16263358667E+03  0.00000000000E+00 0. -1.
         -1   -1    0    0    0  501 -0.00000000000E+00 -0.00000000000E+00 -0.10634726600E+03  0.10634726600E+03  0.00000000000E+00 0.  1.
         23    2    1    2    0    0 -0.69012369143E+01 -0.56736292566E+02  0.83384726497E+02  0.16076139485E+03  0.12499831797E+03 0.  0.
          5    1    3    3  502    0 -0.55230297369E+02 -0.57456690725E+02  0.78482812725E+02  0.11195221726E+03  0.47000000000E+01 0. -1.
         -5    1    3    3    0  502  0.48329060454E+02  0.72039815859E+00  0.49019137720E+01  0.48809177585E+02  0.47000000000E+01 0. -1.
        -11    1    1    2    0    0 -0.21063118100E+02  0.22549943304E+02  0.25147481469E+02  0.39806415454E+02  0.00000000000E+00 0. -1.
         11    1    1    2    0    0  0.27964355014E+02  0.34186349262E+02 -0.52245887297E+02  0.68413042373E+02  0.00000000000E+00 0.  1.
<mgrwt>
<rscale>  0 0.12842765E+03</rscale>
<asrwt>0</asrwt>
<pdfrwt beam="1">  1        1 0.25020552E-01 0.13744531E+03</pdfrwt>
<pdfrwt beam="2">  1       -1 0.16361118E-01 0.13744531E+03</pdfrwt>
<totfact> 0.51067293E+03</totfact>
</mgrwt>
</event>
