<event>
 7    1  0.1226955E-005  0.8401364E+02  0.7561462E-02  0.1318032E+00
          1   -1    0    0  501    0  0.00000000000E+00  0.00000000000E+00  0.12207687690E+03  0.12207687690E+03  0.00000000000E+00 0. -1.
         -1   -1    0    0    0  501 -0.00000000000E+00 -0.00000000000E+00 -0.13068417909E+03  0.13068417909E+03  0.00000000000E+00 0.  1.
         23    2    1    2    0    0  0.40764838002E+02  0.31776602766E+02 -0.37704280868E+02  0.14048778592E+03  0.12507470046E+03 0.  0.
          5    1    3    3  502    0 -0.27536335926E+02  0.38184761100E+02 -0.52020049885E+02  0.70284306688E+02  0.41800000000E+01 0. -1.
         -5    1    3    3    0  502  0.68301173928E+02 -0.64081583347E+01  0.14315769016E+02  0.70203479228E+02  0.41800000000E+01 0. -1.
        -11    1    1    2    0    0 -0.30492318359E+02 -0.20290643238E+02 -0.32384474798E+02  0.48890141029E+02  0.00000000000E+00 0.  1.
         11    1    1    2    0    0 -0.10272519643E+02 -0.11485959528E+02  0.61481453477E+02  0.63383129047E+02  0.00000000000E+00 0. -1.
</event>
<event>
 7    1  0.1226955E-005  0.1654176E+03  0.7561462E-02  0.1182713E+00
          2   -1    0    0  501    0  0.00000000000E+00  0.00000000000E+00  0.68478881376E+03  0.68478881376E+03  0.00000000000E+00 0.  1.
         -2   -1    0    0    0  501 -0.00000000000E+00 -0.00000000000E+00 -0.57815255325E+02  0.57815255325E+02  0.00000000000E+00 0. -1.
         23    2    1    2    0    0 -0.60959568851E+02 -0.12257183643E+03  0.15049841008E+03  0.23882428604E+03  0.12508934426E+03 0.  0.
          5    1    3    3  502    0 -0.79038413775E+02 -0.13313321741E+03  0.15252523799E+03  0.21737742535E+03  0.41800000000E+01 0. -1.
         -5    1    3    3    0  502  0.18078844924E+02  0.10561380984E+02 -0.20268279074E+01  0.21446860689E+02  0.41800000000E+01 0. -1.
        -11    1    1    2    0    0  0.16602173725E+02  0.10593150252E+03  0.24390678241E+03  0.26643504631E+03  0.00000000000E+00 0. -1.
         11    1    1    2    0    0  0.44357395126E+02  0.16640333906E+02  0.23256836595E+03  0.23734473673E+03  0.00000000000E+00 0.  1.
</event>
<event>
 6    1  0.1226955E-005  0.9960383E+02  0.7561462E-02  0.1281131E+00
          1   -1    0    0  501    0  0.00000000000E+00  0.00000000000E+00  0.12414582257E+03  0.12414582257E+03  0.00000000000E+00 0. -1.
         -1   -1    0    0    0  501 -0.00000000000E+00 -0.00000000000E+00 -0.28992960088E+03  0.28992960088E+03  0.00000000000E+00 0.  1.
          5    1    1    2  502    0 -0.19617303842E+02  0.27649988487E+02 -0.21658920098E+03  0.21926631035E+03  0.41800000000E+01 0. -1.
         -5    1    1    2    0  502 -0.92214137610E+01 -0.61742383023E+02 -0.24933893133E+02  0.67352266182E+02  0.41800000000E+01 0.  1.
        -11    1    1    2    0    0  0.59898466634E+02  0.38361932379E+02  0.53997721988E+02  0.89304076843E+02  0.00000000000E+00 0.  1.
         11    1    1    2    0    0 -0.31059749031E+02 -0.42695378427E+01  0.21741593816E+02  0.38152770082E+02  0.00000000000E+00 0. -1.
</event>
<event>
 7    1  0.1226955E-005  0.1203697E+03  0.7561462E-02  0.1242488E+00
         -2   -1    0    0    0  501 -0.00000000000E+00  0.00000000000E+00  0.32860396746E+02  0.32860396746E+02  0.00000000000E+00 0. -1.
          2   -1    0    0  501    0  0.00000000000E+00 -0.00000000000E+00 -0.62088691218E+03  0.62088691218E+03  0.00000000000E+00 0.  1.
         23    2    1    2    0    0 -0.92759910778E+02  0.90127059707E+00 -0.29315987885E+03  0.33195735332E+03  0.12509099295E+03 0.  0.
          5    1    3    3  502    0 -0.92195811467E+02  0.29639621673E+02 -0.28608668898E+03  0.30206231283E+03  0.41800000000E+01 0. -1.
         -5    1    3    3    0  502 -0.56409931123E+00 -0.28738351076E+02 -0.70731898737E+01  0.29895040485E+02  0.41800000000E+01 0. -1.
        -11    1    1    2    0    0  0.56429115060E+02 -0.33774406604E+02 -0.91985587039E+02  0.11307653952E+03  0.00000000000E+00 0. -1.
         11    1    1    2    0    0  0.36330795719E+02  0.32873136007E+02 -0.20288104955E+03  0.20871341609E+03  0.00000000000E+00 0.  1.
</event>
<event>
 7    1  0.1226955E-005  0.1660177E+03  0.7561462E-02  0.1182066E+00
         -1   -1    0    0    0  501 -0.00000000000E+00  0.00000000000E+00  0.13334366777E+03  0.13334366777E+03  0.00000000000E+00 0.  1.
          1   -1    0    0  501    0  0.00000000000E+00 -0.00000000000E+00 -0.29803829793E+03  0.29803829793E+03  0.00000000000E+00 0. -1.
         23    2    1    2    0    0 -0.20399800638E+02 -0.15483226528E+03 -0.32095779591E+02  0.20265116831E+03  0.12509266450E+03 0.  0.
          5    1    3    3  502    0  0.16332749627E+02 -0.12943388591E+03 -0.66152338543E+02  0.14633350206E+03  0.41800000000E+01 0.  1.
         -5    1    3    3    0  502 -0.36732550266E+02 -0.25398379378E+02  0.34056558953E+02  0.56317666249E+02  0.41800000000E+01 0.  1.
        -11    1    1    2    0    0  0.27201020287E+01  0.67289392584E+02 -0.12125730416E+03  0.13870326284E+03  0.00000000000E+00 0. -1.
         11    1    1    2    0    0  0.17679698610E+02  0.87542872698E+02 -0.11341546408E+02  0.90027534556E+02  0.00000000000E+00 0.  1.
</event>
<event>
 7    1  0.1226955E-005  0.1014559E+03  0.7561462E-02  0.1277264E+00
         -1   -1    0    0    0  501 -0.00000000000E+00  0.00000000000E+00  0.24821405596E+02  0.24821405596E+02  0.00000000000E+00 0.  1.
          1   -1    0    0  501    0  0.00000000000E+00 -0.00000000000E+00 -0.81278552445E+03  0.81278552445E+03  0.00000000000E+00 0. -1.
         23    2    1    2    0    0  0.70450254245E+02  0.53344638171E+02 -0.35822481778E+03  0.38958869174E+03  0.12508173293E+03 0.  0.
          5    1    3    3  502    0  0.51840961663E+02  0.59428177254E+02 -0.86501515555E+02  0.11712889546E+03  0.41800000000E+01 0.  1.
         -5    1    3    3    0  502  0.18609292582E+02 -0.60835390833E+01 -0.27172330223E+03  0.27245979628E+03  0.41800000000E+01 0.  1.
        -11    1    1    2    0    0 -0.28484064893E+02 -0.54981184589E+02 -0.36908357044E+03  0.37424183970E+03  0.00000000000E+00 0. -1.
         11    1    1    2    0    0 -0.41966189353E+02  0.16365464179E+01 -0.60655730638E+02  0.73776398612E+02  0.00000000000E+00 0.  1.
</event>
<event>
 7    1  0.1226955E-005  0.1725553E+03  0.7561462E-02  0.1175209E+00
         -2   -1    0    0    0  501 -0.00000000000E+00  0.00000000000E+00  0.16344492855E+03  0.16344492855E+03  0.00000000000E+00 0.  1.
          2   -1    0    0  501    0  0.00000000000E+00 -0.00000000000E+00 -0.24378203878E+03  0.24378203878E+03  0.00000000000E+00 0. -1.
         23    2    1    2    0    0 -0.12117469322E+03  0.66416272768E+02  0.50209169889E+02  0.19303794100E+03  0.12509299884E+03 0.  0.
          5    1    3    3  502    0 -0.64980580664E+02 -0.29801442129E+02  0.22178281193E+01  0.71644908946E+02  0.41800000000E+01 0. -1.
         -5    1    3    3    0  502 -0.56194112557E+02  0.96217714897E+02  0.47991341770E+02  0.12139303205E+03  0.41800000000E+01 0. -1.
        -11    1    1    2    0    0  0.92199960360E+02 -0.86752568232E+02 -0.12580082013E+03  0.17847321124E+03  0.00000000000E+00 0. -1.
         11    1    1    2    0    0  0.28974732861E+02  0.20336295464E+02 -0.47454599881E+01  0.35715815097E+02  0.00000000000E+00 0.  1.
</event>
<event>
 7    1  0.1226955E-005  0.8261645E+02  0.7561462E-02  0.1321786E+00
         -3   -1    0    0    0  501 -0.00000000000E+00  0.00000000000E+00  0.14833670194E+03  0.14833670194E+03  0.00000000000E+00 0.  1.
          3   -1    0    0  501    0  0.00000000000E+00 -0.00000000000E+00 -0.10909556616E+03  0.10909556616E+03  0.00000000000E+00 0. -1.
         23    2    1    2    0    0 -0.14688934120E+02  0.17468047579E+02  0.86442006393E+02  0.15375401784E+03  0.12508868878E+03 0.  0.
          5    1    3    3  502    0 -0.37106629182E+02 -0.43229493112E+02  0.19006313136E+02  0.60203017723E+02  0.41800000000E+01 0.  1.
         -5    1    3    3    0  502  0.22417695062E+02  0.60697540691E+02  0.67435693257E+02  0.93551000117E+02  0.41800000000E+01 0.  1.
        -11    1    1    2    0    0 -0.11043466693E+02  0.17111782045E+01  0.23506764727E+02  0.26027951809E+02  0.00000000000E+00 0.  1.
         11    1    1    2    0    0  0.25732400812E+02 -0.19179225783E+02 -0.70707635346E+02  0.77650298451E+02  0.00000000000E+00 0. -1.
</event>
<event>
 7    1  0.1226955E-005  0.7741891E+02  0.7561462E-02  0.1336540E+00
          3   -1    0    0  501    0  0.00000000000E+00  0.00000000000E+00  0.11552283853E+03  0.11552283853E+03  0.00000000000E+00 0. -1.
         -3   -1    0    0    0  501 -0.00000000000E+00 -0.00000000000E+00 -0.15710463487E+03  0.15710463487E+03  0.00000000000E+00 0.  1.
         23    2    1    2    0    0 -0.34413729614E+02 -0.64213183957E+02 -0.47720365069E+02  0.15241189257E+03  0.12507803155E+03 0.  0.
          5    1    3    3  502    0 -0.34616852814E+00 -0.12057656728E+02  0.41553921867E+02  0.43470768810E+02  0.41800000000E+01 0. -1.
         -5    1    3    3    0  502 -0.34067561086E+02 -0.52155527230E+02 -0.89274286937E+02  0.10894112376E+03  0.41800000000E+01 0. -1.
        -11    1    1    2    0    0 -0.16359468092E+01  0.29644683477E+02 -0.41611081757E+02  0.51117176227E+02  0.00000000000E+00 0.  1.
         11    1    1    2    0    0  0.36049676423E+02  0.34568500480E+02  0.47749650492E+02  0.69098404597E+02  0.00000000000E+00 0. -1.
</event>
<event>
 7    1  0.1226955E-005  0.6177427E+02  0.7561462E-02  0.1390533E+00
         -1   -1    0    0    0  501 -0.00000000000E+00  0.00000000000E+00  0.59015959886E+02  0.59015959886E+02  0.00000000000E+00 0.  1.
          1   -1    0    0  501    0  0.00000000000E+00 -0.00000000000E+00 -0.25101362920E+03  0.25101362920E+03  0.00000000000E+00 0. -1.
         23    2    1    2    0    0  0.31925958819E+02  0.36261746145E+02 -0.76008241478E+02  0.15413852764E+03  0.12508897573E+03 0.  0.
          5    1    3    3  502    0  0.30378286109E+02  0.18917357616E+02  0.29842195533E+02  0.46783925876E+02  0.41800000000E+01 0. -1.
         -5    1    3    3    0  502  0.15476727106E+01  0.17344388529E+02 -0.10585043701E+03  0.10735460176E+03  0.41800000000E+01 0. -1.
        -11    1    1    2    0    0 -0.30405930459E+02  0.27857116373E+01 -0.11260107520E+03  0.11666740304E+03  0.00000000000E+00 0. -1.
         11    1    1    2    0    0 -0.15200283608E+01 -0.39047457783E+02 -0.33883526418E+01  0.39223658411E+02  0.00000000000E+00 0.  1.
</event>
<event>
 7    1  0.1226955E-005  0.1158253E+03  0.7561462E-02  0.1250147E+00
         -1   -1    0    0    0  501 -0.00000000000E+00  0.00000000000E+00  0.50490020265E+02  0.50490020265E+02  0.00000000000E+00 0.  1.
          1   -1    0    0  501    0  0.00000000000E+00 -0.00000000000E+00 -0.48953325822E+03  0.48953325822E+03  0.00000000000E+00 0. -1.
         23    2    1    2    0    0  0.56955039201E+02  0.59221739982E+01 -0.68612903020E+02  0.15373459014E+03  0.12509054764E+03 0.  0.
          5    1    3    3  502    0 -0.30799513755E+01  0.57393413169E+02 -0.36911166147E+02  0.68435345853E+02  0.41800000000E+01 0. -1.
         -5    1    3    3    0  502  0.60034990577E+02 -0.51471239171E+02 -0.31701736873E+02  0.85299244288E+02  0.41800000000E+01 0. -1.
        -11    1    1    2    0    0  0.10267810029E+02 -0.23247227387E+02 -0.32266150238E+02  0.41072691112E+02  0.00000000000E+00 0.  1.
         11    1    1    2    0    0 -0.67222849230E+02  0.17325053389E+02 -0.33816418470E+03  0.34521599723E+03  0.00000000000E+00 0. -1.
</event>
<event>
 7    1  0.1226955E-005  0.1732654E+03  0.7561462E-02  0.1174485E+00
          2   -1    0    0  501    0  0.00000000000E+00  0.00000000000E+00  0.47373355450E+03  0.47373355450E+03  0.00000000000E+00 0. -1.
         -2   -1    0    0    0  501 -0.00000000000E+00 -0.00000000000E+00 -0.10007279587E+03  0.10007279587E+03  0.00000000000E+00 0.  1.
         23    2    1    2    0    0  0.11674247959E+03 -0.82483560157E+02  0.32933553585E+02  0.19278093929E+03  0.12509007701E+03 0.  0.
          5    1    3    3  502    0  0.54071477682E+02  0.27951454875E+02 -0.19106214148E+01  0.61042046186E+02  0.41800000000E+01 0. -1.
         -5    1    3    3    0  502  0.62671001907E+02 -0.11043501503E+03  0.34844175000E+02  0.13173889311E+03  0.41800000000E+01 0. -1.
        -11    1    1    2    0    0 -0.40664189033E+02  0.70595727152E+02  0.24489174579E+03  0.25808777599E+03  0.00000000000E+00 0.  1.
         11    1    1    2    0    0 -0.76078290556E+02  0.11887833005E+02  0.95835459258E+02  0.12293763508E+03  0.00000000000E+00 0. -1.
</event>
<event>
 7    1  0.1226955E-005  0.1587167E+03  0.7561462E-02  0.1190153E+00
          2   -1    0    0  501    0  0.00000000000E+00  0.00000000000E+00  0.70232385856E+03  0.70232385856E+03  0.00000000000E+00 0. -1.
         -2   -1    0    0    0  501 -0.00000000000E+00 -0.00000000000E+00 -0.43497015404E+02  0.43497015404E+02  0.00000000000E+00 0.  1.
         23    2    1    2    0    0 -0.95026705014E+02 -0.93629338039E+02  0.28344025692E+03  0.33731417828E+03  0.12508376401E+03 0.  0.
          5    1    3    3  502    0 -0.87565624190E+02 -0.30480317545E+02  0.24709840276E+03  0.26395431677E+03  0.41800000000E+01 0. -1.
         -5    1    3    3    0  502 -0.74610808235E+01 -0.63149020495E+02  0.36341854164E+02  0.73359861509E+02  0.41800000000E+01 0. -1.
        -11    1    1    2    0    0 -0.15348522895E+02  0.29468632314E+02  0.68917312026E+02  0.76508648808E+02  0.00000000000E+00 0. -1.
         11    1    1    2    0    0  0.11037522791E+03  0.64160705725E+02  0.30646927420E+03  0.33199804687E+03  0.00000000000E+00 0.  1.
</event>
<event>
 7    1  0.1226955E-005  0.1104225E+03  0.7561462E-02  0.1259790E+00
         -1   -1    0    0    0  501 -0.00000000000E+00  0.00000000000E+00  0.21908566220E+02  0.21908566220E+02  0.00000000000E+00 0. -1.
          1   -1    0    0  501    0  0.00000000000E+00 -0.00000000000E+00 -0.64855453048E+03  0.64855453048E+03  0.00000000000E+00 0.  1.
         23    2    1    2    0    0 -0.34551078528E+02  0.50400465515E+01 -0.42499319859E+03  0.44439335618E+03  0.12508819717E+03 0.  0.
          5    1    3    3  502    0  0.31262741176E+02 -0.33521299197E+02 -0.93543989139E+02  0.10425443295E+03  0.41800000000E+01 0. -1.
         -5    1    3    3    0  502 -0.65813819704E+02  0.38561345748E+02 -0.33144920946E+03  0.34013892323E+03  0.41800000000E+01 0. -1.
        -11    1    1    2    0    0 -0.31115957905E+02  0.64030981215E+01 -0.96264984503E+02  0.10137134577E+03  0.00000000000E+00 0.  1.
         11    1    1    2    0    0  0.65667036433E+02 -0.11443144673E+02 -0.10538778117E+03  0.12469839475E+03  0.00000000000E+00 0. -1.
</event>
<event>
 7    1  0.1226955E-005  0.7645647E+02  0.7561462E-02  0.1339419E+00
          1   -1    0    0  501    0  0.00000000000E+00  0.00000000000E+00  0.28443677245E+03  0.28443677245E+03  0.00000000000E+00 0. -1.
         -1   -1    0    0    0  501 -0.00000000000E+00 -0.00000000000E+00 -0.75283931728E+02  0.75283931728E+02  0.00000000000E+00 0.  1.
         23    2    1    2    0    0  0.46215905371E+02  0.13584042403E+01  0.54420817205E+01  0.13347042147E+03  0.12508789703E+03 0.  0.
          5    1    3    3  502    0  0.74846990487E+01  0.32404480879E+02 -0.49198016597E+02  0.59531406316E+02  0.41800000000E+01 0. -1.
         -5    1    3    3    0  502  0.38731206323E+02 -0.31046076639E+02  0.54640098318E+02  0.73939015155E+02  0.41800000000E+01 0. -1.
        -11    1    1    2    0    0 -0.40523047108E+02 -0.23414113088E+02  0.19703014857E+03  0.20251226502E+03  0.00000000000E+00 0. -1.
         11    1    1    2    0    0 -0.56928582635E+01  0.22055708848E+02  0.66806104331E+01  0.23738017688E+02  0.00000000000E+00 0.  1.
</event>
<event>
 7    1  0.1226955E-005  0.9497977E+02  0.7561462E-02  0.1291222E+00
         -3   -1    0    0    0  501 -0.00000000000E+00  0.00000000000E+00  0.57435806853E+02  0.57435806853E+02  0.00000000000E+00 0.  1.
          3   -1    0    0  501    0  0.00000000000E+00 -0.00000000000E+00 -0.28485427273E+03  0.28485427273E+03  0.00000000000E+00 0. -1.
         23    2    1    2    0    0  0.34373871704E+02 -0.55923457432E+02 -0.10067755130E+03  0.17347134395E+03  0.12508933484E+03 0.  0.
          5    1    3    3  502    0  0.58547066730E+02 -0.62120237225E+02 -0.11585406842E+03  0.14396638658E+03  0.41800000000E+01 0. -1.
         -5    1    3    3    0  502 -0.24173195026E+02  0.61967797929E+01  0.15176517121E+02  0.29504957372E+02  0.41800000000E+01 0. -1.
        -11    1    1    2    0    0  0.52617228253E+01  0.32976721204E+02  0.69689255000E+00  0.33401130635E+02  0.00000000000E+00 0.  1.
         11    1    1    2    0    0 -0.39635594529E+02  0.22946736228E+02 -0.12743780713E+03  0.13541760500E+03  0.00000000000E+00 0. -1.
</event>
<event>
 7    1  0.1226955E-005  0.1159512E+03  0.7561462E-02  0.1249930E+00
          1   -1    0    0  501    0  0.00000000000E+00  0.00000000000E+00  0.27374958289E+02  0.27374958289E+02  0.00000000000E+00 0. -1.
         -1   -1    0    0    0  501 -0.00000000000E+00 -0.00000000000E+00 -0.12288481548E+04  0.12288481548E+04  0.00000000000E+00 0.  1.
         23    2    1    2    0    0  0.57029597456E+01  0.67730495991E+02 -0.10666946172E+04  0.10761526070E+04  0.12508830144E+03 0.  0.
          5    1    3    3  502    0 -0.39941941243E+02  0.66455179123E+02 -0.37579126414E+03  0.38372932662E+03  0.41800000000E+01 0. -1.
         -5    1    3    3    0  502  0.45644900989E+02  0.12753168679E+01 -0.69090335310E+03  0.69242328034E+03  0.41800000000E+01 0. -1.
        -11    1    1    2    0    0 -0.39900268726E+02 -0.97291710359E+01 -0.90778825656E+02  0.99636757278E+02  0.00000000000E+00 0. -1.
         11    1    1    2    0    0  0.34197308980E+02 -0.58001324955E+02 -0.43999753617E+02  0.80433748865E+02  0.00000000000E+00 0.  1.
</event>
<event>
 7    1  0.1226955E-005  0.7649329E+02  0.7561462E-02  0.1339308E+00
         -1   -1    0    0    0  501 -0.00000000000E+00  0.00000000000E+00  0.76000542815E+02  0.76000542815E+02  0.00000000000E+00 0. -1.
          1   -1    0    0  501    0  0.00000000000E+00 -0.00000000000E+00 -0.18418880127E+03  0.18418880127E+03  0.00000000000E+00 0.  1.
         23    2    1    2    0    0  0.10010484992E+02 -0.39778416892E+02 -0.37578925479E+02  0.13690385193E+03  0.12509179338E+03 0.  0.
          5    1    3    3  502    0 -0.42797480797E+02 -0.34656912363E+02  0.19774439855E+02  0.58661970720E+02  0.41800000000E+01 0. -1.
         -5    1    3    3    0  502  0.52807965790E+02 -0.51215045291E+01 -0.57353365334E+02  0.78241881206E+02  0.41800000000E+01 0. -1.
        -11    1    1    2    0    0 -0.77729854287E+00  0.33180323555E+02 -0.92693465102E+02  0.98456165560E+02  0.00000000000E+00 0.  1.
         11    1    1    2    0    0 -0.92331864495E+01  0.65980933373E+01  0.22084132125E+02  0.24829326600E+02  0.00000000000E+00 0. -1.
</event>
<event>
 7    1  0.1226955E-005  0.1117454E+03  0.7561462E-02  0.1257371E+00
         -1   -1    0    0    0  501 -0.00000000000E+00  0.00000000000E+00  0.18216163621E+03  0.18216163621E+03  0.00000000000E+00 0.  1.
          1   -1    0    0  501    0  0.00000000000E+00 -0.00000000000E+00 -0.11543128752E+03  0.11543128752E+03  0.00000000000E+00 0. -1.
         23    2    1    2    0    0  0.47464068520E+01  0.87885798010E+02  0.63534478986E+02  0.16562313994E+03  0.12509177669E+03 0.  0.
          5    1    3    3  502    0  0.52798650686E+02  0.33070649992E+02 -0.85462650933E+01  0.63022824851E+02  0.41800000000E+01 0.  1.
         -5    1    3    3    0  502 -0.48052243834E+02  0.54815148018E+02  0.72080744080E+02  0.10260031509E+03  0.41800000000E+01 0.  1.
        -11    1    1    2    0    0 -0.25778295058E+01 -0.63735286465E+02  0.48804391478E+02  0.80316253481E+02  0.00000000000E+00 0.  1.
         11    1    1    2    0    0 -0.21685773462E+01 -0.24150511545E+02 -0.45608521769E+02  0.51653530310E+02  0.00000000000E+00 0. -1.
</event>
<event>
 7    1  0.1226955E-005  0.1509674E+03  0.7561462E-02  0.1199289E+00
          1   -1    0    0  501    0  0.00000000000E+00  0.00000000000E+00  0.75613840911E+03  0.75613840911E+03  0.00000000000E+00 0. -1.
         -1   -1    0    0    0  501 -0.00000000000E+00 -0.00000000000E+00 -0.32262645487E+02  0.32262645487E+02  0.00000000000E+00 0.  1.
         23    2    1    2    0    0 -0.45520452193E+02  0.96986046885E+02  0.29791489233E+03  0.34040982948E+03  0.12508862490E+03 0.  0.
          5    1    3    3  502    0 -0.88166921778E+02  0.77400529051E+02  0.21980607682E+03  0.24919155644E+03  0.41800000000E+01 0.  1.
         -5    1    3    3    0  502  0.42646469585E+02  0.19585517835E+02  0.78108815507E+02  0.91218273042E+02  0.41800000000E+01 0.  1.
        -11    1    1    2    0    0  0.51921451242E+02 -0.13438722506E+02  0.19735767477E+03  0.20451525164E+03  0.00000000000E+00 0.  1.
         11    1    1    2    0    0 -0.64009990482E+01 -0.83547324379E+02  0.22860319653E+03  0.24347597348E+03  0.00000000000E+00 0. -1.
</event>
<event>
 7    1  0.1226955E-005  0.9267733E+02  0.7561462E-02  0.1296495E+00
         -1   -1    0    0    0  501 -0.00000000000E+00  0.00000000000E+00  0.31450167912E+03  0.31450167912E+03  0.00000000000E+00 0.  1.
          1   -1    0    0  501    0  0.00000000000E+00 -0.00000000000E+00 -0.49108798880E+03  0.49108798880E+03  0.00000000000E+00 0. -1.
         23    2    1    2    0    0  0.10899635737E+02 -0.71819820113E+02  0.29216326916E+03  0.32250627153E+03  0.11564614437E+03 0.  0.
          5    1    3    3  502    0 -0.16771427668E+02 -0.51301354751E+02  0.38375441449E+02  0.66357039504E+02  0.41800000000E+01 0. -1.
         -5    1    3    3    0  502  0.27671063406E+02 -0.20518465362E+02  0.25378782771E+03  0.25614923202E+03  0.41800000000E+01 0.  1.
        -11    1    1    2    0    0 -0.18752112735E+02 -0.49130763562E+01 -0.20377877203E+02  0.28125396541E+02  0.00000000000E+00 0.  1.
         11    1    1    2    0    0  0.78524769972E+01  0.76732896469E+02 -0.44837170164E+03  0.45495799985E+03  0.00000000000E+00 0. -1.
</event>
<event>
 7    1  0.1226955E-005  0.9974115E+02  0.7561462E-02  0.1280841E+00
         -3   -1    0    0    0  501 -0.00000000000E+00  0.00000000000E+00  0.13555424373E+03  0.13555424373E+03  0.00000000000E+00 0.  1.
          3   -1    0    0  501    0  0.00000000000E+00 -0.00000000000E+00 -0.90011476033E+02  0.90011476033E+02  0.00000000000E+00 0. -1.
         23    2    1    2    0    0 -0.48944392423E+01 -0.11405492347E+02  0.45212808829E+02  0.13358718405E+03  0.12508915568E+03 0.  0.
          5    1    3    3  502    0 -0.40229166667E+02 -0.44632419598E+02  0.57612980590E+02  0.83349665041E+02  0.41800000000E+01 0. -1.
         -5    1    3    3    0  502  0.35334727425E+02  0.33226927251E+02 -0.12400171761E+02  0.50237519012E+02  0.41800000000E+01 0. -1.
        -11    1    1    2    0    0  0.44920595037E+02  0.20723769189E+02  0.81706885397E+01  0.50140748091E+02  0.00000000000E+00 0.  1.
         11    1    1    2    0    0 -0.40026155795E+02 -0.93182768415E+01 -0.78407296731E+01  0.41837787619E+02  0.00000000000E+00 0. -1.
</event>
<event>
 7    1  0.1226955E-005  0.9724760E+02  0.7561462E-02  0.1286193E+00
         -1   -1    0    0    0  501 -0.00000000000E+00  0.00000000000E+00  0.94978897397E+02  0.94978897397E+02  0.00000000000E+00 0.  1.
          1   -1    0    0  501    0  0.00000000000E+00 -0.00000000000E+00 -0.14907441822E+03  0.14907441822E+03  0.00000000000E+00 0. -1.
         23    2    1    2    0    0  0.13747686834E+02 -0.30104359564E+02 -0.61835274053E+02  0.14340952117E+03  0.12508964101E+03 0.  0.
          5    1    3    3  502    0 -0.45177011861E+02 -0.26284248311E+02  0.66870891671E+01  0.52858430468E+02  0.41800000000E+01 0.  1.
         -5    1    3    3    0  502  0.58924698695E+02 -0.38201112529E+01 -0.68522363220E+02  0.90551090703E+02  0.41800000000E+01 0.  1.
        -11    1    1    2    0    0 -0.45087124340E+02  0.23475241329E+02 -0.23408753106E+02  0.55963429654E+02  0.00000000000E+00 0. -1.
         11    1    1    2    0    0  0.31339437506E+02  0.66291182345E+01  0.31148506331E+02  0.44680364797E+02  0.00000000000E+00 0.  1.
</event>
<event>
 6    1  0.1226955E-005  0.1103403E+03  0.7561462E-02  0.1259941E+00
          2   -1    0    0  501    0  0.00000000000E+00  0.00000000000E+00  0.11136136712E+04  0.11136136712E+04  0.00000000000E+00 0. -1.
         -2   -1    0    0    0  501 -0.00000000000E+00 -0.00000000000E+00 -0.23688022334E+02  0.23688022334E+02  0.00000000000E+00 0.  1.
          5    1    1    2  502    0  0.35910506939E+02 -0.29038583459E+02  0.60339264948E+03  0.60517184806E+03  0.41800000000E+01 0. -1.
         -5    1    1    2    0  502 -0.65909810893E+02 -0.60805223340E+01  0.51714504122E+02  0.84100762544E+02  0.41800000000E+01 0.  1.
        -11    1    1    2    0    0  0.21117107011E+02  0.69417397827E+02  0.28974904931E+03  0.29869586355E+03  0.00000000000E+00 0.  1.
         11    1    1    2    0    0  0.88821969429E+01 -0.34298292033E+02  0.14506944595E+03  0.14933321937E+03  0.00000000000E+00 0. -1.
</event>
<event>
 7    1  0.1226955E-005  0.1991309E+03  0.7561462E-02  0.1150474E+00
         -1   -1    0    0    0  501 -0.00000000000E+00  0.00000000000E+00  0.57854481367E+03  0.57854481367E+03  0.00000000000E+00 0.  1.
          1   -1    0    0  501    0  0.00000000000E+00 -0.00000000000E+00 -0.77545998579E+02  0.77545998579E+02  0.00000000000E+00 0. -1.
         23    2    1    2    0    0 -0.17948392028E+03 -0.24026242576E+01  0.30180989875E+03  0.37277242637E+03  0.12509922715E+03 0.  0.
          5    1    3    3  502    0 -0.10500318066E+03  0.59943207231E+02  0.15363973479E+03  0.19555433145E+03  0.41800000000E+01 0. -1.
         -5    1    3    3    0  502 -0.74480739625E+02 -0.62345831488E+02  0.14817016396E+03  0.17721809492E+03  0.41800000000E+01 0. -1.
        -11    1    1    2    0    0  0.12653554558E+03  0.81697660967E+01  0.19125385236E+03  0.22946900753E+03  0.00000000000E+00 0.  1.
         11    1    1    2    0    0  0.52948374705E+02 -0.57671418390E+01  0.79350639772E+01  0.53849378355E+02  0.00000000000E+00 0. -1.
</event>
<event>
 7    1  0.1226955E-005  0.1253285E+03  0.7561462E-02  0.1234557E+00
         -1   -1    0    0    0  501 -0.00000000000E+00  0.00000000000E+00  0.34346940682E+03  0.34346940682E+03  0.00000000000E+00 0.  1.
          1   -1    0    0  501    0  0.00000000000E+00 -0.00000000000E+00 -0.62818843933E+02  0.62818843933E+02  0.00000000000E+00 0. -1.
         23    2    1    2    0    0  0.48363686226E+02 -0.79072454127E+02  0.19836471895E+03  0.25216671279E+03  0.12509192687E+03 0.  0.
          5    1    3    3  502    0 -0.38500909534E+02 -0.51051045130E+02  0.74875208811E+02  0.98550994608E+02  0.41800000000E+01 0.  1.
         -5    1    3    3    0  502  0.86864595760E+02 -0.28021408997E+02  0.12348951014E+03  0.15361571818E+03  0.41800000000E+01 0.  1.
        -11    1    1    2    0    0 -0.15058594607E-01  0.14718252805E+02  0.71394073794E+02  0.72895411141E+02  0.00000000000E+00 0.  1.
         11    1    1    2    0    0 -0.48348627632E+02  0.64354201321E+02  0.10891770143E+02  0.81226126822E+02  0.00000000000E+00 0. -1.
</event>
<event>
 7    1  0.1226955E-005  0.1808693E+03  0.7561462E-02  0.1166964E+00
         -1   -1    0    0    0  501 -0.00000000000E+00  0.00000000000E+00  0.33566478007E+03  0.33566478007E+03  0.00000000000E+00 0.  1.
          1   -1    0    0  501    0  0.00000000000E+00 -0.00000000000E+00 -0.13048986142E+03  0.13048986142E+03  0.00000000000E+00 0. -1.
         23    2    1    2    0    0 -0.13096340887E+03  0.11470693092E+03  0.15419010318E+03  0.26406754894E+03  0.12509191828E+03 0.  0.
          5    1    3    3  502    0 -0.28299539235E+02  0.21185796194E+02  0.11400845784E+03  0.11943660553E+03  0.41800000000E+01 0. -1.
         -5    1    3    3    0  502 -0.10266386963E+03  0.93521134730E+02  0.40181645344E+02  0.14463094341E+03  0.41800000000E+01 0. -1.
        -11    1    1    2    0    0  0.73740499512E+02 -0.19752620844E+02 -0.75616046709E+01  0.76713787312E+02  0.00000000000E+00 0. -1.
         11    1    1    2    0    0  0.57222909356E+02 -0.94954310080E+02  0.58546420139E+02  0.12537330525E+03  0.00000000000E+00 0.  1.
</event>
<event>
 7    1  0.1226955E-005  0.1839495E+03  0.7561462E-02  0.1164035E+00
          1   -1    0    0  501    0  0.00000000000E+00  0.00000000000E+00  0.65862281495E+03  0.65862281495E+03  0.00000000000E+00 0. -1.
         -1   -1    0    0    0  501 -0.00000000000E+00 -0.00000000000E+00 -0.59421053724E+02  0.59421053724E+02  0.00000000000E+00 0.  1.
         23    2    1    2    0    0  0.14267353717E+03  0.57465860759E+02  0.20396871845E+03  0.28444540831E+03  0.12509152186E+03 0.  0.
          5    1    3    3  502    0  0.51451658262E+02 -0.33197628964E+02  0.10687404656E+03  0.12324321456E+03  0.41800000000E+01 0.  1.
         -5    1    3    3    0  502  0.91221878911E+02  0.90663489723E+02  0.97094671891E+02  0.16120219375E+03  0.41800000000E+01 0.  1.
        -11    1    1    2    0    0 -0.23228078159E+02 -0.53508326660E+02  0.11510388927E+03  0.12904103984E+03  0.00000000000E+00 0.  1.
         11    1    1    2    0    0 -0.11944545901E+03 -0.39575340991E+01  0.28012915351E+03  0.30455742053E+03  0.00000000000E+00 0. -1.
</event>
<event>
 7    1  0.1226955E-005  0.2195705E+03  0.7561462E-02  0.1134204E+00
          2   -1    0    0  501    0  0.00000000000E+00  0.00000000000E+00  0.35181991028E+02  0.35181991028E+02  0.00000000000E+00 0. -1.
         -2   -1    0    0    0  501 -0.00000000000E+00 -0.00000000000E+00 -0.14800846725E+04  0.14800846725E+04  0.00000000000E+00 0.  1.
         23    2    1    2    0    0 -0.33458628816E+02 -0.19244825327E+03 -0.90819870789E+03  0.93735246744E+03  0.12509574409E+03 0.  0.
          5    1    3    3  502    0 -0.74884246718E+01 -0.20242895625E+03 -0.82543138263E+03  0.84993411431E+03  0.41800000000E+01 0.  1.
         -5    1    3    3    0  502 -0.25970204144E+02  0.99807029802E+01 -0.82767325252E+02  0.87418353134E+02  0.41800000000E+01 0.  1.
        -11    1    1    2    0    0  0.29613117481E+01  0.17120217716E+03 -0.37892130302E+03  0.41581282894E+03  0.00000000000E+00 0. -1.
         11    1    1    2    0    0  0.30497317067E+02  0.21246076106E+02 -0.15778267059E+03  0.16210136716E+03  0.00000000000E+00 0.  1.
</event>
<event>
 7    1  0.1226955E-005  0.5643771E+02  0.7561462E-02  0.1413420E+00
         -3   -1    0    0    0  501 -0.00000000000E+00  0.00000000000E+00  0.31328974778E+03  0.31328974778E+03  0.00000000000E+00 0.  1.
          3   -1    0    0  501    0  0.00000000000E+00 -0.00000000000E+00 -0.86925342015E+02  0.86925342015E+02  0.00000000000E+00 0. -1.
         23    2    1    2    0    0 -0.17237216761E+02  0.44777320160E+02  0.25112571532E+03  0.28463157591E+03  0.12509547981E+03 0.  0.
          5    1    3    3  502    0 -0.19007220205E+02  0.21540091080E+02 -0.32005789956E+01  0.29205582507E+02  0.41800000000E+01 0. -1.
         -5    1    3    3    0  502  0.17700034440E+01  0.23237229080E+02  0.25432629431E+03  0.25542599341E+03  0.41800000000E+01 0. -1.
        -11    1    1    2    0    0 -0.10458657604E+01 -0.41598824102E+02  0.34142120888E+02  0.53826019921E+02  0.00000000000E+00 0.  1.
         11    1    1    2    0    0  0.18283082521E+02 -0.31784960583E+01 -0.58903430437E+02  0.61757493965E+02  0.00000000000E+00 0. -1.
</event>
<event>
 7    1  0.1226955E-005  0.1320330E+03  0.7561462E-02  0.1224470E+00
          1   -1    0    0  501    0  0.00000000000E+00  0.00000000000E+00  0.74323474662E+02  0.74323474662E+02  0.00000000000E+00 0.  1.
         -1   -1    0    0    0  501 -0.00000000000E+00 -0.00000000000E+00 -0.27089761888E+03  0.27089761888E+03  0.00000000000E+00 0. -1.
         23    2    1    2    0    0  0.70305050597E+02 -0.51269365946E+02 -0.13856380618E+03  0.20595777809E+03  0.12508928790E+03 0.  0.
          5    1    3    3  502    0  0.73571308721E+02  0.12152527737E+02 -0.11691417481E+03  0.13873290189E+03  0.41800000000E+01 0. -1.
         -5    1    3    3    0  502 -0.32662581239E+01 -0.63421893683E+02 -0.21649631372E+02  0.67224876192E+02  0.41800000000E+01 0. -1.
        -11    1    1    2    0    0 -0.59094649951E+02 -0.12991673549E+02 -0.19793356359E+02  0.63661119927E+02  0.00000000000E+00 0.  1.
         11    1    1    2    0    0 -0.11210400646E+02  0.64261039496E+02 -0.38216981677E+02  0.75602195525E+02  0.00000000000E+00 0. -1.
</event>
<event>
 7    1  0.1226955E-005  0.1021674E+03  0.7561462E-02  0.1275803E+00
         -1   -1    0    0    0  501 -0.00000000000E+00  0.00000000000E+00  0.37582224797E+02  0.37582224797E+02  0.00000000000E+00 0.  1.
          1   -1    0    0  501    0  0.00000000000E+00 -0.00000000000E+00 -0.35855417647E+03  0.35855417647E+03  0.00000000000E+00 0. -1.
         23    2    1    2    0    0  0.17399878810E+01  0.39631612798E+02 -0.14340012342E+03  0.19337176794E+03  0.12351256191E+03 0.  0.
          5    1    3    3  502    0  0.38427451509E+02 -0.17942033546E+02 -0.10853409469E+03  0.11660063339E+03  0.41800000000E+01 0. -1.
         -5    1    3    3    0  502 -0.36687463628E+02  0.57573646344E+02 -0.34866028727E+02  0.76771134549E+02  0.41800000000E+01 0. -1.
        -11    1    1    2    0    0 -0.20506642430E+01 -0.66460321680E+02 -0.15105465984E+03  0.16504147915E+03  0.00000000000E+00 0.  1.
         11    1    1    2    0    0  0.31067636195E+00  0.26828708882E+02 -0.26517168421E+02  0.37723154178E+02  0.00000000000E+00 0. -1.
</event>
<event>
 7    1  0.1226955E-005  0.1177077E+03  0.7561462E-02  0.1246927E+00
         -2   -1    0    0    0  501 -0.00000000000E+00  0.00000000000E+00  0.59903991337E+02  0.59903991337E+02  0.00000000000E+00 0.  1.
          2   -1    0    0  501    0  0.00000000000E+00 -0.00000000000E+00 -0.28048869851E+03  0.28048869851E+03  0.00000000000E+00 0. -1.
         23    2    1    2    0    0 -0.18118347705E+01 -0.67763573228E+02 -0.93828688421E+02  0.17042951634E+03  0.12508881912E+03 0.  0.
          5    1    3    3  502    0 -0.66200926185E+01 -0.97248696869E+02 -0.99923594010E+02  0.13965432936E+03  0.41800000000E+01 0.  1.
         -5    1    3    3    0  502  0.48082578481E+01  0.29485123642E+02  0.60949055893E+01  0.30775186983E+02  0.41800000000E+01 0.  1.
        -11    1    1    2    0    0  0.36664214229E+02  0.62469574816E+02 -0.58369451272E+02  0.93025293466E+02  0.00000000000E+00 0. -1.
         11    1    1    2    0    0 -0.34852379458E+02  0.52939984119E+01 -0.68386567481E+02  0.76937880039E+02  0.00000000000E+00 0.  1.
</event>
<event>
 7    1  0.1226955E-005  0.1183416E+03  0.7561462E-02  0.1245858E+00
         -2   -1    0    0    0  501 -0.00000000000E+00  0.00000000000E+00  0.91165541478E+02  0.91165541478E+02  0.00000000000E+00 0.  1.
          2   -1    0    0  501    0  0.00000000000E+00 -0.00000000000E+00 -0.20512784583E+03  0.20512784583E+03  0.00000000000E+00 0. -1.
         23    2    1    2    0    0  0.67620596562E+02 -0.83334340255E+00 -0.97450130815E+01  0.14253194810E+03  0.12508857426E+03 0.  0.
          5    1    3    3  502    0 -0.93364858347E+01 -0.46194917177E+02  0.15188714524E+02  0.49692150181E+02  0.41800000000E+01 0. -1.
         -5    1    3    3    0  502  0.76957082397E+02  0.45361573774E+02 -0.24933727605E+02  0.92839797924E+02  0.41800000000E+01 0. -1.
        -11    1    1    2    0    0 -0.82632691574E+02 -0.71426545294E+01 -0.49782559481E+02  0.96734081166E+02  0.00000000000E+00 0.  1.
         11    1    1    2    0    0  0.15012095012E+02  0.79759979319E+01 -0.54434731790E+02  0.57027358038E+02  0.00000000000E+00 0. -1.
</event>
<event>
 7    1  0.1226955E-005  0.9689055E+02  0.7561462E-02  0.1286974E+00
         -1   -1    0    0    0  501 -0.00000000000E+00  0.00000000000E+00  0.15154074491E+03  0.15154074491E+03  0.00000000000E+00 0.  1.
          1   -1    0    0  501    0  0.00000000000E+00 -0.00000000000E+00 -0.10596645014E+03  0.10596645014E+03  0.00000000000E+00 0. -1.
         23    2    1    2    0    0  0.51356711632E+02 -0.22235376100E+02  0.63058123318E+02  0.15085237831E+03  0.12509272300E+03 0.  0.
          5    1    3    3  502    0 -0.16834700705E+02  0.23022801901E+02 -0.19282707202E+02  0.34680711530E+02  0.41800000000E+01 0.  1.
         -5    1    3    3    0  502  0.68191412338E+02 -0.45258178001E+02  0.82340830520E+02  0.11617166678E+03  0.41800000000E+01 0.  1.
        -11    1    1    2    0    0  0.14066784486E+02  0.53665388238E+00  0.22816834602E+02  0.26809893033E+02  0.00000000000E+00 0.  1.
         11    1    1    2    0    0 -0.65423496118E+02  0.21698722218E+02 -0.40300663156E+02  0.79844923702E+02  0.00000000000E+00 0. -1.
</event>
<event>
 7    1  0.1226955E-005  0.1267307E+03  0.7561462E-02  0.1232389E+00
          4   -1    0    0  501    0  0.00000000000E+00  0.00000000000E+00  0.70056208874E+02  0.70056208874E+02  0.00000000000E+00 0. -1.
         -4   -1    0    0    0  501 -0.00000000000E+00 -0.00000000000E+00 -0.26326619337E+03  0.26326619337E+03  0.00000000000E+00 0.  1.
         23    2    1    2    0    0 -0.70758848763E+01  0.81108763158E+02 -0.10749428279E+03  0.18393571678E+03  0.12509447416E+03 0.  0.
          5    1    3    3  502    0  0.22586563963E+02  0.10605781749E+03 -0.90933089427E+02  0.14157935116E+03  0.41800000000E+01 0. -1.
         -5    1    3    3    0  502 -0.29662448839E+02 -0.24949054328E+02 -0.16561193367E+02  0.42356365623E+02  0.41800000000E+01 0. -1.
        -11    1    1    2    0    0 -0.30432041611E+02 -0.40807039730E+02 -0.78920653252E+02  0.93913753827E+02  0.00000000000E+00 0.  1.
         11    1    1    2    0    0  0.37507926488E+02 -0.40301723428E+02 -0.67950484480E+01  0.55472931634E+02  0.00000000000E+00 0. -1.
</event>
<event>
 7    1  0.1226955E-005  0.1162698E+03  0.7561462E-02  0.1249381E+00
         -2   -1    0    0    0  501 -0.00000000000E+00  0.00000000000E+00  0.39463479594E+02  0.39463479594E+02  0.00000000000E+00 0.  1.
          2   -1    0    0  501    0  0.00000000000E+00 -0.00000000000E+00 -0.46920918333E+03  0.46920918333E+03  0.00000000000E+00 0. -1.
         23    2    1    2    0    0 -0.28707661302E+02 -0.57812798661E+02 -0.14017521197E+03  0.19865092187E+03  0.12508656683E+03 0.  0.
          5    1    3    3  502    0 -0.54204758059E+02 -0.74032200010E+02 -0.14083248459E+03  0.16813739486E+03  0.41800000000E+01 0.  1.
         -5    1    3    3    0  502  0.25497096757E+02  0.16219401349E+02  0.65727261731E+00  0.30513527008E+02  0.41800000000E+01 0.  1.
        -11    1    1    2    0    0 -0.28983109301E+02  0.40780543893E+02 -0.11621605426E+03  0.12652764383E+03  0.00000000000E+00 0.  1.
         11    1    1    2    0    0  0.57690770603E+02  0.17032254767E+02 -0.17335443749E+03  0.18349409722E+03  0.00000000000E+00 0. -1.
</event>
<event>
 7    1  0.1226955E-005  0.1325589E+03  0.7561462E-02  0.1223708E+00
         -1   -1    0    0    0  501 -0.00000000000E+00  0.00000000000E+00  0.18655707024E+03  0.18655707024E+03  0.00000000000E+00 0.  1.
          1   -1    0    0  501    0  0.00000000000E+00 -0.00000000000E+00 -0.11531909731E+03  0.11531909731E+03  0.00000000000E+00 0. -1.
         23    2    1    2    0    0  0.82077251481E+02 -0.22224122488E+02  0.99609432577E+02  0.18110436783E+03  0.12508463598E+03 0.  0.
          5    1    3    3  502    0  0.53538675330E+02  0.48531471605E+02  0.32241180307E+02  0.79237993411E+02  0.41800000000E+01 0. -1.
         -5    1    3    3    0  502  0.28538576151E+02 -0.70755594092E+02  0.67368252269E+02  0.10186637442E+03  0.41800000000E+01 0. -1.
        -11    1    1    2    0    0 -0.96629213317E+02  0.28102200212E+02 -0.18754563720E+02  0.10236538567E+03  0.00000000000E+00 0.  1.
         11    1    1    2    0    0  0.14551961836E+02 -0.58780777245E+01 -0.96168959196E+01  0.18406414049E+02  0.00000000000E+00 0. -1.
</event>
<event>
 7    1  0.1226955E-005  0.2655256E+03  0.7561462E-02  0.1103868E+00
         -1   -1    0    0    0  501 -0.00000000000E+00  0.00000000000E+00  0.63750687298E+03  0.63750687298E+03  0.00000000000E+00 0.  1.
          1   -1    0    0  501    0  0.00000000000E+00 -0.00000000000E+00 -0.12172752164E+03  0.12172752164E+03  0.00000000000E+00 0. -1.
         23    2    1    2    0    0  0.23723348814E+03  0.84098636983E+02  0.33150160157E+03  0.43461861026E+03  0.12509083060E+03 0.  0.
          5    1    3    3  502    0  0.68768670255E+02  0.73841889798E+02  0.68281732015E+02  0.12190825249E+03  0.41800000000E+01 0.  1.
         -5    1    3    3    0  502  0.16846481788E+03  0.10256747185E+02  0.26321986956E+03  0.31271035777E+03  0.41800000000E+01 0.  1.
        -11    1    1    2    0    0 -0.46284133361E+02 -0.48409736986E+02  0.79334595947E+02  0.10382534252E+03  0.00000000000E+00 0.  1.
         11    1    1    2    0    0 -0.19094935478E+03 -0.35688899997E+02  0.10494315382E+03  0.22079044184E+03  0.00000000000E+00 0. -1.
</event>
<event>
 7    1  0.1226955E-005  0.9343380E+02  0.7561462E-02  0.1294743E+00
         -2   -1    0    0    0  501 -0.00000000000E+00  0.00000000000E+00  0.77280283408E+02  0.77280283408E+02  0.00000000000E+00 0.  1.
          2   -1    0    0  501    0  0.00000000000E+00 -0.00000000000E+00 -0.16698503995E+03  0.16698503995E+03  0.00000000000E+00 0. -1.
         23    2    1    2    0    0  0.32130995162E+01 -0.22340771165E+02 -0.19696721825E+02  0.12862811646E+03  0.12509115648E+03 0.  0.
          5    1    3    3  502    0  0.50702896095E+02  0.26799673019E+01  0.26732683893E+02  0.57533248520E+02  0.41800000000E+01 0.  1.
         -5    1    3    3    0  502 -0.47489796579E+02 -0.25020738467E+02 -0.46429405718E+02  0.71094867943E+02  0.41800000000E+01 0.  1.
        -11    1    1    2    0    0 -0.36268831878E+02  0.31218970761E+02 -0.65493066653E+02  0.81113464239E+02  0.00000000000E+00 0. -1.
         11    1    1    2    0    0  0.33055732362E+02 -0.88781995964E+01 -0.45149680592E+01  0.34523742651E+02  0.00000000000E+00 0.  1.
</event>
<event>
 7    1  0.1226955E-005  0.1783250E+03  0.7561462E-02  0.1169434E+00
          2   -1    0    0  501    0  0.00000000000E+00  0.00000000000E+00  0.54120713507E+03  0.54120713507E+03  0.00000000000E+00 0. -1.
         -2   -1    0    0    0  501 -0.00000000000E+00 -0.00000000000E+00 -0.76611937310E+02  0.76611937310E+02  0.00000000000E+00 0.  1.
         23    2    1    2    0    0 -0.11899370097E+03 -0.99297824155E+02  0.13098422160E+03  0.23837707099E+03  0.12508878013E+03 0.  0.
          5    1    3    3  502    0  0.21257528537E+02 -0.41618568610E+02  0.38581606394E+02  0.60745374512E+02  0.41800000000E+01 0. -1.
         -5    1    3    3    0  502 -0.14025122951E+03 -0.57679255545E+02  0.92402615204E+02  0.17763169648E+03  0.41800000000E+01 0. -1.
        -11    1    1    2    0    0  0.19998601010E+02  0.33960229814E+02  0.18574955960E+03  0.18988454425E+03  0.00000000000E+00 0. -1.
         11    1    1    2    0    0  0.98995099958E+02  0.65337594342E+02  0.14786141656E+03  0.18955745714E+03  0.00000000000E+00 0.  1.
</event>
<event>
 7    1  0.1226955E-005  0.2159376E+03  0.7561462E-02  0.1136949E+00
         -2   -1    0    0    0  501 -0.00000000000E+00  0.00000000000E+00  0.10489544519E+03  0.10489544519E+03  0.00000000000E+00 0.  1.
          2   -1    0    0  501    0  0.00000000000E+00 -0.00000000000E+00 -0.61511457117E+03  0.61511457117E+03  0.00000000000E+00 0. -1.
         23    2    1    2    0    0  0.16834104200E+03  0.12460811152E+03 -0.12898731830E+03  0.27595415625E+03  0.12508828958E+03 0.  0.
          5    1    3    3  502    0  0.15170574476E+03  0.13186221939E+03 -0.14776456284E+03  0.24950774803E+03  0.41800000000E+01 0. -1.
         -5    1    3    3    0  502  0.16635297248E+02 -0.72541078702E+01  0.18777244539E+02  0.26446408225E+02  0.41800000000E+01 0. -1.
        -11    1    1    2    0    0 -0.13768353824E+03 -0.83858978594E+02 -0.34705050228E+03  0.38266582827E+03  0.00000000000E+00 0. -1.
         11    1    1    2    0    0 -0.30657503761E+02 -0.40749132924E+02 -0.34181305401E+02  0.61390031844E+02  0.00000000000E+00 0.  1.
</event>
<event>
 7    1  0.1226955E-005  0.1487626E+03  0.7561462E-02  0.1202002E+00
          3   -1    0    0  501    0  0.00000000000E+00  0.00000000000E+00  0.19815475792E+03  0.19815475792E+03  0.00000000000E+00 0. -1.
         -3   -1    0    0    0  501 -0.00000000000E+00 -0.00000000000E+00 -0.15911462931E+03  0.15911462931E+03  0.00000000000E+00 0.  1.
         23    2    1    2    0    0  0.90414530887E+02 -0.77710009486E+02 -0.65921588637E+02  0.18494941433E+03  0.12508795723E+03 0.  0.
          5    1    3    3  502    0 -0.24392724129E+02 -0.36122925038E+02  0.43507519503E+01  0.44003092462E+02  0.41800000000E+01 0.  1.
         -5    1    3    3    0  502  0.11480725502E+03 -0.41587084448E+02 -0.70272340587E+02  0.14094632187E+03  0.41800000000E+01 0.  1.
        -11    1    1    2    0    0 -0.97726021582E+02  0.66611921230E+02  0.10622579200E+03  0.15896994128E+03  0.00000000000E+00 0. -1.
         11    1    1    2    0    0  0.73114906953E+01  0.11098088256E+02 -0.12640747608E+01  0.13350031615E+02  0.00000000000E+00 0.  1.
</event>
<event>
 7    1  0.1226955E-005  0.1122830E+03  0.7561462E-02  0.1256400E+00
          2   -1    0    0  501    0  0.00000000000E+00  0.00000000000E+00  0.81889865629E+02  0.81889865629E+02  0.00000000000E+00 0.  1.
         -2   -1    0    0    0  501 -0.00000000000E+00 -0.00000000000E+00 -0.16443825930E+03  0.16443825930E+03  0.00000000000E+00 0. -1.
         23    2    1    2    0    0  0.33308372935E+02  0.25537761181E+01 -0.70217887561E+02  0.14728857347E+03  0.12508957855E+03 0.  0.
          5    1    3    3  502    0  0.72667328536E+02 -0.26666406096E+02 -0.27873756479E+02  0.82377524549E+02  0.41800000000E+01 0.  1.
         -5    1    3    3    0  502 -0.39358955601E+02  0.29220182214E+02 -0.42344131082E+02  0.64911048919E+02  0.41800000000E+01 0.  1.
        -11    1    1    2    0    0 -0.55167224517E+02  0.26734540574E+02 -0.12133046745E+02  0.62492952754E+02  0.00000000000E+00 0. -1.
         11    1    1    2    0    0  0.21858851582E+02 -0.29288316693E+02 -0.19745936872E+00  0.36546598711E+02  0.00000000000E+00 0.  1.
</event>
<event>
 7    1  0.1226955E-005  0.1002644E+03  0.7561462E-02  0.1279741E+00
         -2   -1    0    0    0  501 -0.00000000000E+00  0.00000000000E+00  0.16173283349E+03  0.16173283349E+03  0.00000000000E+00 0.  1.
          2   -1    0    0  501    0  0.00000000000E+00 -0.00000000000E+00 -0.89582245446E+02  0.89582245446E+02  0.00000000000E+00 0. -1.
         23    2    1    2    0    0  0.50181752715E+02  0.10790848217E+02  0.32248973519E+02  0.13899388978E+03  0.12507859286E+03 0.  0.
          5    1    3    3  502    0  0.31347856892E+02  0.63528301742E+02  0.41308969222E+02  0.82112341290E+02  0.41800000000E+01 0. -1.
         -5    1    3    3    0  502  0.18833895823E+02 -0.52737453525E+02 -0.90599957034E+01  0.56881548487E+02  0.41800000000E+01 0. -1.
        -11    1    1    2    0    0 -0.38342099542E+02 -0.31454509907E+02  0.62299177071E+02  0.79628451288E+02  0.00000000000E+00 0.  1.
         11    1    1    2    0    0 -0.11839653173E+02  0.20663661690E+02 -0.22397562544E+02  0.32692737872E+02  0.00000000000E+00 0. -1.
</event>
<event>
 7    1  0.1226955E-005  0.1105118E+03  0.7561462E-02  0.1259625E+00
          2   -1    0    0  501    0  0.00000000000E+00  0.00000000000E+00  0.43623722782E+03  0.43623722782E+03  0.00000000000E+00 0. -1.
         -2   -1    0    0    0  501 -0.00000000000E+00 -0.00000000000E+00 -0.36293551196E+02  0.36293551196E+02  0.00000000000E+00 0.  1.
         23    2    1    2    0    0  0.33773011286E+02 -0.50735875176E+02  0.19017539874E+03  0.23564600610E+03  0.12509041763E+03 0.  0.
          5    1    3    3  502    0  0.63523066606E+02 -0.63870147806E+01  0.16397581169E+03  0.17601566171E+03  0.41800000000E+01 0.  1.
         -5    1    3    3    0  502 -0.29750055321E+02 -0.44348860395E+02  0.26199587056E+02  0.59630344388E+02  0.41800000000E+01 0.  1.
        -11    1    1    2    0    0  0.28177308893E+02  0.14159778929E+02  0.10618802356E+03  0.11077164089E+03  0.00000000000E+00 0. -1.
         11    1    1    2    0    0 -0.61950320179E+02  0.36576096247E+02  0.10358025431E+03  0.12611313203E+03  0.00000000000E+00 0.  1.
</event>
<event>
 7    1  0.1226955E-005  0.9885963E+02  0.7561462E-02  0.1282712E+00
         -1   -1    0    0    0  501 -0.00000000000E+00  0.00000000000E+00  0.13534985674E+03  0.13534985674E+03  0.00000000000E+00 0.  1.
          1   -1    0    0  501    0  0.00000000000E+00 -0.00000000000E+00 -0.93984775048E+02  0.93984775048E+02  0.00000000000E+00 0. -1.
         23    2    1    2    0    0  0.18803511647E+02  0.21567403153E+02  0.36123631764E+02  0.13329297457E+03  0.12507347988E+03 0.  0.
          5    1    3    3  502    0 -0.33433355613E+02  0.41685673186E+02 -0.16773400890E+02  0.56163190738E+02  0.41800000000E+01 0.  1.
         -5    1    3    3    0  502  0.52236867260E+02 -0.20118270033E+02  0.52897032654E+02  0.77129783831E+02  0.41800000000E+01 0.  1.
        -11    1    1    2    0    0  0.25095815335E+02 -0.34094345935E+02 -0.16551255256E+02  0.45455125373E+02  0.00000000000E+00 0. -1.
         11    1    1    2    0    0 -0.43899326982E+02  0.12526942783E+02  0.21792705184E+02  0.50586531846E+02  0.00000000000E+00 0.  1.
</event>
<event>
 7    1  0.1226955E-005  0.1517671E+03  0.7561462E-02  0.1198318E+00
          2   -1    0    0  501    0  0.00000000000E+00  0.00000000000E+00  0.74889294248E+03  0.74889294248E+03  0.00000000000E+00 0. -1.
         -2   -1    0    0    0  501 -0.00000000000E+00 -0.00000000000E+00 -0.39145666946E+02  0.39145666946E+02  0.00000000000E+00 0.  1.
         23    2    1    2    0    0  0.31915994257E+02  0.11738984010E+03  0.25761521285E+03  0.31114609499E+03  0.12508912537E+03 0.  0.
          5    1    3    3  502    0 -0.27208228400E+02  0.74350348356E+02  0.57195972536E+02  0.97760491343E+02  0.41800000000E+01 0.  1.
         -5    1    3    3    0  502  0.59124222657E+02  0.43039491742E+02  0.20041924031E+03  0.21338560364E+03  0.41800000000E+01 0.  1.
        -11    1    1    2    0    0 -0.11561950799E+02 -0.12767447844E+03  0.39851694441E+03  0.41862895997E+03  0.00000000000E+00 0.  1.
         11    1    1    2    0    0 -0.20354043458E+02  0.10284638339E+02  0.53615118276E+02  0.58263554463E+02  0.00000000000E+00 0. -1.
</event>
<event>
 7    1  0.1226955E-005  0.7892740E+02  0.7561462E-02  0.1332123E+00
          1   -1    0    0  501    0  0.00000000000E+00  0.00000000000E+00  0.85791292739E+02  0.85791292739E+02  0.00000000000E+00 0.  1.
         -1   -1    0    0    0  501 -0.00000000000E+00 -0.00000000000E+00 -0.14409393899E+03  0.14409393899E+03  0.00000000000E+00 0. -1.
         23    2    1    2    0    0  0.29380704683E+00 -0.15707308871E+02 -0.41989540556E+02  0.13288127582E+03  0.12508999190E+03 0.  0.
          5    1    3    3  502    0  0.47341205962E+02  0.31778776483E+02 -0.78561875440E+01  0.57708513232E+02  0.41800000000E+01 0.  1.
         -5    1    3    3    0  502 -0.47047398915E+02 -0.47486085354E+02 -0.34133353012E+02  0.75172762586E+02  0.41800000000E+01 0.  1.
        -11    1    1    2    0    0 -0.14729985202E+02  0.11448112294E+02  0.37091529830E+02  0.41518830960E+02  0.00000000000E+00 0.  1.
         11    1    1    2    0    0  0.14436178155E+02  0.42591965769E+01 -0.53404635528E+02  0.55485124953E+02  0.00000000000E+00 0. -1.
</event>
<event>
 7    1  0.1226955E-005  0.1528713E+03  0.7561462E-02  0.1196989E+00
         -1   -1    0    0    0  501 -0.00000000000E+00  0.00000000000E+00  0.71987969778E+03  0.71987969778E+03  0.00000000000E+00 0.  1.
          1   -1    0    0  501    0  0.00000000000E+00 -0.00000000000E+00 -0.41168634553E+02  0.41168634553E+02  0.00000000000E+00 0. -1.
         23    2    1    2    0    0 -0.12710233597E+03  0.42249013922E+01  0.45784222687E+03  0.49136491113E+03  0.12508843906E+03 0.  0.
          5    1    3    3  502    0 -0.62971728279E+02  0.64516078735E+02  0.23425794366E+03  0.25104186811E+03  0.41800000000E+01 0.  1.
         -5    1    3    3    0  502 -0.64130607688E+02 -0.60291177343E+02  0.22358428321E+03  0.24032304302E+03  0.41800000000E+01 0.  1.
        -11    1    1    2    0    0  0.10643434355E+03 -0.61615280898E+01  0.22457523844E+03  0.24859660423E+03  0.00000000000E+00 0.  1.
         11    1    1    2    0    0  0.20667992412E+02  0.19366266976E+01 -0.37064020833E+01  0.21086816965E+02  0.00000000000E+00 0. -1.
</event>
<event>
 7    1  0.1226955E-005  0.1259601E+03  0.7561462E-02  0.1233576E+00
         -1   -1    0    0    0  501 -0.00000000000E+00  0.00000000000E+00  0.72295466526E+02  0.72295466526E+02  0.00000000000E+00 0.  1.
          1   -1    0    0  501    0  0.00000000000E+00 -0.00000000000E+00 -0.33261278286E+03  0.33261278286E+03  0.00000000000E+00 0. -1.
         23    2    1    2    0    0 -0.74566688047E+02  0.45362498502E+02 -0.50954000816E+02  0.16081670144E+03  0.12509098300E+03 0.  0.
          5    1    3    3  502    0 -0.17118962498E+02  0.74024602394E+02  0.40093479400E+01  0.76198739540E+02  0.41800000000E+01 0.  1.
         -5    1    3    3    0  502 -0.57447725550E+02 -0.28662103892E+02 -0.54963348756E+02  0.84617961904E+02  0.41800000000E+01 0.  1.
        -11    1    1    2    0    0  0.13870609551E+02 -0.48764516455E+02 -0.41365265138E+02  0.65432843698E+02  0.00000000000E+00 0.  1.
         11    1    1    2    0    0  0.60696078496E+02  0.34020179533E+01 -0.16799805038E+03  0.17865870425E+03  0.00000000000E+00 0. -1.
</event>
<event>
 7    1  0.1226955E-005  0.7976940E+02  0.7561462E-02  0.1329707E+00
          1   -1    0    0  501    0  0.00000000000E+00  0.00000000000E+00  0.22742963112E+03  0.22742963112E+03  0.00000000000E+00 0. -1.
         -1   -1    0    0    0  501 -0.00000000000E+00 -0.00000000000E+00 -0.62396994355E+02  0.62396994355E+02  0.00000000000E+00 0.  1.
         23    2    1    2    0    0  0.10051098113E+02 -0.81890058941E+01  0.37926657364E+02  0.13134224804E+03  0.12507705781E+03 0.  0.
          5    1    3    3  502    0  0.24722334523E+02  0.20711132533E+02  0.75104693481E+02  0.81843339484E+02  0.41800000000E+01 0. -1.
         -5    1    3    3    0  502 -0.14671236410E+02 -0.28900138427E+02 -0.37178036117E+02  0.49498908558E+02  0.41800000000E+01 0. -1.
        -11    1    1    2    0    0 -0.19167920129E+02 -0.40498079539E+02  0.66952386804E+02  0.80561316444E+02  0.00000000000E+00 0.  1.
         11    1    1    2    0    0  0.91168220156E+01  0.48687085433E+02  0.60153592600E+02  0.77923060992E+02  0.00000000000E+00 0. -1.
</event>
<event>
 7    1  0.1226955E-005  0.1222177E+03  0.7561462E-02  0.1239483E+00
         -1   -1    0    0    0  501 -0.00000000000E+00  0.00000000000E+00  0.33645517071E+03  0.33645517071E+03  0.00000000000E+00 0.  1.
          1   -1    0    0  501    0  0.00000000000E+00 -0.00000000000E+00 -0.62239534802E+02  0.62239534802E+02  0.00000000000E+00 0. -1.
         23    2    1    2    0    0  0.30976667522E+02  0.59827605552E+02  0.23848955374E+03  0.27760284288E+03  0.12508866780E+03 0.  0.
          5    1    3    3  502    0  0.77169234553E+02  0.56145440596E+02  0.15785561045E+03  0.18450817709E+03  0.41800000000E+01 0. -1.
         -5    1    3    3    0  502 -0.46192567031E+02  0.36821649563E+01  0.80633943291E+02  0.93094665789E+02  0.41800000000E+01 0. -1.
        -11    1    1    2    0    0  0.26045314192E+02 -0.17779214989E+02  0.39015729486E+02  0.50166582745E+02  0.00000000000E+00 0.  1.
         11    1    1    2    0    0 -0.57021981714E+02 -0.42048390563E+02 -0.32896473241E+01  0.70925279887E+02  0.00000000000E+00 0. -1.
</event>
<event>
 7    1  0.1226955E-005  0.9578017E+02  0.7561462E-02  0.1289429E+00
          2   -1    0    0  501    0  0.00000000000E+00  0.00000000000E+00  0.27502252454E+03  0.27502252454E+03  0.00000000000E+00 0.  1.
         -2   -1    0    0    0  501 -0.00000000000E+00 -0.00000000000E+00 -0.49536198883E+02  0.49536198883E+02  0.00000000000E+00 0. -1.
         23    2    1    2    0    0 -0.26336360439E+00  0.19315697243E+02  0.73803278614E+02  0.14652991895E+03  0.12510366778E+03 0.  0.
          5    1    3    3  502    0  0.42572184875E+02  0.47007220964E+02  0.70975983212E+02  0.95273985645E+02  0.41800000000E+01 0. -1.
         -5    1    3    3    0  502 -0.42835548479E+02 -0.27691523721E+02  0.28272954022E+01  0.51255933303E+02  0.41800000000E+01 0. -1.
        -11    1    1    2    0    0 -0.31540985638E+02  0.10487601787E+02  0.18815528473E+02  0.38194864550E+02  0.00000000000E+00 0. -1.
         11    1    1    2    0    0  0.31804349243E+02 -0.29803299030E+02  0.13286751857E+03  0.13983393992E+03  0.00000000000E+00 0.  1.
</event>
<event>
 7    1  0.1226955E-005  0.7342366E+02  0.7561462E-02  0.1348823E+00
          1   -1    0    0  501    0  0.00000000000E+00  0.00000000000E+00  0.39344614704E+02  0.39344614704E+02  0.00000000000E+00 0. -1.
         -1   -1    0    0    0  501 -0.00000000000E+00 -0.00000000000E+00 -0.44066725969E+03  0.44066725969E+03  0.00000000000E+00 0.  1.
         23    2    1    2    0    0  0.33374080624E+02 -0.27444214980E+02 -0.33124176627E+03  0.35670077502E+03  0.12508925210E+03 0.  0.
          5    1    3    3  502    0 -0.34736190563E+01  0.85576192721E+01 -0.29105287787E+03  0.29122937522E+03  0.41800000000E+01 0. -1.
         -5    1    3    3    0  502  0.36847699681E+02 -0.36001834252E+02 -0.40188888395E+02  0.65471399800E+02  0.41800000000E+01 0. -1.
        -11    1    1    2    0    0  0.19633327058E+02  0.25232466093E+02 -0.61847836811E+02  0.69622552343E+02  0.00000000000E+00 0.  1.
         11    1    1    2    0    0 -0.53007407682E+02  0.22117488866E+01 -0.82330419036E+01  0.53688547022E+02  0.00000000000E+00 0. -1.
</event>
<event>
 7    1  0.1226955E-005  0.9067767E+02  0.7561462E-02  0.1301219E+00
          2   -1    0    0  501    0  0.00000000000E+00  0.00000000000E+00  0.13276646050E+03  0.13276646050E+03  0.00000000000E+00 0. -1.
         -2   -1    0    0    0  501 -0.00000000000E+00 -0.00000000000E+00 -0.11171040079E+03  0.11171040079E+03  0.00000000000E+00 0.  1.
         23    2    1    2    0    0  0.24522608962E+02  0.91718215108E+00 -0.43506332279E+02  0.13469421476E+03  0.12509009141E+03 0.  0.
          5    1    3    3  502    0  0.67877430126E+02 -0.29519037403E+02 -0.21595433997E+02  0.77217577398E+02  0.41800000000E+01 0. -1.
         -5    1    3    3    0  502 -0.43354821164E+02  0.30436219554E+02 -0.21910898282E+02  0.57476637362E+02  0.41800000000E+01 0. -1.
        -11    1    1    2    0    0 -0.20748771961E+02 -0.23406432125E+02  0.77493292024E+02  0.83567834191E+02  0.00000000000E+00 0. -1.
         11    1    1    2    0    0 -0.37738370007E+01  0.22489249973E+02 -0.12930900041E+02  0.26214812338E+02  0.00000000000E+00 0.  1.
</event>
<event>
 7    1  0.1226955E-005  0.1476312E+03  0.7561462E-02  0.1203414E+00
          1   -1    0    0  501    0  0.00000000000E+00  0.00000000000E+00  0.39082011193E+03  0.39082011193E+03  0.00000000000E+00 0. -1.
         -1   -1    0    0    0  501 -0.00000000000E+00 -0.00000000000E+00 -0.74134985835E+02  0.74134985835E+02  0.00000000000E+00 0.  1.
         23    2    1    2    0    0  0.70464294365E+02 -0.94554175379E+02  0.75218182600E+02  0.18764465661E+03  0.12508810215E+03 0.  0.
          5    1    3    3  502    0  0.49400577813E+02 -0.11950227895E+03  0.83138373445E+02  0.15378775407E+03  0.41800000000E+01 0.  1.
         -5    1    3    3    0  502  0.21063716552E+02  0.24948103572E+02 -0.79201908450E+01  0.33856902544E+02  0.41800000000E+01 0.  1.
        -11    1    1    2    0    0 -0.64082047899E+02  0.34894411113E+02  0.10131598813E+03  0.12485615019E+03  0.00000000000E+00 0.  1.
         11    1    1    2    0    0 -0.63822464667E+01  0.59659764266E+02  0.14015095536E+03  0.15245429096E+03  0.00000000000E+00 0. -1.
</event>
<event>
 7    1  0.1226955E-005  0.9079146E+02  0.7561462E-02  0.1300946E+00
          1   -1    0    0  501    0  0.00000000000E+00  0.00000000000E+00  0.27653559546E+02  0.27653559546E+02  0.00000000000E+00 0. -1.
         -1   -1    0    0    0  501 -0.00000000000E+00 -0.00000000000E+00 -0.69871295229E+03  0.69871295229E+03  0.00000000000E+00 0.  1.
         23    2    1    2    0    0  0.63157347387E+01  0.82130564170E+02 -0.43772704864E+03  0.46264140863E+03  0.12508711280E+03 0.  0.
          5    1    3    3  502    0 -0.23655418400E+02  0.43255647309E+02 -0.39299837317E+03  0.39610077449E+03  0.41800000000E+01 0.  1.
         -5    1    3    3    0  502  0.29971153139E+02  0.38874916860E+02 -0.44728675478E+02  0.66540634137E+02  0.41800000000E+01 0.  1.
        -11    1    1    2    0    0  0.82458834756E+00 -0.46172264240E+02 -0.21987600447E+03  0.22467312984E+03  0.00000000000E+00 0.  1.
         11    1    1    2    0    0 -0.71403230862E+01 -0.35958299930E+02 -0.13456339634E+02  0.39051973368E+02  0.00000000000E+00 0. -1.
</event>
<event>
 7    1  0.1737708E-005  0.1609126E+03  0.7561462E-02  0.1187670E+00
         -1   -1    0    0    0  501 -0.00000000000E+00  0.00000000000E+00  0.12086173501E+03  0.12086173501E+03  0.00000000000E+00 0.  1.
          1   -1    0    0  501    0  0.00000000000E+00 -0.00000000000E+00 -0.29376606540E+03  0.29376606540E+03  0.00000000000E+00 0. -1.
         23    2    1    2    0    0  0.15208347419E+03 -0.44574330500E+02 -0.78920893238E+02  0.21677792198E+03  0.12509159047E+03 0.  0.
          5    1    3    3  502    0  0.19059538827E+02  0.45289410456E+01  0.31280158541E+02  0.37144286851E+02  0.41800000000E+01 0. -1.
         -5    1    3    3    0  502  0.13302393537E+03 -0.49103271546E+02 -0.11020105178E+03  0.17963363513E+03  0.41800000000E+01 0. -1.
        -11    1    1    2    0    0 -0.10717175853E+03  0.41472710629E+02 -0.28522855817E+02  0.11840322993E+03  0.00000000000E+00 0.  1.
         11    1    1    2    0    0 -0.44911715663E+02  0.31016198709E+01 -0.65460581337E+02  0.79446648505E+02  0.00000000000E+00 0. -1.
</event>
<event>
 7    1  0.1226955E-005  0.1142430E+03  0.7561462E-02  0.1252908E+00
          2   -1    0    0  501    0  0.00000000000E+00  0.00000000000E+00  0.25511230519E+03  0.25511230519E+03  0.00000000000E+00 0.  1.
         -2   -1    0    0    0  501 -0.00000000000E+00 -0.00000000000E+00 -0.70291840620E+02  0.70291840620E+02  0.00000000000E+00 0. -1.
         23    2    1    2    0    0  0.16960257796E+01  0.50973032579E+02  0.29388984842E+02  0.13824626734E+03  0.12508873431E+03 0.  0.
          5    1    3    3  502    0 -0.39775515333E+02  0.68943616303E+02 -0.70826155868E+01  0.80018433454E+02  0.41800000000E+01 0. -1.
         -5    1    3    3    0  502  0.41471541113E+02 -0.17970583724E+02  0.36471600429E+02  0.58227833890E+02  0.41800000000E+01 0. -1.
        -11    1    1    2    0    0  0.67348227284E+01 -0.76352007699E+02  0.10405375316E+03  0.12923687734E+03  0.00000000000E+00 0.  1.
         11    1    1    2    0    0 -0.84308485079E+01  0.25378975120E+02  0.51377726560E+02  0.57921001124E+02  0.00000000000E+00 0. -1.
</event>
<event>
 7    1  0.1226955E-005  0.8382337E+02  0.7561462E-02  0.1318539E+00
         -2   -1    0    0    0  501 -0.00000000000E+00  0.00000000000E+00  0.14860436008E+03  0.14860436008E+03  0.00000000000E+00 0.  1.
          2   -1    0    0  501    0  0.00000000000E+00 -0.00000000000E+00 -0.85073731202E+02  0.85073731202E+02  0.00000000000E+00 0. -1.
         23    2    1    2    0    0 -0.11375245547E+01 -0.23112511965E+01  0.69288985401E+02  0.14302102901E+03  0.12508962945E+03 0.  0.
          5    1    3    3  502    0  0.61320371572E+02 -0.89108217621E+01  0.36740736495E+02  0.72159163191E+02  0.41800000000E+01 0.  1.
         -5    1    3    3    0  502 -0.62457896126E+02  0.65995705655E+01  0.32548248906E+02  0.70861865817E+02  0.41800000000E+01 0.  1.
        -11    1    1    2    0    0 -0.18316379527E+02 -0.86623512325E+01 -0.42827759321E+02  0.47378719445E+02  0.00000000000E+00 0. -1.
         11    1    1    2    0    0  0.19453904081E+02  0.10973602429E+02  0.37069402802E+02  0.43278342833E+02  0.00000000000E+00 0.  1.
</event>
<event>
 7    1  0.1226955E-005  0.1120985E+03  0.7561462E-02  0.1256732E+00
         -4   -1    0    0    0  501 -0.00000000000E+00  0.00000000000E+00  0.15126540640E+02  0.15126540640E+02  0.00000000000E+00 0.  1.
          4   -1    0    0  501    0  0.00000000000E+00 -0.00000000000E+00 -0.90658057731E+03  0.90658057731E+03  0.00000000000E+00 0. -1.
         23    2    1    2    0    0 -0.43082594315E+02 -0.39213300714E+01 -0.50382179756E+03  0.52091703685E+03  0.12508664527E+03 0.  0.
          5    1    3    3  502    0  0.38840671706E+02  0.66918305317E+01 -0.27006563552E+03  0.27295841856E+03  0.41800000000E+01 0. -1.
         -5    1    3    3    0  502 -0.81923266021E+02 -0.10613160603E+02 -0.23375616204E+03  0.24795861829E+03  0.41800000000E+01 0. -1.
        -11    1    1    2    0    0  0.88383932537E+01 -0.42922785181E+02 -0.16525703441E+03  0.17096891561E+03  0.00000000000E+00 0.  1.
         11    1    1    2    0    0  0.34244201061E+02  0.46844115252E+02 -0.22237520471E+03  0.22982116549E+03  0.00000000000E+00 0. -1.
</event>
<event>
 7    1  0.1226955E-005  0.1062096E+03  0.7561462E-02  0.1267755E+00
          2   -1    0    0  501    0  0.00000000000E+00  0.00000000000E+00  0.44142506391E+02  0.44142506391E+02  0.00000000000E+00 0. -1.
         -2   -1    0    0    0  501 -0.00000000000E+00 -0.00000000000E+00 -0.33869449403E+03  0.33869449403E+03  0.00000000000E+00 0.  1.
         23    2    1    2    0    0 -0.46784023977E+02 -0.28759009968E+02 -0.19692199033E+03  0.23966930725E+03  0.12508909227E+03 0.  0.
          5    1    3    3  502    0  0.39821775679E+02  0.10545617897E+02 -0.58517884717E+02  0.71685417672E+02  0.41800000000E+01 0. -1.
         -5    1    3    3    0  502 -0.86605799656E+02 -0.39304627866E+02 -0.13840410562E+03  0.16798388958E+03  0.41800000000E+01 0. -1.
        -11    1    1    2    0    0  0.12650866793E+02 -0.15445356820E+02 -0.83092990304E+02  0.85457875680E+02  0.00000000000E+00 0.  1.
         11    1    1    2    0    0  0.34133157184E+02  0.44204366789E+02 -0.14537007000E+02  0.57709817493E+02  0.00000000000E+00 0. -1.
</event>
<event>
 7    1  0.1226955E-005  0.1437651E+03  0.7561462E-02  0.1208351E+00
         -2   -1    0    0    0  501 -0.00000000000E+00  0.00000000000E+00  0.13678626026E+03  0.13678626026E+03  0.00000000000E+00 0.  1.
          2   -1    0    0  501    0  0.00000000000E+00 -0.00000000000E+00 -0.19873036311E+03  0.19873036311E+03  0.00000000000E+00 0. -1.
         23    2    1    2    0    0  0.35518051969E+02 -0.94822902788E+02  0.40881382451E+02  0.16610095570E+03  0.12516119664E+03 0.  0.
          5    1    3    3  502    0  0.71479656661E+02 -0.97823149801E+02  0.16489904543E+02  0.12234418378E+03  0.41800000000E+01 0. -1.
         -5    1    3    3    0  502 -0.35961604692E+02  0.30002470134E+01  0.24391477907E+02  0.43756771918E+02  0.41800000000E+01 0. -1.
        -11    1    1    2    0    0 -0.32061916800E+02  0.10991300824E+03 -0.10289340088E+03  0.15393468691E+03  0.00000000000E+00 0. -1.
         11    1    1    2    0    0 -0.34561351694E+01 -0.15090105454E+02  0.67915570691E-01  0.15480980765E+02  0.00000000000E+00 0.  1.
</event>
<event>
 7    1  0.1226955E-005  0.1111309E+03  0.7561462E-02  0.1258490E+00
          3   -1    0    0  501    0  0.00000000000E+00  0.00000000000E+00  0.16756041016E+03  0.16756041016E+03  0.00000000000E+00 0. -1.
         -3   -1    0    0    0  501 -0.00000000000E+00 -0.00000000000E+00 -0.90172012211E+02  0.90172012211E+02  0.00000000000E+00 0.  1.
         23    2    1    2    0    0 -0.11675618877E+01  0.91396451039E+01 -0.11926230636E+02  0.12586297988E+03  0.12495742640E+03 0.  0.
          5    1    3    3  502    0 -0.27615816335E+01  0.67012459857E+02 -0.45951837858E+01  0.67356397048E+02  0.41800000000E+01 0.  1.
         -5    1    3    3    0  502  0.15940197458E+01 -0.57872814754E+02 -0.73310468498E+01  0.58506582829E+02  0.41800000000E+01 0.  1.
        -11    1    1    2    0    0  0.27269561719E+02  0.35826405928E+02  0.41168936362E+02  0.61008537757E+02  0.00000000000E+00 0. -1.
         11    1    1    2    0    0 -0.26101999832E+02 -0.44966051032E+02  0.48145692227E+02  0.70860904741E+02  0.00000000000E+00 0.  1.
</event>
<event>
 7    1  0.1226955E-005  0.1322643E+03  0.7561462E-02  0.1224134E+00
          1   -1    0    0  501    0  0.00000000000E+00  0.00000000000E+00  0.37768380832E+02  0.37768380832E+02  0.00000000000E+00 0. -1.
         -1   -1    0    0    0  501 -0.00000000000E+00 -0.00000000000E+00 -0.62905354247E+03  0.62905354247E+03  0.00000000000E+00 0.  1.
         23    2    1    2    0    0 -0.71900614471E+02 -0.33384996801E+02 -0.48022500127E+03  0.50254276238E+03  0.12509564264E+03 0.  0.
          5    1    3    3  502    0 -0.43159936858E+02 -0.79173904867E+02 -0.24368679866E+03  0.25986922788E+03  0.41800000000E+01 0. -1.
         -5    1    3    3    0  502 -0.28740677613E+02  0.45788908066E+02 -0.23653820261E+03  0.24267353450E+03  0.41800000000E+01 0. -1.
        -11    1    1    2    0    0  0.33759189665E+01 -0.27899901935E+02 -0.17474308512E+02  0.33093093159E+02  0.00000000000E+00 0.  1.
         11    1    1    2    0    0  0.68524695505E+02  0.61284898736E+02 -0.93585851865E+02  0.13118606777E+03  0.00000000000E+00 0. -1.
</event>
<event>
 7    1  0.1226955E-005  0.1264751E+03  0.7561462E-02  0.1232782E+00
         -2   -1    0    0    0  501 -0.00000000000E+00  0.00000000000E+00  0.10917184920E+03  0.10917184920E+03  0.00000000000E+00 0.  1.
          2   -1    0    0  501    0  0.00000000000E+00 -0.00000000000E+00 -0.24539543512E+03  0.24539543512E+03  0.00000000000E+00 0. -1.
         23    2    1    2    0    0 -0.76798816659E+02  0.49048720854E+02  0.15047273916E+02  0.15548965697E+03  0.12508708053E+03 0.  0.
          5    1    3    3  502    0 -0.54526402258E+02 -0.33997537151E+02  0.24485864406E+02  0.68891153504E+02  0.41800000000E+01 0.  1.
         -5    1    3    3    0  502 -0.22272414401E+02  0.83046258005E+02 -0.94385904896E+01  0.86598503465E+02  0.41800000000E+01 0.  1.
        -11    1    1    2    0    0  0.79390944472E+02 -0.32600650547E+02 -0.15902772061E+03  0.18070844032E+03  0.00000000000E+00 0. -1.
         11    1    1    2    0    0 -0.25921278130E+01 -0.16448070307E+02  0.77568607613E+01  0.18369187034E+02  0.00000000000E+00 0.  1.
</event>
<event>
 7    1  0.1226955E-005  0.1309147E+03  0.7561462E-02  0.1226105E+00
          1   -1    0    0  501    0  0.00000000000E+00  0.00000000000E+00  0.29286409601E+03  0.29286409601E+03  0.00000000000E+00 0. -1.
         -1   -1    0    0    0  501 -0.00000000000E+00 -0.00000000000E+00 -0.99361196052E+02  0.99361196052E+02  0.00000000000E+00 0.  1.
         23    2    1    2    0    0 -0.10662036619E+03  0.33539968860E+01  0.11782030247E+02  0.16481246615E+03  0.12508069787E+03 0.  0.
          5    1    3    3  502    0  0.22144287606E+02  0.10172721457E+02  0.24954308761E+02  0.35128957587E+02  0.41800000000E+01 0. -1.
         -5    1    3    3    0  502 -0.12876465379E+03 -0.68187245708E+01 -0.13172278514E+02  0.12968350856E+03  0.41800000000E+01 0. -1.
        -11    1    1    2    0    0  0.81492934633E+02  0.49082859288E+01  0.56148979392E+02  0.99085304423E+02  0.00000000000E+00 0.  1.
         11    1    1    2    0    0  0.25127431555E+02 -0.82622828148E+01  0.12557189032E+03  0.12832752149E+03  0.00000000000E+00 0. -1.
</event>
<event>
 7    1  0.1226955E-005  0.8824604E+02  0.7561462E-02  0.1307156E+00
          1   -1    0    0  501    0  0.00000000000E+00  0.00000000000E+00  0.25144932861E+02  0.25144932861E+02  0.00000000000E+00 0. -1.
         -1   -1    0    0    0  501 -0.00000000000E+00 -0.00000000000E+00 -0.80274172647E+03  0.80274172647E+03  0.00000000000E+00 0.  1.
         23    2    1    2    0    0  0.17771641265E+02 -0.13765365165E+02 -0.68723938325E+03  0.69889249754E+03  0.12508971463E+03 0.  0.
          5    1    3    3  502    0  0.46527571077E+02  0.90079311571E+01 -0.10265645349E+03  0.11314494040E+03  0.41800000000E+01 0. -1.
         -5    1    3    3    0  502 -0.28755929812E+02 -0.22773296322E+02 -0.58458292976E+03  0.58574755714E+03  0.41800000000E+01 0. -1.
        -11    1    1    2    0    0 -0.44781724709E+02  0.35646262789E+02 -0.53902677300E+02  0.78622881777E+02  0.00000000000E+00 0.  1.
         11    1    1    2    0    0  0.27010083444E+02 -0.21880897624E+02 -0.36454733051E+02  0.50371280014E+02  0.00000000000E+00 0. -1.
</event>
<event>
 7    1  0.1226955E-005  0.1504713E+03  0.7561462E-02  0.1199895E+00
          2   -1    0    0  501    0  0.00000000000E+00  0.00000000000E+00  0.88723573163E+03  0.88723573163E+03  0.00000000000E+00 0. -1.
         -2   -1    0    0    0  501 -0.00000000000E+00 -0.00000000000E+00 -0.30237700086E+02  0.30237700086E+02  0.00000000000E+00 0.  1.
         23    2    1    2    0    0  0.80204664320E+02 -0.81174392925E+02  0.33255324819E+03  0.37317669448E+03  0.12508841742E+03 0.  0.
          5    1    3    3  502    0 -0.23609137479E+02  0.94724257257E+01  0.24021530173E+02  0.35236692999E+02  0.41800000000E+01 0. -1.
         -5    1    3    3    0  502  0.10381380180E+03 -0.90646818651E+02  0.30853171802E+03  0.33794000148E+03  0.41800000000E+01 0. -1.
        -11    1    1    2    0    0 -0.43769290556E+02 -0.46757562686E+01  0.93055466654E+02  0.10294140744E+03  0.00000000000E+00 0.  1.
         11    1    1    2    0    0 -0.36435373764E+02  0.85850149194E+02  0.43138931670E+03  0.44135532980E+03  0.00000000000E+00 0. -1.
</event>
<event>
 6    1  0.1226955E-005  0.1245497E+03  0.7561462E-02  0.1235775E+00
         -2   -1    0    0    0  501 -0.00000000000E+00  0.00000000000E+00  0.11793191765E+03  0.11793191765E+03  0.00000000000E+00 0.  1.
          2   -1    0    0  501    0  0.00000000000E+00 -0.00000000000E+00 -0.13365372641E+03  0.13365372641E+03  0.00000000000E+00 0. -1.
          5    1    1    2  502    0  0.73569081429E+02 -0.41586410522E+02 -0.19068076234E+02  0.86734671347E+02  0.41800000000E+01 0. -1.
         -5    1    1    2    0  502 -0.65915807183E+02  0.33944277300E+02  0.56801882388E+01  0.74477141033E+02  0.41800000000E+01 0.  1.
        -11    1    1    2    0    0  0.38778631147E+02 -0.10818257428E+02  0.12463689518E+01  0.40278658902E+02  0.00000000000E+00 0. -1.
         11    1    1    2    0    0 -0.46431905393E+02  0.18460390650E+02 -0.35802897193E+01  0.50095172780E+02  0.00000000000E+00 0.  1.
</event>
<event>
 7    1  0.1226955E-005  0.1540460E+03  0.7561462E-02  0.1195588E+00
          1   -1    0    0  501    0  0.00000000000E+00  0.00000000000E+00  0.29802550674E+03  0.29802550674E+03  0.00000000000E+00 0. -1.
         -1   -1    0    0    0  501 -0.00000000000E+00 -0.00000000000E+00 -0.14059940080E+03  0.14059940080E+03  0.00000000000E+00 0.  1.
         23    2    1    2    0    0  0.83609339718E+02 -0.12223583970E+03 -0.24463779114E+02  0.18731581026E+03  0.11205629875E+03 0.  0.
          5    1    3    3  502    0  0.71418308020E+01 -0.29964165548E+02  0.40407485704E+02  0.50981312901E+02  0.41800000000E+01 0. -1.
         -5    1    3    3    0  502  0.76467508916E+02 -0.92271674150E+02 -0.64871264818E+02  0.13633449736E+03  0.41800000000E+01 0.  1.
        -11    1    1    2    0    0  0.71826518467E+01  0.14667368602E+02 -0.52360274862E+01  0.17150456935E+02  0.00000000000E+00 0.  1.
         11    1    1    2    0    0 -0.90791991565E+02  0.10756847110E+03  0.18712591254E+03  0.23415864035E+03  0.00000000000E+00 0. -1.
</event>
<event>
 7    1  0.1226955E-005  0.1127705E+03  0.7561462E-02  0.1255524E+00
          2   -1    0    0  501    0  0.00000000000E+00  0.00000000000E+00  0.31001731366E+02  0.31001731366E+02  0.00000000000E+00 0. -1.
         -2   -1    0    0    0  501 -0.00000000000E+00 -0.00000000000E+00 -0.46844139887E+03  0.46844139887E+03  0.00000000000E+00 0.  1.
         23    2    1    2    0    0 -0.31775506793E+02 -0.26927504463E+02 -0.31366487044E+03  0.34024706605E+03  0.12509053394E+03 0.  0.
          5    1    3    3  502    0 -0.65566697066E+02  0.23469802985E+02 -0.14400547070E+03  0.16001522243E+03  0.41800000000E+01 0. -1.
         -5    1    3    3    0  502  0.33791190273E+02 -0.50397307448E+02 -0.16965939974E+03  0.18023184363E+03  0.41800000000E+01 0. -1.
        -11    1    1    2    0    0  0.23842407376E+02  0.58092587539E+02 -0.55830019273E+02  0.84024997283E+02  0.00000000000E+00 0. -1.
         11    1    1    2    0    0  0.79330994168E+01 -0.31165083076E+02 -0.67944777793E+02  0.75171066899E+02  0.00000000000E+00 0.  1.
</event>
<event>
 7    1  0.1226955E-005  0.9080821E+02  0.7561462E-02  0.1300906E+00
          1   -1    0    0  501    0  0.00000000000E+00  0.00000000000E+00  0.43693461657E+02  0.43693461657E+02  0.00000000000E+00 0. -1.
         -1   -1    0    0    0  501 -0.00000000000E+00 -0.00000000000E+00 -0.30767340337E+03  0.30767340337E+03  0.00000000000E+00 0.  1.
         23    2    1    2    0    0  0.27350132564E+02 -0.52608030081E+01 -0.20215409854E+03  0.23935619949E+03  0.12509758141E+03 0.  0.
          5    1    3    3  502    0  0.62231300451E+02  0.31478169773E+02 -0.15501158096E+03  0.17002844633E+03  0.41800000000E+01 0. -1.
         -5    1    3    3    0  502 -0.34881167887E+02 -0.36738972781E+02 -0.47142517578E+02  0.69327753157E+02  0.41800000000E+01 0. -1.
        -11    1    1    2    0    0 -0.15381606551E+02  0.29845592956E+02 -0.74617083754E+02  0.81823361132E+02  0.00000000000E+00 0.  1.
         11    1    1    2    0    0 -0.11968526013E+02 -0.24584789948E+02  0.12791240584E+02  0.30187304408E+02  0.00000000000E+00 0. -1.
</event>
<event>
 7    1  0.1226955E-005  0.2507287E+03  0.7561462E-02  0.1112845E+00
          1   -1    0    0  501    0  0.00000000000E+00  0.00000000000E+00  0.21477583511E+03  0.21477583511E+03  0.00000000000E+00 0. -1.
         -1   -1    0    0    0  501 -0.00000000000E+00 -0.00000000000E+00 -0.39852158121E+03  0.39852158121E+03  0.00000000000E+00 0.  1.
         23    2    1    2    0    0  0.54502545273E+02  0.23068464014E+03 -0.23401996746E+03  0.35580734523E+03  0.12509033179E+03 0.  0.
          5    1    3    3  502    0  0.45711363040E+02  0.23463261928E+03 -0.17608195583E+03  0.29692477551E+03  0.41800000000E+01 0. -1.
         -5    1    3    3    0  502  0.87911822333E+01 -0.39479791431E+01 -0.57938011636E+02  0.58882569719E+02  0.41800000000E+01 0. -1.
        -11    1    1    2    0    0  0.54124666332E+01 -0.15614088866E+03  0.22109178598E+02  0.15779127886E+03  0.00000000000E+00 0. -1.
         11    1    1    2    0    0 -0.59915011906E+02 -0.74543751477E+02  0.28165042768E+02  0.99698792220E+02  0.00000000000E+00 0.  1.
</event>
<event>
 7    1  0.1226955E-005  0.1010958E+03  0.7561462E-02  0.1278008E+00
         -2   -1    0    0    0  501 -0.00000000000E+00  0.00000000000E+00  0.78059331535E+03  0.78059331535E+03  0.00000000000E+00 0.  1.
          2   -1    0    0  501    0  0.00000000000E+00 -0.00000000000E+00 -0.20834065302E+02  0.20834065302E+02  0.00000000000E+00 0. -1.
         23    2    1    2    0    0 -0.22850661510E+02  0.67153837881E+01  0.62884287578E+03  0.64160802190E+03  0.12510092821E+03 0.  0.
          5    1    3    3  502    0  0.25236215205E+02 -0.37739836877E+02  0.42558167280E+03  0.42801681564E+03  0.41800000000E+01 0. -1.
         -5    1    3    3    0  502 -0.48086876715E+02  0.44455220665E+02  0.20326120297E+03  0.21359120626E+03  0.41800000000E+01 0. -1.
        -11    1    1    2    0    0  0.44884782506E+02 -0.33709568749E+02  0.90062478064E+02  0.10612364808E+03  0.00000000000E+00 0.  1.
         11    1    1    2    0    0 -0.22034120996E+02  0.26994184961E+02  0.40853896203E+02  0.53695710674E+02  0.00000000000E+00 0. -1.
</event>
<event>
 7    1  0.1226955E-005  0.7542055E+02  0.7561462E-02  0.1342574E+00
         -2   -1    0    0    0  501 -0.00000000000E+00  0.00000000000E+00  0.29642103397E+02  0.29642103397E+02  0.00000000000E+00 0. -1.
          2   -1    0    0  501    0  0.00000000000E+00 -0.00000000000E+00 -0.41301713414E+03  0.41301713414E+03  0.00000000000E+00 0.  1.
         23    2    1    2    0    0 -0.11240917080E+02 -0.20074335614E+02 -0.20699475585E+03  0.24294820151E+03  0.12509061717E+03 0.  0.
          5    1    3    3  502    0 -0.30434397441E+02  0.74753793016E+01 -0.20670741911E+03  0.20911136592E+03  0.41800000000E+01 0.  1.
         -5    1    3    3    0  502  0.19193480361E+02 -0.27549714916E+02 -0.28733673575E+00  0.33836835589E+02  0.41800000000E+01 0.  1.
        -11    1    1    2    0    0  0.12228156184E+02 -0.31507736642E+02 -0.11322618244E+03  0.11816274228E+03  0.00000000000E+00 0.  1.
         11    1    1    2    0    0 -0.98723910405E+00  0.51582072256E+02 -0.63154092456E+02  0.81548293748E+02  0.00000000000E+00 0. -1.
</event>
<event>
 7    1  0.1226955E-005  0.8635188E+02  0.7561462E-02  0.1311935E+00
         -2   -1    0    0    0  501 -0.00000000000E+00  0.00000000000E+00  0.14331834718E+03  0.14331834718E+03  0.00000000000E+00 0.  1.
          2   -1    0    0  501    0  0.00000000000E+00 -0.00000000000E+00 -0.90517019892E+02  0.90517019892E+02  0.00000000000E+00 0. -1.
         23    2    1    2    0    0  0.11784364113E+02  0.20901520604E+02  0.54759729211E+02  0.13864128821E+03  0.12508810515E+03 0.  0.
          5    1    3    3  502    0 -0.47009248819E+02 -0.22706097438E+02  0.33992641539E+02  0.62437235798E+02  0.41800000000E+01 0.  1.
         -5    1    3    3    0  502  0.58793612932E+02  0.43607618042E+02  0.20767087673E+02  0.76204052407E+02  0.41800000000E+01 0.  1.
        -11    1    1    2    0    0  0.13610146784E+02  0.76239855496E+00 -0.41363273664E+02  0.43551552846E+02  0.00000000000E+00 0. -1.
         11    1    1    2    0    0 -0.25394510897E+02 -0.21663919159E+02  0.39404871742E+02  0.51642526023E+02  0.00000000000E+00 0.  1.
</event>
<event>
 7    1  0.1226955E-005  0.1583930E+03  0.7561462E-02  0.1190523E+00
         -1   -1    0    0    0  501 -0.00000000000E+00  0.00000000000E+00  0.62442158498E+02  0.62442158498E+02  0.00000000000E+00 0.  1.
          1   -1    0    0  501    0  0.00000000000E+00 -0.00000000000E+00 -0.46184084380E+03  0.46184084380E+03  0.00000000000E+00 0. -1.
         23    2    1    2    0    0  0.92049325801E+02 -0.83434043201E+02 -0.14700542440E+03  0.22954726119E+03  0.12508809844E+03 0.  0.
          5    1    3    3  502    0  0.11835494965E+03 -0.86334288665E+02 -0.13794003082E+03  0.20126208785E+03  0.41800000000E+01 0.  1.
         -5    1    3    3    0  502 -0.26305623849E+02  0.29002454645E+01 -0.90653935882E+01  0.28285173338E+02  0.41800000000E+01 0.  1.
        -11    1    1    2    0    0 -0.66323564552E+02  0.94483085690E+02 -0.15416177399E+03  0.19259211110E+03  0.00000000000E+00 0.  1.
         11    1    1    2    0    0 -0.25725761249E+02 -0.11049042489E+02 -0.98231486907E+02  0.10214363001E+03  0.00000000000E+00 0. -1.
</event>
<event>
 7    1  0.1226955E-005  0.2099450E+03  0.7561462E-02  0.1141610E+00
          2   -1    0    0  501    0  0.00000000000E+00  0.00000000000E+00  0.86132889839E+03  0.86132889839E+03  0.00000000000E+00 0.  1.
         -2   -1    0    0    0  501 -0.00000000000E+00 -0.00000000000E+00 -0.58316178409E+02  0.58316178409E+02  0.00000000000E+00 0. -1.
         23    2    1    2    0    0  0.17837926049E+03  0.44735057003E+02  0.27662554839E+03  0.35494888698E+03  0.12508649986E+03 0.  0.
          5    1    3    3  502    0  0.16784009464E+03  0.75403821000E+02  0.20086716101E+03  0.27243553800E+03  0.41800000000E+01 0.  1.
         -5    1    3    3    0  502  0.10539165846E+02 -0.30668763997E+02  0.75758387379E+02  0.82513348982E+02  0.41800000000E+01 0.  1.
        -11    1    1    2    0    0 -0.11652250348E+03 -0.70441068423E+02  0.32174796145E+03  0.34937256422E+03  0.00000000000E+00 0.  1.
         11    1    1    2    0    0 -0.61856757014E+02  0.25706011420E+02  0.20463921014E+03  0.21532362559E+03  0.00000000000E+00 0. -1.
</event>
<event>
 7    1  0.1226955E-005  0.9583240E+02  0.7561462E-02  0.1289312E+00
         -1   -1    0    0    0  501 -0.00000000000E+00  0.00000000000E+00  0.21218772886E+03  0.21218772886E+03  0.00000000000E+00 0.  1.
          1   -1    0    0  501    0  0.00000000000E+00 -0.00000000000E+00 -0.60674860609E+02  0.60674860609E+02  0.00000000000E+00 0. -1.
         23    2    1    2    0    0 -0.99630476858E+01 -0.19488277492E+02  0.11756311700E+03  0.17305029235E+03  0.12508501879E+03 0.  0.
          5    1    3    3  502    0 -0.29124284613E+02 -0.67129657001E+02  0.52994090303E+02  0.90445899909E+02  0.41800000000E+01 0.  1.
         -5    1    3    3    0  502  0.19161236927E+02  0.47641379509E+02  0.64569026700E+02  0.82604392445E+02  0.41800000000E+01 0.  1.
        -11    1    1    2    0    0 -0.38345517272E+01 -0.22411426613E+02  0.48332696321E+02  0.53413718870E+02  0.00000000000E+00 0.  1.
         11    1    1    2    0    0  0.13797599413E+02  0.41899704105E+02 -0.14382945080E+02  0.46398578241E+02  0.00000000000E+00 0. -1.
</event>
<event>
 7    1  0.1226955E-005  0.1543143E+03  0.7561462E-02  0.1195270E+00
         -1   -1    0    0    0  501 -0.00000000000E+00  0.00000000000E+00  0.57108452947E+03  0.57108452947E+03  0.00000000000E+00 0.  1.
          1   -1    0    0  501    0  0.00000000000E+00 -0.00000000000E+00 -0.57968598414E+02  0.57968598414E+02  0.00000000000E+00 0. -1.
         23    2    1    2    0    0 -0.12379454463E+03 -0.22715239452E+02  0.39897108036E+03  0.43665355829E+03  0.12508931056E+03 0.  0.
          5    1    3    3  502    0  0.19608197779E+02  0.61852021972E-01  0.12116168726E+02  0.23425609713E+02  0.41800000000E+01 0.  1.
         -5    1    3    3    0  502 -0.14340274241E+03 -0.22777091474E+02  0.38685491164E+03  0.41322794858E+03  0.41800000000E+01 0.  1.
        -11    1    1    2    0    0  0.61206472156E+02 -0.23452274212E+02  0.16544311448E+02  0.67601447032E+02  0.00000000000E+00 0.  1.
         11    1    1    2    0    0  0.62588072478E+02  0.46167513663E+02  0.97600539247E+02  0.12479812256E+03  0.00000000000E+00 0. -1.
</event>
<event>
 7    1  0.1226955E-005  0.1099198E+03  0.7561462E-02  0.1260718E+00
         -2   -1    0    0    0  501 -0.00000000000E+00  0.00000000000E+00  0.18601131823E+02  0.18601131823E+02  0.00000000000E+00 0.  1.
          2   -1    0    0  501    0  0.00000000000E+00 -0.00000000000E+00 -0.92569126105E+03  0.92569126105E+03  0.00000000000E+00 0. -1.
         23    2    1    2    0    0  0.83207882435E+02 -0.22750072470E+01 -0.45760025926E+03  0.47828605523E+03  0.11149361414E+03 0.  0.
          5    1    3    3  502    0  0.30198724330E+02  0.25433811346E+02 -0.37003738255E+03  0.37216122661E+03  0.41800000000E+01 0. -1.
         -5    1    3    3    0  502  0.53009158105E+02 -0.27708818593E+02 -0.87562876711E+02  0.10612482862E+03  0.41800000000E+01 0.  1.
        -11    1    1    2    0    0 -0.21269042674E+02  0.41660777084E+02 -0.22536766791E+03  0.23017075892E+03  0.00000000000E+00 0.  1.
         11    1    1    2    0    0 -0.61938839761E+02 -0.39385769837E+02 -0.22412220206E+03  0.23583557873E+03  0.00000000000E+00 0. -1.
</event>
<event>
 7    1  0.1226955E-005  0.1217086E+03  0.7561462E-02  0.1240305E+00
          1   -1    0    0  501    0  0.00000000000E+00  0.00000000000E+00  0.11219349163E+03  0.11219349163E+03  0.00000000000E+00 0. -1.
         -1   -1    0    0    0  501 -0.00000000000E+00 -0.00000000000E+00 -0.16192715357E+03  0.16192715357E+03  0.00000000000E+00 0.  1.
         23    2    1    2    0    0  0.26613652202E+02  0.62644598304E+02 -0.68293928402E+02  0.15794112370E+03  0.12509478694E+03 0.  0.
          5    1    3    3  502    0 -0.11003860777E+02 -0.31898629310E+02  0.22199027353E+01  0.34073565590E+02  0.41800000000E+01 0.  1.
         -5    1    3    3    0  502  0.37617512979E+02  0.94543227614E+02 -0.70513831138E+02  0.12386755811E+03  0.41800000000E+01 0.  1.
        -11    1    1    2    0    0  0.29394390712E+02 -0.33055156645E+02  0.27682394169E+02  0.52182262629E+02  0.00000000000E+00 0.  1.
         11    1    1    2    0    0 -0.56008042915E+02 -0.29589441658E+02 -0.91221277114E+01  0.63997258869E+02  0.00000000000E+00 0. -1.
</event>
<event>
 7    1  0.1226955E-005  0.1203543E+03  0.7561462E-02  0.1242514E+00
          2   -1    0    0  501    0  0.00000000000E+00  0.00000000000E+00  0.41612555412E+03  0.41612555412E+03  0.00000000000E+00 0. -1.
         -2   -1    0    0    0  501 -0.00000000000E+00 -0.00000000000E+00 -0.40123046797E+02  0.40123046797E+02  0.00000000000E+00 0.  1.
         23    2    1    2    0    0 -0.13962377908E+02  0.73819075444E+02  0.21948165015E+03  0.26356066810E+03  0.12509127517E+03 0.  0.
          5    1    3    3  502    0  0.46049272351E+02  0.44869610526E+02  0.16585137792E+03  0.17792686528E+03  0.41800000000E+01 0.  1.
         -5    1    3    3    0  502 -0.60011650259E+02  0.28949464918E+02  0.53630272229E+02  0.85633802819E+02  0.41800000000E+01 0.  1.
        -11    1    1    2    0    0 -0.31409475092E+02 -0.13872396743E+02  0.70679524372E+02  0.78578582848E+02  0.00000000000E+00 0. -1.
         11    1    1    2    0    0  0.45371853000E+02 -0.59946678701E+02  0.85841332803E+02  0.11410934996E+03  0.00000000000E+00 0.  1.
</event>
<event>
 7    1  0.1226955E-005  0.1180915E+03  0.7561462E-02  0.1246279E+00
         -1   -1    0    0    0  501 -0.00000000000E+00  0.00000000000E+00  0.83194135229E+02  0.83194135229E+02  0.00000000000E+00 0.  1.
          1   -1    0    0  501    0  0.00000000000E+00 -0.00000000000E+00 -0.32289108335E+03  0.32289108335E+03  0.00000000000E+00 0. -1.
         23    2    1    2    0    0 -0.83623106119E+02 -0.20563322772E+02 -0.18943451201E+02  0.15307099637E+03  0.12512474362E+03 0.  0.
          5    1    3    3  502    0 -0.42359402697E+02 -0.72038717999E+02  0.20901908047E+01  0.83700281872E+02  0.41800000000E+01 0.  1.
         -5    1    3    3    0  502 -0.41263703421E+02  0.51475395227E+02 -0.21033642006E+02  0.69370714497E+02  0.41800000000E+01 0.  1.
        -11    1    1    2    0    0  0.51792140500E+02  0.91854905403E+01 -0.32676840888E+02  0.61923945162E+02  0.00000000000E+00 0.  1.
         11    1    1    2    0    0  0.31830965619E+02  0.11377832232E+02 -0.18807665603E+03  0.19109027705E+03  0.00000000000E+00 0. -1.
</event>
<event>
 7    1  0.1226955E-005  0.1594040E+03  0.7561462E-02  0.1189371E+00
         -2   -1    0    0    0  501 -0.00000000000E+00  0.00000000000E+00  0.71103204586E+02  0.71103204586E+02  0.00000000000E+00 0.  1.
          2   -1    0    0  501    0  0.00000000000E+00 -0.00000000000E+00 -0.43695763454E+03  0.43695763454E+03  0.00000000000E+00 0. -1.
         23    2    1    2    0    0  0.14835082267E+01 -0.13440836641E+03 -0.14437112753E+03  0.23357697310E+03  0.12508944856E+03 0.  0.
          5    1    3    3  502    0 -0.57853945749E+02 -0.35291550385E+02 -0.49316551759E+02  0.83917621777E+02  0.41800000000E+01 0. -1.
         -5    1    3    3    0  502  0.59337453976E+02 -0.99116816027E+02 -0.95054575776E+02  0.14965935133E+03  0.41800000000E+01 0. -1.
        -11    1    1    2    0    0 -0.60969793304E+01  0.12062940763E+03 -0.22841568845E+03  0.25838412078E+03  0.00000000000E+00 0. -1.
         11    1    1    2    0    0  0.46134711037E+01  0.13778958779E+02  0.69323860305E+01  0.16099745238E+02  0.00000000000E+00 0.  1.
</event>
<event>
 7    1  0.1226955E-005  0.2293459E+03  0.7561462E-02  0.1127101E+00
          1   -1    0    0  501    0  0.00000000000E+00  0.00000000000E+00  0.16995971975E+03  0.16995971975E+03  0.00000000000E+00 0. -1.
         -1   -1    0    0    0  501 -0.00000000000E+00 -0.00000000000E+00 -0.33118854110E+03  0.33118854110E+03  0.00000000000E+00 0.  1.
         23    2    1    2    0    0 -0.15414363069E+03 -0.13572776692E+03 -0.13266862556E+03  0.27464538570E+03  0.12508732184E+03 0.  0.
          5    1    3    3  502    0 -0.13574847623E+03 -0.45036639069E+02 -0.10655613668E+03  0.17840299975E+03  0.41800000000E+01 0.  1.
         -5    1    3    3    0  502 -0.18395154461E+02 -0.90691127846E+02 -0.26112488878E+02  0.96242385948E+02  0.41800000000E+01 0.  1.
        -11    1    1    2    0    0  0.35532755695E+02  0.88392204276E+02 -0.26076928199E+02  0.98771274611E+02  0.00000000000E+00 0.  1.
         11    1    1    2    0    0  0.11861087499E+03  0.47335562639E+02 -0.24832675998E+01  0.12773160054E+03  0.00000000000E+00 0. -1.
</event>
<event>
 7    1  0.1226955E-005  0.1124211E+03  0.7561462E-02  0.1256151E+00
          3   -1    0    0  501    0  0.00000000000E+00  0.00000000000E+00  0.11982751492E+03  0.11982751492E+03  0.00000000000E+00 0. -1.
         -3   -1    0    0    0  501 -0.00000000000E+00 -0.00000000000E+00 -0.17553037667E+03  0.17553037667E+03  0.00000000000E+00 0.  1.
         23    2    1    2    0    0  0.54671778958E+02 -0.77705738161E+02 -0.14828566487E+02  0.15777900956E+03  0.12508854590E+03 0.  0.
          5    1    3    3  502    0  0.25400153736E+02  0.11487286613E+02  0.40039046041E+02  0.48966551557E+02  0.41800000000E+01 0.  1.
         -5    1    3    3    0  502  0.29271625222E+02 -0.89193024774E+02 -0.54867612528E+02  0.10881245800E+03  0.41800000000E+01 0.  1.
        -11    1    1    2    0    0  0.20761517515E+01  0.25480774318E+02  0.25292862260E+02  0.35962607625E+02  0.00000000000E+00 0. -1.
         11    1    1    2    0    0 -0.56747930710E+02  0.52224963843E+02 -0.66167157525E+02  0.10161627440E+03  0.00000000000E+00 0.  1.
</event>
<event>
 7    1  0.1226955E-005  0.1676462E+03  0.7561462E-02  0.1180325E+00
          1   -1    0    0  501    0  0.00000000000E+00  0.00000000000E+00  0.83655945232E+02  0.83655945232E+02  0.00000000000E+00 0. -1.
         -1   -1    0    0    0  501 -0.00000000000E+00 -0.00000000000E+00 -0.36565705869E+03  0.36565705869E+03  0.00000000000E+00 0.  1.
         23    2    1    2    0    0 -0.11491498320E+03  0.73657506507E+02 -0.14952063597E+03  0.23798147819E+03  0.12509149352E+03 0.  0.
          5    1    3    3  502    0 -0.86525930536E+02  0.10229541037E+03 -0.76179409715E+02  0.15418126508E+03  0.41800000000E+01 0. -1.
         -5    1    3    3    0  502 -0.28389052663E+02 -0.28637903859E+02 -0.73341226252E+02  0.83800213106E+02  0.41800000000E+01 0. -1.
        -11    1    1    2    0    0  0.16723252484E+02 -0.59123765492E+02 -0.73770563645E+02  0.96007202231E+02  0.00000000000E+00 0. -1.
         11    1    1    2    0    0  0.98191730715E+02 -0.14533741014E+02 -0.58709913848E+02  0.11532432351E+03  0.00000000000E+00 0.  1.
</event>
<event>
 7    1  0.1226955E-005  0.1067441E+03  0.7561462E-02  0.1266721E+00
         -4   -1    0    0    0  501 -0.00000000000E+00  0.00000000000E+00  0.34653180956E+03  0.34653180956E+03  0.00000000000E+00 0.  1.
          4   -1    0    0  501    0  0.00000000000E+00 -0.00000000000E+00 -0.63396110259E+02  0.63396110259E+02  0.00000000000E+00 0. -1.
         23    2    1    2    0    0 -0.52134015687E+01  0.55739414190E+02  0.26952862651E+03  0.30237005288E+03  0.12509159252E+03 0.  0.
          5    1    3    3  502    0  0.37564472348E+02 -0.68700247528E+01  0.18410298820E+03  0.18806825752E+03  0.41800000000E+01 0.  1.
         -5    1    3    3    0  502 -0.42777873916E+02  0.62609438943E+02  0.85425638315E+02  0.11430179536E+03  0.41800000000E+01 0.  1.
        -11    1    1    2    0    0  0.12857866531E+02  0.19579356796E+02  0.21043013217E+02  0.31487844473E+02  0.00000000000E+00 0.  1.
         11    1    1    2    0    0 -0.76444649619E+01 -0.75318770986E+02 -0.74359404313E+01  0.76070022463E+02  0.00000000000E+00 0. -1.
</event>
<event>
 6    1  0.1226955E-005  0.1008958E+03  0.7561462E-02  0.1278423E+00
         -2   -1    0    0    0  501 -0.00000000000E+00  0.00000000000E+00  0.66257794099E+02  0.66257794099E+02  0.00000000000E+00 0.  1.
          2   -1    0    0  501    0  0.00000000000E+00 -0.00000000000E+00 -0.35874331372E+03  0.35874331372E+03  0.00000000000E+00 0. -1.
          5    1    1    2  502    0  0.65872699237E+02 -0.30662186735E+02 -0.10408424139E+03  0.12700544833E+03  0.41800000000E+01 0. -1.
         -5    1    1    2    0  502 -0.21865161725E+02  0.19972697129E+02  0.38818163736E+02  0.49003226054E+02  0.41800000000E+01 0.  1.
        -11    1    1    2    0    0 -0.52242419676E+02 -0.28189742839E+02 -0.16297166927E+03  0.17344652490E+03  0.00000000000E+00 0. -1.
         11    1    1    2    0    0  0.82348821650E+01  0.38879232445E+02 -0.64247772692E+02  0.75545908530E+02  0.00000000000E+00 0.  1.
</event>
<event>
 7    1  0.1226955E-005  0.1124811E+03  0.7561462E-02  0.1256043E+00
         -2   -1    0    0    0  501 -0.00000000000E+00  0.00000000000E+00  0.72996774326E+02  0.72996774326E+02  0.00000000000E+00 0.  1.
          2   -1    0    0  501    0  0.00000000000E+00 -0.00000000000E+00 -0.23584474594E+03  0.23584474594E+03  0.00000000000E+00 0. -1.
         23    2    1    2    0    0 -0.57967340799E+02  0.11642468952E+02 -0.39829116718E+02  0.14397251028E+03  0.12508383387E+03 0.  0.
          5    1    3    3  502    0 -0.72743985026E+02 -0.36725651868E+02 -0.44620249055E+02  0.92999461764E+02  0.41800000000E+01 0. -1.
         -5    1    3    3    0  502  0.14776644227E+02  0.48368120820E+02  0.47911323366E+01  0.50973048519E+02  0.41800000000E+01 0. -1.
        -11    1    1    2    0    0  0.59971865894E+02 -0.34824819644E+02 -0.43146510315E+02  0.81676276326E+02  0.00000000000E+00 0.  1.
         11    1    1    2    0    0 -0.20045250945E+01  0.23182350692E+02 -0.79872344584E+02  0.83192733660E+02  0.00000000000E+00 0. -1.
</event>
<event>
 7    1  0.1226955E-005  0.1118003E+03  0.7561462E-02  0.1257272E+00
          2   -1    0    0  501    0  0.00000000000E+00  0.00000000000E+00  0.30673736386E+03  0.30673736386E+03  0.00000000000E+00 0. -1.
         -2   -1    0    0    0  501 -0.00000000000E+00 -0.00000000000E+00 -0.69389493035E+02  0.69389493035E+02  0.00000000000E+00 0.  1.
         23    2    1    2    0    0  0.76517286039E+02 -0.58903921248E+02  0.10515938614E+03  0.18981343274E+03  0.12508427460E+03 0.  0.
          5    1    3    3  502    0  0.49030806435E+02 -0.73165609438E+02  0.12487423615E+03  0.15286684938E+03  0.41800000000E+01 0. -1.
         -5    1    3    3    0  502  0.27486479604E+02  0.14261688190E+02 -0.19714850008E+02  0.36946583358E+02  0.41800000000E+01 0. -1.
        -11    1    1    2    0    0 -0.41082938866E+02  0.75250038983E+01  0.11383882421E+03  0.12125886132E+03  0.00000000000E+00 0. -1.
         11    1    1    2    0    0 -0.35434347172E+02  0.51378917350E+02  0.18349660470E+02  0.65054562845E+02  0.00000000000E+00 0.  1.
</event>
<event>
 7    1  0.1226955E-005  0.1493214E+03  0.7561462E-02  0.1201309E+00
          1   -1    0    0  501    0  0.00000000000E+00  0.00000000000E+00  0.53175243232E+03  0.53175243232E+03  0.00000000000E+00 0. -1.
         -1   -1    0    0    0  501 -0.00000000000E+00 -0.00000000000E+00 -0.48553086163E+02  0.48553086163E+02  0.00000000000E+00 0.  1.
         23    2    1    2    0    0  0.70441485758E+02  0.93717431834E+02  0.21994510724E+03  0.27886990025E+03  0.12509041179E+03 0.  0.
          5    1    3    3  502    0 -0.21024112089E+02  0.46173418532E+02  0.13808487149E+03  0.14716963682E+03  0.41800000000E+01 0. -1.
         -5    1    3    3    0  502  0.91465597846E+02  0.47544013302E+02  0.81860235749E+02  0.13170026343E+03  0.41800000000E+01 0. -1.
        -11    1    1    2    0    0 -0.78478046801E+02 -0.36084037925E+02  0.18240054479E+03  0.20181878100E+03  0.00000000000E+00 0.  1.
         11    1    1    2    0    0  0.80365610430E+01 -0.57633393909E+02  0.80853694126E+02  0.99616837235E+02  0.00000000000E+00 0. -1.
</event>
<event>
 7    1  0.1226955E-005  0.1816266E+03  0.7561462E-02  0.1166238E+00
         -1   -1    0    0    0  501 -0.00000000000E+00  0.00000000000E+00  0.36603882535E+03  0.36603882535E+03  0.00000000000E+00 0.  1.
          1   -1    0    0  501    0  0.00000000000E+00 -0.00000000000E+00 -0.13888827187E+03  0.13888827187E+03  0.00000000000E+00 0. -1.
         23    2    1    2    0    0 -0.37342609846E+02  0.14525362819E+03  0.26109286000E+03  0.32605240119E+03  0.12509036640E+03 0.  0.
          5    1    3    3  502    0  0.42174340128E+02  0.33909617405E+02  0.46265246671E+02  0.71319580532E+02  0.41800000000E+01 0.  1.
         -5    1    3    3    0  502 -0.79516949974E+02  0.11134401078E+03  0.21482761333E+03  0.25473282066E+03  0.41800000000E+01 0.  1.
        -11    1    1    2    0    0  0.62129266758E+02 -0.73863035574E+02 -0.36682125103E+02  0.10325392058E+03  0.00000000000E+00 0. -1.
         11    1    1    2    0    0 -0.24786656911E+02 -0.71390592614E+02  0.27398185844E+01  0.75620775455E+02  0.00000000000E+00 0.  1.
</event>
<event>
 7    1  0.1226955E-005  0.1715380E+03  0.7561462E-02  0.1176253E+00
         -2   -1    0    0    0  501 -0.00000000000E+00  0.00000000000E+00  0.23065211926E+03  0.23065211926E+03  0.00000000000E+00 0.  1.
          2   -1    0    0  501    0  0.00000000000E+00 -0.00000000000E+00 -0.18087294398E+03  0.18087294398E+03  0.00000000000E+00 0. -1.
         23    2    1    2    0    0 -0.59096537493E+01 -0.17107833265E+03  0.49132015986E+02  0.21763058723E+03  0.12508556109E+03 0.  0.
          5    1    3    3  502    0 -0.62547374428E+01 -0.50643516688E+02 -0.42259757060E+02  0.66387099573E+02  0.41800000000E+01 0. -1.
         -5    1    3    3    0  502  0.34508369353E+00 -0.12043481597E+03  0.91391773046E+02  0.15124348766E+03  0.41800000000E+01 0. -1.
        -11    1    1    2    0    0  0.48173158888E+01  0.40423640133E+02 -0.39986094473E+02  0.57062815960E+02  0.00000000000E+00 0. -1.
         11    1    1    2    0    0  0.10923378605E+01  0.13065469252E+03  0.40633253762E+02  0.13683166005E+03  0.00000000000E+00 0.  1.
</event>
<event>
 7    1  0.1226955E-005  0.1165375E+03  0.7561462E-02  0.1248921E+00
          1   -1    0    0  501    0  0.00000000000E+00  0.00000000000E+00  0.25066872203E+02  0.25066872203E+02  0.00000000000E+00 0. -1.
         -1   -1    0    0    0  501 -0.00000000000E+00 -0.00000000000E+00 -0.67938654304E+03  0.67938654304E+03  0.00000000000E+00 0.  1.
         23    2    1    2    0    0 -0.61388233835E+02 -0.18801888807E+02 -0.46868389066E+03  0.48931977035E+03  0.12508885648E+03 0.  0.
          5    1    3    3  502    0 -0.10088084814E+02 -0.58881653544E+02 -0.11487809000E+03  0.12955024717E+03  0.41800000000E+01 0. -1.
         -5    1    3    3    0  502 -0.51300149021E+02  0.40079764737E+02 -0.35380580065E+03  0.35976952317E+03  0.41800000000E+01 0. -1.
        -11    1    1    2    0    0  0.81922709377E+02  0.26381866393E+02 -0.13687450001E+03  0.16168476100E+03  0.00000000000E+00 0.  1.
         11    1    1    2    0    0 -0.20534475543E+02 -0.75799775859E+01 -0.48761280163E+02  0.53448883891E+02  0.00000000000E+00 0. -1.
</event>
<event>
 7    1  0.1226955E-005  0.1319469E+03  0.7561462E-02  0.1224595E+00
         -1   -1    0    0    0  501 -0.00000000000E+00  0.00000000000E+00  0.45645715959E+03  0.45645715959E+03  0.00000000000E+00 0.  1.
          1   -1    0    0  501    0  0.00000000000E+00 -0.00000000000E+00 -0.59304859549E+02  0.59304859549E+02  0.00000000000E+00 0. -1.
         23    2    1    2    0    0  0.86811244627E+02 -0.22491960721E+02  0.34760439369E+03  0.38015589970E+03  0.12509041961E+03 0.  0.
          5    1    3    3  502    0  0.11517557780E+03 -0.10894080566E+02  0.31311712062E+03  0.33383214096E+03  0.41800000000E+01 0. -1.
         -5    1    3    3    0  502 -0.28364333174E+02 -0.11597880155E+02  0.34487273067E+02  0.46323758743E+02  0.41800000000E+01 0. -1.
        -11    1    1    2    0    0  0.91245217763E+01  0.19143570913E+02 -0.91405626456E+01  0.23092922951E+02  0.00000000000E+00 0. -1.
         11    1    1    2    0    0 -0.95935766403E+02  0.33483898080E+01  0.58688468999E+02  0.11251319648E+03  0.00000000000E+00 0.  1.
</event>
<event>
 7    1  0.1226955E-005  0.1263374E+03  0.7561462E-02  0.1232994E+00
         -2   -1    0    0    0  501 -0.00000000000E+00  0.00000000000E+00  0.66161065253E+02  0.66161065253E+02  0.00000000000E+00 0.  1.
          2   -1    0    0  501    0  0.00000000000E+00 -0.00000000000E+00 -0.49906185648E+03  0.49906185648E+03  0.00000000000E+00 0. -1.
         23    2    1    2    0    0  0.60382451793E+02  0.56534491180E+02 -0.57538537120E+02  0.16062591471E+03  0.12509121490E+03 0.  0.
          5    1    3    3  502    0 -0.21880326401E+01 -0.12397120406E+02 -0.65751515228E+02  0.67076152514E+02  0.41800000000E+01 0.  1.
         -5    1    3    3    0  502  0.62570484433E+02  0.68931611587E+02  0.82129781086E+01  0.93549762199E+02  0.41800000000E+01 0.  1.
        -11    1    1    2    0    0 -0.97562656605E+02 -0.38304053046E+02 -0.21815357606E+03  0.24202614568E+03  0.00000000000E+00 0.  1.
         11    1    1    2    0    0  0.37180204812E+02 -0.18230438134E+02 -0.15720867805E+03  0.16257086134E+03  0.00000000000E+00 0. -1.
</event>
<event>
 7    1  0.1226955E-005  0.1099764E+03  0.7561462E-02  0.1260614E+00
         -1   -1    0    0    0  501 -0.00000000000E+00  0.00000000000E+00  0.81095944176E+02  0.81095944176E+02  0.00000000000E+00 0.  1.
          1   -1    0    0  501    0  0.00000000000E+00 -0.00000000000E+00 -0.17855163864E+03  0.17855163864E+03  0.00000000000E+00 0. -1.
         23    2    1    2    0    0  0.37078036452E+02  0.16560305597E+02 -0.22519181684E+02  0.13494017558E+03  0.12669930123E+03 0.  0.
          5    1    3    3  502    0  0.78434075247E+02  0.18039734051E+02 -0.39821372270E+02  0.89891880913E+02  0.41800000000E+01 0. -1.
         -5    1    3    3    0  502 -0.41356038795E+02 -0.14794284543E+01  0.17302190586E+02  0.45048294668E+02  0.41800000000E+01 0.  1.
        -11    1    1    2    0    0  0.29402854402E+02 -0.64493158912E+00 -0.34297970044E+02  0.45180687610E+02  0.00000000000E+00 0. -1.
         11    1    1    2    0    0 -0.66480890854E+02 -0.15915374008E+02 -0.40638542732E+02  0.79526719622E+02  0.00000000000E+00 0.  1.
</event>
<event>
 7    1  0.1226955E-005  0.1139362E+03  0.7561462E-02  0.1253449E+00
          1   -1    0    0  501    0  0.00000000000E+00  0.00000000000E+00  0.39508862034E+03  0.39508862034E+03  0.00000000000E+00 0. -1.
         -1   -1    0    0    0  501 -0.00000000000E+00 -0.00000000000E+00 -0.51495523706E+02  0.51495523706E+02  0.00000000000E+00 0.  1.
         23    2    1    2    0    0  0.55535653693E+02 -0.37505748667E+02  0.90676137172E+02  0.16840546653E+03  0.12508936522E+03 0.  0.
          5    1    3    3  502    0  0.80567631774E+02 -0.22541927522E+02  0.12286595819E+02  0.84662356587E+02  0.41800000000E+01 0. -1.
         -5    1    3    3    0  502 -0.25031978081E+02 -0.14963821145E+02  0.78389541353E+02  0.83743109946E+02  0.41800000000E+01 0. -1.
        -11    1    1    2    0    0 -0.51335156663E+02 -0.21379974545E+02  0.14258755781E+03  0.15304774831E+03  0.00000000000E+00 0. -1.
         11    1    1    2    0    0 -0.42004970297E+01  0.58885723212E+02  0.11032940165E+03  0.12513092920E+03  0.00000000000E+00 0.  1.
</event>
<event>
 7    1  0.1226955E-005  0.1215897E+03  0.7561462E-02  0.1240497E+00
         -1   -1    0    0    0  501 -0.00000000000E+00  0.00000000000E+00  0.30518372908E+03  0.30518372908E+03  0.00000000000E+00 0.  1.
          1   -1    0    0  501    0  0.00000000000E+00 -0.00000000000E+00 -0.13946806968E+03  0.13946806968E+03  0.00000000000E+00 0. -1.
         23    2    1    2    0    0 -0.74213779715E+02 -0.48286651022E+02  0.24888620985E+03  0.29228635460E+03  0.12509069458E+03 0.  0.
          5    1    3    3  502    0 -0.80365812824E+02 -0.75263755298E+02  0.23798402732E+03  0.26225401120E+03  0.41800000000E+01 0.  1.
         -5    1    3    3    0  502  0.61520331091E+01  0.26977104276E+02  0.10902182530E+02  0.30032343405E+02  0.41800000000E+01 0.  1.
        -11    1    1    2    0    0  0.70077600985E+02  0.15252120935E+02 -0.10566773533E+02  0.72492441370E+02  0.00000000000E+00 0.  1.
         11    1    1    2    0    0  0.41361787294E+01  0.33034530087E+02 -0.72603776914E+02  0.79873002790E+02  0.00000000000E+00 0. -1.
</event>
<event>
 7    1  0.1226955E-005  0.1021244E+03  0.7561462E-02  0.1275891E+00
          2   -1    0    0  501    0  0.00000000000E+00  0.00000000000E+00  0.25298575054E+03  0.25298575054E+03  0.00000000000E+00 0. -1.
         -2   -1    0    0    0  501 -0.00000000000E+00 -0.00000000000E+00 -0.64231916042E+02  0.64231916042E+02  0.00000000000E+00 0.  1.
         23    2    1    2    0    0  0.31591389568E+02  0.37075512055E+02  0.47626880503E+02  0.14243444679E+03  0.12508653964E+03 0.  0.
          5    1    3    3  502    0  0.49001881677E+01 -0.29083268107E+02  0.62685106876E+02  0.69402761846E+02  0.41800000000E+01 0. -1.
         -5    1    3    3    0  502  0.26691201400E+02  0.66158780162E+02 -0.15058226373E+02  0.73031684947E+02  0.41800000000E+01 0. -1.
        -11    1    1    2    0    0  0.32224182307E+02 -0.14084752404E+02  0.44326292554E+02  0.56582668612E+02  0.00000000000E+00 0. -1.
         11    1    1    2    0    0 -0.63815571875E+02 -0.22990759650E+02  0.96800661444E+02  0.11820055118E+03  0.00000000000E+00 0.  1.
</event>
<event>
 7    1  0.1226955E-005  0.1044976E+03  0.7561462E-02  0.1271113E+00
         -1   -1    0    0    0  501 -0.00000000000E+00  0.00000000000E+00  0.20869777640E+03  0.20869777640E+03  0.00000000000E+00 0.  1.
          1   -1    0    0  501    0  0.00000000000E+00 -0.00000000000E+00 -0.67153644039E+02  0.67153644039E+02  0.00000000000E+00 0. -1.
         23    2    1    2    0    0  0.43697070355E+02 -0.16612432311E+01  0.10250666889E+03  0.16753473193E+03  0.12509226814E+03 0.  0.
          5    1    3    3  502    0 -0.42709588561E+02  0.10669035938E+02  0.43955975459E+02  0.62350119979E+02  0.41800000000E+01 0. -1.
         -5    1    3    3    0  502  0.86406658916E+02 -0.12330279169E+02  0.58550693430E+02  0.10518461195E+03  0.41800000000E+01 0. -1.
        -11    1    1    2    0    0 -0.60297329340E+02 -0.22465825199E+01 -0.55355496331E+01  0.60592552086E+02  0.00000000000E+00 0. -1.
         11    1    1    2    0    0  0.16600258985E+02  0.39078257510E+01  0.44573013102E+02  0.47724136424E+02  0.00000000000E+00 0.  1.
</event>
<event>
 7    1  0.1226955E-005  0.1242806E+03  0.7561462E-02  0.1236198E+00
          1   -1    0    0  501    0  0.00000000000E+00  0.00000000000E+00  0.16108544746E+03  0.16108544746E+03  0.00000000000E+00 0. -1.
         -1   -1    0    0    0  501 -0.00000000000E+00 -0.00000000000E+00 -0.13078995906E+03  0.13078995906E+03  0.00000000000E+00 0.  1.
         23    2    1    2    0    0 -0.63287129152E+02 -0.51962523722E+02 -0.34634961926E+02  0.15346918799E+03  0.12509135256E+03 0.  0.
          5    1    3    3  502    0  0.37266058842E+02 -0.14537361899E+02 -0.20583657768E+02  0.45180232401E+02  0.41800000000E+01 0.  1.
         -5    1    3    3    0  502 -0.10055318799E+03 -0.37425161823E+02 -0.14051304157E+02  0.10828895559E+03  0.41800000000E+01 0.  1.
        -11    1    1    2    0    0  0.44090031284E+02  0.64435154586E+02  0.79374017097E+02  0.11133757046E+03  0.00000000000E+00 0. -1.
         11    1    1    2    0    0  0.19197097868E+02 -0.12472630863E+02 -0.14443566775E+02  0.27068648071E+02  0.00000000000E+00 0.  1.
</event>
<event>
 7    1  0.1226955E-005  0.1708235E+03  0.7561462E-02  0.1176992E+00
         -3   -1    0    0    0  501 -0.00000000000E+00  0.00000000000E+00  0.23732922555E+03  0.23732922555E+03  0.00000000000E+00 0.  1.
          3   -1    0    0  501    0  0.00000000000E+00 -0.00000000000E+00 -0.33591086245E+03  0.33591086245E+03  0.00000000000E+00 0. -1.
         23    2    1    2    0    0 -0.13693907011E+03 -0.62289587624E+02  0.16885625306E+03  0.25255751844E+03  0.11243026404E+03 0.  0.
          5    1    3    3  502    0  0.55399058813E+01 -0.22107717797E+02  0.71912779783E+02  0.75553703016E+02  0.41800000000E+01 0. -1.
         -5    1    3    3    0  502 -0.14247897599E+03 -0.40181869827E+02  0.96943473280E+02  0.17700381542E+03  0.41800000000E+01 0.  1.
        -11    1    1    2    0    0 -0.99496870374E+01 -0.18124918538E+01 -0.15543336234E+01  0.10232172393E+02  0.00000000000E+00 0.  1.
         11    1    1    2    0    0  0.14688875715E+03  0.64102079478E+02 -0.26588355634E+03  0.31045039717E+03  0.00000000000E+00 0. -1.
</event>
<event>
 7    1  0.1226955E-005  0.2183776E+03  0.7561462E-02  0.1135098E+00
         -3   -1    0    0    0  501 -0.00000000000E+00  0.00000000000E+00  0.57116395848E+03  0.57116395848E+03  0.00000000000E+00 0.  1.
          3   -1    0    0  501    0  0.00000000000E+00 -0.00000000000E+00 -0.11957517751E+03  0.11957517751E+03  0.00000000000E+00 0. -1.
         23    2    1    2    0    0  0.11450567620E+03 -0.18218822006E+03  0.36492144651E+03  0.44172256362E+03  0.12508822357E+03 0.  0.
          5    1    3    3  502    0  0.22075790299E+01 -0.49215047587E+01  0.11567695636E+03  0.11587806197E+03  0.41800000000E+01 0.  1.
         -5    1    3    3    0  502  0.11229809717E+03 -0.17726671530E+03  0.24924449015E+03  0.32584450164E+03  0.41800000000E+01 0.  1.
        -11    1    1    2    0    0 -0.82170241773E+02  0.87709789435E+02  0.88312410610E+02  0.14914435177E+03  0.00000000000E+00 0.  1.
         11    1    1    2    0    0 -0.32335434427E+02  0.94478430621E+02 -0.16450761492E+01  0.99872220601E+02  0.00000000000E+00 0. -1.
</event>
<event>
 7    1  0.1226955E-005  0.1127981E+03  0.7561462E-02  0.1255474E+00
          1   -1    0    0  501    0  0.00000000000E+00  0.00000000000E+00  0.48565194489E+03  0.48565194489E+03  0.00000000000E+00 0. -1.
         -1   -1    0    0    0  501 -0.00000000000E+00 -0.00000000000E+00 -0.26578033543E+02  0.26578033543E+02  0.00000000000E+00 0.  1.
         23    2    1    2    0    0 -0.29931306039E+02  0.13307153433E+02  0.23410246366E+03  0.26744207599E+03  0.12509331359E+03 0.  0.
          5    1    3    3  502    0 -0.22873269779E+02  0.69006758508E+02  0.13919818030E+03  0.15709463705E+03  0.41800000000E+01 0.  1.
         -5    1    3    3    0  502 -0.70580362599E+01 -0.55699605075E+02  0.94904283354E+02  0.11034743894E+03  0.41800000000E+01 0.  1.
        -11    1    1    2    0    0 -0.32747507371E+02 -0.21976744514E+01  0.75239030895E+02  0.82086178995E+02  0.00000000000E+00 0.  1.
         11    1    1    2    0    0  0.62678813410E+02 -0.11109478981E+02  0.14973241679E+03  0.16270172345E+03  0.00000000000E+00 0. -1.
</event>
<event>
 7    1  0.1226955E-005  0.1046922E+03  0.7561462E-02  0.1270727E+00
          2   -1    0    0  501    0  0.00000000000E+00  0.00000000000E+00  0.14686613225E+03  0.14686613225E+03  0.00000000000E+00 0. -1.
         -2   -1    0    0    0  501 -0.00000000000E+00 -0.00000000000E+00 -0.11817470880E+03  0.11817470880E+03  0.00000000000E+00 0.  1.
         23    2    1    2    0    0 -0.19359842985E+02 -0.72200539200E+02  0.51644219878E+01  0.14581456408E+03  0.12508994549E+03 0.  0.
          5    1    3    3  502    0 -0.20423564151E+02 -0.99362879668E+02  0.32930433071E+02  0.10673326403E+03  0.41800000000E+01 0.  1.
         -5    1    3    3    0  502  0.10637211661E+01  0.27162340467E+02 -0.27766011083E+02  0.39081300054E+02  0.41800000000E+01 0.  1.
        -11    1    1    2    0    0  0.27208353952E+02  0.59495408327E+02 -0.23786612072E+02  0.69611788158E+02  0.00000000000E+00 0.  1.
         11    1    1    2    0    0 -0.78485109663E+01  0.12705130873E+02  0.47313613531E+02  0.49614488814E+02  0.00000000000E+00 0. -1.
</event>
<event>
 7    1  0.1226955E-005  0.1331932E+03  0.7561462E-02  0.1222793E+00
         -2   -1    0    0    0  501 -0.00000000000E+00  0.00000000000E+00  0.48194443054E+03  0.48194443054E+03  0.00000000000E+00 0.  1.
          2   -1    0    0  501    0  0.00000000000E+00 -0.00000000000E+00 -0.40616706299E+02  0.40616706299E+02  0.00000000000E+00 0. -1.
         23    2    1    2    0    0  0.22448423020E+02  0.80183281919E+02  0.29169813427E+03  0.32812913015E+03  0.12509050373E+03 0.  0.
          5    1    3    3  502    0  0.27179334870E+02 -0.28552122672E+02  0.10127551345E+03  0.10875726172E+03  0.41800000000E+01 0.  1.
         -5    1    3    3    0  502 -0.47309118503E+01  0.10873540459E+03  0.19042262082E+03  0.21937186843E+03  0.41800000000E+01 0.  1.
        -11    1    1    2    0    0  0.31489347291E+02 -0.38007613308E+02  0.33606730080E+02  0.59712393762E+02  0.00000000000E+00 0.  1.
         11    1    1    2    0    0 -0.53937770310E+02 -0.42175668611E+02  0.11602285990E+03  0.13471961293E+03  0.00000000000E+00 0. -1.
</event>
<event>
 7    1  0.1226955E-005  0.1463840E+03  0.7561462E-02  0.1204988E+00
          1   -1    0    0  501    0  0.00000000000E+00  0.00000000000E+00  0.23477742463E+03  0.23477742463E+03  0.00000000000E+00 0. -1.
         -1   -1    0    0    0  501 -0.00000000000E+00 -0.00000000000E+00 -0.12788294163E+03  0.12788294163E+03  0.00000000000E+00 0.  1.
         23    2    1    2    0    0 -0.10509959798E+03 -0.22110374929E+02 -0.27858109589E+02  0.16720883701E+03  0.12509167329E+03 0.  0.
          5    1    3    3  502    0 -0.48483027324E+02 -0.66396918993E+02 -0.44113859346E+02  0.93395180693E+02  0.41800000000E+01 0. -1.
         -5    1    3    3    0  502 -0.56616570660E+02  0.44286544064E+02  0.16255749757E+02  0.73813656315E+02  0.41800000000E+01 0. -1.
        -11    1    1    2    0    0  0.65996912991E+02 -0.30656864763E+02  0.50276372550E+02  0.88448569905E+02  0.00000000000E+00 0.  1.
         11    1    1    2    0    0  0.39102684993E+02  0.52767239692E+02  0.84476220035E+02  0.10700295935E+03  0.00000000000E+00 0. -1.
</event>
<event>
 7    1  0.1226955E-005  0.1531018E+03  0.7561462E-02  0.1196712E+00
          3   -1    0    0  501    0  0.00000000000E+00  0.00000000000E+00  0.60233558491E+03  0.60233558491E+03  0.00000000000E+00 0. -1.
         -3   -1    0    0    0  501 -0.00000000000E+00 -0.00000000000E+00 -0.58900968462E+02  0.58900968462E+02  0.00000000000E+00 0.  1.
         23    2    1    2    0    0 -0.38031549560E+02  0.13726066445E+03  0.18375969848E+03  0.26401078918E+03  0.12508869355E+03 0.  0.
          5    1    3    3  502    0 -0.47046134918E+02  0.65708090003E+02  0.17297912648E+03  0.19097157511E+03  0.41800000000E+01 0.  1.
         -5    1    3    3    0  502  0.90145853587E+01  0.71552574450E+02  0.10780571994E+02  0.73039214071E+02  0.41800000000E+01 0.  1.
        -11    1    1    2    0    0  0.38731182920E+02 -0.39644207282E+02  0.21963155070E+03  0.22651663463E+03  0.00000000000E+00 0. -1.
         11    1    1    2    0    0 -0.69963336079E+00 -0.97616457171E+02  0.14004336727E+03  0.17070912956E+03  0.00000000000E+00 0.  1.
</event>
<event>
 7    1  0.1226955E-005  0.7688755E+02  0.7561462E-02  0.1338124E+00
         -2   -1    0    0    0  501 -0.00000000000E+00  0.00000000000E+00  0.14394369892E+03  0.14394369892E+03  0.00000000000E+00 0.  1.
          2   -1    0    0  501    0  0.00000000000E+00 -0.00000000000E+00 -0.10315498650E+03  0.10315498650E+03  0.00000000000E+00 0. -1.
         23    2    1    2    0    0 -0.14189055811E+02 -0.29665040676E+01  0.76097557863E+02  0.14713411842E+03  0.12508989184E+03 0.  0.
          5    1    3    3  502    0  0.61779068639E+01  0.47185751815E+02 -0.65818313635E+01  0.48222967678E+02  0.41800000000E+01 0. -1.
         -5    1    3    3    0  502 -0.20366962675E+02 -0.50152255883E+02  0.82679389226E+02  0.98911150744E+02  0.41800000000E+01 0. -1.
        -11    1    1    2    0    0 -0.11799768446E+02  0.18123619919E+02  0.24703934898E+02  0.32832674788E+02  0.00000000000E+00 0.  1.
         11    1    1    2    0    0  0.25988824257E+02 -0.15157115851E+02 -0.60012780345E+02  0.67131892211E+02  0.00000000000E+00 0. -1.
</event>
<event>
 6    1  0.1226955E-005  0.8495000E+02  0.7561462E-02  0.1315563E+00
         -1   -1    0    0    0  501 -0.00000000000E+00  0.00000000000E+00  0.44562058584E+03  0.44562058584E+03  0.00000000000E+00 0.  1.
          1   -1    0    0  501    0  0.00000000000E+00 -0.00000000000E+00 -0.51282167330E+02  0.51282167330E+02  0.00000000000E+00 0. -1.
          5    1    1    2  502    0  0.40594201917E+02 -0.44401535606E+02  0.20824548513E+03  0.21680184518E+03  0.41800000000E+01 0. -1.
         -5    1    1    2    0  502 -0.18973048623E+02  0.71858596129E+02  0.16702467796E+03  0.18286155927E+03  0.41800000000E+01 0.  1.
        -11    1    1    2    0    0 -0.14896607555E+02 -0.15930486935E+02  0.54862292460E+02  0.59038635355E+02  0.00000000000E+00 0.  1.
         11    1    1    2    0    0 -0.67245457393E+01 -0.11526573588E+02 -0.35794037043E+02  0.38200713369E+02  0.00000000000E+00 0. -1.
</event>
<event>
 7    1  0.1226955E-005  0.1820964E+03  0.7561462E-02  0.1165789E+00
         -1   -1    0    0    0  501 -0.00000000000E+00  0.00000000000E+00  0.15454513645E+03  0.15454513645E+03  0.00000000000E+00 0.  1.
          1   -1    0    0  501    0  0.00000000000E+00 -0.00000000000E+00 -0.27569462135E+03  0.27569462135E+03  0.00000000000E+00 0. -1.
         23    2    1    2    0    0  0.15279644668E+03 -0.47999154391E+02  0.10684434454E+02  0.20350288205E+03  0.12509433610E+03 0.  0.
          5    1    3    3  502    0  0.88983200580E+02  0.35590940357E+02 -0.92916039777E+01  0.96377026959E+02  0.41800000000E+01 0. -1.
         -5    1    3    3    0  502  0.63813246098E+02 -0.83590094748E+02  0.19976038431E+02  0.10712585509E+03  0.41800000000E+01 0. -1.
        -11    1    1    2    0    0 -0.21841818230E+02  0.18866266672E+02  0.10900694294E+02  0.30851680308E+02  0.00000000000E+00 0.  1.
         11    1    1    2    0    0 -0.13095462845E+03  0.29132887719E+02 -0.14273461365E+03  0.19588519544E+03  0.00000000000E+00 0. -1.
</event>
<event>
 7    1  0.1226955E-005  0.1031059E+03  0.7561462E-02  0.1273897E+00
         -2   -1    0    0    0  501 -0.00000000000E+00  0.00000000000E+00  0.25184118215E+03  0.25184118215E+03  0.00000000000E+00 0.  1.
          2   -1    0    0  501    0  0.00000000000E+00 -0.00000000000E+00 -0.19256328844E+03  0.19256328844E+03  0.00000000000E+00 0. -1.
         23    2    1    2    0    0  0.88148444140E+02  0.28437543400E+02  0.19933264871E+03  0.25290295384E+03  0.12509019602E+03 0.  0.
          5    1    3    3  502    0  0.36825065062E+02 -0.17721295231E+02 -0.87385134971E+00  0.41089727885E+02  0.41800000000E+01 0.  1.
         -5    1    3    3    0  502  0.51323379078E+02  0.46158838631E+02  0.20020650006E+03  0.21181322596E+03  0.41800000000E+01 0.  1.
        -11    1    1    2    0    0 -0.59564716346E+02 -0.64445938972E+01 -0.15576830017E+02  0.61904166719E+02  0.00000000000E+00 0.  1.
         11    1    1    2    0    0 -0.28583727795E+02 -0.21992949502E+02 -0.12447792499E+03  0.12959735002E+03  0.00000000000E+00 0. -1.
</event>
<event>
 7    1  0.1226955E-005  0.1523187E+03  0.7561462E-02  0.1197652E+00
         -3   -1    0    0    0  501 -0.00000000000E+00  0.00000000000E+00  0.39796319277E+03  0.39796319277E+03  0.00000000000E+00 0.  1.
          3   -1    0    0  501    0  0.00000000000E+00 -0.00000000000E+00 -0.60673554810E+02  0.60673554810E+02  0.00000000000E+00 0. -1.
         23    2    1    2    0    0 -0.10438322500E+03 -0.29146677926E+02  0.14391504190E+03  0.21932809577E+03  0.12509151777E+03 0.  0.
          5    1    3    3  502    0 -0.15424723172E+02 -0.65551945082E+02  0.43598762221E+02  0.80332459543E+02  0.41800000000E+01 0.  1.
         -5    1    3    3    0  502 -0.88958501823E+02  0.36405267156E+02  0.10031627967E+03  0.13899563623E+03  0.41800000000E+01 0.  1.
        -11    1    1    2    0    0  0.10691598402E+03  0.51349942039E+02  0.16111060228E+03  0.20006116653E+03  0.00000000000E+00 0. -1.
         11    1    1    2    0    0 -0.25327590262E+01 -0.22203264113E+02  0.32263993785E+02  0.39247485277E+02  0.00000000000E+00 0.  1.
</event>
<event>
 7    1  0.1226955E-005  0.7587014E+02  0.7561462E-02  0.1341197E+00
         -3   -1    0    0    0  501 -0.00000000000E+00  0.00000000000E+00  0.78666889557E+02  0.78666889557E+02  0.00000000000E+00 0.  1.
          3   -1    0    0  501    0  0.00000000000E+00 -0.00000000000E+00 -0.36634577455E+03  0.36634577455E+03  0.00000000000E+00 0. -1.
         23    2    1    2    0    0 -0.40989623534E+02  0.78502737581E+00  0.12759422883E+02  0.12816937289E+03  0.12076348690E+03 0.  0.
          5    1    3    3  502    0  0.64178019505E+01  0.11033191169E+02  0.59310592144E+02  0.60812319720E+02  0.41800000000E+01 0. -1.
         -5    1    3    3    0  502 -0.47407425485E+02 -0.10248163793E+02 -0.46551169261E+02  0.67357053170E+02  0.41800000000E+01 0.  1.
        -11    1    1    2    0    0 -0.12068513817E+02 -0.27639915919E+02 -0.42344785842E+02  0.51987449117E+02  0.00000000000E+00 0.  1.
         11    1    1    2    0    0  0.53058137351E+02  0.26854888543E+02 -0.25809352203E+03  0.26485584210E+03  0.00000000000E+00 0. -1.
</event>
<event>
 7    1  0.1226955E-005  0.2078821E+03  0.7561462E-02  0.1143254E+00
         -1   -1    0    0    0  501 -0.00000000000E+00  0.00000000000E+00  0.19862158724E+03  0.19862158724E+03  0.00000000000E+00 0.  1.
          1   -1    0    0  501    0  0.00000000000E+00 -0.00000000000E+00 -0.26314536519E+03  0.26314536519E+03  0.00000000000E+00 0. -1.
         23    2    1    2    0    0  0.12810944476E+03  0.15297468529E+03 -0.55887098767E+02  0.24204364008E+03  0.12509385164E+03 0.  0.
          5    1    3    3  502    0  0.13402584335E+03  0.12005309469E+03 -0.38253503352E+01  0.18002160408E+03  0.41800000000E+01 0.  1.
         -5    1    3    3    0  502 -0.59163985915E+01  0.32921590598E+02 -0.52061748432E+02  0.62022036000E+02  0.41800000000E+01 0.  1.
        -11    1    1    2    0    0 -0.75977692325E+02 -0.11393617339E+03  0.34975512841E+02  0.14134124605E+03  0.00000000000E+00 0.  1.
         11    1    1    2    0    0 -0.52131752434E+02 -0.39038511900E+02 -0.43612192021E+02  0.78382066292E+02  0.00000000000E+00 0. -1.
</event>
<event>
 7    1  0.1226955E-005  0.1780113E+03  0.7561462E-02  0.1169742E+00
         -1   -1    0    0    0  501 -0.00000000000E+00  0.00000000000E+00  0.12156574071E+03  0.12156574071E+03  0.00000000000E+00 0.  1.
          1   -1    0    0  501    0  0.00000000000E+00 -0.00000000000E+00 -0.31999811255E+03  0.31999811255E+03  0.00000000000E+00 0. -1.
         23    2    1    2    0    0  0.10269820133E+03 -0.12821270467E+03 -0.11119374690E+03  0.23451538270E+03  0.12509195489E+03 0.  0.
          5    1    3    3  502    0  0.71686046269E+01 -0.54798076023E+02  0.17555380447E+02  0.58136750948E+02  0.41800000000E+01 0. -1.
         -5    1    3    3    0  502  0.95529596701E+02 -0.73414628644E+02 -0.12874912735E+03  0.17637863175E+03  0.41800000000E+01 0. -1.
        -11    1    1    2    0    0 -0.10904822433E+03  0.90233586869E+02 -0.41998613820E+02  0.14763976087E+03  0.00000000000E+00 0.  1.
         11    1    1    2    0    0  0.63500229984E+01  0.37979117798E+02 -0.45240011124E+02  0.59408709692E+02  0.00000000000E+00 0. -1.
</event>
<event>
 7    1  0.1226955E-005  0.2114238E+03  0.7561462E-02  0.1140443E+00
          2   -1    0    0  501    0  0.00000000000E+00  0.00000000000E+00  0.73683714955E+03  0.73683714955E+03  0.00000000000E+00 0. -1.
         -2   -1    0    0    0  501 -0.00000000000E+00 -0.00000000000E+00 -0.71026914094E+02  0.71026914094E+02  0.00000000000E+00 0.  1.
         23    2    1    2    0    0  0.18127846838E+03 -0.60693487309E+02  0.45782408631E+03  0.51165958490E+03  0.12508818614E+03 0.  0.
          5    1    3    3  502    0  0.79151831342E+02  0.34598908398E+02  0.14139293874E+03  0.16574538422E+03  0.41800000000E+01 0. -1.
         -5    1    3    3    0  502  0.10212663704E+03 -0.95292395707E+02  0.31643114757E+03  0.34591420067E+03  0.41800000000E+01 0. -1.
        -11    1    1    2    0    0 -0.47842704899E+02  0.38374249325E+02  0.12016135852E+03  0.13490833741E+03  0.00000000000E+00 0.  1.
         11    1    1    2    0    0 -0.13343576348E+03  0.22319237984E+02  0.87824790631E+02  0.16129614133E+03  0.00000000000E+00 0. -1.
</event>
<event>
 7    1  0.1226955E-005  0.1041143E+03  0.7561462E-02  0.1271875E+00
         -2   -1    0    0    0  501 -0.00000000000E+00  0.00000000000E+00  0.50410573687E+02  0.50410573687E+02  0.00000000000E+00 0. -1.
          2   -1    0    0  501    0  0.00000000000E+00 -0.00000000000E+00 -0.24152629837E+03  0.24152629837E+03  0.00000000000E+00 0.  1.
         23    2    1    2    0    0 -0.10249762698E+02 -0.72312043305E+01 -0.94757416030E+02  0.15743053263E+03  0.12509219304E+03 0.  0.
          5    1    3    3  502    0  0.55001268253E+02 -0.21209004973E+01 -0.21856403278E+02  0.59370131317E+02  0.41800000000E+01 0. -1.
         -5    1    3    3    0  502 -0.65251030951E+02 -0.51103038332E+01 -0.72901012752E+02  0.98060401314E+02  0.41800000000E+01 0. -1.
        -11    1    1    2    0    0 -0.17867770490E+02 -0.33489963428E+02 -0.66894332576E+02  0.76913500788E+02  0.00000000000E+00 0.  1.
         11    1    1    2    0    0  0.28117533189E+02  0.40721167758E+02 -0.29463976076E+02  0.57592838638E+02  0.00000000000E+00 0. -1.
</event>
<event>
 7    1  0.1226955E-005  0.1559153E+03  0.7561462E-02  0.1193387E+00
          1   -1    0    0  501    0  0.00000000000E+00  0.00000000000E+00  0.37154590892E+03  0.37154590892E+03  0.00000000000E+00 0. -1.
         -1   -1    0    0    0  501 -0.00000000000E+00 -0.00000000000E+00 -0.78520642752E+02  0.78520642752E+02  0.00000000000E+00 0.  1.
         23    2    1    2    0    0 -0.10859036712E+03 -0.73354088842E+02  0.16211632610E+03  0.24310800831E+03  0.12508841007E+03 0.  0.
          5    1    3    3  502    0 -0.49857292064E+01 -0.58065243238E+02  0.11399116907E+02  0.59530179189E+02  0.41800000000E+01 0. -1.
         -5    1    3    3    0  502 -0.10360463792E+03 -0.15288845605E+02  0.15071720919E+03  0.18357782912E+03  0.41800000000E+01 0. -1.
        -11    1    1    2    0    0  0.60141324166E+02  0.79574720386E+02  0.12152630637E+03  0.15721882246E+03  0.00000000000E+00 0. -1.
         11    1    1    2    0    0  0.48449042958E+02 -0.62206315438E+01  0.93826337035E+01  0.49739720903E+02  0.00000000000E+00 0.  1.
</event>
<event>
 7    1  0.1226955E-005  0.1969743E+03  0.7561462E-02  0.1152317E+00
         -1   -1    0    0    0  501 -0.00000000000E+00  0.00000000000E+00  0.12581032588E+03  0.12581032588E+03  0.00000000000E+00 0.  1.
          1   -1    0    0  501    0  0.00000000000E+00 -0.00000000000E+00 -0.32210126500E+03  0.32210126500E+03  0.00000000000E+00 0. -1.
         23    2    1    2    0    0  0.12382604328E+02 -0.16869743474E+03 -0.10553741881E+03  0.23536616523E+03  0.12508769559E+03 0.  0.
          5    1    3    3  502    0 -0.12233305981E+02  0.14331599480E+02  0.52044845737E+01  0.19990187057E+02  0.41800000000E+01 0.  1.
         -5    1    3    3    0  502  0.24615910310E+02 -0.18302903422E+03 -0.11074190338E+03  0.21537597817E+03  0.41800000000E+01 0.  1.
        -11    1    1    2    0    0  0.34755778230E+02  0.10553293615E+03 -0.36848732982E+02  0.11705978752E+03  0.00000000000E+00 0. -1.
         11    1    1    2    0    0 -0.47138382558E+02  0.63164498595E+02 -0.53904787323E+02  0.95485638131E+02  0.00000000000E+00 0.  1.
</event>
<event>
 7    1  0.1226955E-005  0.3992006E+02  0.7561462E-02  0.1508801E+00
         -3   -1    0    0    0  501 -0.00000000000E+00  0.00000000000E+00  0.16617216786E+03  0.16617216786E+03  0.00000000000E+00 0.  1.
          3   -1    0    0  501    0  0.00000000000E+00 -0.00000000000E+00 -0.75466237080E+02  0.75466237080E+02  0.00000000000E+00 0. -1.
         23    2    1    2    0    0  0.10011905142E+02 -0.33963115694E+01  0.80380098128E+02  0.14906636843E+03  0.12509216141E+03 0.  0.
          5    1    3    3  502    0 -0.11217269621E+02  0.63956157025E+01 -0.31707621658E+02  0.34490240781E+02  0.41800000000E+01 0.  1.
         -5    1    3    3    0  502  0.21229174763E+02 -0.97919272719E+01  0.11208771979E+03  0.11457612765E+03  0.41800000000E+01 0.  1.
        -11    1    1    2    0    0 -0.51009858800E+01 -0.18957459212E+02  0.46098407052E+02  0.50104575135E+02  0.00000000000E+00 0.  1.
         11    1    1    2    0    0 -0.49109192620E+01  0.22353770782E+02 -0.35772574400E+02  0.42467461372E+02  0.00000000000E+00 0. -1.
</event>
<event>
 7    1  0.1226955E-005  0.1073818E+03  0.7561462E-02  0.1265497E+00
          2   -1    0    0  501    0  0.00000000000E+00  0.00000000000E+00  0.22910021002E+02  0.22910021002E+02  0.00000000000E+00 0.  1.
         -2   -1    0    0    0  501 -0.00000000000E+00 -0.00000000000E+00 -0.75006343050E+03  0.75006343050E+03  0.00000000000E+00 0. -1.
         23    2    1    2    0    0 -0.46531550529E+02 -0.20126254997E+02 -0.55967656136E+03  0.57572586952E+03  0.12510864144E+03 0.  0.
          5    1    3    3  502    0  0.22515855026E+02  0.25075105128E+02 -0.57364705374E+02  0.66662631566E+02  0.41800000000E+01 0. -1.
         -5    1    3    3    0  502 -0.69047405555E+02 -0.45201360126E+02 -0.50231185598E+03  0.50906323795E+03  0.41800000000E+01 0. -1.
        -11    1    1    2    0    0 -0.24774486394E+02  0.46962198075E+01 -0.18204281127E+02  0.31100249323E+02  0.00000000000E+00 0.  1.
         11    1    1    2    0    0  0.71306036924E+02  0.15430035190E+02 -0.14927256701E+03  0.16614733266E+03  0.00000000000E+00 0. -1.
</event>
<event>
 7    1  0.1226955E-005  0.1490437E+03  0.7561462E-02  0.1201653E+00
         -1   -1    0    0    0  501 -0.00000000000E+00  0.00000000000E+00  0.38581230826E+03  0.38581230826E+03  0.00000000000E+00 0.  1.
          1   -1    0    0  501    0  0.00000000000E+00 -0.00000000000E+00 -0.70353288026E+02  0.70353288026E+02  0.00000000000E+00 0. -1.
         23    2    1    2    0    0 -0.11616182147E+03  0.27555942001E+02  0.20734642571E+03  0.26998463726E+03  0.12508503266E+03 0.  0.
          5    1    3    3  502    0 -0.18450958586E+02 -0.45556092852E+02  0.44433743775E+02  0.66389949951E+02  0.41800000000E+01 0.  1.
         -5    1    3    3    0  502 -0.97710862887E+02  0.73112034852E+02  0.16291268193E+03  0.20359468731E+03  0.41800000000E+01 0.  1.
        -11    1    1    2    0    0  0.10619131159E+03 -0.37453513086E+02  0.12228053612E+03  0.16622842661E+03  0.00000000000E+00 0.  1.
         11    1    1    2    0    0  0.99705098844E+01  0.98975710859E+01 -0.14167941594E+02  0.19952532415E+02  0.00000000000E+00 0. -1.
</event>
<event>
 7    1  0.1226955E-005  0.2563433E+03  0.7561462E-02  0.1109360E+00
         -2   -1    0    0    0  501 -0.00000000000E+00  0.00000000000E+00  0.88825040382E+02  0.88825040382E+02  0.00000000000E+00 0.  1.
          2   -1    0    0  501    0  0.00000000000E+00 -0.00000000000E+00 -0.12002704697E+04  0.12002704697E+04  0.00000000000E+00 0. -1.
         23    2    1    2    0    0 -0.18383137593E+03 -0.15735241624E+03 -0.19022753359E+03  0.33224654910E+03  0.12508995635E+03 0.  0.
          5    1    3    3  502    0 -0.12174005797E+03 -0.37479695001E+02 -0.13688547715E+03  0.18703068066E+03  0.41800000000E+01 0. -1.
         -5    1    3    3    0  502 -0.62091317959E+02 -0.11987272124E+03 -0.53342056443E+02  0.14521586844E+03  0.41800000000E+01 0. -1.
        -11    1    1    2    0    0  0.76488671760E+02  0.26548841599E+02 -0.19425223399E+03  0.21045020387E+03  0.00000000000E+00 0.  1.
         11    1    1    2    0    0  0.10734270417E+03  0.13080357464E+03 -0.72696566172E+03  0.74639875710E+03  0.00000000000E+00 0. -1.
</event>
<event>
 7    1  0.1226955E-005  0.1107701E+03  0.7561462E-02  0.1259150E+00
         -2   -1    0    0    0  501 -0.00000000000E+00  0.00000000000E+00  0.16184701919E+03  0.16184701919E+03  0.00000000000E+00 0.  1.
          2   -1    0    0  501    0  0.00000000000E+00 -0.00000000000E+00 -0.13609225864E+03  0.13609225864E+03  0.00000000000E+00 0. -1.
         23    2    1    2    0    0 -0.74849256281E+02  0.53040691496E+02  0.57762164198E+02  0.16553606653E+03  0.12509994240E+03 0.  0.
          5    1    3    3  502    0 -0.22499028551E+02  0.48676721065E+02  0.89208119176E+02  0.10416904716E+03  0.41800000000E+01 0.  1.
         -5    1    3    3    0  502 -0.52350227730E+02  0.43639704309E+01 -0.31445954978E+02  0.61367019366E+02  0.41800000000E+01 0.  1.
        -11    1    1    2    0    0  0.43079459046E+01  0.15867740467E+02  0.15808796941E+02  0.22809244752E+02  0.00000000000E+00 0.  1.
         11    1    1    2    0    0  0.70541310376E+02 -0.68908431963E+02 -0.47816200589E+02  0.10959396655E+03  0.00000000000E+00 0. -1.
</event>
<event>
 7    1  0.1226955E-005  0.5646569E+02  0.7561462E-02  0.1413292E+00
          1   -1    0    0  501    0  0.00000000000E+00  0.00000000000E+00  0.48152478095E+02  0.48152478095E+02  0.00000000000E+00 0. -1.
         -1   -1    0    0    0  501 -0.00000000000E+00 -0.00000000000E+00 -0.51881531702E+03  0.51881531702E+03  0.00000000000E+00 0.  1.
         23    2    1    2    0    0  0.54121642557E+02 -0.24195115858E+01 -0.43790581235E+03  0.45863207624E+03  0.12508746795E+03 0.  0.
          5    1    3    3  502    0  0.26759576622E+02  0.29301851724E+01 -0.42782610331E+03  0.42869255650E+03  0.41800000000E+01 0. -1.
         -5    1    3    3    0  502  0.27362065935E+02 -0.53496967582E+01 -0.10079709033E+02  0.29939519733E+02  0.41800000000E+01 0. -1.
        -11    1    1    2    0    0 -0.13170554294E+02  0.90952842416E+01 -0.57730415354E+02  0.59908167663E+02  0.00000000000E+00 0.  1.
         11    1    1    2    0    0 -0.40951088263E+02 -0.66757726557E+01  0.24973388769E+02  0.48427551220E+02  0.00000000000E+00 0. -1.
</event>
<event>
 7    1  0.1226955E-005  0.2030213E+03  0.7561462E-02  0.1147215E+00
          2   -1    0    0  501    0  0.00000000000E+00  0.00000000000E+00  0.11732671302E+04  0.11732671302E+04  0.00000000000E+00 0. -1.
         -2   -1    0    0    0  501 -0.00000000000E+00 -0.00000000000E+00 -0.39097338221E+02  0.39097338221E+02  0.00000000000E+00 0.  1.
         23    2    1    2    0    0 -0.92697724628E+02  0.15637403111E+03  0.50786810107E+03  0.55382325207E+03  0.12547701258E+03 0.  0.
          5    1    3    3  502    0 -0.54966365882E+02  0.16300966312E+03  0.33384499929E+03  0.37558408859E+03  0.41800000000E+01 0.  1.
         -5    1    3    3    0  502 -0.37731358746E+02 -0.66356320038E+01  0.17402310178E+03  0.17823916348E+03  0.41800000000E+01 0.  1.
        -11    1    1    2    0    0  0.91095314921E+02 -0.86778869305E+02  0.48456724496E+03  0.50063394156E+03  0.00000000000E+00 0.  1.
         11    1    1    2    0    0  0.16024097070E+01 -0.69595161806E+02  0.14173444595E+03  0.15790727479E+03  0.00000000000E+00 0. -1.
</event>
<event>
 7    1  0.1226955E-005  0.9027428E+02  0.7561462E-02  0.1302189E+00
         -2   -1    0    0    0  501 -0.00000000000E+00  0.00000000000E+00  0.10492304047E+03  0.10492304047E+03  0.00000000000E+00 0.  1.
          2   -1    0    0  501    0  0.00000000000E+00 -0.00000000000E+00 -0.18057101428E+03  0.18057101428E+03  0.00000000000E+00 0. -1.
         23    2    1    2    0    0  0.52256409391E+02 -0.57261615724E+02 -0.60647535691E+01  0.14728978314E+03  0.12509146263E+03 0.  0.
          5    1    3    3  502    0 -0.16334404001E+02 -0.10115862970E+02  0.45308699414E+02  0.49391234853E+02  0.41800000000E+01 0.  1.
         -5    1    3    3    0  502  0.68590813392E+02 -0.47145752753E+02 -0.51373452984E+02  0.97898548283E+02  0.41800000000E+01 0.  1.
        -11    1    1    2    0    0 -0.25786532103E+02  0.29807508830E+02  0.17509471751E+02  0.43127884501E+02  0.00000000000E+00 0.  1.
         11    1    1    2    0    0 -0.26469877288E+02  0.27454106894E+02 -0.87092691993E+02  0.95076387119E+02  0.00000000000E+00 0. -1.
</event>
<event>
 7    1  0.1226955E-005  0.1049983E+03  0.7561462E-02  0.1270123E+00
         -2   -1    0    0    0  501 -0.00000000000E+00  0.00000000000E+00  0.47960054708E+02  0.47960054708E+02  0.00000000000E+00 0.  1.
          2   -1    0    0  501    0  0.00000000000E+00 -0.00000000000E+00 -0.26103666676E+03  0.26103666676E+03  0.00000000000E+00 0. -1.
         23    2    1    2    0    0 -0.21227614543E+02  0.11852156556E+02 -0.10303294664E+03  0.16389105262E+03  0.12511356362E+03 0.  0.
          5    1    3    3  502    0 -0.35002851843E+01 -0.56431924720E+02 -0.42848304085E+02  0.71065207288E+02  0.41800000000E+01 0.  1.
         -5    1    3    3    0  502 -0.17727329359E+02  0.68284081276E+02 -0.60184642558E+02  0.92825845333E+02  0.41800000000E+01 0.  1.
        -11    1    1    2    0    0 -0.24200092593E+02 -0.25541230790E+02 -0.83797292534E+02  0.90884460651E+02  0.00000000000E+00 0. -1.
         11    1    1    2    0    0  0.45427707136E+02  0.13689074235E+02 -0.26246372873E+02  0.54221208194E+02  0.00000000000E+00 0.  1.
</event>
<event>
 6    1  0.1226955E-005  0.2329608E+03  0.7561462E-02  0.1124573E+00
          2   -1    0    0  501    0  0.00000000000E+00  0.00000000000E+00  0.12840592765E+04  0.12840592765E+04  0.00000000000E+00 0. -1.
         -2   -1    0    0    0  501 -0.00000000000E+00 -0.00000000000E+00 -0.50063635735E+02  0.50063635735E+02  0.00000000000E+00 0.  1.
          5    1    1    2  502    0 -0.11549394665E+03 -0.17721771473E+03  0.63715273348E+03  0.67136133960E+03  0.41800000000E+01 0. -1.
         -5    1    1    2    0  502  0.74638581935E+02  0.25757671918E+02  0.68567575090E+02  0.10465830273E+03  0.41800000000E+01 0.  1.
        -11    1    1    2    0    0  0.63414725079E+02  0.12733630709E+03  0.36967714250E+03  0.39610245158E+03  0.00000000000E+00 0. -1.
         11    1    1    2    0    0 -0.22559360368E+02  0.24123735722E+02  0.15859818972E+03  0.16200081835E+03  0.00000000000E+00 0.  1.
</event>
<event>
 7    1  0.1226955E-005  0.6689546E+02  0.7561462E-02  0.1370980E+00
          1   -1    0    0  501    0  0.00000000000E+00  0.00000000000E+00  0.52883286496E+03  0.52883286496E+03  0.00000000000E+00 0. -1.
         -1   -1    0    0    0  501 -0.00000000000E+00 -0.00000000000E+00 -0.27093473448E+02  0.27093473448E+02  0.00000000000E+00 0.  1.
         23    2    1    2    0    0  0.16527797888E+00  0.36894256679E+02  0.23761264552E+03  0.27105160038E+03  0.12509191527E+03 0.  0.
          5    1    3    3  502    0 -0.84034722114E+01 -0.39359488401E+01  0.22775185176E+03  0.22797914031E+03  0.41800000000E+01 0. -1.
         -5    1    3    3    0  502  0.85687501903E+01  0.40830205519E+02  0.98607937586E+01  0.43072460066E+02  0.41800000000E+01 0. -1.
        -11    1    1    2    0    0 -0.26575828363E+02 -0.46519062746E+02  0.24520551534E+03  0.25099012452E+03  0.00000000000E+00 0. -1.
         11    1    1    2    0    0  0.26410550384E+02  0.96248060667E+01  0.18921230658E+02  0.33884613514E+02  0.00000000000E+00 0.  1.
</event>
<event>
 7    1  0.1226955E-005  0.9909892E+02  0.7561462E-02  0.1282202E+00
          2   -1    0    0  501    0  0.00000000000E+00  0.00000000000E+00  0.33488743767E+02  0.33488743767E+02  0.00000000000E+00 0. -1.
         -2   -1    0    0    0  501 -0.00000000000E+00 -0.00000000000E+00 -0.57472487514E+03  0.57472487514E+03  0.00000000000E+00 0.  1.
         23    2    1    2    0    0  0.19617992632E+02 -0.51349520529E+02 -0.44304371090E+03  0.46363463898E+03  0.12509080621E+03 0.  0.
          5    1    3    3  502    0  0.99101170352E+01  0.18758993195E+02 -0.83230591600E+01  0.23170152333E+02  0.41800000000E+01 0.  1.
         -5    1    3    3    0  502  0.97078755972E+01 -0.70108513724E+02 -0.43472065174E+03  0.44046448665E+03  0.41800000000E+01 0.  1.
        -11    1    1    2    0    0  0.16887558702E+02  0.64650865164E+02 -0.68367305704E+02  0.95598182486E+02  0.00000000000E+00 0. -1.
         11    1    1    2    0    0 -0.36505551334E+02 -0.13301344635E+02 -0.29825114769E+02  0.48980797445E+02  0.00000000000E+00 0.  1.
</event>
<event>
 7    1  0.1226955E-005  0.1107469E+03  0.7561462E-02  0.1259193E+00
         -1   -1    0    0    0  501 -0.00000000000E+00  0.00000000000E+00  0.15577375520E+02  0.15577375520E+02  0.00000000000E+00 0.  1.
          1   -1    0    0  501    0  0.00000000000E+00 -0.00000000000E+00 -0.93953925002E+03  0.93953925002E+03  0.00000000000E+00 0. -1.
         23    2    1    2    0    0 -0.31258680435E+02  0.23283117853E+02 -0.37264543158E+03  0.39500703043E+03  0.12508688074E+03 0.  0.
          5    1    3    3  502    0 -0.26922864843E+01  0.68719271389E+02 -0.13772443386E+03  0.15399700889E+03  0.41800000000E+01 0.  1.
         -5    1    3    3    0  502 -0.28566393950E+02 -0.45436153536E+02 -0.23492099772E+03  0.24101002154E+03  0.41800000000E+01 0.  1.
        -11    1    1    2    0    0  0.17503905735E+02 -0.58442864877E+02 -0.32845182902E+03  0.33406969207E+03  0.00000000000E+00 0.  1.
         11    1    1    2    0    0  0.13754774699E+02  0.35159747024E+02 -0.22286461390E+03  0.22603990304E+03  0.00000000000E+00 0. -1.
</event>
<event>
 7    1  0.1226955E-005  0.7502523E+02  0.7561462E-02  0.1343793E+00
         -1   -1    0    0    0  501 -0.00000000000E+00  0.00000000000E+00  0.31358032551E+03  0.31358032551E+03  0.00000000000E+00 0.  1.
          1   -1    0    0  501    0  0.00000000000E+00 -0.00000000000E+00 -0.89053124165E+02  0.89053124165E+02  0.00000000000E+00 0. -1.
         23    2    1    2    0    0  0.24056205581E+02  0.23528867023E+02  0.26847882612E+03  0.29584675657E+03  0.11963325077E+03 0.  0.
          5    1    3    3  502    0 -0.10044337627E+02  0.33208817281E+02  0.12078631151E+02  0.36974044870E+02  0.41800000000E+01 0. -1.
         -5    1    3    3    0  502  0.34100543208E+02 -0.96799502581E+01  0.25640019497E+03  0.25887271170E+03  0.41800000000E+01 0.  1.
        -11    1    1    2    0    0  0.24529536919E+02 -0.18180275582E+02 -0.48908843042E+02  0.57656704115E+02  0.00000000000E+00 0.  1.
         11    1    1    2    0    0 -0.48585742500E+02 -0.53485914409E+01  0.49572182647E+01  0.49129988984E+02  0.00000000000E+00 0. -1.
</event>
<event>
 7    1  0.1226955E-005  0.1271083E+03  0.7561462E-02  0.1231811E+00
          1   -1    0    0  501    0  0.00000000000E+00  0.00000000000E+00  0.66366420117E+03  0.66366420117E+03  0.00000000000E+00 0. -1.
         -1   -1    0    0    0  501 -0.00000000000E+00 -0.00000000000E+00 -0.26191415687E+02  0.26191415687E+02  0.00000000000E+00 0.  1.
         23    2    1    2    0    0 -0.67351667408E+02  0.53215549304E+02  0.36235677029E+03  0.39283283444E+03  0.12508822906E+03 0.  0.
          5    1    3    3  502    0 -0.86531777302E+02  0.73811723102E+02  0.22038663232E+03  0.24803963202E+03  0.41800000000E+01 0. -1.
         -5    1    3    3    0  502  0.19180109894E+02 -0.20596173798E+02  0.14197013797E+03  0.14479320242E+03  0.41800000000E+01 0. -1.
        -11    1    1    2    0    0 -0.13664488473E+02  0.21375780534E+01  0.33264105325E+02  0.36024827386E+02  0.00000000000E+00 0.  1.
         11    1    1    2    0    0  0.81016155881E+02 -0.55353127357E+02  0.24185190987E+03  0.26099795503E+03  0.00000000000E+00 0. -1.
</event>
<event>
 7    1  0.1226955E-005  0.1249879E+03  0.7561462E-02  0.1235088E+00
          1   -1    0    0  501    0  0.00000000000E+00  0.00000000000E+00  0.85561241381E+03  0.85561241381E+03  0.00000000000E+00 0. -1.
         -1   -1    0    0    0  501 -0.00000000000E+00 -0.00000000000E+00 -0.22942626137E+02  0.22942626137E+02  0.00000000000E+00 0.  1.
         23    2    1    2    0    0 -0.71361210223E+02 -0.22870463195E+02  0.30725683374E+03  0.34010263543E+03  0.12509020877E+03 0.  0.
          5    1    3    3  502    0 -0.90128295418E+02  0.14909436763E+02  0.13750487215E+03  0.16513770982E+03  0.41800000000E+01 0. -1.
         -5    1    3    3    0  502  0.18767085195E+02 -0.37779899958E+02  0.16975196159E+03  0.17496492561E+03  0.41800000000E+01 0. -1.
        -11    1    1    2    0    0  0.56014751916E+02  0.56258826496E+02  0.39828284046E+03  0.40611812198E+03  0.00000000000E+00 0. -1.
         11    1    1    2    0    0  0.15346458307E+02 -0.33388363301E+02  0.12713011346E+03  0.13233428254E+03  0.00000000000E+00 0.  1.
</event>
<event>
 7    1  0.1226955E-005  0.2209500E+03  0.7561462E-02  0.1133177E+00
         -1   -1    0    0    0  501 -0.00000000000E+00  0.00000000000E+00  0.59657188101E+03  0.59657188101E+03  0.00000000000E+00 0.  1.
          1   -1    0    0  501    0  0.00000000000E+00 -0.00000000000E+00 -0.12233831323E+03  0.12233831323E+03  0.00000000000E+00 0. -1.
         23    2    1    2    0    0 -0.14785783630E+03  0.12526329331E+03  0.44668339695E+03  0.50272109904E+03  0.12509841688E+03 0.  0.
          5    1    3    3  502    0 -0.73165473259E+02 -0.95419665509E+01  0.11133099064E+03  0.13362745780E+03  0.41800000000E+01 0.  1.
         -5    1    3    3    0  502 -0.74692363040E+02  0.13480525986E+03  0.33535240632E+03  0.36909364124E+03  0.41800000000E+01 0.  1.
        -11    1    1    2    0    0  0.14136561799E+03 -0.69212511103E+02  0.13106403756E+02  0.15794425429E+03  0.00000000000E+00 0. -1.
         11    1    1    2    0    0  0.64922183086E+01 -0.56050782206E+02  0.14443767071E+02  0.58244840902E+02  0.00000000000E+00 0.  1.
</event>
<event>
 7    1  0.1226955E-005  0.1259928E+03  0.7561462E-02  0.1233526E+00
          1   -1    0    0  501    0  0.00000000000E+00  0.00000000000E+00  0.56002188503E+03  0.56002188503E+03  0.00000000000E+00 0. -1.
         -1   -1    0    0    0  501 -0.00000000000E+00 -0.00000000000E+00 -0.43016661690E+02  0.43016661690E+02  0.00000000000E+00 0.  1.
         23    2    1    2    0    0 -0.10759329112E+03  0.23023912368E+02  0.28588516278E+03  0.33088420721E+03  0.12509042910E+03 0.  0.
          5    1    3    3  502    0 -0.52720721141E+02  0.51111975771E+02  0.54901544774E+02  0.91779957090E+02  0.41800000000E+01 0. -1.
         -5    1    3    3    0  502 -0.54872569975E+02 -0.28088063403E+02  0.23098361800E+03  0.23910425012E+03  0.41800000000E+01 0. -1.
        -11    1    1    2    0    0  0.44749944844E+02  0.97144763751E+01  0.17745086651E+03  0.18326412262E+03  0.00000000000E+00 0. -1.
         11    1    1    2    0    0  0.62843346272E+02 -0.32738388743E+02  0.53669194060E+02  0.88890216893E+02  0.00000000000E+00 0.  1.
</event>
<event>
 7    1  0.1226955E-005  0.9350389E+02  0.7561462E-02  0.1294582E+00
          1   -1    0    0  501    0  0.00000000000E+00  0.00000000000E+00  0.17182229697E+03  0.17182229697E+03  0.00000000000E+00 0.  1.
         -1   -1    0    0    0  501 -0.00000000000E+00 -0.00000000000E+00 -0.15453125067E+03  0.15453125067E+03  0.00000000000E+00 0. -1.
         23    2    1    2    0    0 -0.35640160636E+02  0.57069400645E+02 -0.89037154005E+02  0.16764354686E+03  0.12509838716E+03 0.  0.
          5    1    3    3  502    0 -0.23538010221E+02  0.81682001915E+02 -0.10537053744E+03  0.13544891997E+03  0.41800000000E+01 0.  1.
         -5    1    3    3    0  502 -0.12102150415E+02 -0.24612601270E+02  0.16333383434E+02  0.32194626887E+02  0.41800000000E+01 0.  1.
        -11    1    1    2    0    0  0.26951965295E+02 -0.14296159000E+02 -0.11849998592E+02  0.32729360856E+02  0.00000000000E+00 0. -1.
         11    1    1    2    0    0  0.86881953412E+01 -0.42773241645E+02  0.11817819890E+03  0.12598063992E+03  0.00000000000E+00 0.  1.
</event>
<event>
 7    1  0.1226955E-005  0.1189365E+03  0.7561462E-02  0.1244862E+00
          2   -1    0    0  501    0  0.00000000000E+00  0.00000000000E+00  0.48249428879E+03  0.48249428879E+03  0.00000000000E+00 0.  1.
         -2   -1    0    0    0  501 -0.00000000000E+00 -0.00000000000E+00 -0.50627101593E+02  0.50627101593E+02  0.00000000000E+00 0. -1.
         23    2    1    2    0    0  0.84168647176E+02  0.26782059268E+02  0.11446486710E+03  0.19118414217E+03  0.12509008974E+03 0.  0.
          5    1    3    3  502    0  0.76384510013E+02  0.69835840219E+02  0.55113896005E+02  0.11733137637E+03  0.41800000000E+01 0.  1.
         -5    1    3    3    0  502  0.77841371628E+01 -0.43053780951E+02  0.59350971092E+02  0.73852765792E+02  0.41800000000E+01 0.  1.
        -11    1    1    2    0    0 -0.18210519397E+02  0.21092246363E+01  0.20250023331E+01  0.18443765335E+02  0.00000000000E+00 0. -1.
         11    1    1    2    0    0 -0.65958127779E+02 -0.28891283904E+02  0.31537731777E+03  0.32349348288E+03  0.00000000000E+00 0.  1.
</event>
<event>
 7    1  0.1226955E-005  0.1091109E+03  0.7561462E-02  0.1262225E+00
          4   -1    0    0  501    0  0.00000000000E+00  0.00000000000E+00  0.57880589822E+03  0.57880589822E+03  0.00000000000E+00 0. -1.
         -4   -1    0    0    0  501 -0.00000000000E+00 -0.00000000000E+00 -0.23533491143E+02  0.23533491143E+02  0.00000000000E+00 0.  1.
         23    2    1    2    0    0 -0.43213764769E+02  0.45758744654E+01  0.28901003075E+03  0.31790436847E+03  0.12509205221E+03 0.  0.
          5    1    3    3  502    0 -0.84070803174E+02  0.17090192989E+02  0.22491991691E+03  0.24076215663E+03  0.41800000000E+01 0. -1.
         -5    1    3    3    0  502  0.40857038405E+02 -0.12514318523E+02  0.64090113835E+02  0.77142211835E+02  0.41800000000E+01 0. -1.
        -11    1    1    2    0    0 -0.11960091454E+02 -0.27238180905E+02  0.15849133001E+03  0.16125899657E+03  0.00000000000E+00 0. -1.
         11    1    1    2    0    0  0.55173856223E+02  0.22662306439E+02  0.10777104632E+03  0.12317602432E+03  0.00000000000E+00 0.  1.
</event>
<event>
 7    1  0.1226955E-005  0.1013558E+03  0.7561462E-02  0.1277470E+00
         -1   -1    0    0    0  501 -0.00000000000E+00  0.00000000000E+00  0.39442638735E+02  0.39442638735E+02  0.00000000000E+00 0.  1.
          1   -1    0    0  501    0  0.00000000000E+00 -0.00000000000E+00 -0.30915593378E+03  0.30915593378E+03  0.00000000000E+00 0. -1.
         23    2    1    2    0    0 -0.22003545413E+02  0.60384204680E+01 -0.14223908875E+03  0.19078769966E+03  0.12508944576E+03 0.  0.
          5    1    3    3  502    0  0.48509778584E+02 -0.80613794182E+01 -0.86966604116E+02  0.99994235273E+02  0.41800000000E+01 0.  1.
         -5    1    3    3    0  502 -0.70513323997E+02  0.14099799886E+02 -0.55272484634E+02  0.90793464388E+02  0.41800000000E+01 0.  1.
        -11    1    1    2    0    0  0.51518259365E+02 -0.21970554447E+01 -0.39550882375E+02  0.64986386246E+02  0.00000000000E+00 0.  1.
         11    1    1    2    0    0 -0.29514713952E+02 -0.38413650233E+01 -0.87923323924E+02  0.92824486612E+02  0.00000000000E+00 0. -1.
</event>
<event>
 7    1  0.1226955E-005  0.1577715E+03  0.7561462E-02  0.1191236E+00
         -3   -1    0    0    0  501 -0.00000000000E+00  0.00000000000E+00  0.21880669560E+03  0.21880669560E+03  0.00000000000E+00 0. -1.
          3   -1    0    0  501    0  0.00000000000E+00 -0.00000000000E+00 -0.13551560760E+03  0.13551560760E+03  0.00000000000E+00 0.  1.
         23    2    1    2    0    0 -0.16208356770E+02 -0.13176275083E+03  0.30490007054E+02  0.18493157442E+03  0.12508362543E+03 0.  0.
          5    1    3    3  502    0 -0.59450249757E+02 -0.89616620949E+02 -0.15739103136E+02  0.10876884992E+03  0.41800000000E+01 0. -1.
         -5    1    3    3    0  502  0.43241892987E+02 -0.42146129880E+02  0.46229110190E+02  0.76162724491E+02  0.41800000000E+01 0. -1.
        -11    1    1    2    0    0  0.41090745333E+02  0.85485946645E+02  0.65585167780E+02  0.11531569997E+03  0.00000000000E+00 0. -1.
         11    1    1    2    0    0 -0.24882388564E+02  0.46276804185E+02 -0.12784086832E+02  0.54075028824E+02  0.00000000000E+00 0.  1.
</event>
<event>
 7    1  0.1226955E-005  0.1130927E+03  0.7561462E-02  0.1254948E+00
          2   -1    0    0  501    0  0.00000000000E+00  0.00000000000E+00  0.46913332675E+02  0.46913332675E+02  0.00000000000E+00 0. -1.
         -2   -1    0    0    0  501 -0.00000000000E+00 -0.00000000000E+00 -0.32903621691E+03  0.32903621691E+03  0.00000000000E+00 0.  1.
         23    2    1    2    0    0 -0.46148735419E+02 -0.30304650760E+02 -0.12420048936E+03  0.18471928957E+03  0.12508947496E+03 0.  0.
          5    1    3    3  502    0 -0.53251897744E+02 -0.74080369596E+02 -0.92915315069E+02  0.13028581637E+03  0.41800000000E+01 0.  1.
         -5    1    3    3    0  502  0.71031623253E+01  0.43775718836E+02 -0.31285174287E+02  0.54433473202E+02  0.41800000000E+01 0.  1.
        -11    1    1    2    0    0  0.59764464655E+02  0.30475407611E+01 -0.14725191896E+03  0.15894718109E+03  0.00000000000E+00 0.  1.
         11    1    1    2    0    0 -0.13615729236E+02  0.27257109999E+02 -0.10670475918E+02  0.32283078918E+02  0.00000000000E+00 0. -1.
</event>
<event>
 7    1  0.1226955E-005  0.6447395E+02  0.7561462E-02  0.1379961E+00
          1   -1    0    0  501    0  0.00000000000E+00  0.00000000000E+00  0.25801233426E+03  0.25801233426E+03  0.00000000000E+00 0. -1.
         -1   -1    0    0    0  501 -0.00000000000E+00 -0.00000000000E+00 -0.51126877881E+02  0.51126877881E+02  0.00000000000E+00 0.  1.
         23    2    1    2    0    0  0.28927916085E+02 -0.24516037876E+02  0.11632391403E+03  0.17497710031E+03  0.12509145541E+03 0.  0.
          5    1    3    3  502    0  0.37272213958E+02 -0.18067806066E+02 -0.14181113732E+02  0.43979994725E+02  0.41800000000E+01 0. -1.
         -5    1    3    3    0  502 -0.83442978733E+01 -0.64482318102E+01  0.13050502776E+03  0.13099710558E+03  0.41800000000E+01 0. -1.
        -11    1    1    2    0    0  0.12523580616E+02  0.31535863064E+02  0.85289259630E+02  0.91791113616E+02  0.00000000000E+00 0. -1.
         11    1    1    2    0    0 -0.41451496701E+02 -0.70198251875E+01  0.52722827173E+01  0.42370998212E+02  0.00000000000E+00 0.  1.
</event>
<event>
 7    1  0.1226955E-005  0.8913246E+02  0.7561462E-02  0.1304966E+00
         -1   -1    0    0    0  501 -0.00000000000E+00  0.00000000000E+00  0.15127228671E+03  0.15127228671E+03  0.00000000000E+00 0.  1.
          1   -1    0    0  501    0  0.00000000000E+00 -0.00000000000E+00 -0.86812660271E+02  0.86812660271E+02  0.00000000000E+00 0. -1.
         23    2    1    2    0    0  0.34769479070E+02  0.13975374449E+02  0.40408708142E+02  0.13669148250E+03  0.12508984742E+03 0.  0.
          5    1    3    3  502    0  0.70061321149E+02 -0.65729637915E+01 -0.10524429584E+02  0.71274319303E+02  0.41800000000E+01 0. -1.
         -5    1    3    3    0  502 -0.35291842078E+02  0.20548338240E+02  0.50933137726E+02  0.65417163194E+02  0.41800000000E+01 0. -1.
        -11    1    1    2    0    0  0.10293697413E+02 -0.18765545995E+02 -0.26131131366E+02  0.33777832218E+02  0.00000000000E+00 0. -1.
         11    1    1    2    0    0 -0.45063176484E+02  0.47901715460E+01  0.50182049663E+02  0.67615632265E+02  0.00000000000E+00 0.  1.
</event>
<event>
 7    1  0.1226955E-005  0.1691471E+03  0.7561462E-02  0.1178740E+00
         -2   -1    0    0    0  501 -0.00000000000E+00  0.00000000000E+00  0.26236038299E+02  0.26236038299E+02  0.00000000000E+00 0.  1.
          2   -1    0    0  501    0  0.00000000000E+00 -0.00000000000E+00 -0.13264298088E+04  0.13264298088E+04  0.00000000000E+00 0. -1.
         23    2    1    2    0    0  0.15045012325E+03  0.33563270822E+01 -0.63386409202E+03  0.66338242468E+03  0.12508417046E+03 0.  0.
          5    1    3    3  502    0  0.13314170211E+03 -0.17642876625E+02 -0.30401377894E+03  0.33238506904E+03  0.41800000000E+01 0. -1.
         -5    1    3    3    0  502  0.17308421145E+02  0.20999203707E+02 -0.32985031308E+03  0.33099735564E+03  0.41800000000E+01 0. -1.
        -11    1    1    2    0    0 -0.31278226298E+02 -0.40860219137E+02 -0.19162708659E+03  0.19841578885E+03  0.00000000000E+00 0. -1.
         11    1    1    2    0    0 -0.11917189696E+03  0.37503892055E+02 -0.47470259185E+03  0.49086763353E+03  0.00000000000E+00 0.  1.
</event>
<event>
 7    1  0.1226955E-005  0.1112778E+03  0.7561462E-02  0.1258222E+00
          3   -1    0    0  501    0  0.00000000000E+00  0.00000000000E+00  0.74354092805E+03  0.74354092805E+03  0.00000000000E+00 0. -1.
         -3   -1    0    0    0  501 -0.00000000000E+00 -0.00000000000E+00 -0.34224765889E+02  0.34224765889E+02  0.00000000000E+00 0.  1.
         23    2    1    2    0    0  0.10350571399E+03 -0.38055220152E+02  0.28039454868E+03  0.32623708816E+03  0.12509157506E+03 0.  0.
          5    1    3    3  502    0  0.43066386334E+02 -0.64419707207E+01  0.68410782485E+01  0.44277368602E+02  0.41800000000E+01 0. -1.
         -5    1    3    3    0  502  0.60439327651E+02 -0.31613249431E+02  0.27355347043E+03  0.28195971956E+03  0.41800000000E+01 0. -1.
        -11    1    1    2    0    0 -0.45421989568E+02  0.20171131934E+02  0.61293562670E+02  0.78910915117E+02  0.00000000000E+00 0.  1.
         11    1    1    2    0    0 -0.58083724418E+02  0.17884088218E+02  0.36762805081E+03  0.37261769066E+03  0.00000000000E+00 0. -1.
</event>
<event>
 7    1  0.1226955E-005  0.1365251E+03  0.7561462E-02  0.1218083E+00
         -4   -1    0    0    0  501 -0.00000000000E+00  0.00000000000E+00  0.37148561943E+02  0.37148561943E+02  0.00000000000E+00 0.  1.
          4   -1    0    0  501    0  0.00000000000E+00 -0.00000000000E+00 -0.68253362095E+03  0.68253362095E+03  0.00000000000E+00 0. -1.
         23    2    1    2    0    0  0.71591915884E+02 -0.46052664110E+02 -0.16683628147E+03  0.22523090892E+03  0.12509343400E+03 0.  0.
          5    1    3    3  502    0  0.62328184639E+02  0.32231488815E+02 -0.60158589830E+02  0.92521347817E+02  0.41800000000E+01 0.  1.
         -5    1    3    3    0  502  0.92637312449E+01 -0.78284152925E+02 -0.10667769164E+03  0.13270956110E+03  0.41800000000E+01 0.  1.
        -11    1    1    2    0    0 -0.48149183802E+02 -0.21188604982E+02 -0.18016868381E+03  0.18769138368E+03  0.00000000000E+00 0.  1.
         11    1    1    2    0    0 -0.23442732081E+02  0.67241269092E+02 -0.29838009373E+03  0.30675989029E+03  0.00000000000E+00 0. -1.
</event>
<event>
 7    1  0.1226955E-005  0.1007018E+03  0.7561462E-02  0.1278827E+00
          2   -1    0    0  501    0  0.00000000000E+00  0.00000000000E+00  0.42454922219E+03  0.42454922219E+03  0.00000000000E+00 0. -1.
         -2   -1    0    0    0  501 -0.00000000000E+00 -0.00000000000E+00 -0.33939311125E+02  0.33939311125E+02  0.00000000000E+00 0.  1.
         23    2    1    2    0    0 -0.77813393176E+01 -0.35747479459E+02  0.15688136273E+03  0.20395542437E+03  0.12509045378E+03 0.  0.
          5    1    3    3  502    0 -0.49504541355E+02 -0.64333939075E+01  0.13740412164E+02  0.51945736095E+02  0.41800000000E+01 0. -1.
         -5    1    3    3    0  502  0.41723202038E+02 -0.29314085552E+02  0.14314095056E+03  0.15200968827E+03  0.41800000000E+01 0. -1.
        -11    1    1    2    0    0  0.50401489113E+02  0.14066367090E+02  0.13638553819E+03  0.14607938875E+03  0.00000000000E+00 0. -1.
         11    1    1    2    0    0 -0.42620149795E+02  0.21681112369E+02  0.97343010145E+02  0.10845372020E+03  0.00000000000E+00 0.  1.
</event>
<event>
 7    1  0.1226955E-005  0.1762638E+03  0.7561462E-02  0.1171469E+00
          2   -1    0    0  501    0  0.00000000000E+00  0.00000000000E+00  0.45084812440E+03  0.45084812440E+03  0.00000000000E+00 0. -1.
         -2   -1    0    0    0  501 -0.00000000000E+00 -0.00000000000E+00 -0.82159220953E+02  0.82159220953E+02  0.00000000000E+00 0.  1.
         23    2    1    2    0    0  0.15705486010E+03  0.12251290711E+01  0.16664447685E+03  0.26093146659E+03  0.12508844298E+03 0.  0.
          5    1    3    3  502    0  0.16173643382E+03  0.21051168625E+02  0.17432334461E+03  0.23876332759E+03  0.41800000000E+01 0.  1.
         -5    1    3    3    0  502 -0.46815737157E+01 -0.19826039554E+02 -0.76788677515E+01  0.22168139002E+02  0.41800000000E+01 0.  1.
        -11    1    1    2    0    0 -0.58769288220E+02  0.29290165020E+02  0.13246852896E+03  0.14785010710E+03  0.00000000000E+00 0. -1.
         11    1    1    2    0    0 -0.98285571885E+02 -0.30515294092E+02  0.69575897633E+02  0.12422577166E+03  0.00000000000E+00 0.  1.
</event>
<event>
 7    1  0.1226955E-005  0.1550454E+03  0.7561462E-02  0.1194407E+00
         -1   -1    0    0    0  501 -0.00000000000E+00  0.00000000000E+00  0.53777019760E+02  0.53777019760E+02  0.00000000000E+00 0.  1.
          1   -1    0    0  501    0  0.00000000000E+00 -0.00000000000E+00 -0.54858898643E+03  0.54858898643E+03  0.00000000000E+00 0. -1.
         23    2    1    2    0    0  0.13161725676E+03 -0.17553410568E+02 -0.26133217968E+03  0.31870539462E+03  0.12508955164E+03 0.  0.
          5    1    3    3  502    0  0.10447813737E+03 -0.62011066994E+02 -0.13323893918E+03  0.18036391249E+03  0.41800000000E+01 0.  1.
         -5    1    3    3    0  502  0.27139119393E+02  0.44457656426E+02 -0.12809324050E+03  0.13834148213E+03  0.41800000000E+01 0.  1.
        -11    1    1    2    0    0 -0.41327244769E+02  0.20074059784E+02 -0.16820336213E+02  0.48926810102E+02  0.00000000000E+00 0.  1.
         11    1    1    2    0    0 -0.90290011989E+02 -0.25206492154E+01 -0.21665945078E+03  0.23473380146E+03  0.00000000000E+00 0. -1.
</event>
<event>
 6    1  0.1226955E-005  0.1932318E+03  0.7561462E-02  0.1155578E+00
          2   -1    0    0  501    0  0.00000000000E+00  0.00000000000E+00  0.46848739303E+03  0.46848739303E+03  0.00000000000E+00 0. -1.
         -2   -1    0    0    0  501 -0.00000000000E+00 -0.00000000000E+00 -0.90202978122E+02  0.90202978122E+02  0.00000000000E+00 0.  1.
          5    1    1    2  502    0  0.70033096264E+02  0.90873333132E+02  0.20233175790E+03  0.23263320894E+03  0.41800000000E+01 0. -1.
         -5    1    1    2    0  502  0.13441604170E+01 -0.14622455701E+03  0.84361225774E+02  0.16887189421E+03  0.41800000000E+01 0.  1.
        -11    1    1    2    0    0  0.17251486317E+02  0.27506476318E+02  0.37821410211E+02  0.49846555447E+02  0.00000000000E+00 0. -1.
         11    1    1    2    0    0 -0.88628742999E+02  0.27844747558E+02  0.53770021021E+02  0.10733871255E+03  0.00000000000E+00 0.  1.
</event>
<event>
 7    1  0.1226955E-005  0.2187400E+03  0.7561462E-02  0.1134826E+00
          2   -1    0    0  501    0  0.00000000000E+00  0.00000000000E+00  0.16099503316E+04  0.16099503316E+04  0.00000000000E+00 0. -1.
         -2   -1    0    0    0  501 -0.00000000000E+00 -0.00000000000E+00 -0.35305361065E+02  0.35305361065E+02  0.00000000000E+00 0.  1.
         23    2    1    2    0    0 -0.47620079180E+02 -0.20021147819E+03  0.98725271561E+03  0.10162095404E+04  0.12514630433E+03 0.  0.
          5    1    3    3  502    0 -0.17110983755E+02 -0.10903769728E+02  0.35262299818E+03  0.35323098563E+03  0.41800000000E+01 0. -1.
         -5    1    3    3    0  502 -0.30509095425E+02 -0.18930770846E+03  0.63462971743E+03  0.66297855473E+03  0.41800000000E+01 0. -1.
        -11    1    1    2    0    0 -0.24757573737E+02  0.24042255452E+02  0.98067763597E+02  0.10396275180E+03  0.00000000000E+00 0.  1.
         11    1    1    2    0    0  0.72377652917E+02  0.17616922274E+03  0.48932449135E+03  0.52508340053E+03  0.00000000000E+00 0. -1.
</event>
<event>
 7    1  0.1226955E-005  0.1056024E+03  0.7561462E-02  0.1268937E+00
         -1   -1    0    0    0  501 -0.00000000000E+00  0.00000000000E+00  0.61624500629E+02  0.61624500629E+02  0.00000000000E+00 0.  1.
          1   -1    0    0  501    0  0.00000000000E+00 -0.00000000000E+00 -0.25116716289E+03  0.25116716289E+03  0.00000000000E+00 0. -1.
         23    2    1    2    0    0  0.37266844681E+02 -0.45647075143E+02 -0.84330993155E+02  0.16196611417E+03  0.12509529389E+03 0.  0.
          5    1    3    3  502    0  0.63893683070E+02 -0.22227134518E+02  0.27651634356E+01  0.67834849259E+02  0.41800000000E+01 0. -1.
         -5    1    3    3    0  502 -0.26626838389E+02 -0.23419940624E+02 -0.87096156591E+02  0.94131264914E+02  0.41800000000E+01 0. -1.
        -11    1    1    2    0    0  0.54558736227E+01  0.61803820991E+02 -0.54563338743E+02  0.82623463864E+02  0.00000000000E+00 0.  1.
         11    1    1    2    0    0 -0.42722718304E+02 -0.16156745848E+02 -0.50648330366E+02  0.68202085485E+02  0.00000000000E+00 0. -1.
</event>
<event>
 7    1  0.1226955E-005  0.1482638E+03  0.7561462E-02  0.1202623E+00
          2   -1    0    0  501    0  0.00000000000E+00  0.00000000000E+00  0.96744190726E+02  0.96744190726E+02  0.00000000000E+00 0. -1.
         -2   -1    0    0    0  501 -0.00000000000E+00 -0.00000000000E+00 -0.42491420589E+03  0.42491420589E+03  0.00000000000E+00 0.  1.
         23    2    1    2    0    0 -0.10791335816E+03 -0.81888292433E+02 -0.30453131006E+03  0.35600624161E+03  0.12510051939E+03 0.  0.
          5    1    3    3  502    0 -0.20912676852E+02 -0.56679771576E+01 -0.19632586496E+03  0.19756210080E+03  0.41800000000E+01 0.  1.
         -5    1    3    3    0  502 -0.87000681310E+02 -0.76220315275E+02 -0.10820544510E+03  0.15844414081E+03  0.41800000000E+01 0.  1.
        -11    1    1    2    0    0  0.12123663204E+03  0.66186490401E+02 -0.55419843871E+01  0.13823778807E+03  0.00000000000E+00 0. -1.
         11    1    1    2    0    0 -0.13323273876E+02  0.15701802032E+02 -0.18096720720E+02  0.27414366938E+02  0.00000000000E+00 0.  1.
</event>
<event>
 7    1  0.1226955E-005  0.1878375E+03  0.7561462E-02  0.1160426E+00
         -1   -1    0    0    0  501 -0.00000000000E+00  0.00000000000E+00  0.44866853622E+02  0.44866853622E+02  0.00000000000E+00 0.  1.
          1   -1    0    0  501    0  0.00000000000E+00 -0.00000000000E+00 -0.11926227251E+04  0.11926227251E+04  0.00000000000E+00 0. -1.
         23    2    1    2    0    0 -0.10104394143E+03 -0.13270051055E+03 -0.27253253603E+03  0.34188367757E+03  0.12161892202E+03 0.  0.
          5    1    3    3  502    0 -0.57283790891E+02 -0.13619504669E+02 -0.16594831647E+03  0.17613415270E+03  0.41800000000E+01 0. -1.
         -5    1    3    3    0  502 -0.43760150540E+02 -0.11908100588E+03 -0.10658421956E+03  0.16574952487E+03  0.41800000000E+01 0.  1.
        -11    1    1    2    0    0  0.17410725466E+02  0.97380829803E+02 -0.48034730234E+03  0.49042806836E+03  0.00000000000E+00 0.  1.
         11    1    1    2    0    0  0.83633215965E+02  0.35319680746E+02 -0.39487603307E+03  0.40517783275E+03  0.00000000000E+00 0. -1.
</event>
<event>
 7    1  0.1226955E-005  0.1861998E+03  0.7561462E-02  0.1161934E+00
         -2   -1    0    0    0  501 -0.00000000000E+00  0.00000000000E+00  0.25179907018E+03  0.25179907018E+03  0.00000000000E+00 0.  1.
          2   -1    0    0  501    0  0.00000000000E+00 -0.00000000000E+00 -0.17633964857E+03  0.17633964857E+03  0.00000000000E+00 0. -1.
         23    2    1    2    0    0  0.50197410772E+02 -0.15982625045E+03  0.10554762901E+03  0.23420712641E+03  0.12509382754E+03 0.  0.
          5    1    3    3  502    0  0.54453930983E+02 -0.36393513829E+02 -0.83371410614E+01  0.66156623020E+02  0.41800000000E+01 0.  1.
         -5    1    3    3    0  502 -0.42565202110E+01 -0.12343273662E+03  0.11388477007E+03  0.16805050339E+03  0.41800000000E+01 0.  1.
        -11    1    1    2    0    0 -0.27196803912E+02  0.62515501984E+01 -0.26678148280E+02  0.38606626615E+02  0.00000000000E+00 0. -1.
         11    1    1    2    0    0 -0.23000606860E+02  0.15357470025E+03 -0.34100591118E+01  0.15532496572E+03  0.00000000000E+00 0.  1.
</event>
<event>
 7    1  0.1226955E-005  0.1100157E+03  0.7561462E-02  0.1260541E+00
          1   -1    0    0  501    0  0.00000000000E+00  0.00000000000E+00  0.65680820091E+02  0.65680820091E+02  0.00000000000E+00 0. -1.
         -1   -1    0    0    0  501 -0.00000000000E+00 -0.00000000000E+00 -0.30827098689E+03  0.30827098689E+03  0.00000000000E+00 0.  1.
         23    2    1    2    0    0 -0.83866280580E+02 -0.33879428638E+02 -0.15621936670E+03  0.21962125531E+03  0.12509051342E+03 0.  0.
          5    1    3    3  502    0 -0.33843018903E+02 -0.37515737459E+02 -0.16125885810E+03  0.16904044546E+03  0.41800000000E+01 0.  1.
         -5    1    3    3    0  502 -0.50023261677E+02  0.36363088211E+01  0.50394914059E+01  0.50580809842E+02  0.41800000000E+01 0.  1.
        -11    1    1    2    0    0  0.79796313228E+01 -0.22885201748E+02  0.25585934067E+01  0.24371158678E+02  0.00000000000E+00 0. -1.
         11    1    1    2    0    0  0.75886649257E+02  0.56764630386E+02 -0.88929393506E+02  0.12995939299E+03  0.00000000000E+00 0.  1.
</event>
<event>
 7    1  0.1226955E-005  0.7655145E+02  0.7561462E-02  0.1339133E+00
         -1   -1    0    0    0  501 -0.00000000000E+00  0.00000000000E+00  0.39221963628E+03  0.39221963628E+03  0.00000000000E+00 0.  1.
          1   -1    0    0  501    0  0.00000000000E+00 -0.00000000000E+00 -0.32654837937E+02  0.32654837937E+02  0.00000000000E+00 0. -1.
         23    2    1    2    0    0  0.48698628577E+01 -0.20703837915E+00  0.26420821938E+03  0.29229995280E+03  0.12493806783E+03 0.  0.
          5    1    3    3  502    0  0.12022336132E+02  0.30809515516E+02  0.25731384573E+03  0.25946416018E+03  0.41800000000E+01 0.  1.
         -5    1    3    3    0  502 -0.71524732747E+01 -0.31016553895E+02  0.68943736513E+01  0.32835792628E+02  0.41800000000E+01 0.  1.
        -11    1    1    2    0    0  0.11644608146E+02  0.41546655322E+02  0.67334730355E+02  0.79973041578E+02  0.00000000000E+00 0.  1.
         11    1    1    2    0    0 -0.16514471004E+02 -0.41339616943E+02  0.28021848613E+02  0.52601479839E+02  0.00000000000E+00 0. -1.
</event>
<event>
 7    1  0.1226955E-005  0.1101569E+03  0.7561462E-02  0.1260280E+00
         -2   -1    0    0    0  501 -0.00000000000E+00  0.00000000000E+00  0.14555332921E+03  0.14555332921E+03  0.00000000000E+00 0.  1.
          2   -1    0    0  501    0  0.00000000000E+00 -0.00000000000E+00 -0.15760529905E+03  0.15760529905E+03  0.00000000000E+00 0. -1.
         23    2    1    2    0    0  0.53696007971E+02  0.69832213253E+01  0.84399893200E+02  0.16032150210E+03  0.12509042894E+03 0.  0.
          5    1    3    3  502    0  0.17547013884E+02 -0.50777094740E+02  0.73580430987E+02  0.91201772300E+02  0.41800000000E+01 0. -1.
         -5    1    3    3    0  502  0.36148994087E+02  0.57760316065E+02  0.10819462213E+02  0.69119729803E+02  0.41800000000E+01 0. -1.
        -11    1    1    2    0    0  0.21369741066E+02 -0.87051871914E+01 -0.34867656800E+01  0.23336744678E+02  0.00000000000E+00 0.  1.
         11    1    1    2    0    0 -0.75065749037E+02  0.17219658660E+01 -0.92965097366E+02  0.11950038148E+03  0.00000000000E+00 0. -1.
</event>
<event>
 7    1  0.1226955E-005  0.1219783E+03  0.7561462E-02  0.1239869E+00
          2   -1    0    0  501    0  0.00000000000E+00  0.00000000000E+00  0.12153649270E+03  0.12153649270E+03  0.00000000000E+00 0. -1.
         -2   -1    0    0    0  501 -0.00000000000E+00 -0.00000000000E+00 -0.16268681577E+03  0.16268681577E+03  0.00000000000E+00 0.  1.
         23    2    1    2    0    0  0.10918601031E+02 -0.87550264907E+02 -0.67187999092E+01  0.15322613033E+03  0.12509532369E+03 0.  0.
          5    1    3    3  502    0  0.47608705435E+02 -0.10236485515E+03 -0.62242215158E+00  0.11297350225E+03  0.41800000000E+01 0. -1.
         -5    1    3    3    0  502 -0.36690104404E+02  0.14814590239E+02 -0.60963777576E+01  0.40252628074E+02  0.41800000000E+01 0. -1.
        -11    1    1    2    0    0 -0.14947112402E+02  0.30116423545E+02  0.29665829655E+02  0.44838338343E+02  0.00000000000E+00 0. -1.
         11    1    1    2    0    0  0.40285113704E+01  0.57433841362E+02 -0.64097352817E+02  0.86158839799E+02  0.00000000000E+00 0.  1.
</event>
<event>
 7    1  0.1226955E-005  0.1163369E+03  0.7561462E-02  0.1249265E+00
         -2   -1    0    0    0  501 -0.00000000000E+00  0.00000000000E+00  0.64062947813E+02  0.64062947813E+02  0.00000000000E+00 0.  1.
          2   -1    0    0  501    0  0.00000000000E+00 -0.00000000000E+00 -0.35414418562E+03  0.35414418562E+03  0.00000000000E+00 0. -1.
         23    2    1    2    0    0 -0.90095775180E+02  0.41311082329E+02 -0.11454808052E+03  0.19645237495E+03  0.12509363950E+03 0.  0.
          5    1    3    3  502    0  0.10313693891E+02  0.16196187450E+02 -0.87101590369E+02  0.89290806998E+02  0.41800000000E+01 0.  1.
         -5    1    3    3    0  502 -0.10040946907E+03  0.25114894879E+02 -0.27446490151E+02  0.10716156795E+03  0.41800000000E+01 0.  1.
        -11    1    1    2    0    0  0.86833587414E+01 -0.24920036749E+02 -0.11753455767E+03  0.12046070395E+03  0.00000000000E+00 0. -1.
         11    1    1    2    0    0  0.81412416438E+02 -0.16391045580E+02 -0.57998599617E+02  0.10129405453E+03  0.00000000000E+00 0.  1.
</event>
<event>
 7    1  0.1226955E-005  0.9405886E+02  0.7561462E-02  0.1293310E+00
         -1   -1    0    0    0  501 -0.00000000000E+00  0.00000000000E+00  0.78893047473E+02  0.78893047473E+02  0.00000000000E+00 0.  1.
          1   -1    0    0  501    0  0.00000000000E+00 -0.00000000000E+00 -0.22020356319E+03  0.22020356319E+03  0.00000000000E+00 0. -1.
         23    2    1    2    0    0 -0.66845425621E+02 -0.33823073487E+02 -0.90248141081E+02  0.17146748926E+03  0.12507622348E+03 0.  0.
          5    1    3    3  502    0 -0.74269713387E+02 -0.17944844147E+02 -0.11664613776E+03  0.13950556122E+03  0.41800000000E+01 0. -1.
         -5    1    3    3    0  502  0.74242877656E+01 -0.15878229340E+02  0.26397996674E+02  0.31961928043E+02  0.41800000000E+01 0. -1.
        -11    1    1    2    0    0  0.23429636245E+02 -0.15326909626E+02  0.17289015110E+02  0.32905501922E+02  0.00000000000E+00 0.  1.
         11    1    1    2    0    0  0.43415789376E+02  0.49149983113E+02 -0.68351389751E+02  0.94723619483E+02  0.00000000000E+00 0. -1.
</event>
<event>
 7    1  0.1226955E-005  0.1090774E+03  0.7561462E-02  0.1262288E+00
          1   -1    0    0  501    0  0.00000000000E+00  0.00000000000E+00  0.93503222874E+03  0.93503222874E+03  0.00000000000E+00 0. -1.
         -1   -1    0    0    0  501 -0.00000000000E+00 -0.00000000000E+00 -0.13428605105E+02  0.13428605105E+02  0.00000000000E+00 0.  1.
         23    2    1    2    0    0 -0.16155886818E+02 -0.20670132790E+02  0.48219158290E+03  0.49884311834E+03  0.12508983584E+03 0.  0.
          5    1    3    3  502    0  0.52669924245E+02 -0.34152690095E+01  0.26755829297E+03  0.27274658114E+03  0.41800000000E+01 0. -1.
         -5    1    3    3    0  502 -0.68825811063E+02 -0.17254863781E+02  0.21463328993E+03  0.22609653721E+03  0.41800000000E+01 0. -1.
        -11    1    1    2    0    0 -0.16449413083E+02 -0.29803234543E+02  0.12722959133E+03  0.13170491597E+03  0.00000000000E+00 0. -1.
         11    1    1    2    0    0  0.32605299901E+02  0.50473367333E+02  0.31218244941E+03  0.31791279954E+03  0.00000000000E+00 0.  1.
</event>
<event>
 7    1  0.1226955E-005  0.1679260E+03  0.7561462E-02  0.1180028E+00
          2   -1    0    0  501    0  0.00000000000E+00  0.00000000000E+00  0.10579523329E+04  0.10579523329E+04  0.00000000000E+00 0. -1.
         -2   -1    0    0    0  501 -0.00000000000E+00 -0.00000000000E+00 -0.32247945745E+02  0.32247945745E+02  0.00000000000E+00 0.  1.
         23    2    1    2    0    0 -0.14693623046E+03  0.18554844785E+02  0.47502884793E+03  0.51307936378E+03  0.12515386165E+03 0.  0.
          5    1    3    3  502    0 -0.12317597270E+03  0.43263511241E+02  0.45451744527E+03  0.47291397961E+03  0.41800000000E+01 0.  1.
         -5    1    3    3    0  502 -0.23760257757E+02 -0.24708666456E+02  0.20511402665E+02  0.40165384176E+02  0.41800000000E+01 0.  1.
        -11    1    1    2    0    0  0.19157316312E+02 -0.36932448128E+02  0.17522313300E+03  0.18009484954E+03  0.00000000000E+00 0. -1.
         11    1    1    2    0    0  0.12777891415E+03  0.18377603342E+02  0.37545240622E+03  0.39702606532E+03  0.00000000000E+00 0.  1.
</event>
<event>
 7    1  0.1226955E-005  0.1108774E+03  0.7561462E-02  0.1258954E+00
         -1   -1    0    0    0  501 -0.00000000000E+00  0.00000000000E+00  0.28155147856E+03  0.28155147856E+03  0.00000000000E+00 0.  1.
          1   -1    0    0  501    0  0.00000000000E+00 -0.00000000000E+00 -0.52812398372E+02  0.52812398372E+02  0.00000000000E+00 0. -1.
         23    2    1    2    0    0  0.22518375046E+01  0.27326115576E+02  0.19447202952E+03  0.23284940339E+03  0.12509071520E+03 0.  0.
          5    1    3    3  502    0 -0.47977103730E+02  0.52761031697E+02  0.11452350198E+03  0.13497641962E+03  0.41800000000E+01 0. -1.
         -5    1    3    3    0  502  0.50228941235E+02 -0.25434916121E+02  0.79948527534E+02  0.97872983762E+02  0.41800000000E+01 0. -1.
        -11    1    1    2    0    0 -0.25702757823E+02  0.25413082246E+02  0.22600797224E+02  0.42629245174E+02  0.00000000000E+00 0.  1.
         11    1    1    2    0    0  0.23450920319E+02 -0.52739197822E+02  0.11666253445E+02  0.58885228370E+02  0.00000000000E+00 0. -1.
</event>
<event>
 7    1  0.1226955E-005  0.1261661E+03  0.7561462E-02  0.1233258E+00
          1   -1    0    0  501    0  0.00000000000E+00  0.00000000000E+00  0.89892225779E+02  0.89892225779E+02  0.00000000000E+00 0. -1.
         -1   -1    0    0    0  501 -0.00000000000E+00 -0.00000000000E+00 -0.25820950388E+03  0.25820950388E+03  0.00000000000E+00 0.  1.
         23    2    1    2    0    0  0.93894730040E+02 -0.24560259723E+02 -0.14116265066E+03  0.21211715396E+03  0.12508943351E+03 0.  0.
          5    1    3    3  502    0  0.10143026203E+03 -0.53246924481E+02 -0.14156966894E+03  0.18216140257E+03  0.41800000000E+01 0.  1.
         -5    1    3    3    0  502 -0.75355319936E+01  0.28686664758E+02  0.40701828342E+00  0.29955751389E+02  0.41800000000E+01 0.  1.
        -11    1    1    2    0    0 -0.54019768998E+02 -0.10048615018E+02  0.26242062520E+02  0.60891345458E+02  0.00000000000E+00 0. -1.
         11    1    1    2    0    0 -0.39874961041E+02  0.34608874741E+02 -0.53396689965E+02  0.75093230241E+02  0.00000000000E+00 0.  1.
</event>
<event>
 7    1  0.1226955E-005  0.1901613E+03  0.7561462E-02  0.1158316E+00
          2   -1    0    0  501    0  0.00000000000E+00  0.00000000000E+00  0.57120357913E+03  0.57120357913E+03  0.00000000000E+00 0.  1.
         -2   -1    0    0    0  501 -0.00000000000E+00 -0.00000000000E+00 -0.79234051983E+02  0.79234051983E+02  0.00000000000E+00 0. -1.
         23    2    1    2    0    0 -0.15423016040E+03 -0.60700293617E+02  0.13804217164E+03  0.24936172813E+03  0.12511659474E+03 0.  0.
          5    1    3    3  502    0 -0.21863619175E+02  0.34161460172E+02  0.95347691167E+01  0.41873708059E+02  0.41800000000E+01 0. -1.
         -5    1    3    3    0  502 -0.13236654123E+03 -0.94861753789E+02  0.12850740252E+03  0.20748802007E+03  0.41800000000E+01 0. -1.
        -11    1    1    2    0    0  0.47800916112E+02  0.50806973280E+02  0.75286077718E+02  0.10263659003E+03  0.00000000000E+00 0. -1.
         11    1    1    2    0    0  0.10642924429E+03  0.98933203365E+01  0.27864127779E+03  0.29843931296E+03  0.00000000000E+00 0.  1.
</event>
<event>
 7    1  0.1226955E-005  0.1108488E+03  0.7561462E-02  0.1259006E+00
          1   -1    0    0  501    0  0.00000000000E+00  0.00000000000E+00  0.63330728700E+02  0.63330728700E+02  0.00000000000E+00 0. -1.
         -1   -1    0    0    0  501 -0.00000000000E+00 -0.00000000000E+00 -0.24016879090E+03  0.24016879090E+03  0.00000000000E+00 0.  1.
         23    2    1    2    0    0 -0.18697691983E+02 -0.32492278304E+02 -0.15110319270E+03  0.19970013167E+03  0.12507044380E+03 0.  0.
          5    1    3    3  502    0  0.36731512991E+02 -0.58148327037E+02 -0.71796176464E+02  0.99511784923E+02  0.41800000000E+01 0.  1.
         -5    1    3    3    0  502 -0.55429204974E+02  0.25656048733E+02 -0.79307016235E+02  0.10018834675E+03  0.41800000000E+01 0.  1.
        -11    1    1    2    0    0  0.34366946105E+00  0.59179938008E+02  0.46827651032E+01  0.59365911602E+02  0.00000000000E+00 0.  1.
         11    1    1    2    0    0  0.18354022522E+02 -0.26687659705E+02 -0.30417634601E+02  0.44433476320E+02  0.00000000000E+00 0. -1.
</event>
<event>
 7    1  0.1226955E-005  0.1056605E+03  0.7561462E-02  0.1268824E+00
          3   -1    0    0  501    0  0.00000000000E+00  0.00000000000E+00  0.10663843542E+03  0.10663843542E+03  0.00000000000E+00 0. -1.
         -3   -1    0    0    0  501 -0.00000000000E+00 -0.00000000000E+00 -0.25341563896E+03  0.25341563896E+03  0.00000000000E+00 0.  1.
         23    2    1    2    0    0  0.53933778566E+02  0.19413310814E+02 -0.20501706730E+03  0.24693299187E+03  0.12513263156E+03 0.  0.
          5    1    3    3  502    0  0.28931882426E+02 -0.40123898571E+02 -0.24885905588E+02  0.55531628413E+02  0.41800000000E+01 0. -1.
         -5    1    3    3    0  502  0.25001896140E+02  0.59537209386E+02 -0.18013116172E+03  0.19140136346E+03  0.41800000000E+01 0. -1.
        -11    1    1    2    0    0 -0.56943394258E+02 -0.44147390762E+02  0.42640860917E+02  0.83724460467E+02  0.00000000000E+00 0.  1.
         11    1    1    2    0    0  0.30096156914E+01  0.24734079948E+02  0.15599002847E+02  0.29396622039E+02  0.00000000000E+00 0. -1.
</event>
<event>
 7    1  0.1226955E-005  0.8389967E+02  0.7561462E-02  0.1318335E+00
         -1   -1    0    0    0  501 -0.00000000000E+00  0.00000000000E+00  0.22413892893E+03  0.22413892893E+03  0.00000000000E+00 0.  1.
          1   -1    0    0  501    0  0.00000000000E+00 -0.00000000000E+00 -0.67717127086E+02  0.67717127086E+02  0.00000000000E+00 0. -1.
         23    2    1    2    0    0  0.98388910216E+01  0.60379592753E+02  0.90043068779E+02  0.16582470414E+03  0.12509028448E+03 0.  0.
          5    1    3    3  502    0 -0.21061775519E+01  0.18928837116E+02 -0.31354362413E+02  0.36922964409E+02  0.41800000000E+01 0. -1.
         -5    1    3    3    0  502  0.11945068573E+02  0.41450755636E+02  0.12139743119E+03  0.12890173973E+03  0.41800000000E+01 0. -1.
        -11    1    1    2    0    0  0.38007980045E+02 -0.26800191869E+02  0.42113431231E+02  0.62740719803E+02  0.00000000000E+00 0.  1.
         11    1    1    2    0    0 -0.47846871067E+02 -0.33579400884E+02  0.24265301829E+02  0.63290632067E+02  0.00000000000E+00 0. -1.
</event>
<event>
 7    1  0.1226955E-005  0.1076608E+03  0.7561462E-02  0.1264964E+00
          1   -1    0    0  501    0  0.00000000000E+00  0.00000000000E+00  0.10857118526E+04  0.10857118526E+04  0.00000000000E+00 0. -1.
         -1   -1    0    0    0  501 -0.00000000000E+00 -0.00000000000E+00 -0.16847954606E+02  0.16847954606E+02  0.00000000000E+00 0.  1.
         23    2    1    2    0    0 -0.60969773441E+02 -0.30603370707E+02  0.75531179514E+03  0.76863377574E+03  0.12509234091E+03 0.  0.
          5    1    3    3  502    0 -0.41781631823E+02  0.21098304460E+02  0.94775139346E+02  0.10578583387E+03  0.41800000000E+01 0. -1.
         -5    1    3    3    0  502 -0.19188141618E+02 -0.51701675167E+02  0.66053665579E+03  0.66284794187E+03  0.41800000000E+01 0. -1.
        -11    1    1    2    0    0  0.83622342293E+02  0.13650152175E+02  0.20671247958E+03  0.22340338404E+03  0.00000000000E+00 0.  1.
         11    1    1    2    0    0 -0.22652568852E+02  0.16953218532E+02  0.10683962331E+03  0.11052264746E+03  0.00000000000E+00 0. -1.
</event>
<event>
 7    1  0.1226955E-005  0.1326625E+03  0.7561462E-02  0.1223558E+00
          4   -1    0    0  501    0  0.00000000000E+00  0.00000000000E+00  0.46446027318E+03  0.46446027318E+03  0.00000000000E+00 0. -1.
         -4   -1    0    0    0  501 -0.00000000000E+00 -0.00000000000E+00 -0.73551498174E+02  0.73551498174E+02  0.00000000000E+00 0.  1.
         23    2    1    2    0    0  0.41807060429E+02 -0.85161320919E+02  0.37213568508E+02  0.16134827223E+03  0.12509250332E+03 0.  0.
          5    1    3    3  502    0  0.32170808738E+02 -0.11356703418E+03  0.66129843178E+01  0.11829470042E+03  0.41800000000E+01 0. -1.
         -5    1    3    3    0  502  0.96362516909E+01  0.28405713259E+02  0.30600584190E+02  0.43053571805E+02  0.41800000000E+01 0. -1.
        -11    1    1    2    0    0 -0.48025374792E+02  0.20912925988E+02  0.81213781420E+02  0.96640909504E+02  0.00000000000E+00 0.  1.
         11    1    1    2    0    0  0.62183143630E+01  0.64248394931E+02  0.27248142508E+03  0.28002258962E+03  0.00000000000E+00 0. -1.
</event>
<event>
 7    1  0.1226955E-005  0.9076948E+02  0.7561462E-02  0.1300999E+00
          2   -1    0    0  501    0  0.00000000000E+00  0.00000000000E+00  0.17629815366E+02  0.17629815366E+02  0.00000000000E+00 0. -1.
         -2   -1    0    0    0  501 -0.00000000000E+00 -0.00000000000E+00 -0.14385896390E+04  0.14385896390E+04  0.00000000000E+00 0.  1.
         23    2    1    2    0    0  0.29852715724E+02  0.59606948103E+02 -0.11992882637E+04  0.12076356042E+04  0.12508892876E+03 0.  0.
          5    1    3    3  502    0  0.15561117165E+01  0.22550241851E+02 -0.10680685873E+04  0.10683159245E+04  0.41800000000E+01 0. -1.
         -5    1    3    3    0  502  0.28296604007E+02  0.37056706253E+02 -0.13121967641E+03  0.13931967970E+03  0.41800000000E+01 0. -1.
        -11    1    1    2    0    0 -0.53559153049E+02 -0.69700480784E+01 -0.92805137370E+02  0.10737764184E+03  0.00000000000E+00 0.  1.
         11    1    1    2    0    0  0.23706437325E+02 -0.52636900025E+02 -0.12886642257E+03  0.14120620836E+03  0.00000000000E+00 0. -1.
</event>
<event>
 7    1  0.1226955E-005  0.1189868E+03  0.7561462E-02  0.1244778E+00
          2   -1    0    0  501    0  0.00000000000E+00  0.00000000000E+00  0.88778416215E+03  0.88778416215E+03  0.00000000000E+00 0. -1.
         -2   -1    0    0    0  501 -0.00000000000E+00 -0.00000000000E+00 -0.26158745481E+02  0.26158745481E+02  0.00000000000E+00 0.  1.
         23    2    1    2    0    0 -0.97875278291E+02  0.39645817851E+02  0.51387686481E+03  0.53932183539E+03  0.12508896424E+03 0.  0.
          5    1    3    3  502    0 -0.76575007702E+01 -0.64761836143E+00  0.33348663048E+03  0.33360135168E+03  0.41800000000E+01 0. -1.
         -5    1    3    3    0  502 -0.90217777521E+02  0.40293436213E+02  0.18039023432E+03  0.20572048372E+03  0.41800000000E+01 0. -1.
        -11    1    1    2    0    0  0.69286789017E+01  0.20269777393E+02  0.20208553971E+02  0.29449212561E+02  0.00000000000E+00 0.  1.
         11    1    1    2    0    0  0.90946599389E+02 -0.59915595244E+02  0.32753999789E+03  0.34517185968E+03  0.00000000000E+00 0. -1.
</event>
<event>
 7    1  0.1226955E-005  0.7532589E+02  0.7561462E-02  0.1342865E+00
          2   -1    0    0  501    0  0.00000000000E+00  0.00000000000E+00  0.23243955015E+03  0.23243955015E+03  0.00000000000E+00 0. -1.
         -2   -1    0    0    0  501 -0.00000000000E+00 -0.00000000000E+00 -0.11302534177E+03  0.11302534177E+03  0.00000000000E+00 0.  1.
         23    2    1    2    0    0  0.62808158593E+01  0.32946768242E+02 -0.68634750248E+02  0.13536534106E+03  0.11175020552E+03 0.  0.
          5    1    3    3  502    0 -0.21303923311E+02  0.14901709273E+01  0.24747087519E+02  0.32954036149E+02  0.41800000000E+01 0. -1.
         -5    1    3    3    0  502  0.27584739171E+02  0.31456597315E+02 -0.93381837767E+02  0.10241130492E+03  0.41800000000E+01 0.  1.
        -11    1    1    2    0    0  0.22474112300E+02 -0.49002452362E+02  0.15197322194E+03  0.16125193409E+03  0.00000000000E+00 0. -1.
         11    1    1    2    0    0 -0.28754928159E+02  0.16055684120E+02  0.36075736685E+02  0.48847616762E+02  0.00000000000E+00 0.  1.
</event>
<event>
 7    1  0.1226955E-005  0.1521132E+03  0.7561462E-02  0.1197900E+00
          3   -1    0    0  501    0  0.00000000000E+00  0.00000000000E+00  0.18340358630E+03  0.18340358630E+03  0.00000000000E+00 0. -1.
         -3   -1    0    0    0  501 -0.00000000000E+00 -0.00000000000E+00 -0.19395368062E+03  0.19395368062E+03  0.00000000000E+00 0.  1.
         23    2    1    2    0    0  0.35021324681E+02 -0.12292070955E+03 -0.89038158527E+02  0.19977667849E+03  0.12508770355E+03 0.  0.
          5    1    3    3  502    0 -0.14574004981E+02 -0.28527368434E+01 -0.65995761018E+02  0.67775014578E+02  0.41800000000E+01 0. -1.
         -5    1    3    3    0  502  0.49595329663E+02 -0.12006797270E+03 -0.23042397509E+02  0.13200166392E+03  0.41800000000E+01 0. -1.
        -11    1    1    2    0    0 -0.43171318316E+02  0.83596440640E+01  0.15730984197E+02  0.46702357947E+02  0.00000000000E+00 0. -1.
         11    1    1    2    0    0  0.81499936348E+01  0.11456106548E+03  0.62757080005E+02  0.13087823047E+03  0.00000000000E+00 0.  1.
</event>
<event>
 7    1  0.1226955E-005  0.1471517E+03  0.7561462E-02  0.1204017E+00
          2   -1    0    0  501    0  0.00000000000E+00  0.00000000000E+00  0.10909655174E+03  0.10909655174E+03  0.00000000000E+00 0. -1.
         -2   -1    0    0    0  501 -0.00000000000E+00 -0.00000000000E+00 -0.22938194219E+03  0.22938194219E+03  0.00000000000E+00 0.  1.
         23    2    1    2    0    0  0.78552240725E+02  0.81868864469E+02 -0.86673432353E+02  0.18982338036E+03  0.12509063259E+03 0.  0.
          5    1    3    3  502    0  0.10237368772E+03  0.93312614337E+02 -0.85920727757E+02  0.16305661529E+03  0.41800000000E+01 0.  1.
         -5    1    3    3    0  502 -0.23821446995E+02 -0.11443749867E+02 -0.75270459559E+00  0.26766765068E+02  0.41800000000E+01 0.  1.
        -11    1    1    2    0    0 -0.49739815459E+02 -0.86501281176E+02  0.54089633049E+01  0.99928863553E+02  0.00000000000E+00 0.  1.
         11    1    1    2    0    0 -0.28812425266E+02  0.46324167069E+01 -0.39020921396E+02  0.48726250018E+02  0.00000000000E+00 0. -1.
</event>
<event>
 7    1  0.1226955E-005  0.1528098E+03  0.7561462E-02  0.1197062E+00
          3   -1    0    0  501    0  0.00000000000E+00  0.00000000000E+00  0.76392208342E+02  0.76392208342E+02  0.00000000000E+00 0. -1.
         -3   -1    0    0    0  501 -0.00000000000E+00 -0.00000000000E+00 -0.39322433642E+03  0.39322433642E+03  0.00000000000E+00 0.  1.
         23    2    1    2    0    0 -0.12697875239E+03  0.29370150461E+02 -0.21642404828E+03  0.28190006391E+03  0.12506825362E+03 0.  0.
          5    1    3    3  502    0 -0.35548128531E+02  0.67082992543E+02 -0.60323090998E+02  0.97057431648E+02  0.41800000000E+01 0. -1.
         -5    1    3    3    0  502 -0.91430623861E+02 -0.37712842083E+02 -0.15610095728E+03  0.18484263226E+03  0.41800000000E+01 0. -1.
        -11    1    1    2    0    0  0.38469210737E+02 -0.50181744851E+01 -0.86590379285E+02  0.94883908196E+02  0.00000000000E+00 0.  1.
         11    1    1    2    0    0  0.88509541655E+02 -0.24351975975E+02 -0.13817700512E+02  0.92832572653E+02  0.00000000000E+00 0. -1.
</event>
<event>
 7    1  0.1226955E-005  0.1534525E+03  0.7561462E-02  0.1196294E+00
          1   -1    0    0  501    0  0.00000000000E+00  0.00000000000E+00  0.87765070277E+03  0.87765070277E+03  0.00000000000E+00 0. -1.
         -1   -1    0    0    0  501 -0.00000000000E+00 -0.00000000000E+00 -0.29177012580E+02  0.29177012580E+02  0.00000000000E+00 0.  1.
         23    2    1    2    0    0  0.26940311722E+02  0.11511509786E+03  0.43397419968E+03  0.46686072716E+03  0.12509223168E+03 0.  0.
          5    1    3    3  502    0 -0.33176544814E+02  0.10547486812E+03  0.26334840117E+03  0.28564923197E+03  0.41800000000E+01 0.  1.
         -5    1    3    3    0  502  0.60116856537E+02  0.96402297416E+01  0.17062579852E+03  0.18121149519E+03  0.41800000000E+01 0.  1.
        -11    1    1    2    0    0  0.11435697501E+02 -0.86766778502E+02  0.34315585927E+03  0.35414007508E+03  0.00000000000E+00 0. -1.
         11    1    1    2    0    0 -0.38376009223E+02 -0.28348319361E+02  0.71343631234E+02  0.85826913099E+02  0.00000000000E+00 0.  1.
</event>
<event>
 7    1  0.1226955E-005  0.1018914E+03  0.7561462E-02  0.1276368E+00
         -1   -1    0    0    0  501 -0.00000000000E+00  0.00000000000E+00  0.35720571241E+03  0.35720571241E+03  0.00000000000E+00 0.  1.
          1   -1    0    0  501    0  0.00000000000E+00 -0.00000000000E+00 -0.83680684813E+02  0.83680684813E+02  0.00000000000E+00 0. -1.
         23    2    1    2    0    0  0.53980185873E+02  0.23613226369E+02  0.29883329154E+03  0.32927302116E+03  0.12509173197E+03 0.  0.
          5    1    3    3  502    0  0.47105348246E+02 -0.26008898321E+02  0.26056096611E+03  0.26609183769E+03  0.41800000000E+01 0.  1.
         -5    1    3    3    0  502  0.68748376268E+01  0.49622124691E+02  0.38272325426E+02  0.63181183470E+02  0.41800000000E+01 0.  1.
        -11    1    1    2    0    0 -0.30980263337E+02  0.28803128708E+02 -0.33276170805E+02  0.53821004108E+02  0.00000000000E+00 0. -1.
         11    1    1    2    0    0 -0.22999922536E+02 -0.52416355078E+02  0.79679068663E+01  0.57792371954E+02  0.00000000000E+00 0.  1.
</event>
<event>
 7    1  0.1226955E-005  0.1051291E+03  0.7561462E-02  0.1269865E+00
          2   -1    0    0  501    0  0.00000000000E+00  0.00000000000E+00  0.14602016190E+03  0.14602016190E+03  0.00000000000E+00 0. -1.
         -2   -1    0    0    0  501 -0.00000000000E+00 -0.00000000000E+00 -0.90522143492E+02  0.90522143492E+02  0.00000000000E+00 0.  1.
         23    2    1    2    0    0  0.18250301411E+02  0.81421037372E+01 -0.26359932236E+01  0.12670478258E+03  0.12509111124E+03 0.  0.
          5    1    3    3  502    0  0.63653964139E+02  0.29609372409E+02 -0.20469054989E+02  0.73246137763E+02  0.41800000000E+01 0. -1.
         -5    1    3    3    0  502 -0.45403662727E+02 -0.21467268672E+02  0.17833061766E+02  0.53458644813E+02  0.41800000000E+01 0. -1.
        -11    1    1    2    0    0 -0.22635000294E+02 -0.46082212379E+02  0.17923647012E+02  0.54379873651E+02  0.00000000000E+00 0.  1.
         11    1    1    2    0    0  0.43846988830E+01  0.37940108642E+02  0.40210364614E+02  0.55457649161E+02  0.00000000000E+00 0. -1.
</event>
<event>
 7    1  0.1226955E-005  0.1035666E+03  0.7561462E-02  0.1272970E+00
          2   -1    0    0  501    0  0.00000000000E+00  0.00000000000E+00  0.17384492488E+03  0.17384492488E+03  0.00000000000E+00 0. -1.
         -2   -1    0    0    0  501 -0.00000000000E+00 -0.00000000000E+00 -0.83269399917E+02  0.83269399917E+02  0.00000000000E+00 0.  1.
         23    2    1    2    0    0 -0.38175588319E+02  0.22407396240E+02  0.27524561841E+02  0.13551917933E+03  0.12509348309E+03 0.  0.
          5    1    3    3  502    0 -0.70313336913E+02  0.62807411510E+01  0.55397958847E+02  0.89832172976E+02  0.41800000000E+01 0.  1.
         -5    1    3    3    0  502  0.32137748594E+02  0.16126655089E+02 -0.27873397006E+02  0.45687006355E+02  0.41800000000E+01 0.  1.
        -11    1    1    2    0    0  0.26815865721E+02  0.33645573026E+02  0.11346344769E+02  0.44495559085E+02  0.00000000000E+00 0.  1.
         11    1    1    2    0    0  0.11359722598E+02 -0.56052969267E+02  0.51704618353E+02  0.77099586381E+02  0.00000000000E+00 0. -1.
</event>
<event>
 7    1  0.1226955E-005  0.1136355E+03  0.7561462E-02  0.1253982E+00
         -4   -1    0    0    0  501 -0.00000000000E+00  0.00000000000E+00  0.48491641756E+02  0.48491641756E+02  0.00000000000E+00 0.  1.
          4   -1    0    0  501    0  0.00000000000E+00 -0.00000000000E+00 -0.33241750613E+03  0.33241750613E+03  0.00000000000E+00 0. -1.
         23    2    1    2    0    0 -0.67974956133E+02  0.66914629501E+01 -0.17812423663E+03  0.22811280073E+03  0.12506732524E+03 0.  0.
          5    1    3    3  502    0  0.23048861048E+02 -0.12992295654E+02  0.31685998319E+00  0.26788477789E+02  0.41800000000E+01 0.  1.
         -5    1    3    3    0  502 -0.91023817181E+02  0.19683758604E+02 -0.17844109661E+03  0.20132432294E+03  0.41800000000E+01 0.  1.
        -11    1    1    2    0    0 -0.30527097738E+01 -0.31786146999E+02 -0.16427929287E+02  0.35910375083E+02  0.00000000000E+00 0. -1.
         11    1    1    2    0    0  0.71027665907E+02  0.25094684048E+02 -0.89373698459E+02  0.11688597207E+03  0.00000000000E+00 0.  1.
</event>
<event>
 7    1  0.1226955E-005  0.2196624E+03  0.7561462E-02  0.1134135E+00
          1   -1    0    0  501    0  0.00000000000E+00  0.00000000000E+00  0.37982610108E+03  0.37982610108E+03  0.00000000000E+00 0. -1.
         -1   -1    0    0    0  501 -0.00000000000E+00 -0.00000000000E+00 -0.20130511117E+03  0.20130511117E+03  0.00000000000E+00 0.  1.
         23    2    1    2    0    0 -0.17927706919E+03 -0.88204334674E+02 -0.72336170271E+02  0.24657879553E+03  0.12509319999E+03 0.  0.
          5    1    3    3  502    0 -0.96218703249E+02  0.17578187203E+02 -0.50838359387E+02  0.11031338407E+03  0.41800000000E+01 0. -1.
         -5    1    3    3    0  502 -0.83058365940E+02 -0.10578252188E+03 -0.21497810884E+02  0.13626541146E+03  0.41800000000E+01 0. -1.
        -11    1    1    2    0    0  0.53519032843E+02  0.55121289829E+02  0.15502334908E+03  0.17301699983E+03  0.00000000000E+00 0.  1.
         11    1    1    2    0    0  0.12575803635E+03  0.33083044845E+02  0.95833811093E+02  0.16153541689E+03  0.00000000000E+00 0. -1.
</event>
<event>
 7    1  0.1226955E-005  0.9705366E+02  0.7561462E-02  0.1286617E+00
         -1   -1    0    0    0  501 -0.00000000000E+00  0.00000000000E+00  0.77454497713E+02  0.77454497713E+02  0.00000000000E+00 0.  1.
          1   -1    0    0  501    0  0.00000000000E+00 -0.00000000000E+00 -0.36311737235E+03  0.36311737235E+03  0.00000000000E+00 0. -1.
         23    2    1    2    0    0 -0.51046663717E+02 -0.25774298626E+02 -0.23765249465E+01  0.13756461174E+03  0.12509315803E+03 0.  0.
          5    1    3    3  502    0  0.32091237076E+02 -0.91235197538E+01  0.31584417333E+02  0.46131701985E+02  0.41800000000E+01 0.  1.
         -5    1    3    3    0  502 -0.83137900793E+02 -0.16650778872E+02 -0.33960942280E+02  0.91432909752E+02  0.41800000000E+01 0.  1.
        -11    1    1    2    0    0  0.28721215662E+01  0.27243739951E+02 -0.16666680885E+02  0.32066317227E+02  0.00000000000E+00 0.  1.
         11    1    1    2    0    0  0.48174542150E+02 -0.14694413251E+01 -0.26661966880E+03  0.27094094109E+03  0.00000000000E+00 0. -1.
</event>
<event>
 7    1  0.1226955E-005  0.1936749E+03  0.7561462E-02  0.1155188E+00
          2   -1    0    0  501    0  0.00000000000E+00  0.00000000000E+00  0.10229763832E+04  0.10229763832E+04  0.00000000000E+00 0. -1.
         -2   -1    0    0    0  501 -0.00000000000E+00 -0.00000000000E+00 -0.74424658475E+02  0.74424658475E+02  0.00000000000E+00 0.  1.
         23    2    1    2    0    0 -0.85913290371E+02 -0.14943394106E+03  0.11665745413E+03  0.24283327135E+03  0.12508972727E+03 0.  0.
          5    1    3    3  502    0  0.16827743228E+02 -0.94632991629E+02  0.46910338311E+02  0.10703564027E+03  0.41800000000E+01 0.  1.
         -5    1    3    3    0  502 -0.10274103360E+03 -0.54800949430E+02  0.69747115816E+02  0.13579763108E+03  0.41800000000E+01 0.  1.
        -11    1    1    2    0    0  0.54817106102E+02  0.11944476139E+03  0.75513918044E+03  0.76649014865E+03  0.00000000000E+00 0. -1.
         11    1    1    2    0    0  0.31096184269E+02  0.29989179664E+02  0.76755090112E+02  0.88077621625E+02  0.00000000000E+00 0.  1.
</event>
<event>
 7    1  0.1226955E-005  0.1146972E+03  0.7561462E-02  0.1252111E+00
         -1   -1    0    0    0  501 -0.00000000000E+00  0.00000000000E+00  0.43728586554E+02  0.43728586554E+02  0.00000000000E+00 0.  1.
          1   -1    0    0  501    0  0.00000000000E+00 -0.00000000000E+00 -0.45349840335E+03  0.45349840335E+03  0.00000000000E+00 0. -1.
         23    2    1    2    0    0  0.77999024564E+02  0.18807432258E+02 -0.15324120135E+03  0.21346652054E+03  0.12509005659E+03 0.  0.
          5    1    3    3  502    0  0.84566242048E+02  0.54990838580E+02 -0.71432394545E+02  0.12367498135E+03  0.41800000000E+01 0.  1.
         -5    1    3    3    0  502 -0.65672174845E+01 -0.36183406322E+02 -0.81808806803E+02  0.89791539184E+02  0.41800000000E+01 0.  1.
        -11    1    1    2    0    0 -0.56430989211E+02  0.80230033185E+01 -0.54639878484E+02  0.78957846009E+02  0.00000000000E+00 0.  1.
         11    1    1    2    0    0 -0.21568035353E+02 -0.26830435576E+02 -0.20188873696E+03  0.20480262336E+03  0.00000000000E+00 0. -1.
</event>
<event>
 7    1  0.1226955E-005  0.1621091E+03  0.7561462E-02  0.1186336E+00
          1   -1    0    0  501    0  0.00000000000E+00  0.00000000000E+00  0.13797252087E+03  0.13797252087E+03  0.00000000000E+00 0. -1.
         -1   -1    0    0    0  501 -0.00000000000E+00 -0.00000000000E+00 -0.20746808097E+03  0.20746808097E+03  0.00000000000E+00 0.  1.
         23    2    1    2    0    0 -0.11436691745E+03 -0.40419189712E+02  0.53804739688E+01  0.17432945344E+03  0.12509318979E+03 0.  0.
          5    1    3    3  502    0 -0.56877218157E+02  0.41421063764E+02 -0.15268360162E+02  0.72120161471E+02  0.41800000000E+01 0. -1.
         -5    1    3    3    0  502 -0.57489699296E+02 -0.81840253476E+02  0.20648834131E+02  0.10220929197E+03  0.41800000000E+01 0. -1.
        -11    1    1    2    0    0  0.88633145274E+02  0.71071329866E+02 -0.59405525069E+02  0.12820290472E+03  0.00000000000E+00 0.  1.
         11    1    1    2    0    0  0.25733772178E+02 -0.30652140155E+02 -0.15470508999E+02  0.42908243675E+02  0.00000000000E+00 0. -1.
</event>
<event>
 7    1  0.1226955E-005  0.3461652E+03  0.7561462E-02  0.1064200E+00
          1   -1    0    0  501    0  0.00000000000E+00  0.00000000000E+00  0.93288290869E+03  0.93288290869E+03  0.00000000000E+00 0. -1.
         -1   -1    0    0    0  501 -0.00000000000E+00 -0.00000000000E+00 -0.14427202269E+03  0.14427202269E+03  0.00000000000E+00 0.  1.
         23    2    1    2    0    0  0.12630881407E+02 -0.33430468279E+03  0.55598691306E+03  0.66082429855E+03  0.12509254959E+03 0.  0.
          5    1    3    3  502    0 -0.37450134410E+02 -0.20670253758E+03  0.25753027909E+03  0.33236691872E+03  0.41800000000E+01 0. -1.
         -5    1    3    3    0  502  0.50081015816E+02 -0.12760214521E+03  0.29845663397E+03  0.32845737983E+03  0.41800000000E+01 0. -1.
        -11    1    1    2    0    0  0.20452266994E+02  0.28482506406E+03  0.19775808157E+03  0.34734978216E+03  0.00000000000E+00 0.  1.
         11    1    1    2    0    0 -0.33083148401E+02  0.49479618727E+02  0.34865891373E+02  0.68980850667E+02  0.00000000000E+00 0. -1.
</event>
<event>
 7    1  0.1226955E-005  0.9986759E+02  0.7561462E-02  0.1280575E+00
         -1   -1    0    0    0  501 -0.00000000000E+00  0.00000000000E+00  0.70252131436E+02  0.70252131436E+02  0.00000000000E+00 0.  1.
          1   -1    0    0  501    0  0.00000000000E+00 -0.00000000000E+00 -0.27728109972E+03  0.27728109972E+03  0.00000000000E+00 0. -1.
         23    2    1    2    0    0  0.82280268248E+02  0.36129947653E+01 -0.74155103413E+02  0.16717500512E+03  0.12516152245E+03 0.  0.
          5    1    3    3  502    0  0.16811201609E+01  0.21264374976E+02 -0.81391058650E+02  0.84243555458E+02  0.41800000000E+01 0. -1.
         -5    1    3    3    0  502  0.80599148087E+02 -0.17651380210E+02  0.72359552362E+01  0.82931449667E+02  0.41800000000E+01 0. -1.
        -11    1    1    2    0    0 -0.64923067107E+02  0.18277449252E+02 -0.30106250992E+02  0.73861059717E+02  0.00000000000E+00 0.  1.
         11    1    1    2    0    0 -0.17357201140E+02 -0.21890444017E+02 -0.10276761388E+03  0.10649716632E+03  0.00000000000E+00 0. -1.
</event>
<event>
 7    1  0.1226955E-005  0.1499389E+03  0.7561462E-02  0.1200548E+00
          2   -1    0    0  501    0  0.00000000000E+00  0.00000000000E+00  0.34176814585E+03  0.34176814585E+03  0.00000000000E+00 0. -1.
         -2   -1    0    0    0  501 -0.00000000000E+00 -0.00000000000E+00 -0.74017441802E+02  0.74017441802E+02  0.00000000000E+00 0.  1.
         23    2    1    2    0    0 -0.11018694675E+03  0.66193236613E+01  0.98782470470E+02  0.19389066475E+03  0.12510249688E+03 0.  0.
          5    1    3    3  502    0 -0.43783049602E+02 -0.51525598040E+02  0.97312039134E+01  0.68439837926E+02  0.41800000000E+01 0.  1.
         -5    1    3    3    0  502 -0.66403897148E+02  0.58144921701E+02  0.89051266557E+02  0.12545082683E+03  0.41800000000E+01 0.  1.
        -11    1    1    2    0    0  0.12557580049E+03  0.30217910470E+01  0.14547315202E+03  0.19220002822E+03  0.00000000000E+00 0.  1.
         11    1    1    2    0    0 -0.15388853743E+02 -0.96411147082E+01  0.23495081554E+02  0.29694894672E+02  0.00000000000E+00 0. -1.
</event>
<event>
 7    1  0.1226955E-005  0.1344957E+03  0.7561462E-02  0.1220933E+00
         -4   -1    0    0    0  501 -0.00000000000E+00  0.00000000000E+00  0.39378648040E+03  0.39378648040E+03  0.00000000000E+00 0.  1.
          4   -1    0    0  501    0  0.00000000000E+00 -0.00000000000E+00 -0.64166101422E+02  0.64166101422E+02  0.00000000000E+00 0. -1.
         23    2    1    2    0    0 -0.78768998060E+02  0.28340893186E+02  0.28041073374E+03  0.31825582389E+03  0.12509527794E+03 0.  0.
          5    1    3    3  502    0 -0.44394096413E+02 -0.41460920426E+02  0.64425045115E+02  0.88644811224E+02  0.41800000000E+01 0.  1.
         -5    1    3    3    0  502 -0.34374901647E+02  0.69801813612E+02  0.21598568863E+03  0.22961101267E+03  0.41800000000E+01 0.  1.
        -11    1    1    2    0    0 -0.62324388275E+01 -0.43412183195E+02  0.10549689752E+02  0.45108279698E+02  0.00000000000E+00 0. -1.
         11    1    1    2    0    0  0.85001436888E+02  0.15071290009E+02  0.38659955480E+02  0.94588478227E+02  0.00000000000E+00 0.  1.
</event>
<event>
 7    1  0.1226955E-005  0.1022412E+03  0.7561462E-02  0.1275652E+00
          1   -1    0    0  501    0  0.00000000000E+00  0.00000000000E+00  0.48983234327E+02  0.48983234327E+02  0.00000000000E+00 0. -1.
         -1   -1    0    0    0  501 -0.00000000000E+00 -0.00000000000E+00 -0.97276445050E+03  0.97276445050E+03  0.00000000000E+00 0.  1.
         23    2    1    2    0    0  0.60322204463E+02  0.41332060225E+02 -0.88537908705E+03  0.89564155880E+03  0.11371264885E+03 0.  0.
          5    1    3    3  502    0  0.73688767229E+02  0.15648832500E+02 -0.29357672517E+03  0.30311662168E+03  0.41800000000E+01 0. -1.
         -5    1    3    3    0  502 -0.13366562766E+02  0.25683227724E+02 -0.59180236188E+03  0.59252493712E+03  0.41800000000E+01 0.  1.
        -11    1    1    2    0    0 -0.18521984034E+01 -0.41269490161E+02 -0.51665344411E+02  0.66150655856E+02  0.00000000000E+00 0.  1.
         11    1    1    2    0    0 -0.58470006060E+02 -0.62570063202E-01  0.13263215289E+02  0.59955470171E+02  0.00000000000E+00 0. -1.
</event>
<event>
 7    1  0.1226955E-005  0.1919257E+03  0.7561462E-02  0.1156736E+00
         -2   -1    0    0    0  501 -0.00000000000E+00  0.00000000000E+00  0.16713164141E+03  0.16713164141E+03  0.00000000000E+00 0. -1.
          2   -1    0    0  501    0  0.00000000000E+00 -0.00000000000E+00 -0.25803171429E+03  0.25803171429E+03  0.00000000000E+00 0.  1.
         23    2    1    2    0    0 -0.13881983555E+03  0.79404120746E+02  0.32949356637E+02  0.20569263293E+03  0.12509131866E+03 0.  0.
          5    1    3    3  502    0 -0.12918939624E+02  0.75455988000E+02  0.67359149993E+01  0.76963303443E+02  0.41800000000E+01 0. -1.
         -5    1    3    3    0  502 -0.12590089593E+03  0.39481327463E+01  0.26213441637E+02  0.12872932949E+03  0.41800000000E+01 0. -1.
        -11    1    1    2    0    0  0.31956739130E+02 -0.66155979778E+02 -0.48093859173E+02  0.87811537547E+02  0.00000000000E+00 0.  1.
         11    1    1    2    0    0  0.10686309642E+03 -0.13248140967E+02 -0.75755570343E+02  0.13165918523E+03  0.00000000000E+00 0. -1.
</event>
<event>
 7    1  0.1226955E-005  0.1129795E+03  0.7561462E-02  0.1255150E+00
          1   -1    0    0  501    0  0.00000000000E+00  0.00000000000E+00  0.48500696976E+03  0.48500696976E+03  0.00000000000E+00 0. -1.
         -1   -1    0    0    0  501 -0.00000000000E+00 -0.00000000000E+00 -0.27360634160E+02  0.27360634160E+02  0.00000000000E+00 0.  1.
         23    2    1    2    0    0 -0.45967357532E+02  0.78374050740E+01  0.25846755472E+03  0.29090743705E+03  0.12508891723E+03 0.  0.
          5    1    3    3  502    0  0.59869855095E+01  0.57048873585E+02  0.79545609336E+02  0.98160044506E+02  0.41800000000E+01 0. -1.
         -5    1    3    3    0  502 -0.51954343042E+02 -0.49211468511E+02  0.17892194538E+03  0.19274739254E+03  0.41800000000E+01 0. -1.
        -11    1    1    2    0    0  0.44820902813E+02  0.33156341410E+02  0.11825430694E+03  0.13073766639E+03  0.00000000000E+00 0.  1.
         11    1    1    2    0    0  0.11464547189E+01 -0.40993746484E+02  0.80924473946E+02  0.90722500476E+02  0.00000000000E+00 0. -1.
</event>
<event>
 7    1  0.1226955E-005  0.1208728E+03  0.7561462E-02  0.1241664E+00
          1   -1    0    0  501    0  0.00000000000E+00  0.00000000000E+00  0.56993172151E+03  0.56993172151E+03  0.00000000000E+00 0. -1.
         -1   -1    0    0    0  501 -0.00000000000E+00 -0.00000000000E+00 -0.32044477820E+02  0.32044477820E+02  0.00000000000E+00 0.  1.
         23    2    1    2    0    0 -0.60694566382E+02 -0.53764210371E+02  0.23011063685E+03  0.27417741781E+03  0.12509168854E+03 0.  0.
          5    1    3    3  502    0 -0.86849406680E+02 -0.61975665225E+02  0.22021114209E+03  0.24473296063E+03  0.41800000000E+01 0. -1.
         -5    1    3    3    0  502  0.26154840298E+02  0.82114548537E+01  0.98994947590E+01  0.29444457175E+02  0.41800000000E+01 0. -1.
        -11    1    1    2    0    0  0.18435103145E+02  0.61564264546E+02  0.13155161753E+03  0.14640983496E+03  0.00000000000E+00 0.  1.
         11    1    1    2    0    0  0.42259463237E+02 -0.78000541746E+01  0.17622498932E+03  0.18138894657E+03  0.00000000000E+00 0. -1.
</event>
<event>
 7    1  0.2412845E-005  0.1565439E+03  0.7561462E-02  0.1192655E+00
         -1   -1    0    0    0  501 -0.00000000000E+00  0.00000000000E+00  0.74181708343E+02  0.74181708343E+02  0.00000000000E+00 0.  1.
          1   -1    0    0  501    0  0.00000000000E+00 -0.00000000000E+00 -0.45861029149E+03  0.45861029149E+03  0.00000000000E+00 0. -1.
         23    2    1    2    0    0 -0.34861555264E+01 -0.14434966357E+03 -0.14854947437E+03  0.24199865960E+03  0.12508967287E+03 0.  0.
          5    1    3    3  502    0  0.22631587146E+02 -0.35410735033E+02  0.14042388767E+02  0.44505842028E+02  0.41800000000E+01 0.  1.
         -5    1    3    3    0  502 -0.26117742672E+02 -0.10893892854E+03 -0.16259186314E+03  0.19749281757E+03  0.41800000000E+01 0.  1.
        -11    1    1    2    0    0  0.31070041655E+02  0.11204152046E+03 -0.11872766637E+03  0.16617734069E+03  0.00000000000E+00 0.  1.
         11    1    1    2    0    0 -0.27583886129E+02  0.32308143112E+02 -0.11715144241E+03  0.12461599955E+03  0.00000000000E+00 0. -1.
</event>
<event>
 7    1  0.1226955E-005  0.2063141E+03  0.7561462E-02  0.1144518E+00
          1   -1    0    0  501    0  0.00000000000E+00  0.00000000000E+00  0.10870237431E+03  0.10870237431E+03  0.00000000000E+00 0. -1.
         -1   -1    0    0    0  501 -0.00000000000E+00 -0.00000000000E+00 -0.48402572285E+03  0.48402572285E+03  0.00000000000E+00 0.  1.
         23    2    1    2    0    0 -0.27190268288E+02  0.19397710389E+03 -0.25573494871E+03  0.34556421963E+03  0.12509132014E+03 0.  0.
          5    1    3    3  502    0  0.72152708504E+01  0.53340876611E+02 -0.16744288995E+03  0.17593152942E+03  0.41800000000E+01 0. -1.
         -5    1    3    3    0  502 -0.34405539139E+02  0.14063622728E+03 -0.88292058764E+02  0.16963269021E+03  0.41800000000E+01 0. -1.
        -11    1    1    2    0    0  0.48317995229E+02 -0.54948387594E+02 -0.23524471908E+02  0.76859317852E+02  0.00000000000E+00 0. -1.
         11    1    1    2    0    0 -0.21127726941E+02 -0.13902871629E+03 -0.96063927925E+02  0.17030455968E+03  0.00000000000E+00 0.  1.
</event>
<event>
 7    1  0.1226955E-005  0.8154933E+02  0.7561462E-02  0.1324711E+00
          2   -1    0    0  501    0  0.00000000000E+00  0.00000000000E+00  0.80383969832E+03  0.80383969832E+03  0.00000000000E+00 0. -1.
         -2   -1    0    0    0  501 -0.00000000000E+00 -0.00000000000E+00 -0.15516161063E+02  0.15516161063E+02  0.00000000000E+00 0.  1.
         23    2    1    2    0    0 -0.88515396817E+01 -0.19732369328E+02  0.37101698797E+03  0.39213422291E+03  0.12509167545E+03 0.  0.
          5    1    3    3  502    0 -0.93291950740E-01  0.25499207255E+02  0.92867384983E+01  0.27457862007E+02  0.41800000000E+01 0.  1.
         -5    1    3    3    0  502 -0.87582477310E+01 -0.45231576583E+02  0.36173024947E+03  0.36467636091E+03  0.41800000000E+01 0.  1.
        -11    1    1    2    0    0 -0.35726037095E+02  0.28334342667E+02  0.23160601157E+03  0.23605196312E+03  0.00000000000E+00 0. -1.
         11    1    1    2    0    0  0.44577576777E+02 -0.86019733396E+01  0.18570053772E+03  0.19116967335E+03  0.00000000000E+00 0.  1.
</event>
<event>
 7    1  0.1226955E-005  0.9971326E+02  0.7561462E-02  0.1280900E+00
          1   -1    0    0  501    0  0.00000000000E+00  0.00000000000E+00  0.40940633866E+02  0.40940633866E+02  0.00000000000E+00 0. -1.
         -1   -1    0    0    0  501 -0.00000000000E+00 -0.00000000000E+00 -0.29641454493E+03  0.29641454493E+03  0.00000000000E+00 0.  1.
         23    2    1    2    0    0  0.94968268130E+01 -0.44406937602E+01 -0.17087592170E+03  0.21202934013E+03  0.12509177022E+03 0.  0.
          5    1    3    3  502    0  0.14780635154E+01  0.50799574589E+02 -0.13798489545E+03  0.14710569405E+03  0.41800000000E+01 0.  1.
         -5    1    3    3    0  502  0.80187632976E+01 -0.55240268350E+02 -0.32891026255E+02  0.64923646079E+02  0.41800000000E+01 0.  1.
        -11    1    1    2    0    0 -0.42537364324E+02  0.28833784175E+02 -0.46279430860E+02  0.69156346015E+02  0.00000000000E+00 0. -1.
         11    1    1    2    0    0  0.33040537511E+02 -0.24393090415E+02 -0.38318558496E+02  0.56169492647E+02  0.00000000000E+00 0.  1.
</event>
<event>
 7    1  0.1226955E-005  0.1201708E+03  0.7561462E-02  0.1242816E+00
          2   -1    0    0  501    0  0.00000000000E+00  0.00000000000E+00  0.27466645471E+03  0.27466645471E+03  0.00000000000E+00 0. -1.
         -2   -1    0    0    0  501 -0.00000000000E+00 -0.00000000000E+00 -0.59327306066E+02  0.59327306066E+02  0.00000000000E+00 0.  1.
         23    2    1    2    0    0 -0.46771633388E+02  0.42330694680E+02  0.92064923355E+02  0.16763966989E+03  0.12509050886E+03 0.  0.
          5    1    3    3  502    0 -0.27907926270E+02  0.86075581442E+02  0.47546431685E+02  0.10230343902E+03  0.41800000000E+01 0. -1.
         -5    1    3    3    0  502 -0.18863707119E+02 -0.43744886763E+02  0.44518491670E+02  0.65336230873E+02  0.41800000000E+01 0. -1.
        -11    1    1    2    0    0  0.65043670439E+02 -0.50079622131E+02  0.64738955473E+02  0.10454558801E+03  0.00000000000E+00 0.  1.
         11    1    1    2    0    0 -0.18272037050E+02  0.77489274511E+01  0.58535269813E+02  0.61808502867E+02  0.00000000000E+00 0. -1.
</event>
<event>
 7    1  0.1226955E-005  0.8639513E+02  0.7561462E-02  0.1311824E+00
          2   -1    0    0  501    0  0.00000000000E+00  0.00000000000E+00  0.10195319752E+03  0.10195319752E+03  0.00000000000E+00 0. -1.
         -2   -1    0    0    0  501 -0.00000000000E+00 -0.00000000000E+00 -0.11710111371E+03  0.11710111371E+03  0.00000000000E+00 0.  1.
         23    2    1    2    0    0 -0.18341894327E+02  0.21194184944E+01 -0.15690032452E+02  0.12741449369E+03  0.12508940428E+03 0.  0.
          5    1    3    3  502    0 -0.46582630278E+02 -0.33297950828E+02 -0.45303645984E+02  0.73134039355E+02  0.41800000000E+01 0.  1.
         -5    1    3    3    0  502  0.28240735950E+02  0.35417369323E+02  0.29613613533E+02  0.54280454339E+02  0.41800000000E+01 0.  1.
        -11    1    1    2    0    0  0.32042545394E+02  0.24241065356E+02 -0.29148389422E+02  0.49638519023E+02  0.00000000000E+00 0.  1.
         11    1    1    2    0    0 -0.13700651067E+02 -0.26360483850E+02  0.29690505686E+02  0.42001298508E+02  0.00000000000E+00 0. -1.
</event>
<event>
 7    1  0.1226955E-005  0.1553053E+03  0.7561462E-02  0.1194101E+00
         -1   -1    0    0    0  501 -0.00000000000E+00  0.00000000000E+00  0.94790520835E+02  0.94790520835E+02  0.00000000000E+00 0.  1.
          1   -1    0    0  501    0  0.00000000000E+00 -0.00000000000E+00 -0.37173394649E+03  0.37173394649E+03  0.00000000000E+00 0. -1.
         23    2    1    2    0    0  0.27247381529E+02  0.55706814922E+02 -0.29153724334E+02  0.14263046528E+03  0.12509133045E+03 0.  0.
          5    1    3    3  502    0  0.12361318916E+02 -0.39406161382E+02 -0.19264288549E+02  0.45762790272E+02  0.41800000000E+01 0. -1.
         -5    1    3    3    0  502  0.14886062613E+02  0.95112976304E+02 -0.98894357851E+01  0.96867675009E+02  0.41800000000E+01 0. -1.
        -11    1    1    2    0    0  0.32688074694E+02 -0.95404199046E+02 -0.22803407762E+03  0.24933915052E+03  0.00000000000E+00 0. -1.
         11    1    1    2    0    0 -0.59935456222E+02  0.39697384124E+02 -0.19755623701E+02  0.74554851530E+02  0.00000000000E+00 0.  1.
</event>
<event>
 7    1  0.1226955E-005  0.1085051E+03  0.7561462E-02  0.1263363E+00
         -2   -1    0    0    0  501 -0.00000000000E+00  0.00000000000E+00  0.14032936519E+03  0.14032936519E+03  0.00000000000E+00 0.  1.
          2   -1    0    0  501    0  0.00000000000E+00 -0.00000000000E+00 -0.16555264845E+03  0.16555264845E+03  0.00000000000E+00 0. -1.
         23    2    1    2    0    0 -0.96581906706E+02 -0.14028619998E+00  0.31633645540E+02  0.16117021362E+03  0.12508823224E+03 0.  0.
          5    1    3    3  502    0 -0.96532811223E+02  0.20270042179E+02 -0.24137765426E+02  0.10163445465E+03  0.41800000000E+01 0. -1.
         -5    1    3    3    0  502 -0.49095482999E-01 -0.20410328379E+02  0.55771410967E+02  0.59535758970E+02  0.41800000000E+01 0. -1.
        -11    1    1    2    0    0  0.59557894717E+02  0.63981683427E+01 -0.80498554457E+02  0.10033990558E+03  0.00000000000E+00 0. -1.
         11    1    1    2    0    0  0.37024011989E+02 -0.62578821427E+01  0.23641625652E+02  0.44371894439E+02  0.00000000000E+00 0.  1.
</event>
<event>
 7    1  0.1226955E-005  0.1033972E+03  0.7561462E-02  0.1273310E+00
         -3   -1    0    0    0  501 -0.00000000000E+00  0.00000000000E+00  0.64691624092E+02  0.64691624092E+02  0.00000000000E+00 0.  1.
          3   -1    0    0  501    0  0.00000000000E+00 -0.00000000000E+00 -0.36495205939E+03  0.36495205939E+03  0.00000000000E+00 0. -1.
         23    2    1    2    0    0  0.15301001066E+02  0.97561211574E+02 -0.10900076996E+03  0.19309214435E+03  0.12510434733E+03 0.  0.
          5    1    3    3  502    0  0.26136411319E+02  0.37205516561E+02  0.20267417078E+02  0.49956011192E+02  0.41800000000E+01 0.  1.
         -5    1    3    3    0  502 -0.10835410253E+02  0.60355695013E+02 -0.12926818704E+03  0.14313613316E+03  0.41800000000E+01 0.  1.
        -11    1    1    2    0    0 -0.58756740747E+01 -0.99540996376E+01  0.10985021898E+02  0.15946107723E+02  0.00000000000E+00 0.  1.
         11    1    1    2    0    0 -0.94253269913E+01 -0.87607111937E+02 -0.20224468723E+03  0.22060543140E+03  0.00000000000E+00 0. -1.
</event>
<event>
 7    1  0.1226955E-005  0.1567975E+03  0.7561462E-02  0.1192361E+00
         -1   -1    0    0    0  501 -0.00000000000E+00  0.00000000000E+00  0.30730828441E+03  0.30730828441E+03  0.00000000000E+00 0.  1.
          1   -1    0    0  501    0  0.00000000000E+00 -0.00000000000E+00 -0.13830858470E+03  0.13830858470E+03  0.00000000000E+00 0. -1.
         23    2    1    2    0    0 -0.12148129601E+03 -0.19785845991E+00  0.22306714949E+03  0.28313188615E+03  0.12508783852E+03 0.  0.
          5    1    3    3  502    0 -0.68769917439E+01 -0.44396554794E+02  0.97462894808E+02  0.10740035083E+03  0.41800000000E+01 0. -1.
         -5    1    3    3    0  502 -0.11460430426E+03  0.44198696335E+02  0.12560425468E+03  0.17573153532E+03  0.41800000000E+01 0. -1.
        -11    1    1    2    0    0  0.41765607487E+02  0.38795036357E+02 -0.46554762557E+02  0.73598687023E+02  0.00000000000E+00 0. -1.
         11    1    1    2    0    0  0.79715688519E+02 -0.38597177897E+02 -0.75126872203E+01  0.88886295946E+02  0.00000000000E+00 0.  1.
</event>
<event>
 7    1  0.1226955E-005  0.2084275E+03  0.7561462E-02  0.1142817E+00
          2   -1    0    0  501    0  0.00000000000E+00  0.00000000000E+00  0.51121348508E+02  0.51121348508E+02  0.00000000000E+00 0. -1.
         -2   -1    0    0    0  501 -0.00000000000E+00 -0.00000000000E+00 -0.14050363014E+04  0.14050363014E+04  0.00000000000E+00 0.  1.
         23    2    1    2    0    0  0.92064250553E+02  0.15885454093E+03 -0.11399427786E+04  0.11613895617E+04  0.12508230916E+03 0.  0.
          5    1    3    3  502    0 -0.22724823512E+02  0.67786095665E+02 -0.27830424754E+03  0.28737101275E+03  0.41800000000E+01 0.  1.
         -5    1    3    3    0  502  0.11478907407E+03  0.91068445267E+02 -0.86163853110E+03  0.87401854896E+03  0.41800000000E+01 0.  1.
        -11    1    1    2    0    0 -0.19671141560E+02  0.43204898045E+01 -0.43485156017E+02  0.47922638035E+02  0.00000000000E+00 0.  1.
         11    1    1    2    0    0 -0.72393108993E+02 -0.16317503074E+03 -0.17048701826E+03  0.24684545019E+03  0.00000000000E+00 0. -1.
</event>
<event>
 7    1  0.1226955E-005  0.1125983E+03  0.7561462E-02  0.1255833E+00
         -2   -1    0    0    0  501 -0.00000000000E+00  0.00000000000E+00  0.15881022775E+02  0.15881022775E+02  0.00000000000E+00 0.  1.
          2   -1    0    0  501    0  0.00000000000E+00 -0.00000000000E+00 -0.12266605515E+04  0.12266605515E+04  0.00000000000E+00 0. -1.
         23    2    1    2    0    0 -0.81382403060E+02  0.31320915070E+02 -0.52789498498E+03  0.54947721416E+03  0.12509196002E+03 0.  0.
          5    1    3    3  502    0  0.92998615136E+01  0.10077190627E+02 -0.33425373670E+03  0.33456101101E+03  0.41800000000E+01 0.  1.
         -5    1    3    3    0  502 -0.90682264574E+02  0.21243724442E+02 -0.19364124829E+03  0.21491620315E+03  0.41800000000E+01 0.  1.
        -11    1    1    2    0    0  0.88321232069E+02 -0.47314232820E+02 -0.60605712109E+03  0.61428373793E+03  0.00000000000E+00 0. -1.
         11    1    1    2    0    0 -0.69388290093E+01  0.15993317750E+02 -0.76827422693E+02  0.78780622227E+02  0.00000000000E+00 0.  1.
</event>
<event>
 6    1  0.1226955E-005  0.1349308E+03  0.7561462E-02  0.1220317E+00
          1   -1    0    0  501    0  0.00000000000E+00  0.00000000000E+00  0.12722131558E+03  0.12722131558E+03  0.00000000000E+00 0. -1.
         -1   -1    0    0    0  501 -0.00000000000E+00 -0.00000000000E+00 -0.22630248499E+03  0.22630248499E+03  0.00000000000E+00 0.  1.
          5    1    1    2  502    0  0.49987388257E+02 -0.47531998787E+02 -0.62856563553E+02  0.93415469142E+02  0.41800000000E+01 0. -1.
         -5    1    1    2    0  502 -0.93611354693E+02  0.12978057532E+02 -0.98869867462E+02  0.13683654043E+03  0.41800000000E+01 0.  1.
        -11    1    1    2    0    0 -0.28046650865E+02  0.43477834545E+01  0.17492796210E+02  0.33339402588E+02  0.00000000000E+00 0.  1.
         11    1    1    2    0    0  0.71670617301E+02  0.30206157801E+02  0.45152465401E+02  0.89932388410E+02  0.00000000000E+00 0. -1.
</event>
<event>
 7    1  0.1226955E-005  0.1311898E+03  0.7561462E-02  0.1225701E+00
         -2   -1    0    0    0  501 -0.00000000000E+00  0.00000000000E+00  0.65713216277E+02  0.65713216277E+02  0.00000000000E+00 0.  1.
          2   -1    0    0  501    0  0.00000000000E+00 -0.00000000000E+00 -0.29767047702E+03  0.29767047702E+03  0.00000000000E+00 0. -1.
         23    2    1    2    0    0  0.86338435857E+02 -0.53245200143E+01 -0.11499386602E+03  0.19066880100E+03  0.12509327093E+03 0.  0.
          5    1    3    3  502    0  0.11309127621E+03 -0.27687737956E+02 -0.94458469089E+02  0.14998707401E+03  0.41800000000E+01 0. -1.
         -5    1    3    3    0  502 -0.26752840352E+02  0.22363217942E+02 -0.20535396934E+02  0.40681726990E+02  0.41800000000E+01 0. -1.
        -11    1    1    2    0    0 -0.48457529154E+02 -0.31603685463E+02 -0.18152816404E+02  0.60633734916E+02  0.00000000000E+00 0. -1.
         11    1    1    2    0    0 -0.37880906703E+02  0.36928205477E+02 -0.98810578321E+02  0.11208115738E+03  0.00000000000E+00 0.  1.
</event>
<event>
 7    1  0.1226955E-005  0.1711043E+03  0.7561462E-02  0.1176701E+00
          1   -1    0    0  501    0  0.00000000000E+00  0.00000000000E+00  0.44603786005E+03  0.44603786005E+03  0.00000000000E+00 0. -1.
         -1   -1    0    0    0  501 -0.00000000000E+00 -0.00000000000E+00 -0.86114865116E+02  0.86114865116E+02  0.00000000000E+00 0.  1.
         23    2    1    2    0    0  0.14721327471E+02  0.14725848242E+03  0.96210510311E+02  0.21634470514E+03  0.12508713372E+03 0.  0.
          5    1    3    3  502    0 -0.37191519925E+02  0.42429165690E+01  0.28139433585E+01  0.37770387509E+02  0.41800000000E+01 0.  1.
         -5    1    3    3    0  502  0.51912847396E+02  0.14301556585E+03  0.93396566952E+02  0.17857431763E+03  0.41800000000E+01 0.  1.
        -11    1    1    2    0    0 -0.32396114130E+01 -0.13670929729E+03  0.26690077974E+03  0.29989323645E+03  0.00000000000E+00 0. -1.
         11    1    1    2    0    0 -0.11481716058E+02 -0.10549185130E+02 -0.31882951068E+01  0.15914783574E+02  0.00000000000E+00 0.  1.
</event>
<event>
 7    1  0.1226955E-005  0.1256020E+03  0.7561462E-02  0.1234132E+00
         -2   -1    0    0    0  501 -0.00000000000E+00  0.00000000000E+00  0.39533434317E+02  0.39533434317E+02  0.00000000000E+00 0.  1.
          2   -1    0    0  501    0  0.00000000000E+00 -0.00000000000E+00 -0.70383350809E+03  0.70383350809E+03  0.00000000000E+00 0. -1.
         23    2    1    2    0    0 -0.23456315660E+01  0.10700750694E+03 -0.20498188661E+03  0.26290925188E+03  0.12509033679E+03 0.  0.
          5    1    3    3  502    0  0.18562100915E+02  0.51130929241E+02 -0.19473325956E+03  0.20223115065E+03  0.41800000000E+01 0.  1.
         -5    1    3    3    0  502 -0.20907732481E+02  0.55876577698E+02 -0.10248627053E+02  0.60678101233E+02  0.41800000000E+01 0.  1.
        -11    1    1    2    0    0  0.36568451457E+02 -0.16574506828E+02 -0.87480589734E+02  0.96253932381E+02  0.00000000000E+00 0. -1.
         11    1    1    2    0    0 -0.34222819891E+02 -0.90433000111E+02 -0.37183759743E+03  0.38420375814E+03  0.00000000000E+00 0.  1.
</event>
<event>
 7    1  0.1226955E-005  0.6881584E+02  0.7561462E-02  0.1364167E+00
         -2   -1    0    0    0  501 -0.00000000000E+00  0.00000000000E+00  0.99218087481E+02  0.99218087481E+02  0.00000000000E+00 0.  1.
          2   -1    0    0  501    0  0.00000000000E+00 -0.00000000000E+00 -0.20431246218E+03  0.20431246218E+03  0.00000000000E+00 0. -1.
         23    2    1    2    0    0  0.65726222933E+02  0.17287915731E+02  0.73984562945E+01  0.14241661101E+03  0.12493576560E+03 0.  0.
          5    1    3    3  502    0  0.40452036692E+02  0.10068026724E+02 -0.58150248966E+02  0.71670470136E+02  0.41800000000E+01 0. -1.
         -5    1    3    3    0  502  0.25274186241E+02  0.72198890065E+01  0.65548705260E+02  0.70746140875E+02  0.41800000000E+01 0. -1.
        -11    1    1    2    0    0 -0.21443564096E+02  0.37221776940E+00  0.14217756949E+02  0.25731490432E+02  0.00000000000E+00 0.  1.
         11    1    1    2    0    0 -0.44282658837E+02 -0.17660133500E+02 -0.12671058794E+03  0.13538244822E+03  0.00000000000E+00 0. -1.
</event>
<event>
 7    1  0.1226955E-005  0.1953851E+03  0.7561462E-02  0.1153692E+00
          1   -1    0    0  501    0  0.00000000000E+00  0.00000000000E+00  0.46892580108E+02  0.46892580108E+02  0.00000000000E+00 0. -1.
         -1   -1    0    0    0  501 -0.00000000000E+00 -0.00000000000E+00 -0.10628488031E+04  0.10628488031E+04  0.00000000000E+00 0.  1.
         23    2    1    2    0    0  0.12498046312E+03  0.12707386848E+03 -0.71614168623E+03  0.74851401752E+03  0.12508571246E+03 0.  0.
          5    1    3    3  502    0  0.70062148053E+02 -0.26127623906E+01 -0.33199854925E+03  0.33934648992E+03  0.41800000000E+01 0. -1.
         -5    1    3    3    0  502  0.54918315066E+02  0.12968663087E+03 -0.38414313698E+03  0.40916752761E+03  0.41800000000E+01 0. -1.
        -11    1    1    2    0    0 -0.67856119821E+02 -0.53034861230E+02 -0.63260354499E+02  0.10685982385E+03  0.00000000000E+00 0. -1.
         11    1    1    2    0    0 -0.57124343297E+02 -0.74039007250E+02 -0.23655418230E+03  0.25436754186E+03  0.00000000000E+00 0.  1.
</event>
<event>
 7    1  0.1226955E-005  0.3095583E+03  0.7561462E-02  0.1080558E+00
          2   -1    0    0  501    0  0.00000000000E+00  0.00000000000E+00  0.20777344905E+03  0.20777344905E+03  0.00000000000E+00 0.  1.
         -2   -1    0    0    0  501 -0.00000000000E+00 -0.00000000000E+00 -0.48551485249E+03  0.48551485249E+03  0.00000000000E+00 0. -1.
         23    2    1    2    0    0  0.10077691997E+03  0.27732661904E+03 -0.96407468209E+02  0.33467527335E+03  0.12508835852E+03 0.  0.
          5    1    3    3  502    0  0.57492440794E+02  0.31133750855E+02  0.31192715717E+01  0.65588821043E+02  0.41800000000E+01 0.  1.
         -5    1    3    3    0  502  0.43284479176E+02  0.24619286819E+03 -0.99526739781E+02  0.26908645231E+03  0.41800000000E+01 0.  1.
        -11    1    1    2    0    0 -0.10174489405E+03 -0.18392380640E+03 -0.15622364554E+03  0.26188894107E+03  0.00000000000E+00 0. -1.
         11    1    1    2    0    0  0.96797408510E+00 -0.93402812636E+02 -0.25110289686E+02  0.96724087125E+02  0.00000000000E+00 0.  1.
</event>
<event>
 7    1  0.1226955E-005  0.2129667E+03  0.7561462E-02  0.1139238E+00
          1   -1    0    0  501    0  0.00000000000E+00  0.00000000000E+00  0.45429778384E+03  0.45429778384E+03  0.00000000000E+00 0. -1.
         -1   -1    0    0    0  501 -0.00000000000E+00 -0.00000000000E+00 -0.12455770427E+03  0.12455770427E+03  0.00000000000E+00 0.  1.
         23    2    1    2    0    0  0.18014626313E+03  0.10517144190E+03  0.12919273422E+03  0.27541193806E+03  0.12508902726E+03 0.  0.
          5    1    3    3  502    0  0.71953334726E+02  0.28636112863E+02 -0.15570830669E+02  0.79102670662E+02  0.41800000000E+01 0. -1.
         -5    1    3    3    0  502  0.10819292840E+03  0.76535329037E+02  0.14476356488E+03  0.19630926740E+03  0.41800000000E+01 0. -1.
        -11    1    1    2    0    0 -0.24575247863E+02 -0.40361897390E+02  0.90707487249E+02  0.10227841322E+03  0.00000000000E+00 0. -1.
         11    1    1    2    0    0 -0.15557101527E+03 -0.64809544510E+02  0.10983985810E+03  0.20116513684E+03  0.00000000000E+00 0.  1.
</event>
<event>
 7    1  0.1226955E-005  0.1074862E+03  0.7561462E-02  0.1265297E+00
          1   -1    0    0  501    0  0.00000000000E+00  0.00000000000E+00  0.27046742101E+03  0.27046742101E+03  0.00000000000E+00 0. -1.
         -1   -1    0    0    0  501 -0.00000000000E+00 -0.00000000000E+00 -0.84213585460E+02  0.84213585460E+02  0.00000000000E+00 0.  1.
         23    2    1    2    0    0  0.26693584032E+02 -0.25865195621E+02 -0.11548520347E+02  0.13100030519E+03  0.12508459484E+03 0.  0.
          5    1    3    3  502    0  0.53721465131E+02 -0.61325621085E+02  0.82223661569E+01  0.82048201215E+02  0.41800000000E+01 0. -1.
         -5    1    3    3    0  502 -0.27027881099E+02  0.35460425465E+02 -0.19770886504E+02  0.48952103979E+02  0.41800000000E+01 0. -1.
        -11    1    1    2    0    0 -0.27097383012E+02  0.54000106870E+02  0.18120654573E+03  0.19101332918E+03  0.00000000000E+00 0. -1.
         11    1    1    2    0    0  0.40379898013E+00 -0.28134911249E+02  0.16595810163E+02  0.32667372095E+02  0.00000000000E+00 0.  1.
</event>
<event>
 7    1  0.1226955E-005  0.1116233E+03  0.7561462E-02  0.1257593E+00
          2   -1    0    0  501    0  0.00000000000E+00  0.00000000000E+00  0.63754992856E+02  0.63754992856E+02  0.00000000000E+00 0. -1.
         -2   -1    0    0    0  501 -0.00000000000E+00 -0.00000000000E+00 -0.60158822281E+03  0.60158822281E+03  0.00000000000E+00 0.  1.
         23    2    1    2    0    0 -0.91189514182E+02  0.39674987633E+02 -0.50063480256E+03  0.52552143999E+03  0.12509175118E+03 0.  0.
          5    1    3    3  502    0 -0.50079563181E+02  0.31520736877E+02 -0.65566798722E+02  0.88419437888E+02  0.41800000000E+01 0.  1.
         -5    1    3    3    0  502 -0.41109951001E+02  0.81542507563E+01 -0.43506800384E+03  0.43710200210E+03  0.41800000000E+01 0.  1.
        -11    1    1    2    0    0  0.76310877173E+01 -0.37449002044E+02  0.15241870813E+02  0.41145788116E+02  0.00000000000E+00 0. -1.
         11    1    1    2    0    0  0.83558426465E+02 -0.22259855899E+01 -0.52440298207E+02  0.98675987561E+02  0.00000000000E+00 0.  1.
</event>
<event>
 7    1  0.1226955E-005  0.1717544E+03  0.7561462E-02  0.1176031E+00
         -1   -1    0    0    0  501 -0.00000000000E+00  0.00000000000E+00  0.17813853162E+03  0.17813853162E+03  0.00000000000E+00 0.  1.
          1   -1    0    0  501    0  0.00000000000E+00 -0.00000000000E+00 -0.18704188548E+03  0.18704188548E+03  0.00000000000E+00 0. -1.
         23    2    1    2    0    0 -0.44149550210E+02  0.14261916594E+03  0.23913255743E+02  0.18729040908E+03  0.11052802476E+03 0.  0.
          5    1    3    3  502    0 -0.47463558021E+02  0.17333955256E+02 -0.19885991906E+02  0.54462651596E+02  0.41800000000E+01 0. -1.
         -5    1    3    3    0  502  0.33140078104E+01  0.12528521068E+03  0.43799247649E+02  0.13282775749E+03  0.41800000000E+01 0.  1.
        -11    1    1    2    0    0 -0.59203022300E+01 -0.10401606170E+03 -0.45027432360E+02  0.11349828516E+03  0.00000000000E+00 0.  1.
         11    1    1    2    0    0  0.50069852440E+02 -0.38603104243E+02  0.12210822753E+02  0.64391722860E+02  0.00000000000E+00 0. -1.
</event>
<event>
 7    1  0.1226955E-005  0.1810974E+03  0.7561462E-02  0.1166745E+00
         -2   -1    0    0    0  501 -0.00000000000E+00  0.00000000000E+00  0.43322662792E+02  0.43322662792E+02  0.00000000000E+00 0.  1.
          2   -1    0    0  501    0  0.00000000000E+00 -0.00000000000E+00 -0.93716041705E+03  0.93716041705E+03  0.00000000000E+00 0. -1.
         23    2    1    2    0    0  0.10175201905E+03 -0.11975991479E+03 -0.42390861528E+03  0.46909229323E+03  0.12511256887E+03 0.  0.
          5    1    3    3  502    0  0.31247733457E+02  0.13372626207E+02 -0.24246895571E+02  0.41959889451E+02  0.41800000000E+01 0. -1.
         -5    1    3    3    0  502  0.70504285598E+02 -0.13313254100E+03 -0.39966171971E+03  0.42713240378E+03  0.41800000000E+01 0. -1.
        -11    1    1    2    0    0 -0.11222623032E+03  0.84559328143E+02 -0.44586491824E+03  0.46748318907E+03  0.00000000000E+00 0. -1.
         11    1    1    2    0    0  0.10474211267E+02  0.35200586649E+02 -0.24064220750E+02  0.43907597547E+02  0.00000000000E+00 0.  1.
</event>
<event>
 7    1  0.1226955E-005  0.8960279E+02  0.7561462E-02  0.1303816E+00
         -1   -1    0    0    0  501 -0.00000000000E+00  0.00000000000E+00  0.42252046417E+02  0.42252046417E+02  0.00000000000E+00 0.  1.
          1   -1    0    0  501    0  0.00000000000E+00 -0.00000000000E+00 -0.31332407373E+03  0.31332407373E+03  0.00000000000E+00 0. -1.
         23    2    1    2    0    0 -0.15440028334E+02 -0.15383848958E+02 -0.10261273135E+03  0.16325423245E+03  0.12509002556E+03 0.  0.
          5    1    3    3  502    0 -0.61118907437E+02 -0.39593120021E+02 -0.44873440465E+02  0.85640142798E+02  0.41800000000E+01 0. -1.
         -5    1    3    3    0  502  0.45678879103E+02  0.24209271063E+02 -0.57739290882E+02  0.77614089656E+02  0.41800000000E+01 0. -1.
        -11    1    1    2    0    0 -0.18334317888E+02  0.40987819725E+01  0.13344340316E+01  0.18834222582E+02  0.00000000000E+00 0.  1.
         11    1    1    2    0    0  0.33774346222E+02  0.11285066986E+02 -0.16979373000E+03  0.17348766511E+03  0.00000000000E+00 0. -1.
</event>
<event>
 7    1  0.1226955E-005  0.1206749E+03  0.7561462E-02  0.1241988E+00
         -1   -1    0    0    0  501 -0.00000000000E+00  0.00000000000E+00  0.36807402001E+03  0.36807402001E+03  0.00000000000E+00 0.  1.
          1   -1    0    0  501    0  0.00000000000E+00 -0.00000000000E+00 -0.66451907879E+02  0.66451907879E+02  0.00000000000E+00 0. -1.
         23    2    1    2    0    0 -0.10321864806E+03  0.39090928350E+02  0.17188775098E+03  0.23952651348E+03  0.12508142042E+03 0.  0.
          5    1    3    3  502    0 -0.80608180838E+02  0.47366255658E+02  0.18817202602E+03  0.21016047385E+03  0.41800000000E+01 0.  1.
         -5    1    3    3    0  502 -0.22610467221E+02 -0.82753273085E+01 -0.16284275035E+02  0.29366039628E+02  0.41800000000E+01 0.  1.
        -11    1    1    2    0    0  0.44272556743E+02  0.11392684206E+02  0.10338114058E+03  0.11303766081E+03  0.00000000000E+00 0.  1.
         11    1    1    2    0    0  0.58946091315E+02 -0.50483612556E+02  0.26353220561E+02  0.81961753593E+02  0.00000000000E+00 0. -1.
</event>
<event>
 7    1  0.1226955E-005  0.1373938E+03  0.7561462E-02  0.1216879E+00
         -1   -1    0    0    0  501 -0.00000000000E+00  0.00000000000E+00  0.17158306854E+02  0.17158306854E+02  0.00000000000E+00 0.  1.
          1   -1    0    0  501    0  0.00000000000E+00 -0.00000000000E+00 -0.13011725209E+04  0.13011725209E+04  0.00000000000E+00 0. -1.
         23    2    1    2    0    0 -0.92837380218E+02  0.34603555611E+02 -0.59952530983E+03  0.62039994617E+03  0.12509720563E+03 0.  0.
          5    1    3    3  502    0  0.14140661188E+02 -0.21488208207E+02 -0.38419190449E+02  0.46424217662E+02  0.41800000000E+01 0.  1.
         -5    1    3    3    0  502 -0.10697804141E+03  0.56091763818E+02 -0.56110611938E+03  0.57397572851E+03  0.41800000000E+01 0.  1.
        -11    1    1    2    0    0 -0.14725895347E+02 -0.91226200384E+01 -0.34448414199E+02  0.38558623302E+02  0.00000000000E+00 0.  1.
         11    1    1    2    0    0  0.10756327556E+03 -0.25480935573E+02 -0.65004048998E+03  0.65937225825E+03  0.00000000000E+00 0. -1.
</event>
<event>
 7    1  0.1226955E-005  0.2080376E+03  0.7561462E-02  0.1143129E+00
          1   -1    0    0  501    0  0.00000000000E+00  0.00000000000E+00  0.55137707369E+03  0.55137707369E+03  0.00000000000E+00 0. -1.
         -1   -1    0    0    0  501 -0.00000000000E+00 -0.00000000000E+00 -0.10775168323E+03  0.10775168323E+03  0.00000000000E+00 0.  1.
         23    2    1    2    0    0  0.87828497575E+02 -0.17363598596E+03  0.93435263563E+02  0.24948109230E+03  0.12508943334E+03 0.  0.
          5    1    3    3  502    0  0.56737335966E+01 -0.95353316194E+02 -0.96685784726E+01  0.96100988401E+02  0.41800000000E+01 0.  1.
         -5    1    3    3    0  502  0.82154763978E+02 -0.78282669764E+02  0.10310384204E+03  0.15338010390E+03  0.41800000000E+01 0.  1.
        -11    1    1    2    0    0 -0.72218750916E+00  0.76226251286E+02  0.86104547654E+02  0.11499980899E+03  0.00000000000E+00 0.  1.
         11    1    1    2    0    0 -0.87106310065E+02  0.97409734671E+02  0.26408557925E+03  0.29464785563E+03  0.00000000000E+00 0. -1.
</event>
<event>
 6    1  0.1226955E-005  0.1009213E+03  0.7561462E-02  0.1278370E+00
         -1   -1    0    0    0  501 -0.00000000000E+00  0.00000000000E+00  0.99023555042E+02  0.99023555042E+02  0.00000000000E+00 0.  1.
          1   -1    0    0  501    0  0.00000000000E+00 -0.00000000000E+00 -0.20688215169E+03  0.20688215169E+03  0.00000000000E+00 0. -1.
          5    1    1    2  502    0  0.21502509968E+01 -0.72394946637E+02  0.41141049828E+02  0.83400900828E+02  0.41800000000E+01 0. -1.
         -5    1    1    2    0  502 -0.88455259262E+01  0.58431255527E+02 -0.82442117948E+02  0.10152157487E+03  0.41800000000E+01 0.  1.
        -11    1    1    2    0    0  0.32583343816E+02 -0.10699338886E+02 -0.76530107132E+02  0.83863027875E+02  0.00000000000E+00 0. -1.
         11    1    1    2    0    0 -0.25888068887E+02  0.24663029997E+02  0.99725785997E+01  0.37120203168E+02  0.00000000000E+00 0.  1.
</event>
<event>
 7    1  0.1226955E-005  0.1776675E+03  0.7561462E-02  0.1170080E+00
          2   -1    0    0  501    0  0.00000000000E+00  0.00000000000E+00  0.29229258339E+03  0.29229258339E+03  0.00000000000E+00 0. -1.
         -2   -1    0    0    0  501 -0.00000000000E+00 -0.00000000000E+00 -0.12953035577E+03  0.12953035577E+03  0.00000000000E+00 0.  1.
         23    2    1    2    0    0 -0.14220692672E+03  0.20490677271E+02  0.60657136912E+01  0.19059329674E+03  0.12508530696E+03 0.  0.
          5    1    3    3  502    0 -0.16550029052E+03  0.15301117170E+02  0.59550277364E+01  0.16636527614E+03  0.41800000000E+01 0. -1.
         -5    1    3    3    0  502  0.23293363798E+02  0.51895601005E+01  0.11068595473E+00  0.24228020605E+02  0.41800000000E+01 0. -1.
        -11    1    1    2    0    0  0.59434942624E+02  0.31336199809E+02  0.36848230596E+02  0.76630685246E+02  0.00000000000E+00 0.  1.
         11    1    1    2    0    0  0.82771984097E+02 -0.51826877080E+02  0.11984828334E+03  0.15459895717E+03  0.00000000000E+00 0. -1.
</event>
<event>
 7    1  0.1226955E-005  0.8136315E+02  0.7561462E-02  0.1325227E+00
         -3   -1    0    0    0  501 -0.00000000000E+00  0.00000000000E+00  0.50274298061E+02  0.50274298061E+02  0.00000000000E+00 0.  1.
          3   -1    0    0  501    0  0.00000000000E+00 -0.00000000000E+00 -0.28032849549E+03  0.28032849549E+03  0.00000000000E+00 0. -1.
         23    2    1    2    0    0  0.36872964492E+02 -0.31362439658E+01 -0.89192311545E+02  0.15802583899E+03  0.12508975103E+03 0.  0.
          5    1    3    3  502    0  0.38291492039E+02  0.34975003928E+02  0.88211448544E+01  0.52770960375E+02  0.41800000000E+01 0.  1.
         -5    1    3    3    0  502 -0.14185275466E+01 -0.38111247894E+02 -0.98013456400E+02  0.10525487861E+03  0.41800000000E+01 0.  1.
        -11    1    1    2    0    0 -0.15555226903E+02 -0.29500143934E+02 -0.12683825241E+03  0.13114940278E+03  0.00000000000E+00 0. -1.
         11    1    1    2    0    0 -0.21317737589E+02  0.32636387900E+02 -0.14023633483E+02  0.41427551788E+02  0.00000000000E+00 0.  1.
</event>
<event>
 7    1  0.1226955E-005  0.1057200E+03  0.7561462E-02  0.1268707E+00
          1   -1    0    0  501    0  0.00000000000E+00  0.00000000000E+00  0.25239612107E+03  0.25239612107E+03  0.00000000000E+00 0. -1.
         -1   -1    0    0    0  501 -0.00000000000E+00 -0.00000000000E+00 -0.50443584988E+02  0.50443584988E+02  0.00000000000E+00 0.  1.
         23    2    1    2    0    0  0.55626335932E+01  0.28533889392E+02  0.10002215838E+03  0.16277934504E+03  0.12509019653E+03 0.  0.
          5    1    3    3  502    0  0.28718222627E+02  0.65595790028E+02  0.25195322767E+02  0.76025131828E+02  0.41800000000E+01 0.  1.
         -5    1    3    3    0  502 -0.23155589033E+02 -0.37061900635E+02  0.74826835610E+02  0.86754213210E+02  0.41800000000E+01 0.  1.
        -11    1    1    2    0    0  0.41250835242E+02 -0.51678831287E+00  0.38956731275E+02  0.56740861731E+02  0.00000000000E+00 0.  1.
         11    1    1    2    0    0 -0.46813468836E+02 -0.28017101079E+02  0.62973646432E+02  0.83319499292E+02  0.00000000000E+00 0. -1.
</event>
<event>
 7    1  0.1226955E-005  0.8424958E+02  0.7561462E-02  0.1317407E+00
          2   -1    0    0  501    0  0.00000000000E+00  0.00000000000E+00  0.15295520853E+03  0.15295520853E+03  0.00000000000E+00 0. -1.
         -2   -1    0    0    0  501 -0.00000000000E+00 -0.00000000000E+00 -0.86039909594E+02  0.86039909594E+02  0.00000000000E+00 0.  1.
         23    2    1    2    0    0  0.47686976967E+01 -0.37636010045E+02  0.45948302803E+02  0.13855746544E+03  0.12509082688E+03 0.  0.
          5    1    3    3  502    0  0.31324209120E+02 -0.66934287243E+01  0.79355812275E+02  0.85678616976E+02  0.41800000000E+01 0. -1.
         -5    1    3    3    0  502 -0.26555511424E+02 -0.30942581320E+02 -0.33407509472E+02  0.52878848464E+02  0.41800000000E+01 0. -1.
        -11    1    1    2    0    0  0.21303457491E+02 -0.21691591928E+02 -0.46452905024E+01  0.30756156868E+02  0.00000000000E+00 0.  1.
         11    1    1    2    0    0 -0.26072155188E+02  0.59327601973E+02  0.25612286631E+02  0.69681495811E+02  0.00000000000E+00 0. -1.
</event>
<event>
 7    1  0.1226955E-005  0.1082310E+03  0.7561462E-02  0.1263881E+00
         -3   -1    0    0    0  501 -0.00000000000E+00  0.00000000000E+00  0.25425025538E+02  0.25425025538E+02  0.00000000000E+00 0.  1.
          3   -1    0    0  501    0  0.00000000000E+00 -0.00000000000E+00 -0.46793013257E+03  0.46793013257E+03  0.00000000000E+00 0. -1.
         23    2    1    2    0    0  0.16164818075E+02 -0.75131386276E+01 -0.26911137945E+03  0.29729793807E+03  0.12508949130E+03 0.  0.
          5    1    3    3  502    0  0.39629193491E+02 -0.57308068086E+02 -0.17143914014E+03  0.18510412966E+03  0.41800000000E+01 0.  1.
         -5    1    3    3    0  502 -0.23464375416E+02  0.49794929458E+02 -0.97672239312E+02  0.11219380841E+03  0.41800000000E+01 0.  1.
        -11    1    1    2    0    0  0.13700041141E+02 -0.36091848164E+02 -0.76343767281E+02  0.85549304111E+02  0.00000000000E+00 0.  1.
         11    1    1    2    0    0 -0.29864859216E+02  0.43604986792E+02 -0.97049960300E+02  0.11050791593E+03  0.00000000000E+00 0. -1.
</event>
<event>
 6    1  0.1226955E-005  0.1240507E+03  0.7561462E-02  0.1236560E+00
          3   -1    0    0  501    0  0.00000000000E+00  0.00000000000E+00  0.31169330108E+03  0.31169330108E+03  0.00000000000E+00 0. -1.
         -3   -1    0    0    0  501 -0.00000000000E+00 -0.00000000000E+00 -0.82099431523E+02  0.82099431523E+02  0.00000000000E+00 0.  1.
          5    1    1    2  502    0  0.38581903758E+02  0.85221932977E+02  0.93886317850E+02  0.13260261776E+03  0.41800000000E+01 0. -1.
         -5    1    1    2    0  502 -0.10774623333E+02 -0.57339124298E+02 -0.32794889024E+02  0.67058517948E+02  0.41800000000E+01 0.  1.
        -11    1    1    2    0    0 -0.62309557487E+01  0.31851667139E+02  0.65985440989E+02  0.73535242786E+02  0.00000000000E+00 0.  1.
         11    1    1    2    0    0 -0.21576324676E+02 -0.59734475818E+02  0.10251699975E+03  0.12059635411E+03  0.00000000000E+00 0. -1.
</event>
<event>
 7    1  0.1226955E-005  0.1129124E+03  0.7561462E-02  0.1255270E+00
          2   -1    0    0  501    0  0.00000000000E+00  0.00000000000E+00  0.34877607784E+03  0.34877607784E+03  0.00000000000E+00 0. -1.
         -2   -1    0    0    0  501 -0.00000000000E+00 -0.00000000000E+00 -0.57023927479E+02  0.57023927479E+02  0.00000000000E+00 0.  1.
         23    2    1    2    0    0 -0.72397926257E+02 -0.35593475646E+02  0.10991048399E+03  0.18503061270E+03  0.12509059881E+03 0.  0.
          5    1    3    3  502    0 -0.63182659186E+02  0.25302465561E+02  0.10214347159E+03  0.12281296501E+03  0.41800000000E+01 0.  1.
         -5    1    3    3    0  502 -0.92152670706E+01 -0.60895941207E+02  0.77670123976E+01  0.62217647692E+02  0.41800000000E+01 0.  1.
        -11    1    1    2    0    0  0.14537724231E+02  0.35155724797E+02  0.14995021051E+03  0.15470079522E+03  0.00000000000E+00 0. -1.
         11    1    1    2    0    0  0.57860202025E+02  0.43775084933E+00  0.31891455860E+02  0.66068597390E+02  0.00000000000E+00 0.  1.
</event>
<event>
 7    1  0.1226955E-005  0.1059438E+03  0.7561462E-02  0.1268271E+00
         -1   -1    0    0    0  501 -0.00000000000E+00  0.00000000000E+00  0.17951513737E+02  0.17951513737E+02  0.00000000000E+00 0.  1.
          1   -1    0    0  501    0  0.00000000000E+00 -0.00000000000E+00 -0.72040927426E+03  0.72040927426E+03  0.00000000000E+00 0. -1.
         23    2    1    2    0    0  0.20575422076E+01  0.65255702058E+00 -0.28030625874E+03  0.30695994789E+03  0.12509257217E+03 0.  0.
          5    1    3    3  502    0  0.96753943872E+01 -0.61244742797E+02 -0.15292883350E+03  0.16507341486E+03  0.41800000000E+01 0. -1.
         -5    1    3    3    0  502 -0.76178521796E+01  0.61897299818E+02 -0.12737742524E+03  0.14188653303E+03  0.41800000000E+01 0. -1.
        -11    1    1    2    0    0 -0.33891088140E+02 -0.29005787350E+02 -0.25661213174E+03  0.26046060683E+03  0.00000000000E+00 0. -1.
         11    1    1    2    0    0  0.31833545932E+02  0.28353230329E+02 -0.16553937005E+03  0.17094023328E+03  0.00000000000E+00 0.  1.
</event>
<event>
 7    1  0.1226955E-005  0.1619099E+03  0.7561462E-02  0.1186557E+00
          2   -1    0    0  501    0  0.00000000000E+00  0.00000000000E+00  0.44481129699E+02  0.44481129699E+02  0.00000000000E+00 0.  1.
         -2   -1    0    0    0  501 -0.00000000000E+00 -0.00000000000E+00 -0.67237206349E+03  0.67237206349E+03  0.00000000000E+00 0. -1.
         23    2    1    2    0    0  0.53346800151E+02 -0.12003571612E+03 -0.39139723125E+03  0.43138693811E+03  0.12509373891E+03 0.  0.
          5    1    3    3  502    0  0.47305222598E+02  0.10970019299E+02 -0.83270746777E+02  0.96486346585E+02  0.41800000000E+01 0. -1.
         -5    1    3    3    0  502  0.60415775529E+01 -0.13100573542E+03 -0.30812648447E+03  0.33490059152E+03  0.41800000000E+01 0. -1.
        -11    1    1    2    0    0  0.12509735349E+02  0.11953547025E+02 -0.77115086391E-01  0.17302794910E+02  0.00000000000E+00 0.  1.
         11    1    1    2    0    0 -0.65856535500E+02  0.10808216910E+03 -0.23641658746E+03  0.26816346017E+03  0.00000000000E+00 0. -1.
</event>
<event>
 7    1  0.1226955E-005  0.1209781E+03  0.7561462E-02  0.1241492E+00
         -2   -1    0    0    0  501 -0.00000000000E+00  0.00000000000E+00  0.11314718959E+03  0.11314718959E+03  0.00000000000E+00 0. -1.
          2   -1    0    0  501    0  0.00000000000E+00 -0.00000000000E+00 -0.17553986150E+03  0.17553986150E+03  0.00000000000E+00 0.  1.
         23    2    1    2    0    0 -0.14879355708E+01 -0.86483420078E+02 -0.79481519974E+01  0.15227189897E+03  0.12506783037E+03 0.  0.
          5    1    3    3  502    0 -0.19871848439E+02  0.78960585692E+01 -0.44318752045E+02  0.49384838606E+02  0.41800000000E+01 0.  1.
         -5    1    3    3    0  502  0.18383912869E+02 -0.94379478648E+02  0.36370600048E+02  0.10288706036E+03  0.41800000000E+01 0.  1.
        -11    1    1    2    0    0 -0.38171962381E+02  0.12827671125E+02 -0.26542166849E+02  0.48230016375E+02  0.00000000000E+00 0. -1.
         11    1    1    2    0    0  0.39659897952E+02  0.73655748953E+02 -0.27902353060E+02  0.88185135741E+02  0.00000000000E+00 0.  1.
</event>
<event>
 7    1  0.1226955E-005  0.1009984E+03  0.7561462E-02  0.1278210E+00
         -3   -1    0    0    0  501 -0.00000000000E+00  0.00000000000E+00  0.83384492815E+02  0.83384492815E+02  0.00000000000E+00 0.  1.
          3   -1    0    0  501    0  0.00000000000E+00 -0.00000000000E+00 -0.14252868350E+03  0.14252868350E+03  0.00000000000E+00 0. -1.
         23    2    1    2    0    0 -0.26583014726E+02 -0.16530931741E+02 -0.17875827637E+02  0.13017946536E+03  0.12508884687E+03 0.  0.
          5    1    3    3  502    0 -0.69198945929E+01  0.49540933989E+02 -0.32214673609E+02  0.59644334830E+02  0.41800000000E+01 0.  1.
         -5    1    3    3    0  502 -0.19663120133E+02 -0.66071865730E+02  0.14338845971E+02  0.70535130525E+02  0.41800000000E+01 0.  1.
        -11    1    1    2    0    0 -0.26775125293E+02  0.11510673402E+02 -0.18470070496E+01  0.29202985663E+02  0.00000000000E+00 0.  1.
         11    1    1    2    0    0  0.53358140019E+02  0.50202583387E+01 -0.39421356002E+02  0.66530725301E+02  0.00000000000E+00 0. -1.
</event>
<event>
 7    1  0.1226955E-005  0.1286085E+03  0.7561462E-02  0.1229535E+00
          2   -1    0    0  501    0  0.00000000000E+00  0.00000000000E+00  0.54991766088E+03  0.54991766088E+03  0.00000000000E+00 0. -1.
         -2   -1    0    0    0  501 -0.00000000000E+00 -0.00000000000E+00 -0.37311592941E+02  0.37311592941E+02  0.00000000000E+00 0.  1.
         23    2    1    2    0    0  0.84468477673E+02  0.10435895702E+02  0.20386376931E+03  0.25387506573E+03  0.12509308904E+03 0.  0.
          5    1    3    3  502    0 -0.24782249564E+02 -0.17968829087E+01  0.36939290175E+01  0.25465784756E+02  0.41800000000E+01 0.  1.
         -5    1    3    3    0  502  0.10925072724E+03  0.12232778611E+02  0.20016984029E+03  0.22840928098E+03  0.41800000000E+01 0.  1.
        -11    1    1    2    0    0 -0.39840247684E+02  0.38761002064E+02  0.18146181439E+03  0.18978422141E+03  0.00000000000E+00 0. -1.
         11    1    1    2    0    0 -0.44628229990E+02 -0.49196897766E+02  0.12728048424E+03  0.14356996667E+03  0.00000000000E+00 0.  1.
</event>
<event>
 7    1  0.1226955E-005  0.1147185E+03  0.7561462E-02  0.1252073E+00
         -2   -1    0    0    0  501 -0.00000000000E+00  0.00000000000E+00  0.20834841659E+02  0.20834841659E+02  0.00000000000E+00 0.  1.
          2   -1    0    0  501    0  0.00000000000E+00 -0.00000000000E+00 -0.83737321929E+03  0.83737321929E+03  0.00000000000E+00 0. -1.
         23    2    1    2    0    0  0.64320538326E+02  0.23673393035E+02 -0.34933210672E+03  0.37733175580E+03  0.12509505172E+03 0.  0.
          5    1    3    3  502    0 -0.25501948043E+02  0.34124781215E+01 -0.14053240405E+02  0.29613515948E+02  0.41800000000E+01 0. -1.
         -5    1    3    3    0  502  0.89822486370E+02  0.20260914914E+02 -0.33527886631E+03  0.34771823986E+03  0.41800000000E+01 0. -1.
        -11    1    1    2    0    0 -0.56509707660E+02 -0.55032445551E+02 -0.37396447923E+03  0.38219281632E+03  0.00000000000E+00 0.  1.
         11    1    1    2    0    0 -0.78108306661E+01  0.31359052516E+02 -0.93241791683E+02  0.98683488824E+02  0.00000000000E+00 0. -1.
</event>
<event>
 7    1  0.1226955E-005  0.1093240E+03  0.7561462E-02  0.1261827E+00
          1   -1    0    0  501    0  0.00000000000E+00  0.00000000000E+00  0.45394633585E+02  0.45394633585E+02  0.00000000000E+00 0. -1.
         -1   -1    0    0    0  501 -0.00000000000E+00 -0.00000000000E+00 -0.39873045365E+03  0.39873045365E+03  0.00000000000E+00 0.  1.
         23    2    1    2    0    0 -0.24629971199E+02  0.66763608120E+02 -0.24797591165E+03  0.28670913320E+03  0.12508420943E+03 0.  0.
          5    1    3    3  502    0  0.23382738998E+02  0.87636108931E+02 -0.14431282490E+03  0.17050074458E+03  0.41800000000E+01 0.  1.
         -5    1    3    3    0  502 -0.48012710197E+02 -0.20872500810E+02 -0.10366308675E+03  0.11620838862E+03  0.41800000000E+01 0.  1.
        -11    1    1    2    0    0  0.22528997287E+02 -0.25555683690E+02 -0.11068767604E+03  0.11581196102E+03  0.00000000000E+00 0.  1.
         11    1    1    2    0    0  0.21009739114E+01 -0.41207924431E+02  0.53277676257E+01  0.41603993019E+02  0.00000000000E+00 0. -1.
</event>
<event>
 7    1  0.1226955E-005  0.1302984E+03  0.7561462E-02  0.1227014E+00
          1   -1    0    0  501    0  0.00000000000E+00  0.00000000000E+00  0.91914793924E+03  0.91914793924E+03  0.00000000000E+00 0. -1.
         -1   -1    0    0    0  501 -0.00000000000E+00 -0.00000000000E+00 -0.28869505504E+02  0.28869505504E+02  0.00000000000E+00 0.  1.
         23    2    1    2    0    0 -0.85668847392E+02 -0.75504863731E+02  0.35994819698E+03  0.39780872596E+03  0.12509573167E+03 0.  0.
          5    1    3    3  502    0 -0.47769905269E+02 -0.41271372512E+02  0.33480548512E+03  0.34073079595E+03  0.41800000000E+01 0. -1.
         -5    1    3    3    0  502 -0.37898942123E+02 -0.34233491219E+02  0.25142711855E+02  0.57077930013E+02  0.41800000000E+01 0. -1.
        -11    1    1    2    0    0  0.13439988499E+02  0.72564710725E+02  0.28993103129E+03  0.29917599074E+03  0.00000000000E+00 0. -1.
         11    1    1    2    0    0  0.72228858893E+02  0.29401530058E+01  0.24039920547E+03  0.25103272804E+03  0.00000000000E+00 0.  1.
</event>
<event>
 7    1  0.1226955E-005  0.1602614E+03  0.7561462E-02  0.1188402E+00
         -2   -1    0    0    0  501 -0.00000000000E+00  0.00000000000E+00  0.63517755164E+02  0.63517755164E+02  0.00000000000E+00 0.  1.
          2   -1    0    0  501    0  0.00000000000E+00 -0.00000000000E+00 -0.52419291414E+03  0.52419291414E+03  0.00000000000E+00 0. -1.
         23    2    1    2    0    0 -0.14206184073E+02 -0.14510210144E+03 -0.23638796402E+03  0.30459938018E+03  0.12508028368E+03 0.  0.
          5    1    3    3  502    0 -0.15587737075E+02 -0.45889523956E+02 -0.18788042574E+03  0.19407563663E+03  0.41800000000E+01 0. -1.
         -5    1    3    3    0  502  0.13815530020E+01 -0.99212577480E+02 -0.48507538277E+02  0.11052374355E+03  0.41800000000E+01 0. -1.
        -11    1    1    2    0    0 -0.15833572471E+02  0.14141977386E+03 -0.17966156370E+03  0.22919103806E+03  0.00000000000E+00 0.  1.
         11    1    1    2    0    0  0.30039756544E+02  0.36823275736E+01 -0.44625631259E+02  0.53920251064E+02  0.00000000000E+00 0. -1.
</event>
<event>
 7    1  0.1226955E-005  0.1550184E+03  0.7561462E-02  0.1194439E+00
         -2   -1    0    0    0  501 -0.00000000000E+00  0.00000000000E+00  0.48298718436E+02  0.48298718436E+02  0.00000000000E+00 0. -1.
          2   -1    0    0  501    0  0.00000000000E+00 -0.00000000000E+00 -0.89708378126E+03  0.89708378126E+03  0.00000000000E+00 0.  1.
         23    2    1    2    0    0 -0.70827819891E+02 -0.10480734316E+03 -0.15999890791E+03  0.23926578740E+03  0.12508919712E+03 0.  0.
          5    1    3    3  502    0 -0.67238203732E+02  0.30669379948E+01 -0.81258158240E+02  0.10559707775E+03  0.41800000000E+01 0.  1.
         -5    1    3    3    0  502 -0.35896161588E+01 -0.10787428116E+03 -0.78740749668E+02  0.13366870964E+03  0.41800000000E+01 0.  1.
        -11    1    1    2    0    0  0.18597300542E+02  0.12966591263E+01 -0.19945554017E+02  0.27301392590E+02  0.00000000000E+00 0. -1.
         11    1    1    2    0    0  0.52230519349E+02  0.10351068403E+03 -0.66884060090E+03  0.67881531971E+03  0.00000000000E+00 0.  1.
</event>
<event>
 7    1  0.1226955E-005  0.1194484E+03  0.7561462E-02  0.1244010E+00
          2   -1    0    0  501    0  0.00000000000E+00  0.00000000000E+00  0.66421715194E+02  0.66421715194E+02  0.00000000000E+00 0. -1.
         -2   -1    0    0    0  501 -0.00000000000E+00 -0.00000000000E+00 -0.26872943965E+03  0.26872943965E+03  0.00000000000E+00 0.  1.
         23    2    1    2    0    0  0.50643695364E+02 -0.46571983360E+02 -0.14129068901E+03  0.20086034829E+03  0.12509231471E+03 0.  0.
          5    1    3    3  502    0  0.45360238007E+02  0.34438646728E+02 -0.83343327787E+02  0.10103046208E+03  0.41800000000E+01 0.  1.
         -5    1    3    3    0  502  0.52834573562E+01 -0.81010630089E+02 -0.57947361227E+02  0.99829886217E+02  0.41800000000E+01 0.  1.
        -11    1    1    2    0    0  0.16957210833E+02 -0.22605856062E+01 -0.46625029169E+02  0.49664379504E+02  0.00000000000E+00 0.  1.
         11    1    1    2    0    0 -0.67600906197E+02  0.48832568966E+02 -0.14392006275E+02  0.84626427049E+02  0.00000000000E+00 0. -1.
</event>
<event>
 7    1  0.1226955E-005  0.4916497E+02  0.7561462E-02  0.1449898E+00
          3   -1    0    0  501    0  0.00000000000E+00  0.00000000000E+00  0.68318963380E+02  0.68318963380E+02  0.00000000000E+00 0. -1.
         -3   -1    0    0    0  501 -0.00000000000E+00 -0.00000000000E+00 -0.17074130685E+03  0.17074130685E+03  0.00000000000E+00 0.  1.
         23    2    1    2    0    0  0.36874739468E+02  0.18211549651E+02 -0.82109355448E+02  0.15517156123E+03  0.12507941562E+03 0.  0.
          5    1    3    3  502    0  0.11922879186E+02 -0.49589734689E+00 -0.11144069651E+03  0.11215570516E+03  0.41800000000E+01 0.  1.
         -5    1    3    3    0  502  0.24951860281E+02  0.18707446998E+02  0.29331341063E+02  0.43015856068E+02  0.41800000000E+01 0.  1.
        -11    1    1    2    0    0 -0.19864879574E+02 -0.28200765530E+02 -0.42147029676E+02  0.54463462317E+02  0.00000000000E+00 0.  1.
         11    1    1    2    0    0 -0.17009859894E+02  0.99892158790E+01  0.21834041652E+02  0.29425246683E+02  0.00000000000E+00 0. -1.
</event>
<event>
 7    1  0.1226955E-005  0.2021746E+03  0.7561462E-02  0.1147917E+00
          3   -1    0    0  501    0  0.00000000000E+00  0.00000000000E+00  0.19961970004E+03  0.19961970004E+03  0.00000000000E+00 0. -1.
         -3   -1    0    0    0  501 -0.00000000000E+00 -0.00000000000E+00 -0.23361163158E+03  0.23361163158E+03  0.00000000000E+00 0.  1.
         23    2    1    2    0    0 -0.17005543673E+03  0.66627203995E+02 -0.56615230907E+02  0.22849813020E+03  0.12509226699E+03 0.  0.
          5    1    3    3  502    0 -0.99092515706E+02  0.98892781526E+02 -0.17399130401E+02  0.14113578939E+03  0.41800000000E+01 0.  1.
         -5    1    3    3    0  502 -0.70962921025E+02 -0.32265577531E+02 -0.39216100506E+02  0.87362340815E+02  0.41800000000E+01 0.  1.
        -11    1    1    2    0    0  0.64596707893E+02 -0.44577486688E+02 -0.31002115868E+02  0.84386125508E+02  0.00000000000E+00 0.  1.
         11    1    1    2    0    0  0.10545872884E+03 -0.22049717307E+02  0.53625415228E+02  0.12034707591E+03  0.00000000000E+00 0. -1.
</event>
<event>
 7    1  0.1226955E-005  0.1106073E+03  0.7561462E-02  0.1259449E+00
          1   -1    0    0  501    0  0.00000000000E+00  0.00000000000E+00  0.24418346243E+03  0.24418346243E+03  0.00000000000E+00 0. -1.
         -1   -1    0    0    0  501 -0.00000000000E+00 -0.00000000000E+00 -0.58998399766E+02  0.58998399766E+02  0.00000000000E+00 0.  1.
         23    2    1    2    0    0 -0.24887419188E+02  0.13764111813E+02  0.50865147389E+02  0.13799950363E+03  0.12509102835E+03 0.  0.
          5    1    3    3  502    0 -0.36055079465E+02  0.65639235336E+02  0.27869933460E+02  0.80016770503E+02  0.41800000000E+01 0.  1.
         -5    1    3    3    0  502  0.11167660277E+02 -0.51875123523E+02  0.22995213930E+02  0.57982733122E+02  0.41800000000E+01 0.  1.
        -11    1    1    2    0    0  0.44683635309E+02  0.23720507428E+02  0.93629986272E+02  0.10642304293E+03  0.00000000000E+00 0. -1.
         11    1    1    2    0    0 -0.19796216120E+02 -0.37484619241E+02  0.40689929000E+02  0.58759315639E+02  0.00000000000E+00 0.  1.
</event>
<event>
 7    1  0.1226955E-005  0.1161328E+03  0.7561462E-02  0.1249617E+00
          3   -1    0    0  501    0  0.00000000000E+00  0.00000000000E+00  0.47301209602E+02  0.47301209602E+02  0.00000000000E+00 0. -1.
         -3   -1    0    0    0  501 -0.00000000000E+00 -0.00000000000E+00 -0.60756073869E+03  0.60756073869E+03  0.00000000000E+00 0.  1.
         23    2    1    2    0    0  0.13316969179E+02 -0.10423127947E+03 -0.44536475651E+03  0.47438202812E+03  0.12508813280E+03 0.  0.
          5    1    3    3  502    0  0.31958855545E+02 -0.31526857910E+02 -0.34699424518E+02  0.56893177792E+02  0.41800000000E+01 0.  1.
         -5    1    3    3    0  502 -0.18641886366E+02 -0.72704421559E+02 -0.41066533200E+03  0.41748885032E+03  0.41800000000E+01 0.  1.
        -11    1    1    2    0    0  0.13544948848E+02  0.26431172464E+02 -0.89569299799E+02  0.94364887451E+02  0.00000000000E+00 0.  1.
         11    1    1    2    0    0 -0.26861918027E+02  0.77800107004E+02 -0.25325472774E+02  0.86115032724E+02  0.00000000000E+00 0. -1.
</event>
<event>
 7    1  0.1226955E-005  0.1962271E+03  0.7561462E-02  0.1152962E+00
         -1   -1    0    0    0  501 -0.00000000000E+00  0.00000000000E+00  0.43858537774E+03  0.43858537774E+03  0.00000000000E+00 0.  1.
          1   -1    0    0  501    0  0.00000000000E+00 -0.00000000000E+00 -0.96664482681E+02  0.96664482681E+02  0.00000000000E+00 0. -1.
         23    2    1    2    0    0 -0.16811026922E+03 -0.28967688139E+02  0.24676027570E+03  0.32022103041E+03  0.11202984013E+03 0.  0.
          5    1    3    3  502    0  0.11855930920E+02 -0.17670819605E+02  0.42569666819E+02  0.47775201691E+02  0.41800000000E+01 0. -1.
         -5    1    3    3    0  502 -0.17996620014E+03 -0.11296868534E+02  0.20419060888E+03  0.27244582872E+03  0.41800000000E+01 0.  1.
        -11    1    1    2    0    0  0.14442644781E+03 -0.10028459604E+02  0.57153547357E+02  0.15564734756E+03  0.00000000000E+00 0. -1.
         11    1    1    2    0    0  0.23683821415E+02  0.38996147742E+02  0.38007072003E+02  0.59381482449E+02  0.00000000000E+00 0.  1.
</event>
<event>
 7    1  0.1226955E-005  0.1477812E+03  0.7561462E-02  0.1203226E+00
          1   -1    0    0  501    0  0.00000000000E+00  0.00000000000E+00  0.34674370657E+03  0.34674370657E+03  0.00000000000E+00 0. -1.
         -1   -1    0    0    0  501 -0.00000000000E+00 -0.00000000000E+00 -0.70594611288E+02  0.70594611288E+02  0.00000000000E+00 0.  1.
         23    2    1    2    0    0  0.10747288849E+03 -0.32999741604E+02  0.12570977361E+03  0.20997590190E+03  0.12509007751E+03 0.  0.
          5    1    3    3  502    0 -0.19840717529E+02 -0.30269751214E+02  0.97966096122E+01  0.37727415370E+02  0.41800000000E+01 0.  1.
         -5    1    3    3    0  502  0.12731360602E+03 -0.27299903906E+01  0.11591316400E+03  0.17224848653E+03  0.41800000000E+01 0.  1.
        -11    1    1    2    0    0 -0.31770890375E+02  0.44984747832E+02  0.25275629865E+02  0.60595993909E+02  0.00000000000E+00 0.  1.
         11    1    1    2    0    0 -0.75701998117E+02 -0.11985006227E+02  0.12516369181E+03  0.14676642205E+03  0.00000000000E+00 0. -1.
</event>
<event>
 7    1  0.1226955E-005  0.2194641E+03  0.7561462E-02  0.1134283E+00
          1   -1    0    0  501    0  0.00000000000E+00  0.00000000000E+00  0.38976650452E+03  0.38976650452E+03  0.00000000000E+00 0. -1.
         -1   -1    0    0    0  501 -0.00000000000E+00 -0.00000000000E+00 -0.14582660447E+03  0.14582660447E+03  0.00000000000E+00 0.  1.
         23    2    1    2    0    0  0.16071008444E+03 -0.13080200767E+03  0.79997594788E+02  0.25491796640E+03  0.12508660188E+03 0.  0.
          5    1    3    3  502    0  0.10898073710E+03 -0.62974297525E+02  0.10709646695E+03  0.16531693453E+03  0.41800000000E+01 0. -1.
         -5    1    3    3    0  502  0.51729347342E+02 -0.67827710148E+02 -0.27098872166E+02  0.89601031875E+02  0.41800000000E+01 0. -1.
        -11    1    1    2    0    0 -0.67356180763E+02  0.11446751406E+03  0.10189229029E+03  0.16739685088E+03  0.00000000000E+00 0. -1.
         11    1    1    2    0    0 -0.93353903680E+02  0.16334493613E+02  0.62050014968E+02  0.11327829170E+03  0.00000000000E+00 0.  1.
</event>
<event>
 7    1  0.1226955E-005  0.9521719E+02  0.7561462E-02  0.1290688E+00
          1   -1    0    0  501    0  0.00000000000E+00  0.00000000000E+00  0.59685112800E+03  0.59685112800E+03  0.00000000000E+00 0. -1.
         -1   -1    0    0    0  501 -0.00000000000E+00 -0.00000000000E+00 -0.21760717763E+02  0.21760717763E+02  0.00000000000E+00 0.  1.
         23    2    1    2    0    0  0.17597934257E+02  0.15233715274E+02  0.27494042973E+03  0.30295152958E+03  0.12508251678E+03 0.  0.
          5    1    3    3  502    0  0.13579154710E+02  0.58880336572E+02  0.66661559919E+02  0.90069547842E+02  0.41800000000E+01 0.  1.
         -5    1    3    3    0  502  0.40187795478E+01 -0.43646621299E+02  0.20827886981E+03  0.21288198173E+03  0.41800000000E+01 0.  1.
        -11    1    1    2    0    0  0.33035679986E+02 -0.27455969481E+00  0.19733703118E+03  0.20008332117E+03  0.00000000000E+00 0.  1.
         11    1    1    2    0    0 -0.50633614243E+02 -0.14959155579E+02  0.10281294933E+03  0.11557699502E+03  0.00000000000E+00 0. -1.
</event>
<event>
 7    1  0.1226955E-005  0.1139748E+03  0.7561462E-02  0.1253381E+00
         -1   -1    0    0    0  501 -0.00000000000E+00  0.00000000000E+00  0.45289484702E+02  0.45289484702E+02  0.00000000000E+00 0.  1.
          1   -1    0    0  501    0  0.00000000000E+00 -0.00000000000E+00 -0.31482549096E+03  0.31482549096E+03  0.00000000000E+00 0. -1.
         23    2    1    2    0    0 -0.42246130152E+02 -0.92302698913E+01 -0.13345079793E+03  0.18796031438E+03  0.12510008361E+03 0.  0.
          5    1    3    3  502    0  0.90759365648E+01  0.51067065040E+02 -0.41610565445E+02  0.66626791255E+02  0.41800000000E+01 0. -1.
         -5    1    3    3    0  502 -0.51322066717E+02 -0.60297334931E+02 -0.91840232483E+02  0.12133352313E+03  0.41800000000E+01 0. -1.
        -11    1    1    2    0    0  0.65976837985E+02  0.22158494276E+02 -0.61689569629E+02  0.93002930169E+02  0.00000000000E+00 0.  1.
         11    1    1    2    0    0 -0.23730707833E+02 -0.12928224385E+02 -0.74395638697E+02  0.79151731106E+02  0.00000000000E+00 0. -1.
</event>
<event>
 7    1  0.1226955E-005  0.1301585E+03  0.7561462E-02  0.1227221E+00
          1   -1    0    0  501    0  0.00000000000E+00  0.00000000000E+00  0.15097353771E+03  0.15097353771E+03  0.00000000000E+00 0. -1.
         -1   -1    0    0    0  501 -0.00000000000E+00 -0.00000000000E+00 -0.14537288200E+03  0.14537288200E+03  0.00000000000E+00 0.  1.
         23    2    1    2    0    0 -0.30345259109E+02  0.93240871198E+02 -0.19502124578E+02  0.16013410217E+03  0.12509157846E+03 0.  0.
          5    1    3    3  502    0 -0.38455731532E+02  0.12174746315E+03 -0.77545737654E+01  0.12798005269E+03  0.41800000000E+01 0.  1.
         -5    1    3    3    0  502  0.81104724228E+01 -0.28506591954E+02 -0.11747550813E+02  0.32154049479E+02  0.41800000000E+01 0.  1.
        -11    1    1    2    0    0 -0.42179822702E+01 -0.32354898051E+02 -0.32123386771E+02  0.45788020049E+02  0.00000000000E+00 0.  1.
         11    1    1    2    0    0  0.34563241380E+02 -0.60885973146E+02  0.57226167067E+02  0.90424297496E+02  0.00000000000E+00 0. -1.
</event>
<event>
 7    1  0.1226955E-005  0.1558205E+03  0.7561462E-02  0.1193498E+00
          2   -1    0    0  501    0  0.00000000000E+00  0.00000000000E+00  0.10548288177E+04  0.10548288177E+04  0.00000000000E+00 0. -1.
         -2   -1    0    0    0  501 -0.00000000000E+00 -0.00000000000E+00 -0.26157440015E+02  0.26157440015E+02  0.00000000000E+00 0.  1.
         23    2    1    2    0    0  0.54955509722E+02 -0.10444162719E+03  0.39599345425E+03  0.43172585866E+03  0.12509292424E+03 0.  0.
          5    1    3    3  502    0  0.79551737386E+02 -0.17565141869E+02  0.18500517685E+03  0.20219149584E+03  0.41800000000E+01 0.  1.
         -5    1    3    3    0  502 -0.24596227664E+02 -0.86876485319E+02  0.21098827740E+03  0.22953436282E+03  0.41800000000E+01 0.  1.
        -11    1    1    2    0    0  0.66297128150E+01  0.67579120808E+02  0.40134290539E+03  0.40704670293E+03  0.00000000000E+00 0.  1.
         11    1    1    2    0    0 -0.61585222537E+02  0.36862506379E+02  0.23133501801E+03  0.24221369608E+03  0.00000000000E+00 0. -1.
</event>
<event>
 7    1  0.1226955E-005  0.1168031E+03  0.7561462E-02  0.1248466E+00
         -1   -1    0    0    0  501 -0.00000000000E+00  0.00000000000E+00  0.59150206794E+02  0.59150206794E+02  0.00000000000E+00 0.  1.
          1   -1    0    0  501    0  0.00000000000E+00 -0.00000000000E+00 -0.29795592906E+03  0.29795592906E+03  0.00000000000E+00 0. -1.
         23    2    1    2    0    0  0.66784599303E+02 -0.27887358320E+01 -0.78011549926E+02  0.16187218292E+03  0.12509533136E+03 0.  0.
          5    1    3    3  502    0  0.23596458267E+02 -0.52178200803E+02  0.30545264126E+01  0.57499217503E+02  0.41800000000E+01 0. -1.
         -5    1    3    3    0  502  0.43188141036E+02  0.49389464971E+02 -0.81066076339E+02  0.10437296541E+03  0.41800000000E+01 0. -1.
        -11    1    1    2    0    0 -0.31074719853E+02 -0.42577631602E+02 -0.83758857146E+02  0.98964837580E+02  0.00000000000E+00 0.  1.
         11    1    1    2    0    0 -0.35709879450E+02  0.45366367434E+02 -0.77035315189E+02  0.96269115352E+02  0.00000000000E+00 0. -1.
</event>
<event>
 6    1  0.1226955E-005  0.1564991E+03  0.7561462E-02  0.1192707E+00
         -2   -1    0    0    0  501 -0.00000000000E+00  0.00000000000E+00  0.29965485186E+02  0.29965485186E+02  0.00000000000E+00 0.  1.
          2   -1    0    0  501    0  0.00000000000E+00 -0.00000000000E+00 -0.11070193244E+04  0.11070193244E+04  0.00000000000E+00 0. -1.
          5    1    1    2  502    0  0.17045497599E+01 -0.64944675958E+02 -0.39679092143E+03  0.40209603847E+03  0.41800000000E+01 0. -1.
         -5    1    1    2    0  502  0.10217123565E+03  0.37767206586E+02 -0.14211823444E+03  0.17910998925E+03  0.41800000000E+01 0.  1.
        -11    1    1    2    0    0  0.35144534972E+01 -0.20924449894E+02 -0.81380533898E+02  0.84100982659E+02  0.00000000000E+00 0.  1.
         11    1    1    2    0    0 -0.10739023890E+03  0.48101919265E+02 -0.45676414943E+03  0.47167779919E+03  0.00000000000E+00 0. -1.
</event>
<event>
 7    1  0.1226955E-005  0.1359147E+03  0.7561462E-02  0.1218934E+00
          2   -1    0    0  501    0  0.00000000000E+00  0.00000000000E+00  0.11824390137E+04  0.11824390137E+04  0.00000000000E+00 0. -1.
         -2   -1    0    0    0  501 -0.00000000000E+00 -0.00000000000E+00 -0.19333025954E+02  0.19333025954E+02  0.00000000000E+00 0.  1.
         23    2    1    2    0    0  0.10385391845E+03 -0.14122155883E+01  0.67723619697E+03  0.69648028947E+03  0.12509315092E+03 0.  0.
          5    1    3    3  502    0  0.83233509936E+02  0.38409195099E+02  0.60075863756E+03  0.60772649806E+03  0.41800000000E+01 0. -1.
         -5    1    3    3    0  502  0.20620408509E+02 -0.39821410687E+02  0.76477559410E+02  0.88753791409E+02  0.41800000000E+01 0. -1.
        -11    1    1    2    0    0 -0.90944357830E+02  0.36228906774E+02  0.29424940668E+03  0.31010663204E+03  0.00000000000E+00 0. -1.
         11    1    1    2    0    0 -0.12909560616E+02 -0.34816691185E+02  0.19162038407E+03  0.19518511811E+03  0.00000000000E+00 0.  1.
</event>
<event>
 7    1  0.1226955E-005  0.1102145E+03  0.7561462E-02  0.1260173E+00
          3   -1    0    0  501    0  0.00000000000E+00  0.00000000000E+00  0.19597747673E+03  0.19597747673E+03  0.00000000000E+00 0.  1.
         -3   -1    0    0    0  501 -0.00000000000E+00 -0.00000000000E+00 -0.62662467436E+02  0.62662467436E+02  0.00000000000E+00 0. -1.
         23    2    1    2    0    0  0.23792735039E+01  0.16481372378E+02  0.65437038866E+02  0.14215179250E+03  0.12509128458E+03 0.  0.
          5    1    3    3  502    0 -0.41459558919E+02  0.54085748254E+02  0.36299531984E+02  0.77325879317E+02  0.41800000000E+01 0. -1.
         -5    1    3    3    0  502  0.43838832423E+02 -0.37604375876E+02  0.29137506882E+02  0.64825913186E+02  0.41800000000E+01 0. -1.
        -11    1    1    2    0    0 -0.47453668252E+02 -0.49018788189E+01  0.28849777944E+02  0.55751132132E+02  0.00000000000E+00 0. -1.
         11    1    1    2    0    0  0.45074394748E+02 -0.11579493559E+02  0.39028192488E+02  0.60737019534E+02  0.00000000000E+00 0.  1.
</event>
<event>
 7    1  0.1226955E-005  0.1421490E+03  0.7561462E-02  0.1210466E+00
         -2   -1    0    0    0  501 -0.00000000000E+00  0.00000000000E+00  0.57492350568E+02  0.57492350568E+02  0.00000000000E+00 0.  1.
          2   -1    0    0  501    0  0.00000000000E+00 -0.00000000000E+00 -0.36731535433E+03  0.36731535433E+03  0.00000000000E+00 0. -1.
         23    2    1    2    0    0 -0.10128334334E+03  0.14129516928E+02 -0.13544454384E+03  0.20282473389E+03  0.11106164655E+03 0.  0.
          5    1    3    3  502    0 -0.55803859057E+02  0.61673212167E+02 -0.60038917149E+02  0.10266352691E+03  0.41800000000E+01 0. -1.
         -5    1    3    3    0  502 -0.45479484282E+02 -0.47543695239E+02 -0.75405626691E+02  0.10016120698E+03  0.41800000000E+01 0.  1.
        -11    1    1    2    0    0  0.11566299265E+03 -0.10674753244E+01 -0.13293493419E+03  0.17621227001E+03  0.00000000000E+00 0.  1.
         11    1    1    2    0    0 -0.14379649312E+02 -0.13062041604E+02 -0.41443525734E+02  0.45770701005E+02  0.00000000000E+00 0. -1.
</event>
<event>
 7    1  0.1226955E-005  0.1032666E+03  0.7561462E-02  0.1273573E+00
          1   -1    0    0  501    0  0.00000000000E+00  0.00000000000E+00  0.25145218213E+03  0.25145218213E+03  0.00000000000E+00 0. -1.
         -1   -1    0    0    0  501 -0.00000000000E+00 -0.00000000000E+00 -0.77232493449E+02  0.77232493449E+02  0.00000000000E+00 0.  1.
         23    2    1    2    0    0  0.70993413311E+02 -0.26217924113E+01  0.34501856334E+02  0.14793532747E+03  0.12509014547E+03 0.  0.
          5    1    3    3  502    0  0.87276931853E+02  0.28115429727E+02  0.55331635260E+02  0.10717650154E+03  0.41800000000E+01 0. -1.
         -5    1    3    3    0  502 -0.16283518541E+02 -0.30737222139E+02 -0.20829778926E+02  0.40758825928E+02  0.41800000000E+01 0. -1.
        -11    1    1    2    0    0 -0.65580021472E+02  0.14046701076E+02  0.15009227308E+03  0.16439507130E+03  0.00000000000E+00 0. -1.
         11    1    1    2    0    0 -0.54133918393E+01 -0.11424908664E+02 -0.10374440741E+02  0.16354276807E+02  0.00000000000E+00 0.  1.
</event>
<event>
 7    1  0.1226955E-005  0.1212375E+03  0.7561462E-02  0.1241069E+00
          2   -1    0    0  501    0  0.00000000000E+00  0.00000000000E+00  0.17467163758E+03  0.17467163758E+03  0.00000000000E+00 0. -1.
         -2   -1    0    0    0  501 -0.00000000000E+00 -0.00000000000E+00 -0.12655800915E+03  0.12655800915E+03  0.00000000000E+00 0.  1.
         23    2    1    2    0    0  0.39489397557E+02  0.81215798011E+02 -0.21095122232E+02  0.15571676054E+03  0.12508911609E+03 0.  0.
          5    1    3    3  502    0  0.17481736222E+02 -0.32026650199E+02  0.58187952823E+01  0.37183977771E+02  0.41800000000E+01 0. -1.
         -5    1    3    3    0  502  0.22007661336E+02  0.11324244821E+03 -0.26913917514E+02  0.11853278277E+03  0.41800000000E+01 0. -1.
        -11    1    1    2    0    0 -0.33566997789E+02 -0.68244306288E+02  0.91543919199E+02  0.11901393962E+03  0.00000000000E+00 0. -1.
         11    1    1    2    0    0 -0.59223997684E+01 -0.12971491723E+02 -0.22335168536E+02  0.26498946584E+02  0.00000000000E+00 0.  1.
</event>
<event>
 7    1  0.1226955E-005  0.1107993E+03  0.7561462E-02  0.1259097E+00
         -4   -1    0    0    0  501 -0.00000000000E+00  0.00000000000E+00  0.27745340941E+02  0.27745340941E+02  0.00000000000E+00 0. -1.
          4   -1    0    0  501    0  0.00000000000E+00 -0.00000000000E+00 -0.53681259130E+03  0.53681259130E+03  0.00000000000E+00 0.  1.
         23    2    1    2    0    0 -0.38357746648E+02 -0.36726805535E+02 -0.25668976682E+03  0.29044759126E+03  0.12509992768E+03 0.  0.
          5    1    3    3  502    0 -0.81650991317E+02 -0.30524508999E+02 -0.20374009587E+03  0.22164414970E+03  0.41800000000E+01 0. -1.
         -5    1    3    3    0  502  0.43293244669E+02 -0.62022965360E+01 -0.52949670949E+02  0.68803441555E+02  0.41800000000E+01 0. -1.
        -11    1    1    2    0    0 -0.17262766357E+02  0.29671014476E+02 -0.32766111704E+02  0.47455139643E+02  0.00000000000E+00 0. -1.
         11    1    1    2    0    0  0.55620513005E+02  0.70557910585E+01 -0.21961137184E+03  0.22665520134E+03  0.00000000000E+00 0.  1.
</event>
<event>
 7    1  0.1226955E-005  0.1055683E+03  0.7561462E-02  0.1269004E+00
          2   -1    0    0  501    0  0.00000000000E+00  0.00000000000E+00  0.54948398569E+02  0.54948398569E+02  0.00000000000E+00 0.  1.
         -2   -1    0    0    0  501 -0.00000000000E+00 -0.00000000000E+00 -0.25181835739E+03  0.25181835739E+03  0.00000000000E+00 0. -1.
         23    2    1    2    0    0 -0.13639492878E+02 -0.29777407691E+02 -0.15263167973E+03  0.20004108787E+03  0.12508907788E+03 0.  0.
          5    1    3    3  502    0 -0.67181570957E+02 -0.16112778488E+02 -0.11066823435E+03  0.13052936682E+03  0.41800000000E+01 0. -1.
         -5    1    3    3    0  502  0.53542078078E+02 -0.13664629204E+02 -0.41963445376E+02  0.69511721055E+02  0.41800000000E+01 0. -1.
        -11    1    1    2    0    0  0.32776850789E+01 -0.27806324771E+02 -0.38963100354E+02  0.47979767673E+02  0.00000000000E+00 0. -1.
         11    1    1    2    0    0  0.10361807799E+02  0.57583732463E+02 -0.52751787424E+01  0.58745900418E+02  0.00000000000E+00 0.  1.
</event>
<event>
 7    1  0.1226955E-005  0.1007579E+03  0.7561462E-02  0.1278710E+00
         -2   -1    0    0    0  501 -0.00000000000E+00  0.00000000000E+00  0.23155566710E+02  0.23155566710E+02  0.00000000000E+00 0.  1.
          2   -1    0    0  501    0  0.00000000000E+00 -0.00000000000E+00 -0.53022986855E+03  0.53022986855E+03  0.00000000000E+00 0. -1.
         23    2    1    2    0    0  0.10719800609E+02 -0.16987686008E+02 -0.25426033595E+03  0.28407460814E+03  0.12508624603E+03 0.  0.
          5    1    3    3  502    0 -0.42834514445E+02 -0.32477477808E+02 -0.54598887995E+02  0.76733911426E+02  0.41800000000E+01 0. -1.
         -5    1    3    3    0  502  0.53554315054E+02  0.15489791800E+02 -0.19966144796E+03  0.20734069671E+03  0.41800000000E+01 0. -1.
        -11    1    1    2    0    0 -0.50224617192E+02  0.13654756490E+02 -0.12246714559E+03  0.13306827682E+03  0.00000000000E+00 0. -1.
         11    1    1    2    0    0  0.39504816583E+02  0.33329295177E+01 -0.13034682030E+03  0.13624255030E+03  0.00000000000E+00 0.  1.
</event>
<event>
 7    1  0.1226955E-005  0.1444111E+03  0.7561462E-02  0.1207514E+00
          1   -1    0    0  501    0  0.00000000000E+00  0.00000000000E+00  0.16185482095E+03  0.16185482095E+03  0.00000000000E+00 0. -1.
         -1   -1    0    0    0  501 -0.00000000000E+00 -0.00000000000E+00 -0.16647505007E+03  0.16647505007E+03  0.00000000000E+00 0.  1.
         23    2    1    2    0    0 -0.36236237888E+02 -0.10867376074E+03 -0.45612240185E+02  0.17563514565E+03  0.12507668336E+03 0.  0.
          5    1    3    3  502    0  0.45306535841E+02 -0.24444725989E+02 -0.69238366552E+01  0.52111790725E+02  0.41800000000E+01 0.  1.
         -5    1    3    3    0  502 -0.81542773729E+02 -0.84229034753E+02 -0.38688403530E+02  0.12352335492E+03  0.41800000000E+01 0.  1.
        -11    1    1    2    0    0  0.53958293272E+01  0.70875828646E+02 -0.20710985743E+02  0.74036767831E+02  0.00000000000E+00 0.  1.
         11    1    1    2    0    0  0.30840408561E+02  0.37797932096E+02  0.61702996805E+02  0.78657957548E+02  0.00000000000E+00 0. -1.
</event>
<event>
 7    1  0.1226955E-005  0.9286235E+02  0.7561462E-02  0.1296064E+00
         -2   -1    0    0    0  501 -0.00000000000E+00  0.00000000000E+00  0.65029026603E+02  0.65029026603E+02  0.00000000000E+00 0. -1.
          2   -1    0    0  501    0  0.00000000000E+00 -0.00000000000E+00 -0.24555726357E+03  0.24555726357E+03  0.00000000000E+00 0.  1.
         23    2    1    2    0    0 -0.18773023359E+02 -0.60434691383E+02 -0.61261891157E+02  0.14868778140E+03  0.11979256530E+03 0.  0.
          5    1    3    3  502    0  0.43955361633E+01 -0.52844307318E+02  0.25126811820E+02  0.58827464898E+02  0.41800000000E+01 0. -1.
         -5    1    3    3    0  502 -0.23168559522E+02 -0.75903840652E+01 -0.86388702977E+02  0.89860316507E+02  0.41800000000E+01 0.  1.
        -11    1    1    2    0    0  0.45760742394E+02  0.48620082086E+01 -0.65185805375E+02  0.79792693216E+02  0.00000000000E+00 0. -1.
         11    1    1    2    0    0 -0.26987719035E+02  0.55572683175E+02 -0.54080540438E+02  0.82105815555E+02  0.00000000000E+00 0.  1.
</event>
<event>
 7    1  0.1226955E-005  0.1120019E+03  0.7561462E-02  0.1256907E+00
         -1   -1    0    0    0  501 -0.00000000000E+00  0.00000000000E+00  0.97013300589E+02  0.97013300589E+02  0.00000000000E+00 0.  1.
          1   -1    0    0  501    0  0.00000000000E+00 -0.00000000000E+00 -0.17273428710E+03  0.17273428710E+03  0.00000000000E+00 0. -1.
         23    2    1    2    0    0 -0.67021588001E+02  0.21621127839E+02 -0.41349997818E+02  0.14938733027E+03  0.12508951075E+03 0.  0.
          5    1    3    3  502    0 -0.10154961225E+03  0.32666150618E+02 -0.35000570406E+02  0.11234728957E+03  0.41800000000E+01 0. -1.
         -5    1    3    3    0  502  0.34528024250E+02 -0.11045022779E+02 -0.63494274116E+01  0.37040040703E+02  0.41800000000E+01 0. -1.
        -11    1    1    2    0    0  0.20903650642E+02 -0.27196910591E+02  0.26813923619E+02  0.43538730525E+02  0.00000000000E+00 0.  1.
         11    1    1    2    0    0  0.46117937359E+02  0.55757827526E+01 -0.61184912312E+02  0.76821526893E+02  0.00000000000E+00 0. -1.
</event>
<event>
 7    1  0.1226955E-005  0.1048478E+03  0.7561462E-02  0.1270420E+00
         -2   -1    0    0    0  501 -0.00000000000E+00  0.00000000000E+00  0.43944291262E+03  0.43944291262E+03  0.00000000000E+00 0.  1.
          2   -1    0    0  501    0  0.00000000000E+00 -0.00000000000E+00 -0.31384505687E+02  0.31384505687E+02  0.00000000000E+00 0. -1.
         23    2    1    2    0    0 -0.63653381648E+01  0.39900428024E+02  0.27615040379E+03  0.30584182394E+03  0.12509042357E+03 0.  0.
          5    1    3    3  502    0  0.50086010042E+02  0.21928646567E+02  0.58280820011E+02  0.80022498857E+02  0.41800000000E+01 0. -1.
         -5    1    3    3    0  502 -0.56451348207E+02  0.17971781457E+02  0.21786958378E+03  0.22581932508E+03  0.41800000000E+01 0. -1.
        -11    1    1    2    0    0  0.32801532104E+02 -0.55722706241E+02  0.66869466636E+02  0.93018740409E+02  0.00000000000E+00 0. -1.
         11    1    1    2    0    0 -0.26436193939E+02  0.15822278218E+02  0.65038536511E+02  0.71966853964E+02  0.00000000000E+00 0.  1.
</event>
<event>
 7    1  0.1226955E-005  0.1272484E+03  0.7561462E-02  0.1231597E+00
         -4   -1    0    0    0  501 -0.00000000000E+00  0.00000000000E+00  0.36191640686E+02  0.36191640686E+02  0.00000000000E+00 0.  1.
          4   -1    0    0  501    0  0.00000000000E+00 -0.00000000000E+00 -0.68319903061E+03  0.68319903061E+03  0.00000000000E+00 0. -1.
         23    2    1    2    0    0  0.80635716388E+02  0.31587562619E+02 -0.17737427225E+03  0.23368393065E+03  0.12508658648E+03 0.  0.
          5    1    3    3  502    0 -0.13556531848E+02  0.34219162461E+02 -0.52542787913E+01  0.37414041226E+02  0.41800000000E+01 0.  1.
         -5    1    3    3    0  502  0.94192248236E+02 -0.26315998417E+01 -0.17211999346E+03  0.19626988942E+03  0.41800000000E+01 0.  1.
        -11    1    1    2    0    0  0.18198421344E+02 -0.13493361674E+02 -0.67026576007E+02  0.70751786126E+02  0.00000000000E+00 0. -1.
         11    1    1    2    0    0 -0.98834137732E+02 -0.18094200945E+02 -0.40260654166E+03  0.41495495452E+03  0.00000000000E+00 0.  1.
</event>
<event>
 7    1  0.1226955E-005  0.1602114E+03  0.7561462E-02  0.1188458E+00
          2   -1    0    0  501    0  0.00000000000E+00  0.00000000000E+00  0.14099975400E+03  0.14099975400E+03  0.00000000000E+00 0. -1.
         -2   -1    0    0    0  501 -0.00000000000E+00 -0.00000000000E+00 -0.29041179581E+03  0.29041179581E+03  0.00000000000E+00 0.  1.
         23    2    1    2    0    0  0.89292425944E+02  0.95678757018E+02 -0.19478964793E+03  0.26592856317E+03  0.12508969539E+03 0.  0.
          5    1    3    3  502    0  0.89833508990E+02  0.16084934939E+02 -0.59880900185E+02  0.10923359866E+03  0.41800000000E+01 0.  1.
         -5    1    3    3    0  502 -0.54108304545E+00  0.79593822079E+02 -0.13490874774E+03  0.15669496451E+03  0.41800000000E+01 0.  1.
        -11    1    1    2    0    0  0.12600808402E+02 -0.13397754676E+02 -0.12561004113E+02  0.22272382609E+02  0.00000000000E+00 0.  1.
         11    1    1    2    0    0 -0.10189323435E+03 -0.82281002341E+02  0.57938610239E+02  0.14321060404E+03  0.00000000000E+00 0. -1.
</event>
<event>
 7    1  0.1781874E-005  0.1692631E+03  0.7561462E-02  0.1178618E+00
         -2   -1    0    0    0  501 -0.00000000000E+00  0.00000000000E+00  0.29136986679E+02  0.29136986679E+02  0.00000000000E+00 0. -1.
          2   -1    0    0  501    0  0.00000000000E+00 -0.00000000000E+00 -0.14106556886E+04  0.14106556886E+04  0.00000000000E+00 0.  1.
         23    2    1    2    0    0  0.31329952866E+01 -0.15679281140E+03 -0.48219680520E+03  0.52225932474E+03  0.12508893626E+03 0.  0.
          5    1    3    3  502    0  0.11867613116E+02 -0.11384226522E+03 -0.45782694178E+03  0.47193631203E+03  0.41800000000E+01 0. -1.
         -5    1    3    3    0  502 -0.87346178290E+01 -0.42950546180E+02 -0.24369863415E+02  0.50323012715E+02  0.41800000000E+01 0. -1.
        -11    1    1    2    0    0 -0.45535553571E+02  0.72689418359E+02 -0.36237165042E+03  0.37238481603E+03  0.00000000000E+00 0. -1.
         11    1    1    2    0    0  0.42402558285E+02  0.84103393039E+02 -0.53695024634E+03  0.54514853454E+03  0.00000000000E+00 0.  1.
</event>
<event>
 7    1  0.1226955E-005  0.1373873E+03  0.7561462E-02  0.1216888E+00
         -1   -1    0    0    0  501 -0.00000000000E+00  0.00000000000E+00  0.51937652400E+02  0.51937652400E+02  0.00000000000E+00 0.  1.
          1   -1    0    0  501    0  0.00000000000E+00 -0.00000000000E+00 -0.48096403881E+03  0.48096403881E+03  0.00000000000E+00 0. -1.
         23    2    1    2    0    0  0.25172612962E+02  0.81165240799E+02 -0.10044012250E+03  0.18154928393E+03  0.12510182865E+03 0.  0.
          5    1    3    3  502    0  0.40065190375E+02  0.11043044234E+03 -0.71536798412E+02  0.13760482551E+03  0.41800000000E+01 0.  1.
         -5    1    3    3    0  502 -0.14892577413E+02 -0.29265201542E+02 -0.28903324087E+02  0.43944458428E+02  0.41800000000E+01 0.  1.
        -11    1    1    2    0    0  0.28077508363E+02 -0.61058916778E+02 -0.18983487590E+03  0.20137978524E+03  0.00000000000E+00 0. -1.
         11    1    1    2    0    0 -0.53250121325E+02 -0.20106324021E+02 -0.13875138801E+03  0.14997262204E+03  0.00000000000E+00 0.  1.
</event>
<event>
 7    1  0.1226955E-005  0.1405915E+03  0.7561462E-02  0.1212535E+00
         -1   -1    0    0    0  501 -0.00000000000E+00  0.00000000000E+00  0.36686329470E+02  0.36686329470E+02  0.00000000000E+00 0.  1.
          1   -1    0    0  501    0  0.00000000000E+00 -0.00000000000E+00 -0.65967518885E+03  0.65967518885E+03  0.00000000000E+00 0. -1.
         23    2    1    2    0    0 -0.10937375465E+03 -0.16849433122E+02 -0.32027712588E+03  0.36120743796E+03  0.12508738656E+03 0.  0.
          5    1    3    3  502    0 -0.99620353637E+02 -0.44741068060E+02 -0.13570873173E+03  0.17424210254E+03  0.41800000000E+01 0.  1.
         -5    1    3    3    0  502 -0.97534010104E+01  0.27891634938E+02 -0.18456839415E+03  0.18696533542E+03  0.41800000000E+01 0.  1.
        -11    1    1    2    0    0  0.49382069024E+02 -0.36790143448E+02 -0.15791240620E+03  0.16949463540E+03  0.00000000000E+00 0. -1.
         11    1    1    2    0    0  0.59991685623E+02  0.53639576570E+02 -0.14479932730E+03  0.16565944497E+03  0.00000000000E+00 0.  1.
</event>
<event>
 7    1  0.1226955E-005  0.1101448E+03  0.7561462E-02  0.1260302E+00
         -2   -1    0    0    0  501 -0.00000000000E+00  0.00000000000E+00  0.13094697079E+03  0.13094697079E+03  0.00000000000E+00 0.  1.
          2   -1    0    0  501    0  0.00000000000E+00 -0.00000000000E+00 -0.93300379585E+02  0.93300379585E+02  0.00000000000E+00 0. -1.
         23    2    1    2    0    0 -0.31339062443E+01 -0.36522444646E+01  0.27796485970E+02  0.12822821061E+03  0.12508664639E+03 0.  0.
          5    1    3    3  502    0  0.59779682339E+02  0.86480518125E+01  0.84223760723E+01  0.61129436767E+02  0.41800000000E+01 0. -1.
         -5    1    3    3    0  502 -0.62913588583E+02 -0.12300296277E+02  0.19374109898E+02  0.67098773843E+02  0.41800000000E+01 0. -1.
        -11    1    1    2    0    0  0.75971408263E+01 -0.45508997187E+02  0.54660528388E+01  0.46461415253E+02  0.00000000000E+00 0. -1.
         11    1    1    2    0    0 -0.44632345820E+01  0.49161241652E+02  0.43840523981E+01  0.49557724515E+02  0.00000000000E+00 0.  1.
</event>
<event>
 7    1  0.1226955E-005  0.6456291E+02  0.7561462E-02  0.1379623E+00
         -2   -1    0    0    0  501 -0.00000000000E+00  0.00000000000E+00  0.42583441029E+03  0.42583441029E+03  0.00000000000E+00 0.  1.
          2   -1    0    0  501    0  0.00000000000E+00 -0.00000000000E+00 -0.64971489657E+02  0.64971489657E+02  0.00000000000E+00 0. -1.
         23    2    1    2    0    0 -0.62298744318E+01  0.22123834669E+02  0.37337763699E+03  0.39444375026E+03  0.12508691745E+03 0.  0.
          5    1    3    3  502    0  0.25855621095E+00 -0.24667391911E+02  0.83922520676E+01  0.26390327201E+02  0.41800000000E+01 0.  1.
         -5    1    3    3    0  502 -0.64884306428E+01  0.46791226580E+02  0.36498538493E+03  0.36805342306E+03  0.41800000000E+01 0.  1.
        -11    1    1    2    0    0  0.53226828970E+01 -0.39211032278E+02  0.30570183399E+02  0.50003721047E+02  0.00000000000E+00 0.  1.
         11    1    1    2    0    0  0.90719153481E+00  0.17087197609E+02 -0.43084899759E+02  0.46358428638E+02  0.00000000000E+00 0. -1.
</event>
<event>
 7    1  0.1226955E-005  0.1389082E+03  0.7561462E-02  0.1214806E+00
          2   -1    0    0  501    0  0.00000000000E+00  0.00000000000E+00  0.48226966710E+02  0.48226966710E+02  0.00000000000E+00 0. -1.
         -2   -1    0    0    0  501 -0.00000000000E+00 -0.00000000000E+00 -0.48220750632E+03  0.48220750632E+03  0.00000000000E+00 0.  1.
         23    2    1    2    0    0 -0.92398172046E+02  0.51146362087E+02 -0.25939773671E+03  0.30673770631E+03  0.12508981618E+03 0.  0.
          5    1    3    3  502    0 -0.14981433468E+02  0.79598269732E+02 -0.13096077858E+03  0.15404066288E+03  0.41800000000E+01 0.  1.
         -5    1    3    3    0  502 -0.77416738578E+02 -0.28451907645E+02 -0.12843695813E+03  0.15269704343E+03  0.41800000000E+01 0.  1.
        -11    1    1    2    0    0  0.77147444295E+02 -0.58859765361E+02 -0.18105705917E+03  0.20542117422E+03  0.00000000000E+00 0.  1.
         11    1    1    2    0    0  0.15250727752E+02  0.77134032736E+01  0.64742562719E+01  0.18275592502E+02  0.00000000000E+00 0. -1.
</event>
<event>
 7    1  0.1226955E-005  0.1942768E+03  0.7561462E-02  0.1154660E+00
          2   -1    0    0  501    0  0.00000000000E+00  0.00000000000E+00  0.43036090861E+03  0.43036090861E+03  0.00000000000E+00 0.  1.
         -2   -1    0    0    0  501 -0.00000000000E+00 -0.00000000000E+00 -0.12887811753E+03  0.12887811753E+03  0.00000000000E+00 0. -1.
         23    2    1    2    0    0  0.57010330267E+02  0.16358195682E+03  0.17538414659E+02  0.21439260833E+03  0.12508940868E+03 0.  0.
          5    1    3    3  502    0 -0.53760387160E+01 -0.93943127106E+01 -0.23258671985E+02  0.25992174324E+02  0.41800000000E+01 0. -1.
         -5    1    3    3    0  502  0.62386368983E+02  0.17297626953E+03  0.40797086645E+02  0.18840043401E+03  0.41800000000E+01 0. -1.
        -11    1    1    2    0    0 -0.75475956854E+02 -0.91506778696E+02  0.14596236709E+03  0.18808275630E+03  0.00000000000E+00 0.  1.
         11    1    1    2    0    0  0.18465626587E+02 -0.72075178126E+02  0.13798200933E+03  0.15676366149E+03  0.00000000000E+00 0. -1.
</event>
<event>
 7    1  0.1226955E-005  0.1567061E+03  0.7561462E-02  0.1192466E+00
          2   -1    0    0  501    0  0.00000000000E+00  0.00000000000E+00  0.91375085552E+03  0.91375085552E+03  0.00000000000E+00 0. -1.
         -2   -1    0    0    0  501 -0.00000000000E+00 -0.00000000000E+00 -0.30927550579E+02  0.30927550579E+02  0.00000000000E+00 0.  1.
         23    2    1    2    0    0  0.11753467954E+03 -0.19283669670E+02  0.36406747624E+03  0.40296486374E+03  0.12509713562E+03 0.  0.
          5    1    3    3  502    0  0.81517017434E+02 -0.61641212900E+02  0.14859908542E+03  0.18039906831E+03  0.41800000000E+01 0. -1.
         -5    1    3    3    0  502  0.36017662105E+02  0.42357543230E+02  0.21546839082E+03  0.22256579543E+03  0.41800000000E+01 0. -1.
        -11    1    1    2    0    0 -0.47597999336E+01 -0.31379110585E+02  0.87127586231E+02  0.92728208000E+02  0.00000000000E+00 0.  1.
         11    1    1    2    0    0 -0.11277487960E+03  0.50662780256E+02  0.43162824246E+03  0.44898533435E+03  0.00000000000E+00 0. -1.
</event>
<event>
 7    1  0.1226955E-005  0.1649506E+03  0.7561462E-02  0.1183218E+00
         -2   -1    0    0    0  501 -0.00000000000E+00  0.00000000000E+00  0.88819244137E+02  0.88819244137E+02  0.00000000000E+00 0.  1.
          2   -1    0    0  501    0  0.00000000000E+00 -0.00000000000E+00 -0.33229686288E+03  0.33229686288E+03  0.00000000000E+00 0. -1.
         23    2    1    2    0    0  0.98978865247E+02  0.85583433864E+02 -0.11982205032E+03  0.21708551914E+03  0.12508980359E+03 0.  0.
          5    1    3    3  502    0 -0.21005168262E+02 -0.11906766972E+02 -0.64846165637E+01  0.25347797645E+02  0.41800000000E+01 0.  1.
         -5    1    3    3    0  502  0.11998403351E+03  0.97490200836E+02 -0.11333743375E+03  0.19173772150E+03  0.41800000000E+01 0.  1.
        -11    1    1    2    0    0 -0.99414757766E+02 -0.43263841411E+02 -0.11973320241E+03  0.16152737785E+03  0.00000000000E+00 0. -1.
         11    1    1    2    0    0  0.43589251852E+00 -0.42319592452E+02 -0.39223660229E+01  0.42503210030E+02  0.00000000000E+00 0.  1.
</event>
<event>
 7    1  0.1226955E-005  0.9730505E+02  0.7561462E-02  0.1286067E+00
          1   -1    0    0  501    0  0.00000000000E+00  0.00000000000E+00  0.42584005895E+03  0.42584005895E+03  0.00000000000E+00 0. -1.
         -1   -1    0    0    0  501 -0.00000000000E+00 -0.00000000000E+00 -0.37353507296E+02  0.37353507296E+02  0.00000000000E+00 0.  1.
         23    2    1    2    0    0  0.11418946200E+02 -0.56995124727E+02  0.16779520124E+03  0.21721310290E+03  0.12508983147E+03 0.  0.
          5    1    3    3  502    0  0.40197176452E+02 -0.52147493698E+02  0.17486411898E+03  0.18689597802E+03  0.41800000000E+01 0.  1.
         -5    1    3    3    0  502 -0.28778230252E+02 -0.48476310291E+01 -0.70689177388E+01  0.30317124880E+02  0.41800000000E+01 0.  1.
        -11    1    1    2    0    0 -0.39653805456E+02  0.58732690454E+02  0.10358711681E+03  0.12550794391E+03  0.00000000000E+00 0.  1.
         11    1    1    2    0    0  0.28234859256E+02 -0.17375657267E+01  0.11710423360E+03  0.12047251944E+03  0.00000000000E+00 0. -1.
</event>
<event>
 7    1  0.1226955E-005  0.1008694E+03  0.7561462E-02  0.1278478E+00
         -1   -1    0    0    0  501 -0.00000000000E+00  0.00000000000E+00  0.18158173340E+02  0.18158173340E+02  0.00000000000E+00 0.  1.
          1   -1    0    0  501    0  0.00000000000E+00 -0.00000000000E+00 -0.71434674355E+03  0.71434674355E+03  0.00000000000E+00 0. -1.
         23    2    1    2    0    0  0.10341522797E+02  0.38101928305E-01 -0.35740697427E+03  0.37882620077E+03  0.12515029599E+03 0.  0.
          5    1    3    3  502    0  0.53109004144E+02  0.20764541815E+02 -0.86095583322E+02  0.10335208941E+03  0.41800000000E+01 0.  1.
         -5    1    3    3    0  502 -0.42767481347E+02 -0.20726439887E+02 -0.27131139095E+03  0.27547411136E+03  0.41800000000E+01 0.  1.
        -11    1    1    2    0    0  0.35631978106E+02  0.25915584430E+02 -0.10245450008E+03  0.11152658861E+03  0.00000000000E+00 0.  1.
         11    1    1    2    0    0 -0.45973500903E+02 -0.25953686358E+02 -0.23632709586E+03  0.24215212751E+03  0.00000000000E+00 0. -1.
</event>
<event>
 7    1  0.1226955E-005  0.1140672E+03  0.7561462E-02  0.1253218E+00
          2   -1    0    0  501    0  0.00000000000E+00  0.00000000000E+00  0.41464057929E+03  0.41464057929E+03  0.00000000000E+00 0. -1.
         -2   -1    0    0    0  501 -0.00000000000E+00 -0.00000000000E+00 -0.37956522448E+02  0.37956522448E+02  0.00000000000E+00 0.  1.
         23    2    1    2    0    0 -0.47118088105E+02  0.31593929064E+02  0.16088257783E+03  0.21154031911E+03  0.12509121545E+03 0.  0.
          5    1    3    3  502    0  0.24572174563E+02  0.50208261623E+02  0.10367710632E+03  0.11786040927E+03  0.41800000000E+01 0.  1.
         -5    1    3    3    0  502 -0.71690262668E+02 -0.18614332559E+02  0.57205471506E+02  0.93679909843E+02  0.41800000000E+01 0.  1.
        -11    1    1    2    0    0  0.33328248864E+02  0.23707092001E+02  0.14221706563E+03  0.14798139119E+03  0.00000000000E+00 0. -1.
         11    1    1    2    0    0  0.13789839241E+02 -0.55301021064E+02  0.73584413391E+02  0.93075391437E+02  0.00000000000E+00 0.  1.
</event>
<event>
 7    1  0.1226955E-005  0.1020653E+03  0.7561462E-02  0.1276012E+00
          2   -1    0    0  501    0  0.00000000000E+00  0.00000000000E+00  0.69017146778E+02  0.69017146778E+02  0.00000000000E+00 0.  1.
         -2   -1    0    0    0  501 -0.00000000000E+00 -0.00000000000E+00 -0.20728411267E+03  0.20728411267E+03  0.00000000000E+00 0. -1.
         23    2    1    2    0    0 -0.18893718308E+02  0.38216164875E+02 -0.11283362822E+03  0.17377128595E+03  0.12509030464E+03 0.  0.
          5    1    3    3  502    0  0.33758831547E+02 -0.29095414417E+02 -0.25527656415E+02  0.51529947502E+02  0.41800000000E+01 0. -1.
         -5    1    3    3    0  502 -0.52652549855E+02  0.67311579291E+02 -0.87305971808E+02  0.12224133845E+03  0.41800000000E+01 0. -1.
        -11    1    1    2    0    0  0.40643470214E+02 -0.19345914491E+02 -0.48105382154E+02  0.65880830829E+02  0.00000000000E+00 0. -1.
         11    1    1    2    0    0 -0.21749751906E+02 -0.18870250383E+02  0.22672044481E+02  0.36649142670E+02  0.00000000000E+00 0.  1.
</event>
<event>
 6    1  0.1226955E-005  0.1182498E+03  0.7561462E-02  0.1246013E+00
          1   -1    0    0  501    0  0.00000000000E+00  0.00000000000E+00  0.26863065418E+03  0.26863065418E+03  0.00000000000E+00 0. -1.
         -1   -1    0    0    0  501 -0.00000000000E+00 -0.00000000000E+00 -0.62723117610E+02  0.62723117610E+02  0.00000000000E+00 0.  1.
          5    1    1    2  502    0  0.67169261926E+01  0.85824758883E+02  0.10318703306E+03  0.13444717374E+03  0.41800000000E+01 0. -1.
         -5    1    1    2    0  502 -0.10999532060E+01 -0.52921510844E+02  0.97221321497E+00  0.53106626758E+02  0.41800000000E+01 0.  1.
        -11    1    1    2    0    0 -0.29185495461E+02  0.22600348868E+02  0.60044203960E+02  0.70483156452E+02  0.00000000000E+00 0.  1.
         11    1    1    2    0    0  0.23568522474E+02 -0.55503596906E+02  0.41704086333E+02  0.73316814838E+02  0.00000000000E+00 0. -1.
</event>
<event>
 7    1  0.1226955E-005  0.1315439E+03  0.7561462E-02  0.1225183E+00
          2   -1    0    0  501    0  0.00000000000E+00  0.00000000000E+00  0.38768814409E+03  0.38768814409E+03  0.00000000000E+00 0. -1.
         -2   -1    0    0    0  501 -0.00000000000E+00 -0.00000000000E+00 -0.53120665365E+02  0.53120665365E+02  0.00000000000E+00 0.  1.
         23    2    1    2    0    0 -0.37049476574E+02  0.85517818282E+02  0.19970132501E+03  0.25340348431E+03  0.12508695252E+03 0.  0.
          5    1    3    3  502    0  0.28384995006E+01 -0.27383308887E+02  0.77121926495E+02  0.81994918326E+02  0.41800000000E+01 0. -1.
         -5    1    3    3    0  502 -0.39887976075E+02  0.11290112717E+03  0.12257939851E+03  0.17140856598E+03  0.41800000000E+01 0. -1.
        -11    1    1    2    0    0  0.57215860674E+02 -0.60049163599E+02  0.13049907261E+03  0.15462717974E+03  0.00000000000E+00 0. -1.
         11    1    1    2    0    0 -0.20166384099E+02 -0.25468654683E+02  0.43670811032E+01  0.32778145408E+02  0.00000000000E+00 0.  1.
</event>
<event>
 7    1  0.1226955E-005  0.9293697E+02  0.7561462E-02  0.1295891E+00
          2   -1    0    0  501    0  0.00000000000E+00  0.00000000000E+00  0.48586243254E+03  0.48586243254E+03  0.00000000000E+00 0.  1.
         -2   -1    0    0    0  501 -0.00000000000E+00 -0.00000000000E+00 -0.31602945661E+02  0.31602945661E+02  0.00000000000E+00 0. -1.
         23    2    1    2    0    0  0.34131991908E+02 -0.47675000922E+02  0.22868158857E+03  0.26713615164E+03  0.12501422311E+03 0.  0.
          5    1    3    3  502    0  0.40359690125E+02 -0.54159727383E+02  0.24157299040E+03  0.25087280193E+03  0.41800000000E+01 0. -1.
         -5    1    3    3    0  502 -0.62276982177E+01  0.64847264603E+01 -0.12891401838E+02  0.16263349707E+02  0.41800000000E+01 0. -1.
        -11    1    1    2    0    0  0.10466643312E+02 -0.22684141434E+02  0.45202919927E+02  0.51647118649E+02  0.00000000000E+00 0.  1.
         11    1    1    2    0    0 -0.44598635220E+02  0.70359142357E+02  0.18037497839E+03  0.19868210791E+03  0.00000000000E+00 0. -1.
</event>
<event>
 7    1  0.1226955E-005  0.5213613E+02  0.7561462E-02  0.1434149E+00
          1   -1    0    0  501    0  0.00000000000E+00  0.00000000000E+00  0.11328797966E+03  0.11328797966E+03  0.00000000000E+00 0. -1.
         -1   -1    0    0    0  501 -0.00000000000E+00 -0.00000000000E+00 -0.13142023733E+03  0.13142023733E+03  0.00000000000E+00 0.  1.
         23    2    1    2    0    0 -0.16316723972E+02 -0.23750266437E+02 -0.60184365070E+02  0.14178376202E+03  0.12510062644E+03 0.  0.
          5    1    3    3  502    0  0.28310875546E+01  0.10364118711E+01 -0.94785295141E+02  0.94925306327E+02  0.41800000000E+01 0. -1.
         -5    1    3    3    0  502 -0.19147811526E+02 -0.24786678308E+02  0.34600930071E+02  0.46858455689E+02  0.41800000000E+01 0. -1.
        -11    1    1    2    0    0 -0.18225409706E+02 -0.86373978871E+01  0.50903333033E+02  0.54753260314E+02  0.00000000000E+00 0. -1.
         11    1    1    2    0    0  0.34542133677E+02  0.32387664324E+02 -0.88512256388E+01  0.48171194657E+02  0.00000000000E+00 0.  1.
</event>
<event>
 7    1  0.1226955E-005  0.2088119E+03  0.7561462E-02  0.1142510E+00
         -1   -1    0    0    0  501 -0.00000000000E+00  0.00000000000E+00  0.16581147652E+03  0.16581147652E+03  0.00000000000E+00 0.  1.
          1   -1    0    0  501    0  0.00000000000E+00 -0.00000000000E+00 -0.47712253554E+03  0.47712253554E+03  0.00000000000E+00 0. -1.
         23    2    1    2    0    0  0.17173663797E+03  0.73411059334E+02  0.46025994965E+02  0.22945249249E+03  0.12508955849E+03 0.  0.
          5    1    3    3  502    0  0.96075146811E+02 -0.25724831506E+02  0.13133563441E+02  0.10040997799E+03  0.41800000000E+01 0.  1.
         -5    1    3    3    0  502  0.75661491160E+02  0.99135890840E+02  0.32892431524E+02  0.12904251450E+03  0.41800000000E+01 0.  1.
        -11    1    1    2    0    0 -0.47244501001E+01 -0.16014409160E+02 -0.21771562634E+01  0.16838103780E+02  0.00000000000E+00 0.  1.
         11    1    1    2    0    0 -0.16701218787E+03 -0.57396650174E+02 -0.35515989771E+03  0.39664341579E+03  0.00000000000E+00 0. -1.
</event>
<event>
 7    1  0.1226955E-005  0.1106368E+03  0.7561462E-02  0.1259395E+00
          1   -1    0    0  501    0  0.00000000000E+00  0.00000000000E+00  0.21546166757E+03  0.21546166757E+03  0.00000000000E+00 0. -1.
         -1   -1    0    0    0  501 -0.00000000000E+00 -0.00000000000E+00 -0.94915534181E+02  0.94915534181E+02  0.00000000000E+00 0.  1.
         23    2    1    2    0    0 -0.56858529370E+02 -0.62592223341E+02  0.22521210418E+02  0.15266191437E+03  0.12509107240E+03 0.  0.
          5    1    3    3  502    0 -0.86858370236E+02 -0.32469767433E+02 -0.17115172698E+02  0.94387837213E+02  0.41800000000E+01 0. -1.
         -5    1    3    3    0  502  0.29999840866E+02 -0.30122455907E+02  0.39636383116E+02  0.58274077156E+02  0.41800000000E+01 0. -1.
        -11    1    1    2    0    0  0.36403677988E+02  0.49506267241E+02  0.50900232422E+01  0.61660413588E+02  0.00000000000E+00 0.  1.
         11    1    1    2    0    0  0.20454851382E+02  0.13085956100E+02  0.92934899726E+02  0.96054873791E+02  0.00000000000E+00 0. -1.
</event>
<event>
 7    1  0.1226955E-005  0.8150334E+02  0.7561462E-02  0.1324839E+00
          2   -1    0    0  501    0  0.00000000000E+00  0.00000000000E+00  0.10473878437E+03  0.10473878437E+03  0.00000000000E+00 0. -1.
         -2   -1    0    0    0  501 -0.00000000000E+00 -0.00000000000E+00 -0.12903674342E+03  0.12903674342E+03  0.00000000000E+00 0.  1.
         23    2    1    2    0    0 -0.40984781509E+02 -0.44109091368E+02 -0.14004124592E+02  0.13953197425E+03  0.12509073537E+03 0.  0.
          5    1    3    3  502    0  0.17792917145E+02 -0.31067353829E+02  0.43278802662E+02  0.56323134983E+02  0.41800000000E+01 0. -1.
         -5    1    3    3    0  502 -0.58777698654E+02 -0.13041737539E+02 -0.57282927253E+02  0.83208839265E+02  0.41800000000E+01 0. -1.
        -11    1    1    2    0    0  0.18437967498E+01  0.21153384353E+02 -0.36218538687E+02  0.41983899303E+02  0.00000000000E+00 0.  1.
         11    1    1    2    0    0  0.39140984759E+02  0.22955707015E+02  0.25924704222E+02  0.52259654241E+02  0.00000000000E+00 0. -1.
</event>
<event>
 7    1  0.1226955E-005  0.1060211E+03  0.7561462E-02  0.1268121E+00
         -2   -1    0    0    0  501 -0.00000000000E+00  0.00000000000E+00  0.12671316627E+03  0.12671316627E+03  0.00000000000E+00 0.  1.
          2   -1    0    0  501    0  0.00000000000E+00 -0.00000000000E+00 -0.12013087897E+03  0.12013087897E+03  0.00000000000E+00 0. -1.
         23    2    1    2    0    0  0.27601871013E+02 -0.45222423245E+02  0.27120205282E+02  0.13852575910E+03  0.12508776740E+03 0.  0.
          5    1    3    3  502    0 -0.26756199401E+02 -0.46445902354E+02  0.55312842320E+02  0.77136884675E+02  0.41800000000E+01 0.  1.
         -5    1    3    3    0  502  0.54358070414E+02  0.12234791087E+01 -0.28192637038E+02  0.61388874427E+02  0.41800000000E+01 0.  1.
        -11    1    1    2    0    0  0.28757554515E+02  0.36888421856E+02  0.25563076413E+01  0.46843220614E+02  0.00000000000E+00 0.  1.
         11    1    1    2    0    0 -0.56359425529E+02  0.83340013890E+01 -0.23094225622E+02  0.61475065532E+02  0.00000000000E+00 0. -1.
</event>
<event>
 7    1  0.1226955E-005  0.9523658E+02  0.7561462E-02  0.1290644E+00
         -2   -1    0    0    0  501 -0.00000000000E+00  0.00000000000E+00  0.46558836012E+02  0.46558836012E+02  0.00000000000E+00 0.  1.
          2   -1    0    0  501    0  0.00000000000E+00 -0.00000000000E+00 -0.34996723912E+03  0.34996723912E+03  0.00000000000E+00 0. -1.
         23    2    1    2    0    0  0.12169262767E+02 -0.27644055237E+02 -0.74018579663E+02  0.14846021012E+03  0.12509755836E+03 0.  0.
          5    1    3    3  502    0  0.65097723729E+02  0.62407409821E+01 -0.41640687779E+02  0.77640709434E+02  0.41800000000E+01 0. -1.
         -5    1    3    3    0  502 -0.52928460962E+02 -0.33884796219E+02 -0.32377891883E+02  0.70819500686E+02  0.41800000000E+01 0. -1.
        -11    1    1    2    0    0  0.94371854112E+01  0.37167329885E+02 -0.21889160354E+03  0.22222512230E+03  0.00000000000E+00 0.  1.
         11    1    1    2    0    0 -0.21606448178E+02 -0.95232746484E+01 -0.10498219906E+02  0.25840742715E+02  0.00000000000E+00 0. -1.
</event>
<event>
 7    1  0.1226955E-005  0.1506595E+03  0.7561462E-02  0.1199665E+00
          3   -1    0    0  501    0  0.00000000000E+00  0.00000000000E+00  0.12122634797E+03  0.12122634797E+03  0.00000000000E+00 0. -1.
         -3   -1    0    0    0  501 -0.00000000000E+00 -0.00000000000E+00 -0.29983137159E+03  0.29983137159E+03  0.00000000000E+00 0.  1.
         23    2    1    2    0    0  0.70974074806E+02 -0.11615730993E+03 -0.17855554500E+03  0.25701385785E+03  0.12507677856E+03 0.  0.
          5    1    3    3  502    0  0.19586570175E+02  0.58415659168E+01 -0.10183934627E+03  0.10395423258E+03  0.41800000000E+01 0.  1.
         -5    1    3    3    0  502  0.51387504630E+02 -0.12199887585E+03 -0.76716198730E+02  0.15305962527E+03  0.41800000000E+01 0.  1.
        -11    1    1    2    0    0 -0.39365118852E+02  0.15160672502E+02  0.32580106042E+02  0.53300299086E+02  0.00000000000E+00 0.  1.
         11    1    1    2    0    0 -0.31608955953E+02  0.10099663743E+03 -0.32629584664E+02  0.11074356263E+03  0.00000000000E+00 0. -1.
</event>
<event>
 7    1  0.1226955E-005  0.1216607E+03  0.7561462E-02  0.1240382E+00
         -2   -1    0    0    0  501 -0.00000000000E+00  0.00000000000E+00  0.10921026795E+03  0.10921026795E+03  0.00000000000E+00 0.  1.
          2   -1    0    0  501    0  0.00000000000E+00 -0.00000000000E+00 -0.15629114569E+03  0.15629114569E+03  0.00000000000E+00 0. -1.
         23    2    1    2    0    0  0.34863187317E+02 -0.44946151023E+02  0.20153703548E+02  0.13888654701E+03  0.12509077845E+03 0.  0.
          5    1    3    3  502    0 -0.43262065624E+02  0.62597813730E+01  0.63567076380E+01  0.44369711706E+02  0.41800000000E+01 0.  1.
         -5    1    3    3    0  502  0.78125252942E+02 -0.51205932396E+02  0.13796995910E+02  0.94516835304E+02  0.41800000000E+01 0.  1.
        -11    1    1    2    0    0  0.35910950073E+00  0.65249105816E+02 -0.51088781213E+02  0.82871215360E+02  0.00000000000E+00 0.  1.
         11    1    1    2    0    0 -0.35222296818E+02 -0.20302954793E+02 -0.16145800073E+02  0.43743651270E+02  0.00000000000E+00 0. -1.
</event>
<event>
 7    1  0.1226955E-005  0.8771541E+02  0.7561462E-02  0.1308480E+00
          2   -1    0    0  501    0  0.00000000000E+00  0.00000000000E+00  0.44544367740E+03  0.44544367740E+03  0.00000000000E+00 0.  1.
         -2   -1    0    0    0  501 -0.00000000000E+00 -0.00000000000E+00 -0.27346027041E+02  0.27346027041E+02  0.00000000000E+00 0. -1.
         23    2    1    2    0    0  0.14007774623E+02  0.74564362710E+01  0.20958479593E+03  0.24460317550E+03  0.12511239183E+03 0.  0.
          5    1    3    3  502    0 -0.11329504776E+02  0.40691982812E+02  0.19587552757E+03  0.20042177986E+03  0.41800000000E+01 0. -1.
         -5    1    3    3    0  502  0.25337279399E+02 -0.33235546541E+02  0.13709268357E+02  0.44181395633E+02  0.41800000000E+01 0. -1.
        -11    1    1    2    0    0  0.21493671599E+02  0.31591632989E+02  0.10969562478E+03  0.11615997283E+03  0.00000000000E+00 0.  1.
         11    1    1    2    0    0 -0.35501446222E+02 -0.39048069260E+02  0.98817229662E+02  0.11202655611E+03  0.00000000000E+00 0. -1.
</event>
<event>
 7    1  0.1226955E-005  0.9925007E+02  0.7561462E-02  0.1281881E+00
         -1   -1    0    0    0  501 -0.00000000000E+00  0.00000000000E+00  0.34104209258E+02  0.34104209258E+02  0.00000000000E+00 0.  1.
          1   -1    0    0  501    0  0.00000000000E+00 -0.00000000000E+00 -0.56560089495E+03  0.56560089495E+03  0.00000000000E+00 0. -1.
         23    2    1    2    0    0 -0.55049951240E+02  0.61746546026E+02 -0.22299301226E+03  0.26873081377E+03  0.12508890307E+03 0.  0.
          5    1    3    3  502    0 -0.65246919097E+02  0.72504995054E+02 -0.23142287511E+03  0.25117355411E+03  0.41800000000E+01 0. -1.
         -5    1    3    3    0  502  0.10196967857E+02 -0.10758449028E+02  0.84298628496E+01  0.17557259656E+02  0.41800000000E+01 0. -1.
        -11    1    1    2    0    0  0.20236332556E+02 -0.87189343521E+01 -0.73741222834E+01  0.23235891440E+02  0.00000000000E+00 0.  1.
         11    1    1    2    0    0  0.34813618684E+02 -0.53027611674E+02 -0.30112955115E+03  0.30773839900E+03  0.00000000000E+00 0. -1.
</event>
<event>
 7    1  0.1226955E-005  0.1378656E+03  0.7561462E-02  0.1216230E+00
          3   -1    0    0  501    0  0.00000000000E+00  0.00000000000E+00  0.67813218994E+02  0.67813218994E+02  0.00000000000E+00 0. -1.
         -3   -1    0    0    0  501 -0.00000000000E+00 -0.00000000000E+00 -0.36978745480E+03  0.36978745480E+03  0.00000000000E+00 0.  1.
         23    2    1    2    0    0 -0.53382592969E+02 -0.83230356155E+02 -0.24533343687E+03  0.29259558468E+03  0.12508671995E+03 0.  0.
          5    1    3    3  502    0  0.14578257593E+02 -0.74253098126E+02 -0.65766847191E+02  0.10034340419E+03  0.41800000000E+01 0.  1.
         -5    1    3    3    0  502 -0.67960850562E+02 -0.89772580291E+01 -0.17956658968E+03  0.19225218048E+03  0.41800000000E+01 0.  1.
        -11    1    1    2    0    0  0.35786018925E+02  0.10045753219E+03 -0.35046203569E+02  0.11225235547E+03  0.00000000000E+00 0. -1.
         11    1    1    2    0    0  0.17596574044E+02 -0.17227176036E+02 -0.21594595365E+02  0.32752733645E+02  0.00000000000E+00 0.  1.
</event>
<event>
 7    1  0.1226955E-005  0.7452981E+02  0.7561462E-02  0.1345333E+00
          2   -1    0    0  501    0  0.00000000000E+00  0.00000000000E+00  0.16919729326E+03  0.16919729326E+03  0.00000000000E+00 0. -1.
         -2   -1    0    0    0  501 -0.00000000000E+00 -0.00000000000E+00 -0.14011936126E+03  0.14011936126E+03  0.00000000000E+00 0.  1.
         23    2    1    2    0    0  0.17850438368E+02  0.52413287563E+02 -0.78269757473E+02  0.15760465343E+03  0.12508909218E+03 0.  0.
          5    1    3    3  502    0 -0.31226920643E+01  0.31859575580E+02 -0.10972156313E+03  0.11437253856E+03  0.41800000000E+01 0.  1.
         -5    1    3    3    0  502  0.20973130432E+02  0.20553711983E+02  0.31451805656E+02  0.43232114862E+02  0.41800000000E+01 0.  1.
        -11    1    1    2    0    0  0.21314274058E+02  0.45556088501E+00 -0.46477265458E+01  0.21819880302E+02  0.00000000000E+00 0.  1.
         11    1    1    2    0    0 -0.39164712426E+02 -0.52868848448E+02  0.11199541602E+03  0.12989212080E+03  0.00000000000E+00 0. -1.
</event>
<event>
 7    1  0.1226955E-005  0.1202042E+03  0.7561462E-02  0.1242761E+00
          1   -1    0    0  501    0  0.00000000000E+00  0.00000000000E+00  0.85069132788E+02  0.85069132788E+02  0.00000000000E+00 0. -1.
         -1   -1    0    0    0  501 -0.00000000000E+00 -0.00000000000E+00 -0.30991614889E+03  0.30991614889E+03  0.00000000000E+00 0.  1.
         23    2    1    2    0    0  0.62222216651E+02 -0.13018471492E+02 -0.24468951290E+03  0.28206696284E+03  0.12509088281E+03 0.  0.
          5    1    3    3  502    0  0.43819699874E+02  0.54000808409E+02 -0.10538583526E+03  0.12633249811E+03  0.41800000000E+01 0. -1.
         -5    1    3    3    0  502  0.18402516776E+02 -0.67019279901E+02 -0.13930367764E+03  0.15573446473E+03  0.41800000000E+01 0. -1.
        -11    1    1    2    0    0  0.26828940875E+01  0.33072829274E+02 -0.15180185640E+02  0.36489011948E+02  0.00000000000E+00 0.  1.
         11    1    1    2    0    0 -0.64905110738E+02 -0.20054357782E+02  0.35022682436E+02  0.76429306886E+02  0.00000000000E+00 0. -1.
</event>
<event>
 7    1  0.1226955E-005  0.1484546E+03  0.7561462E-02  0.1202385E+00
          3   -1    0    0  501    0  0.00000000000E+00  0.00000000000E+00  0.43191649986E+03  0.43191649986E+03  0.00000000000E+00 0. -1.
         -3   -1    0    0    0  501 -0.00000000000E+00 -0.00000000000E+00 -0.73612180577E+02  0.73612180577E+02  0.00000000000E+00 0.  1.
         23    2    1    2    0    0 -0.13888703209E+02  0.14090001473E+03  0.19958651970E+03  0.27482090495E+03  0.12508413458E+03 0.  0.
          5    1    3    3  502    0 -0.72719100359E+01  0.82574259093E+02  0.19938671944E+03  0.21597204734E+03  0.41800000000E+01 0. -1.
         -5    1    3    3    0  502 -0.66167931732E+01  0.58325755638E+02  0.19980026018E+00  0.58848857616E+02  0.41800000000E+01 0. -1.
        -11    1    1    2    0    0  0.33546512199E+02 -0.39725956544E+02  0.15494142030E+02  0.54254848090E+02  0.00000000000E+00 0.  1.
         11    1    1    2    0    0 -0.19657808990E+02 -0.10117405819E+03  0.14322365755E+03  0.17645292740E+03  0.00000000000E+00 0. -1.
</event>
<event>
 7    1  0.1226955E-005  0.1168003E+03  0.7561462E-02  0.1248471E+00
         -2   -1    0    0    0  501 -0.00000000000E+00  0.00000000000E+00  0.93707481299E+02  0.93707481299E+02  0.00000000000E+00 0.  1.
          2   -1    0    0  501    0  0.00000000000E+00 -0.00000000000E+00 -0.20161426356E+03  0.20161426356E+03  0.00000000000E+00 0. -1.
         23    2    1    2    0    0  0.13047706051E+02  0.82783048809E+02 -0.31428636743E+02  0.15381412286E+03  0.12509096442E+03 0.  0.
          5    1    3    3  502    0 -0.26686123787E+02  0.89650857118E+02  0.12008492123E+02  0.94398631705E+02  0.41800000000E+01 0. -1.
         -5    1    3    3    0  502  0.39733829838E+02 -0.68678083090E+01 -0.43437128866E+02  0.59415491151E+02  0.41800000000E+01 0. -1.
        -11    1    1    2    0    0 -0.25321379050E+02 -0.83381574655E+02 -0.28050138244E+02  0.91544904197E+02  0.00000000000E+00 0.  1.
         11    1    1    2    0    0  0.12273672999E+02  0.59852584622E+00 -0.48428007272E+02  0.49962717805E+02  0.00000000000E+00 0. -1.
</event>
<event>
 7    1  0.1226955E-005  0.1779422E+03  0.7561462E-02  0.1169810E+00
         -2   -1    0    0    0  501 -0.00000000000E+00  0.00000000000E+00  0.11796692089E+03  0.11796692089E+03  0.00000000000E+00 0.  1.
          2   -1    0    0  501    0  0.00000000000E+00 -0.00000000000E+00 -0.37356396106E+03  0.37356396106E+03  0.00000000000E+00 0. -1.
         23    2    1    2    0    0  0.15948173776E+03 -0.53291400204E+02 -0.61836562117E+02  0.21850845578E+03  0.12509111406E+03 0.  0.
          5    1    3    3  502    0  0.53624911576E+02 -0.27596119540E+02 -0.87656417599E+02  0.10648143923E+03  0.41800000000E+01 0. -1.
         -5    1    3    3    0  502  0.10585682619E+03 -0.25695280664E+02  0.25819855482E+02  0.11202701655E+03  0.41800000000E+01 0. -1.
        -11    1    1    2    0    0 -0.80181961480E+02 -0.15231528367E+02 -0.11894891848E+03  0.14425668654E+03  0.00000000000E+00 0. -1.
         11    1    1    2    0    0 -0.79299776283E+02  0.68522928571E+02 -0.74811559564E+02  0.12876573963E+03  0.00000000000E+00 0.  1.
</event>
<event>
 7    1  0.1226955E-005  0.9736447E+02  0.7561462E-02  0.1285938E+00
          2   -1    0    0  501    0  0.00000000000E+00  0.00000000000E+00  0.24526182328E+03  0.24526182328E+03  0.00000000000E+00 0.  1.
         -2   -1    0    0    0  501 -0.00000000000E+00 -0.00000000000E+00 -0.13357025663E+03  0.13357025663E+03  0.00000000000E+00 0. -1.
         23    2    1    2    0    0  0.12734547061E+02 -0.72801175135E+02 -0.70767783421E+02  0.16161821818E+03  0.12510071737E+03 0.  0.
          5    1    3    3  502    0  0.13290030240E+02 -0.19171393126E+02 -0.98349279198E+02  0.10116432344E+03  0.41800000000E+01 0.  1.
         -5    1    3    3    0  502 -0.55548317832E+00 -0.53629782009E+02  0.27581495778E+02  0.60453894740E+02  0.41800000000E+01 0.  1.
        -11    1    1    2    0    0 -0.25725663923E+02  0.91173469044E+02  0.15565898806E+03  0.18222000935E+03  0.00000000000E+00 0.  1.
         11    1    1    2    0    0  0.12991116862E+02 -0.18372293910E+02  0.26800362010E+02  0.34993852384E+02  0.00000000000E+00 0. -1.
</event>
<event>
 7    1  0.1226955E-005  0.7340583E+02  0.7561462E-02  0.1348880E+00
         -1   -1    0    0    0  501 -0.00000000000E+00  0.00000000000E+00  0.56559238152E+02  0.56559238152E+02  0.00000000000E+00 0.  1.
          1   -1    0    0  501    0  0.00000000000E+00 -0.00000000000E+00 -0.27357645208E+03  0.27357645208E+03  0.00000000000E+00 0. -1.
         23    2    1    2    0    0 -0.28760249996E+02  0.18975706364E+02 -0.13696244528E+03  0.18866098171E+03  0.12508806974E+03 0.  0.
          5    1    3    3  502    0 -0.84526604234E+01 -0.20007872555E+02  0.17378032405E+02  0.28128825832E+02  0.41800000000E+01 0. -1.
         -5    1    3    3    0  502 -0.20307589573E+02  0.38983578920E+02 -0.15434047768E+03  0.16053215588E+03  0.41800000000E+01 0. -1.
        -11    1    1    2    0    0 -0.15501238647E+01 -0.42278025972E+02  0.10145841288E+02  0.43506004867E+02  0.00000000000E+00 0.  1.
         11    1    1    2    0    0  0.30310373861E+02  0.23302319607E+02 -0.90200609939E+02  0.97968703656E+02  0.00000000000E+00 0. -1.
</event>
<event>
 7    1  0.1226955E-005  0.1018988E+03  0.7561462E-02  0.1276353E+00
          2   -1    0    0  501    0  0.00000000000E+00  0.00000000000E+00  0.95899237494E+03  0.95899237494E+03  0.00000000000E+00 0. -1.
         -2   -1    0    0    0  501 -0.00000000000E+00 -0.00000000000E+00 -0.16267395409E+02  0.16267395409E+02  0.00000000000E+00 0.  1.
         23    2    1    2    0    0 -0.27418868090E+02  0.54719920601E+02  0.56941526550E+03  0.58619752247E+03  0.12509087389E+03 0.  0.
          5    1    3    3  502    0 -0.67308339193E+02  0.30473094238E+02  0.47564103220E+03  0.48136356936E+03  0.41800000000E+01 0.  1.
         -5    1    3    3    0  502  0.39889471102E+02  0.24246826363E+02  0.93774233296E+02  0.10483395311E+03  0.41800000000E+01 0.  1.
        -11    1    1    2    0    0 -0.17441833901E+02 -0.15918130967E+02  0.20406980403E+02  0.31209763096E+02  0.00000000000E+00 0.  1.
         11    1    1    2    0    0  0.44860701991E+02 -0.38801789634E+02  0.35290273363E+03  0.35785248479E+03  0.00000000000E+00 0. -1.
</event>
<event>
 7    1  0.1274556E-005  0.1100546E+03  0.7561462E-02  0.1260469E+00
         -1   -1    0    0    0  501 -0.00000000000E+00  0.00000000000E+00  0.12362940289E+02  0.12362940289E+02  0.00000000000E+00 0. -1.
          1   -1    0    0  501    0  0.00000000000E+00 -0.00000000000E+00 -0.13915630890E+04  0.13915630890E+04  0.00000000000E+00 0.  1.
         23    2    1    2    0    0  0.67292040902E+02 -0.25728762287E+02 -0.70096282323E+03  0.71567272048E+03  0.12509346630E+03 0.  0.
          5    1    3    3  502    0  0.28052411351E+02 -0.49798277729E+02 -0.12115583224E+03  0.13402617033E+03  0.41800000000E+01 0. -1.
         -5    1    3    3    0  502  0.39239629551E+02  0.24069515442E+02 -0.57980699099E+03  0.58164655015E+03  0.41800000000E+01 0. -1.
        -11    1    1    2    0    0  0.19598882043E+02 -0.10734506101E+02 -0.10869557001E+03  0.11096879174E+03  0.00000000000E+00 0.  1.
         11    1    1    2    0    0 -0.86890922945E+02  0.36463268388E+02 -0.56954175546E+03  0.57728451706E+03  0.00000000000E+00 0. -1.
</event>
<event>
 7    1  0.1226955E-005  0.1342332E+03  0.7561462E-02  0.1221306E+00
          2   -1    0    0  501    0  0.00000000000E+00  0.00000000000E+00  0.21709998227E+03  0.21709998227E+03  0.00000000000E+00 0. -1.
         -2   -1    0    0    0  501 -0.00000000000E+00 -0.00000000000E+00 -0.10261014269E+03  0.10261014269E+03  0.00000000000E+00 0.  1.
         23    2    1    2    0    0 -0.42759307169E+02 -0.83355329991E+02  0.38124208392E+02  0.16086272242E+03  0.12508753260E+03 0.  0.
          5    1    3    3  502    0  0.23773965863E+02  0.64290764573E+01 -0.22534997011E+02  0.33642725324E+02  0.41800000000E+01 0. -1.
         -5    1    3    3    0  502 -0.66533273032E+02 -0.89784406449E+02  0.60659205403E+02  0.12721999710E+03  0.41800000000E+01 0. -1.
        -11    1    1    2    0    0  0.60291283626E+02  0.16450897476E+02  0.62348310985E+02  0.88277872605E+02  0.00000000000E+00 0. -1.
         11    1    1    2    0    0 -0.17531976457E+02  0.66904432515E+02  0.14017320201E+02  0.70569529928E+02  0.00000000000E+00 0.  1.
</event>
<event>
 7    1  0.1226955E-005  0.2045072E+03  0.7561462E-02  0.1145991E+00
          1   -1    0    0  501    0  0.00000000000E+00  0.00000000000E+00  0.19473469061E+04  0.19473469061E+04  0.00000000000E+00 0. -1.
         -1   -1    0    0    0  501 -0.00000000000E+00 -0.00000000000E+00 -0.22457244879E+02  0.22457244879E+02  0.00000000000E+00 0.  1.
         23    2    1    2    0    0 -0.14371131083E+03  0.96200941963E+02  0.80463028238E+03  0.83245900126E+03  0.12510209974E+03 0.  0.
          5    1    3    3  502    0  0.93067529749E+01  0.52648480156E+02  0.23258105432E+03  0.23868367632E+03  0.41800000000E+01 0. -1.
         -5    1    3    3    0  502 -0.15301806381E+03  0.43552461807E+02  0.57204922806E+03  0.59377532493E+03  0.41800000000E+01 0. -1.
        -11    1    1    2    0    0  0.21097634018E+02 -0.66930913479E+02  0.42313936923E+03  0.42891932008E+03  0.00000000000E+00 0. -1.
         11    1    1    2    0    0  0.12261367682E+03 -0.29270028484E+02  0.69712000966E+03  0.70842582969E+03  0.00000000000E+00 0.  1.
</event>
<event>
 7    1  0.1226955E-005  0.8515004E+02  0.7561462E-02  0.1315041E+00
          2   -1    0    0  501    0  0.00000000000E+00  0.00000000000E+00  0.39355881682E+03  0.39355881682E+03  0.00000000000E+00 0. -1.
         -2   -1    0    0    0  501 -0.00000000000E+00 -0.00000000000E+00 -0.33526742279E+02  0.33526742279E+02  0.00000000000E+00 0.  1.
         23    2    1    2    0    0  0.19890144881E+02  0.32776691363E+02  0.21222513742E+03  0.24931161431E+03  0.12508734036E+03 0.  0.
          5    1    3    3  502    0 -0.29334903619E+02 -0.56678162316E+01  0.17262017705E+03  0.17523657904E+03  0.41800000000E+01 0. -1.
         -5    1    3    3    0  502  0.49225048500E+02  0.38444507594E+02  0.39604960372E+02  0.74075035269E+02  0.41800000000E+01 0. -1.
        -11    1    1    2    0    0  0.20054827727E+02  0.69226261255E+01  0.10476604450E+03  0.10689267023E+03  0.00000000000E+00 0. -1.
         11    1    1    2    0    0 -0.39944972608E+02 -0.39699317488E+02  0.43040892618E+02  0.70881274558E+02  0.00000000000E+00 0.  1.
</event>
<event>
 7    1  0.1226955E-005  0.1168209E+03  0.7561462E-02  0.1248436E+00
          1   -1    0    0  501    0  0.00000000000E+00  0.00000000000E+00  0.57950668450E+02  0.57950668450E+02  0.00000000000E+00 0. -1.
         -1   -1    0    0    0  501 -0.00000000000E+00 -0.00000000000E+00 -0.35770344150E+03  0.35770344150E+03  0.00000000000E+00 0.  1.
         23    2    1    2    0    0 -0.11093946486E+02  0.49519833920E+02 -0.28097533935E+03  0.31003893961E+03  0.12083754858E+03 0.  0.
          5    1    3    3  502    0 -0.90024907376E+01 -0.39711527277E+02 -0.73256425345E+02  0.83916783140E+02  0.41800000000E+01 0. -1.
         -5    1    3    3    0  502 -0.20914557486E+01  0.89231361198E+02 -0.20771891401E+03  0.22612215647E+03  0.41800000000E+01 0.  1.
        -11    1    1    2    0    0 -0.37368987547E+02 -0.38502896403E+02 -0.15299871239E+02  0.55794267820E+02  0.00000000000E+00 0. -1.
         11    1    1    2    0    0  0.48462934033E+02 -0.11016937518E+02 -0.34775624568E+01  0.49820902521E+02  0.00000000000E+00 0.  1.
</event>
<event>
 7    1  0.1226955E-005  0.1239357E+03  0.7561462E-02  0.1236742E+00
         -2   -1    0    0    0  501 -0.00000000000E+00  0.00000000000E+00  0.30852153680E+02  0.30852153680E+02  0.00000000000E+00 0.  1.
          2   -1    0    0  501    0  0.00000000000E+00 -0.00000000000E+00 -0.61746239420E+03  0.61746239420E+03  0.00000000000E+00 0. -1.
         23    2    1    2    0    0  0.83298382704E+02  0.15443777701E+02 -0.32005446660E+03  0.35391964334E+03  0.12508845479E+03 0.  0.
          5    1    3    3  502    0  0.94371629683E+02 -0.30988445936E+02 -0.25002801474E+03  0.26906833487E+03  0.41800000000E+01 0. -1.
         -5    1    3    3    0  502 -0.11073246980E+02  0.46432223637E+02 -0.70026451853E+02  0.84851308473E+02  0.41800000000E+01 0. -1.
        -11    1    1    2    0    0 -0.59291163194E+02 -0.35628237551E+02 -0.82390738665E+02  0.10757809796E+03  0.00000000000E+00 0.  1.
         11    1    1    2    0    0 -0.24007219509E+02  0.20184459850E+02 -0.18416503526E+03  0.18681680658E+03  0.00000000000E+00 0. -1.
</event>
<event>
 7    1  0.1226955E-005  0.1195343E+03  0.7561462E-02  0.1243867E+00
         -2   -1    0    0    0  501 -0.00000000000E+00  0.00000000000E+00  0.27236566817E+03  0.27236566817E+03  0.00000000000E+00 0.  1.
          2   -1    0    0  501    0  0.00000000000E+00 -0.00000000000E+00 -0.95009457495E+02  0.95009457495E+02  0.00000000000E+00 0. -1.
         23    2    1    2    0    0 -0.78046235590E+02  0.57021694835E+02  0.17456959301E+03  0.23550913043E+03  0.12508924471E+03 0.  0.
          5    1    3    3  502    0 -0.60947410924E+01  0.34247153571E+02 -0.96884547813E+01  0.36350405125E+02  0.41800000000E+01 0. -1.
         -5    1    3    3    0  502 -0.71951494497E+02  0.22774541264E+02  0.18425804779E+03  0.19915872530E+03  0.41800000000E+01 0. -1.
        -11    1    1    2    0    0  0.18002030436E+02 -0.65390279146E+02 -0.13363729621E+02  0.69127063991E+02  0.00000000000E+00 0. -1.
         11    1    1    2    0    0  0.60044205154E+02  0.83685843113E+01  0.16150347286E+02  0.62738931242E+02  0.00000000000E+00 0.  1.
</event>
<event>
 7    1  0.1226955E-005  0.1063692E+03  0.7561462E-02  0.1267445E+00
          2   -1    0    0  501    0  0.00000000000E+00  0.00000000000E+00  0.17732457530E+03  0.17732457530E+03  0.00000000000E+00 0. -1.
         -2   -1    0    0    0  501 -0.00000000000E+00 -0.00000000000E+00 -0.88816092064E+02  0.88816092064E+02  0.00000000000E+00 0.  1.
         23    2    1    2    0    0  0.13200649657E+02 -0.55826679755E+02  0.22160592544E+02  0.13938982687E+03  0.12509019406E+03 0.  0.
          5    1    3    3  502    0 -0.50941909139E+02 -0.37479598497E+02  0.33339772065E+02  0.71615719026E+02  0.41800000000E+01 0. -1.
         -5    1    3    3    0  502  0.64142558796E+02 -0.18347081258E+02 -0.11179179520E+02  0.67774107846E+02  0.41800000000E+01 0. -1.
        -11    1    1    2    0    0  0.23603161370E+02  0.26198338847E+02 -0.10277260461E+02  0.36729882488E+02  0.00000000000E+00 0. -1.
         11    1    1    2    0    0 -0.36803811027E+02  0.29628340908E+02  0.76625151155E+02  0.90020958008E+02  0.00000000000E+00 0.  1.
</event>
<event>
 7    1  0.1226955E-005  0.9824063E+02  0.7561462E-02  0.1284040E+00
         -2   -1    0    0    0  501 -0.00000000000E+00  0.00000000000E+00  0.46743415142E+02  0.46743415142E+02  0.00000000000E+00 0.  1.
          2   -1    0    0  501    0  0.00000000000E+00 -0.00000000000E+00 -0.33278333730E+03  0.33278333730E+03  0.00000000000E+00 0. -1.
         23    2    1    2    0    0 -0.87756586154E+01 -0.57915133873E+02 -0.13895082685E+03  0.19592431428E+03  0.12509128558E+03 0.  0.
          5    1    3    3  502    0 -0.47679155824E+02  0.16186146688E+02 -0.31039151828E+02  0.59297509146E+02  0.41800000000E+01 0.  1.
         -5    1    3    3    0  502  0.38903497209E+02 -0.74101280561E+02 -0.10791167502E+03  0.13662680513E+03  0.41800000000E+01 0.  1.
        -11    1    1    2    0    0 -0.63443157244E+01  0.27123986726E+02 -0.14667501612E+03  0.14929675600E+03  0.00000000000E+00 0. -1.
         11    1    1    2    0    0  0.15119974340E+02  0.30791147148E+02 -0.41407918462E+00  0.34305682157E+02  0.00000000000E+00 0.  1.
</event>
<event>
 7    1  0.1226955E-005  0.1366769E+03  0.7561462E-02  0.1217872E+00
         -2   -1    0    0    0  501 -0.00000000000E+00  0.00000000000E+00  0.17915910214E+03  0.17915910214E+03  0.00000000000E+00 0.  1.
          2   -1    0    0  501    0  0.00000000000E+00 -0.00000000000E+00 -0.14971119438E+03  0.14971119438E+03  0.00000000000E+00 0. -1.
         23    2    1    2    0    0 -0.32259011786E+02 -0.10731568701E+03  0.61802725248E+02  0.17897082539E+03  0.12511466331E+03 0.  0.
          5    1    3    3  502    0 -0.74115911974E+02 -0.63538369761E+02  0.83283256342E+01  0.98066947783E+02  0.41800000000E+01 0.  1.
         -5    1    3    3    0  502  0.41856900188E+02 -0.43777317244E+02  0.53474399614E+02  0.80903877611E+02  0.41800000000E+01 0.  1.
        -11    1    1    2    0    0  0.17701228047E+02  0.92424707777E+02  0.17637585315E+02  0.95743117234E+02  0.00000000000E+00 0.  1.
         11    1    1    2    0    0  0.14557783739E+02  0.14890979228E+02 -0.49992402793E+02  0.54156353892E+02  0.00000000000E+00 0. -1.
</event>
<event>
 7    1  0.1226955E-005  0.9561970E+02  0.7561462E-02  0.1289786E+00
          1   -1    0    0  501    0  0.00000000000E+00  0.00000000000E+00  0.80145704462E+02  0.80145704462E+02  0.00000000000E+00 0. -1.
         -1   -1    0    0    0  501 -0.00000000000E+00 -0.00000000000E+00 -0.15719785256E+03  0.15719785256E+03  0.00000000000E+00 0.  1.
         23    2    1    2    0    0 -0.10069660331E+01  0.17076199472E+02 -0.64078047215E+02  0.14158027065E+03  0.12508543613E+03 0.  0.
          5    1    3    3  502    0  0.30689064886E+02  0.46970597830E+02 -0.77526743604E+02  0.95791044143E+02  0.41800000000E+01 0. -1.
         -5    1    3    3    0  502 -0.31696030919E+02 -0.29894398359E+02  0.13448696389E+02  0.45789226504E+02  0.41800000000E+01 0. -1.
        -11    1    1    2    0    0 -0.34393482019E+02  0.20129044045E+02 -0.18828264386E+02  0.44074863123E+02  0.00000000000E+00 0.  1.
         11    1    1    2    0    0  0.35400448052E+02 -0.37205243517E+02  0.58541635077E+01  0.51688423248E+02  0.00000000000E+00 0. -1.
</event>
<event>
 7    1  0.1226955E-005  0.2296945E+03  0.7561462E-02  0.1126855E+00
         -2   -1    0    0    0  501 -0.00000000000E+00  0.00000000000E+00  0.97989946368E+02  0.97989946368E+02  0.00000000000E+00 0.  1.
          2   -1    0    0  501    0  0.00000000000E+00 -0.00000000000E+00 -0.62923803110E+03  0.62923803110E+03  0.00000000000E+00 0. -1.
         23    2    1    2    0    0 -0.21063036613E+03 -0.67053663728E+02 -0.22857086848E+03  0.34169252581E+03  0.12509114804E+03 0.  0.
          5    1    3    3  502    0 -0.13393340084E+03 -0.44076303401E+02 -0.56678868246E+02  0.15202250784E+03  0.41800000000E+01 0.  1.
         -5    1    3    3    0  502 -0.76696965284E+02 -0.22977360327E+02 -0.17189200024E+03  0.18967001797E+03  0.41800000000E+01 0.  1.
        -11    1    1    2    0    0  0.21715453012E+02  0.42399216669E+02 -0.49699670384E+02  0.68842659085E+02  0.00000000000E+00 0. -1.
         11    1    1    2    0    0  0.18891491312E+03  0.24654447059E+02 -0.25297754587E+03  0.31669279258E+03  0.00000000000E+00 0.  1.
</event>
<event>
 7    1  0.1226955E-005  0.1056004E+03  0.7561462E-02  0.1268941E+00
         -3   -1    0    0    0  501 -0.00000000000E+00  0.00000000000E+00  0.53698331789E+03  0.53698331789E+03  0.00000000000E+00 0.  1.
          3   -1    0    0  501    0  0.00000000000E+00 -0.00000000000E+00 -0.29244807806E+02  0.29244807806E+02  0.00000000000E+00 0. -1.
         23    2    1    2    0    0  0.60566865163E+02 -0.13880105315E+02  0.27150952427E+03  0.30533485179E+03  0.12510374683E+03 0.  0.
          5    1    3    3  502    0  0.52663103312E+02  0.27939909558E+02  0.25079484061E+03  0.25781692239E+03  0.41800000000E+01 0. -1.
         -5    1    3    3    0  502  0.79037618510E+01 -0.41820014873E+02  0.20714683663E+02  0.47517929402E+02  0.41800000000E+01 0. -1.
        -11    1    1    2    0    0  0.17333584313E+01 -0.31531572440E+02  0.93278528337E+02  0.98479076156E+02  0.00000000000E+00 0.  1.
         11    1    1    2    0    0 -0.62300223595E+02  0.45411677755E+02  0.14295045748E+03  0.16241419774E+03  0.00000000000E+00 0. -1.
</event>
<event>
 7    1  0.1226955E-005  0.2132215E+03  0.7561462E-02  0.1139040E+00
          3   -1    0    0  501    0  0.00000000000E+00  0.00000000000E+00  0.15826823388E+03  0.15826823388E+03  0.00000000000E+00 0. -1.
         -3   -1    0    0    0  501 -0.00000000000E+00 -0.00000000000E+00 -0.31575861161E+03  0.31575861161E+03  0.00000000000E+00 0.  1.
         23    2    1    2    0    0 -0.20959082496E+02 -0.19463707054E+03 -0.67949622545E+02  0.24071261461E+03  0.12248485320E+03 0.  0.
          5    1    3    3  502    0 -0.38233388222E+02 -0.34622114685E+01 -0.68003563193E+01  0.39210918495E+02  0.41800000000E+01 0. -1.
         -5    1    3    3    0  502  0.17274305726E+02 -0.19117485907E+03 -0.61149266226E+02  0.20150169612E+03  0.41800000000E+01 0. -1.
        -11    1    1    2    0    0  0.10059698885E+01  0.25066280971E+02 -0.53100641080E+02  0.58728259809E+02  0.00000000000E+00 0.  1.
         11    1    1    2    0    0  0.19953112607E+02  0.16957078957E+03 -0.36440114109E+02  0.17458597107E+03  0.00000000000E+00 0. -1.
</event>
<event>
 7    1  0.1226955E-005  0.7409352E+02  0.7561462E-02  0.1346701E+00
         -1   -1    0    0    0  501 -0.00000000000E+00  0.00000000000E+00  0.50373367816E+02  0.50373367816E+02  0.00000000000E+00 0.  1.
          1   -1    0    0  501    0  0.00000000000E+00 -0.00000000000E+00 -0.28793870717E+03  0.28793870717E+03  0.00000000000E+00 0. -1.
         23    2    1    2    0    0 -0.37127363111E+02 -0.38643796246E+02 -0.13217921635E+03  0.18971202410E+03  0.12509005865E+03 0.  0.
          5    1    3    3  502    0 -0.95272831857E+00  0.14956764712E+02  0.19396456727E+02  0.24865788455E+02  0.41800000000E+01 0.  1.
         -5    1    3    3    0  502 -0.36174634792E+02 -0.53600560958E+02 -0.15157567308E+03  0.16484623565E+03  0.41800000000E+01 0.  1.
        -11    1    1    2    0    0  0.44016770769E+02  0.20768194307E+02 -0.79704712112E+01  0.49318580829E+02  0.00000000000E+00 0.  1.
         11    1    1    2    0    0 -0.68894076579E+01  0.17875601939E+02 -0.97415651796E+02  0.99281470060E+02  0.00000000000E+00 0. -1.
</event>
<event>
 7    1  0.1226955E-005  0.1023368E+03  0.7561462E-02  0.1275457E+00
          2   -1    0    0  501    0  0.00000000000E+00  0.00000000000E+00  0.14712177924E+03  0.14712177924E+03  0.00000000000E+00 0. -1.
         -2   -1    0    0    0  501 -0.00000000000E+00 -0.00000000000E+00 -0.11486330246E+03  0.11486330246E+03  0.00000000000E+00 0.  1.
         23    2    1    2    0    0 -0.18233230816E+01 -0.28047741153E+02 -0.49595437698E+02  0.13746797473E+03  0.12509091232E+03 0.  0.
          5    1    3    3  502    0 -0.57715259139E+02 -0.33538619243E+01  0.10817926051E+01  0.57973633684E+02  0.41800000000E+01 0.  1.
         -5    1    3    3    0  502  0.55891936057E+02 -0.24693879229E+02 -0.50677230303E+02  0.79494341049E+02  0.41800000000E+01 0.  1.
        -11    1    1    2    0    0  0.29711983203E+02  0.44182418323E+02  0.24230968152E+02  0.58498101271E+02  0.00000000000E+00 0.  1.
         11    1    1    2    0    0 -0.27888660121E+02 -0.16134677170E+02  0.57622946325E+02  0.66019005702E+02  0.00000000000E+00 0. -1.
</event>
<event>
 6    1  0.1226955E-005  0.1220130E+03  0.7561462E-02  0.1239813E+00
         -2   -1    0    0    0  501 -0.00000000000E+00  0.00000000000E+00  0.64270387515E+03  0.64270387515E+03  0.00000000000E+00 0.  1.
          2   -1    0    0  501    0  0.00000000000E+00 -0.00000000000E+00 -0.36523555841E+02  0.36523555841E+02  0.00000000000E+00 0. -1.
          5    1    1    2  502    0  0.57677452052E+02  0.75074585319E+02  0.12364217959E+03  0.15578107334E+03  0.41800000000E+01 0. -1.
         -5    1    1    2    0  502 -0.45948427103E+02 -0.13356467420E+02  0.33924709677E+03  0.34263058568E+03  0.41800000000E+01 0.  1.
        -11    1    1    2    0    0 -0.31278273523E+02 -0.72459991326E+02  0.13619206223E+03  0.15740730146E+03  0.00000000000E+00 0. -1.
         11    1    1    2    0    0  0.19549248574E+02  0.10741873427E+02  0.70989807075E+01  0.23408470509E+02  0.00000000000E+00 0.  1.
</event>
<event>
 7    1  0.1226955E-005  0.2091097E+03  0.7561462E-02  0.1142273E+00
         -2   -1    0    0    0  501 -0.00000000000E+00  0.00000000000E+00  0.15122053679E+03  0.15122053679E+03  0.00000000000E+00 0.  1.
          2   -1    0    0  501    0  0.00000000000E+00 -0.00000000000E+00 -0.39517992653E+03  0.39517992653E+03  0.00000000000E+00 0. -1.
         23    2    1    2    0    0  0.13636710232E+02 -0.18695140415E+03  0.10792801518E+00  0.22535310768E+03  0.12508886487E+03 0.  0.
          5    1    3    3  502    0  0.24574753289E+02  0.57190966711E+01  0.18334812949E+02  0.31468465673E+02  0.41800000000E+01 0. -1.
         -5    1    3    3    0  502 -0.10938043057E+02 -0.19267050082E+03 -0.18226884934E+02  0.19388464201E+03  0.41800000000E+01 0. -1.
        -11    1    1    2    0    0 -0.38637419715E+02  0.15075176970E+03 -0.14523861472E+03  0.21286897725E+03  0.00000000000E+00 0.  1.
         11    1    1    2    0    0  0.25000709483E+02  0.36199634451E+02 -0.98828703028E+02  0.10817837839E+03  0.00000000000E+00 0. -1.
</event>
<event>
 6    1  0.1226955E-005  0.2366913E+03  0.7561462E-02  0.1122017E+00
          2   -1    0    0  501    0  0.00000000000E+00  0.00000000000E+00  0.23720828455E+03  0.23720828455E+03  0.00000000000E+00 0. -1.
         -2   -1    0    0    0  501 -0.00000000000E+00 -0.00000000000E+00 -0.43920898608E+03  0.43920898608E+03  0.00000000000E+00 0.  1.
          5    1    1    2  502    0 -0.19666301137E+03 -0.48122531246E+02 -0.34553231780E+02  0.20543494415E+03  0.41800000000E+01 0. -1.
         -5    1    1    2    0  502  0.16420156836E+03 -0.59158112897E+01 -0.27335763119E+03  0.31896554486E+03  0.41800000000E+01 0.  1.
        -11    1    1    2    0    0 -0.29609007572E+02  0.15061230063E+02  0.18785857097E+02  0.38163364727E+02  0.00000000000E+00 0.  1.
         11    1    1    2    0    0  0.62070450574E+02  0.38977112473E+02  0.87124304345E+02  0.11385341690E+03  0.00000000000E+00 0. -1.
</event>
<event>
 7    1  0.1226955E-005  0.8060064E+02  0.7561462E-02  0.1327356E+00
         -1   -1    0    0    0  501 -0.00000000000E+00  0.00000000000E+00  0.31075811679E+03  0.31075811679E+03  0.00000000000E+00 0.  1.
          1   -1    0    0  501    0  0.00000000000E+00 -0.00000000000E+00 -0.69836090218E+02  0.69836090218E+02  0.00000000000E+00 0. -1.
         23    2    1    2    0    0  0.49026811129E+02 -0.20674685187E+02  0.25302836922E+03  0.28723394944E+03  0.12509562446E+03 0.  0.
          5    1    3    3  502    0 -0.25629734490E+01 -0.17612736097E+02 -0.88219067289E+01  0.20299648865E+02  0.41800000000E+01 0. -1.
         -5    1    3    3    0  502  0.51589784578E+02 -0.30619490907E+01  0.26185027595E+03  0.26693430057E+03  0.41800000000E+01 0. -1.
        -11    1    1    2    0    0  0.17367214980E+02  0.17416027129E+02 -0.10829417654E+02  0.26874047776E+02  0.00000000000E+00 0. -1.
         11    1    1    2    0    0 -0.66394026109E+02  0.32586580586E+01 -0.12769250006E+01  0.66486209794E+02  0.00000000000E+00 0.  1.
</event>
<event>
 7    1  0.1226955E-005  0.1830643E+03  0.7561462E-02  0.1164870E+00
          1   -1    0    0  501    0  0.00000000000E+00  0.00000000000E+00  0.33012630182E+03  0.33012630182E+03  0.00000000000E+00 0. -1.
         -1   -1    0    0    0  501 -0.00000000000E+00 -0.00000000000E+00 -0.10733534214E+03  0.10733534214E+03  0.00000000000E+00 0.  1.
         23    2    1    2    0    0 -0.51704809831E+02  0.14163545643E+03  0.82174189522E+02  0.21244768780E+03  0.12508969882E+03 0.  0.
          5    1    3    3  502    0 -0.52924857167E+02  0.43759313975E+01  0.46130987634E+02  0.70467933855E+02  0.41800000000E+01 0. -1.
         -5    1    3    3    0  502  0.12200473361E+01  0.13725952503E+03  0.36043201888E+02  0.14197975394E+03  0.41800000000E+01 0. -1.
        -11    1    1    2    0    0 -0.21478071819E+02 -0.69614506019E+02  0.54040177775E+02  0.90707374735E+02  0.00000000000E+00 0.  1.
         11    1    1    2    0    0  0.73182881650E+02 -0.72020950410E+02  0.86576592386E+02  0.13430658142E+03  0.00000000000E+00 0. -1.
</event>
<event>
 7    1  0.1226955E-005  0.1042962E+03  0.7561462E-02  0.1271512E+00
          1   -1    0    0  501    0  0.00000000000E+00  0.00000000000E+00  0.10296789694E+03  0.10296789694E+03  0.00000000000E+00 0. -1.
         -1   -1    0    0    0  501 -0.00000000000E+00 -0.00000000000E+00 -0.13766519348E+03  0.13766519348E+03  0.00000000000E+00 0.  1.
         23    2    1    2    0    0 -0.51229849204E+02 -0.12661107945E+01 -0.15138061777E+01  0.13518745946E+03  0.12508899671E+03 0.  0.
          5    1    3    3  502    0  0.29386757173E+02 -0.15564160794E+00  0.35584313014E+02  0.46339199973E+02  0.41800000000E+01 0. -1.
         -5    1    3    3    0  502 -0.80616606377E+02 -0.11104691866E+01 -0.37098119192E+02  0.88848259483E+02  0.41800000000E+01 0. -1.
        -11    1    1    2    0    0 -0.19191241593E+02  0.17429463229E+02  0.30843051965E-01  0.25924715883E+02  0.00000000000E+00 0.  1.
         11    1    1    2    0    0  0.70421090797E+02 -0.16163352434E+02 -0.33214333414E+02  0.79520915079E+02  0.00000000000E+00 0. -1.
</event>
<event>
 7    1  0.1226955E-005  0.9888298E+02  0.7561462E-02  0.1282663E+00
          1   -1    0    0  501    0  0.00000000000E+00  0.00000000000E+00  0.20125359050E+03  0.20125359050E+03  0.00000000000E+00 0. -1.
         -1   -1    0    0    0  501 -0.00000000000E+00 -0.00000000000E+00 -0.59369931017E+02  0.59369931017E+02  0.00000000000E+00 0.  1.
         23    2    1    2    0    0  0.41510437065E+01  0.20911227691E+01  0.70285259521E+02  0.14355792038E+03  0.12508898768E+03 0.  0.
          5    1    3    3  502    0  0.57513188765E+02  0.21061083880E+02  0.60008611744E+02  0.85847784011E+02  0.41800000000E+01 0. -1.
         -5    1    3    3    0  502 -0.53362145059E+02 -0.18969961111E+02  0.10276647777E+02  0.57710136366E+02  0.41800000000E+01 0. -1.
        -11    1    1    2    0    0 -0.41844757248E+02 -0.20267544559E+01  0.72884836236E+01  0.42523092977E+02  0.00000000000E+00 0.  1.
         11    1    1    2    0    0  0.37693713541E+02 -0.64368313180E-01  0.64309916336E+02  0.74542508161E+02  0.00000000000E+00 0. -1.
</event>
<event>
 7    1  0.1226955E-005  0.2104075E+03  0.7561462E-02  0.1141244E+00
          2   -1    0    0  501    0  0.00000000000E+00  0.00000000000E+00  0.13154351395E+04  0.13154351395E+04  0.00000000000E+00 0. -1.
         -2   -1    0    0    0  501 -0.00000000000E+00 -0.00000000000E+00 -0.37174925092E+02  0.37174925092E+02  0.00000000000E+00 0.  1.
         23    2    1    2    0    0  0.14573925331E+02  0.19280904136E+03  0.64550581410E+03  0.68535645553E+03  0.12509192368E+03 0.  0.
          5    1    3    3  502    0  0.38519326549E+02  0.45385570894E+02  0.34084628331E+03  0.34603070645E+03  0.41800000000E+01 0.  1.
         -5    1    3    3    0  502 -0.23945401218E+02  0.14742347047E+03  0.30465953079E+03  0.33932574907E+03  0.41800000000E+01 0.  1.
        -11    1    1    2    0    0  0.11515032154E+02  0.47470703972E+01  0.33941355300E+02  0.36154477488E+02  0.00000000000E+00 0. -1.
         11    1    1    2    0    0 -0.26088957485E+02 -0.19755611176E+03  0.59881304497E+03  0.63109913153E+03  0.00000000000E+00 0.  1.
</event>
<event>
 7    1  0.1226955E-005  0.1154462E+03  0.7561462E-02  0.1250804E+00
          1   -1    0    0  501    0  0.00000000000E+00  0.00000000000E+00  0.83878276827E+02  0.83878276827E+02  0.00000000000E+00 0. -1.
         -1   -1    0    0    0  501 -0.00000000000E+00 -0.00000000000E+00 -0.17801478890E+03  0.17801478890E+03  0.00000000000E+00 0.  1.
         23    2    1    2    0    0  0.33313071082E+02 -0.15938930927E+02 -0.94593520057E+02  0.16111223156E+03  0.12508160095E+03 0.  0.
          5    1    3    3  502    0 -0.71045269613E-01 -0.68165602573E+02 -0.49459766039E+02  0.84322566839E+02  0.41800000000E+01 0.  1.
         -5    1    3    3    0  502  0.33384116352E+02  0.52226671647E+02 -0.45133754017E+02  0.76789664718E+02  0.41800000000E+01 0.  1.
        -11    1    1    2    0    0  0.28120972384E+02 -0.14800120381E+02 -0.35103527711E+01  0.31971162439E+02  0.00000000000E+00 0.  1.
         11    1    1    2    0    0 -0.61434043466E+02  0.30739051308E+02  0.39673607581E+01  0.68809671728E+02  0.00000000000E+00 0. -1.
</event>
<event>
 7    1  0.1226955E-005  0.2032330E+03  0.7561462E-02  0.1147040E+00
          1   -1    0    0  501    0  0.00000000000E+00  0.00000000000E+00  0.55928673615E+03  0.55928673615E+03  0.00000000000E+00 0. -1.
         -1   -1    0    0    0  501 -0.00000000000E+00 -0.00000000000E+00 -0.80601306473E+02  0.80601306473E+02  0.00000000000E+00 0.  1.
         23    2    1    2    0    0  0.75318943340E+01  0.17597707229E+03  0.17663678225E+03  0.27905925645E+03  0.12509538905E+03 0.  0.
          5    1    3    3  502    0 -0.26046012141E+02  0.17340448404E+03  0.17042601720E+03  0.24456085045E+03  0.41800000000E+01 0. -1.
         -5    1    3    3    0  502  0.33577906475E+02  0.25725882490E+01  0.62107650436E+01  0.34498405992E+02  0.41800000000E+01 0. -1.
        -11    1    1    2    0    0 -0.33214212300E+02 -0.16646240953E+03  0.25336744362E+03  0.30497209573E+03  0.00000000000E+00 0.  1.
         11    1    1    2    0    0  0.25682317966E+02 -0.95146627584E+01  0.48681203815E+02  0.55856690453E+02  0.00000000000E+00 0. -1.
</event>
<event>
 7    1  0.1226955E-005  0.7918213E+02  0.7561462E-02  0.1331389E+00
          1   -1    0    0  501    0  0.00000000000E+00  0.00000000000E+00  0.64078590808E+02  0.64078590808E+02  0.00000000000E+00 0. -1.
         -1   -1    0    0    0  501 -0.00000000000E+00 -0.00000000000E+00 -0.19886699271E+03  0.19886699271E+03  0.00000000000E+00 0.  1.
         23    2    1    2    0    0  0.14106080422E+02  0.51270416983E+01 -0.11153093481E+03  0.16826208626E+03  0.12509081577E+03 0.  0.
          5    1    3    3  502    0 -0.33220481022E+02  0.21497224684E+02  0.61863040114E+01  0.40267527684E+02  0.41800000000E+01 0. -1.
         -5    1    3    3    0  502  0.47326561444E+02 -0.16370182986E+02 -0.11771723882E+03  0.12799455857E+03  0.41800000000E+01 0. -1.
        -11    1    1    2    0    0  0.21004975294E+02  0.16826307960E+02 -0.41476608598E+02  0.49443328037E+02  0.00000000000E+00 0.  1.
         11    1    1    2    0    0 -0.35111055716E+02 -0.21953349659E+02  0.18219141500E+02  0.45240169227E+02  0.00000000000E+00 0. -1.
</event>
<event>
 7    1  0.1226955E-005  0.9875894E+02  0.7561462E-02  0.1282928E+00
         -1   -1    0    0    0  501 -0.00000000000E+00  0.00000000000E+00  0.87871906356E+02  0.87871906356E+02  0.00000000000E+00 0.  1.
          1   -1    0    0  501    0  0.00000000000E+00 -0.00000000000E+00 -0.16038480240E+03  0.16038480240E+03  0.00000000000E+00 0. -1.
         23    2    1    2    0    0 -0.28261492700E+02  0.44333995099E+02 -0.65887122394E+01  0.12757738981E+03  0.11605328160E+03 0.  0.
          5    1    3    3  502    0  0.98187529095E+01 -0.35143686500E+02  0.93995495809E+01  0.37911878637E+02  0.41800000000E+01 0. -1.
         -5    1    3    3    0  502 -0.38080245610E+02  0.79477681599E+02 -0.15988261820E+02  0.89665511174E+02  0.41800000000E+01 0.  1.
        -11    1    1    2    0    0 -0.26581531097E+01 -0.41419196181E+02 -0.77191286595E+02  0.87641943819E+02  0.00000000000E+00 0. -1.
         11    1    1    2    0    0  0.30919645810E+02 -0.29147989187E+01  0.11267102793E+02  0.33037375124E+02  0.00000000000E+00 0.  1.
</event>
<event>
 7    1  0.1226955E-005  0.8659551E+02  0.7561462E-02  0.1311312E+00
         -1   -1    0    0    0  501 -0.00000000000E+00  0.00000000000E+00  0.10585786710E+03  0.10585786710E+03  0.00000000000E+00 0.  1.
          1   -1    0    0  501    0  0.00000000000E+00 -0.00000000000E+00 -0.11700841878E+03  0.11700841878E+03  0.00000000000E+00 0. -1.
         23    2    1    2    0    0 -0.57195214975E+01 -0.36737483160E+01  0.21689253857E+02  0.12714318371E+03  0.12509498822E+03 0.  0.
          5    1    3    3  502    0 -0.54908950145E+01  0.40501609851E+02  0.57119202967E+02  0.70360543461E+02  0.41800000000E+01 0. -1.
         -5    1    3    3    0  502 -0.22862648299E+00 -0.44175358167E+02 -0.35429949110E+02  0.56782640245E+02  0.41800000000E+01 0. -1.
        -11    1    1    2    0    0  0.36836070623E+02 -0.25720865877E+02 -0.27273280053E+02  0.52557500371E+02  0.00000000000E+00 0. -1.
         11    1    1    2    0    0 -0.31116549125E+02  0.29394614193E+02 -0.55665254863E+01  0.43165601803E+02  0.00000000000E+00 0.  1.
</event>
<event>
 7    1  0.1226955E-005  0.1645078E+03  0.7561462E-02  0.1183699E+00
         -2   -1    0    0    0  501 -0.00000000000E+00  0.00000000000E+00  0.74851105653E+02  0.74851105653E+02  0.00000000000E+00 0.  1.
          2   -1    0    0  501    0  0.00000000000E+00 -0.00000000000E+00 -0.45343567015E+03  0.45343567015E+03  0.00000000000E+00 0. -1.
         23    2    1    2    0    0 -0.47623301497E+02 -0.13489466207E+03 -0.14136255837E+03  0.23684153032E+03  0.12508392732E+03 0.  0.
          5    1    3    3  502    0  0.21134970822E+02 -0.11090182679E+03 -0.61306763726E+02  0.12853751925E+03  0.41800000000E+01 0.  1.
         -5    1    3    3    0  502 -0.68758272319E+02 -0.23992835278E+02 -0.80055794639E+02  0.10830401106E+03  0.41800000000E+01 0.  1.
        -11    1    1    2    0    0  0.23353137897E+02  0.71355058082E+02 -0.20061272427E+03  0.21420172386E+03  0.00000000000E+00 0. -1.
         11    1    1    2    0    0  0.24270163600E+02  0.63539603986E+02 -0.36609281861E+02  0.77243521633E+02  0.00000000000E+00 0.  1.
</event>
<event>
 7    1  0.1226955E-005  0.1975864E+03  0.7561462E-02  0.1151791E+00
          2   -1    0    0  501    0  0.00000000000E+00  0.00000000000E+00  0.34675252916E+03  0.34675252916E+03  0.00000000000E+00 0. -1.
         -2   -1    0    0    0  501 -0.00000000000E+00 -0.00000000000E+00 -0.11852871973E+03  0.11852871973E+03  0.00000000000E+00 0.  1.
         23    2    1    2    0    0 -0.16058864773E+03 -0.57121716425E+02  0.10698268478E+03  0.23694597659E+03  0.12508595729E+03 0.  0.
          5    1    3    3  502    0  0.13821405581E+02 -0.30761071647E+02  0.91252347396E+01  0.35185467031E+02  0.41800000000E+01 0.  1.
         -5    1    3    3    0  502 -0.17441005331E+03 -0.26360644778E+02  0.97857450038E+02  0.20176050955E+03  0.41800000000E+01 0.  1.
        -11    1    1    2    0    0  0.13748898586E+03  0.74003281039E+02  0.12428122109E+03  0.19956334521E+03  0.00000000000E+00 0. -1.
         11    1    1    2    0    0  0.23099661866E+02 -0.16881564613E+02 -0.30400964388E+01  0.28771927090E+02  0.00000000000E+00 0.  1.
</event>
<event>
 7    1  0.1226955E-005  0.2753248E+03  0.7561462E-02  0.1098270E+00
          2   -1    0    0  501    0  0.00000000000E+00  0.00000000000E+00  0.20340015760E+04  0.20340015760E+04  0.00000000000E+00 0. -1.
         -2   -1    0    0    0  501 -0.00000000000E+00 -0.00000000000E+00 -0.42601567192E+02  0.42601567192E+02  0.00000000000E+00 0.  1.
         23    2    1    2    0    0  0.26030783484E+03  0.19419671607E+02  0.72935268189E+03  0.78469158151E+03  0.12509296938E+03 0.  0.
          5    1    3    3  502    0  0.82735568171E+02 -0.41149801592E+02  0.15548809723E+03  0.18092125688E+03  0.41800000000E+01 0. -1.
         -5    1    3    3    0  502  0.17757226667E+03  0.60569473198E+02  0.57386458466E+03  0.60377032463E+03  0.41800000000E+01 0. -1.
        -11    1    1    2    0    0 -0.33349057518E+02 -0.27735769271E+02  0.12248828978E+03  0.12994157791E+03  0.00000000000E+00 0.  1.
         11    1    1    2    0    0 -0.22695877732E+03  0.83160976645E+01  0.11395590371E+04  0.11619699838E+04  0.00000000000E+00 0. -1.
</event>
<event>
 7    1  0.1226955E-005  0.1100450E+03  0.7561462E-02  0.1260487E+00
         -3   -1    0    0    0  501 -0.00000000000E+00  0.00000000000E+00  0.60713562457E+03  0.60713562457E+03  0.00000000000E+00 0.  1.
          3   -1    0    0  501    0  0.00000000000E+00 -0.00000000000E+00 -0.22624754425E+02  0.22624754425E+02  0.00000000000E+00 0. -1.
         23    2    1    2    0    0  0.16147756061E+02 -0.40055979270E+02  0.35707204172E+03  0.38080586834E+03  0.12508970736E+03 0.  0.
          5    1    3    3  502    0  0.33161984535E+01 -0.84633767249E+02  0.20784133484E+03  0.22447575503E+03  0.41800000000E+01 0. -1.
         -5    1    3    3    0  502  0.12831557607E+02  0.44577787979E+02  0.14923070688E+03  0.15633011331E+03  0.41800000000E+01 0. -1.
        -11    1    1    2    0    0 -0.23968977803E+02  0.61436342873E+02  0.10196642499E+03  0.12143347128E+03  0.00000000000E+00 0.  1.
         11    1    1    2    0    0  0.78212217421E+01 -0.21380363603E+02  0.12547240344E+03  0.12752103937E+03  0.00000000000E+00 0. -1.
</event>
<event>
 7    1  0.1226955E-005  0.8865305E+02  0.7561462E-02  0.1306147E+00
         -2   -1    0    0    0  501 -0.00000000000E+00  0.00000000000E+00  0.96657785437E+02  0.96657785437E+02  0.00000000000E+00 0.  1.
          2   -1    0    0  501    0  0.00000000000E+00 -0.00000000000E+00 -0.15049634119E+03  0.15049634119E+03  0.00000000000E+00 0. -1.
         23    2    1    2    0    0 -0.74604737169E+01  0.46972727799E+02 -0.93686484734E+01  0.13415317131E+03  0.12508879236E+03 0.  0.
          5    1    3    3  502    0 -0.11163564796E+02  0.85833677613E+02 -0.27489186569E+02  0.90912997804E+02  0.41800000000E+01 0. -1.
         -5    1    3    3    0  502  0.37030910791E+01 -0.38860949813E+02  0.18120538096E+02  0.43240173506E+02  0.41800000000E+01 0. -1.
        -11    1    1    2    0    0 -0.60949174265E+01 -0.23551631254E+02  0.27140716282E+02  0.36447850876E+02  0.00000000000E+00 0.  1.
         11    1    1    2    0    0  0.13555391143E+02 -0.23421096546E+02 -0.71610623559E+02  0.76553104437E+02  0.00000000000E+00 0. -1.
</event>
<event>
 7    1  0.1226955E-005  0.3187906E+03  0.7561462E-02  0.1076207E+00
          1   -1    0    0  501    0  0.00000000000E+00  0.00000000000E+00  0.14257980729E+04  0.14257980729E+04  0.00000000000E+00 0. -1.
         -1   -1    0    0    0  501 -0.00000000000E+00 -0.00000000000E+00 -0.81235307380E+02  0.81235307380E+02  0.00000000000E+00 0.  1.
         23    2    1    2    0    0  0.19230784366E+02 -0.31189794486E+03  0.50866514018E+03  0.60994473920E+03  0.12506881694E+03 0.  0.
          5    1    3    3  502    0  0.13805830485E+01 -0.30568806215E+03  0.50487164496E+03  0.59022025350E+03  0.41800000000E+01 0.  1.
         -5    1    3    3    0  502  0.17850201317E+02 -0.62098827079E+01  0.37934952183E+01  0.19724485704E+02  0.41800000000E+01 0.  1.
        -11    1    1    2    0    0 -0.17581183946E+02  0.26789543159E+03  0.60300402575E+03  0.66006887168E+03  0.00000000000E+00 0.  1.
         11    1    1    2    0    0 -0.16496004203E+01  0.44002513270E+02  0.23289359959E+03  0.23701976940E+03  0.00000000000E+00 0. -1.
</event>
<event>
 7    1  0.1226955E-005  0.1028702E+03  0.7561462E-02  0.1274374E+00
          1   -1    0    0  501    0  0.00000000000E+00  0.00000000000E+00  0.10931350915E+03  0.10931350915E+03  0.00000000000E+00 0. -1.
         -1   -1    0    0    0  501 -0.00000000000E+00 -0.00000000000E+00 -0.12184059834E+03  0.12184059834E+03  0.00000000000E+00 0.  1.
         23    2    1    2    0    0  0.11927427076E+02 -0.36858376161E+02 -0.23047444607E+02  0.13296646853E+03  0.12509234045E+03 0.  0.
          5    1    3    3  502    0 -0.23185829944E+02 -0.75093011950E+02 -0.10528370990E+02  0.79403162088E+02  0.41800000000E+01 0. -1.
         -5    1    3    3    0  502  0.35113257020E+02  0.38234635789E+02 -0.12519073617E+02  0.53563306439E+02  0.41800000000E+01 0. -1.
        -11    1    1    2    0    0 -0.12615490039E+02  0.55190268328E+02 -0.22090610030E+02  0.60770974638E+02  0.00000000000E+00 0.  1.
         11    1    1    2    0    0  0.68806296275E+00 -0.18331892167E+02  0.32610965448E+02  0.37416664315E+02  0.00000000000E+00 0. -1.
</event>
<event>
 7    1  0.1226955E-005  0.1004273E+03  0.7561462E-02  0.1279400E+00
          2   -1    0    0  501    0  0.00000000000E+00  0.00000000000E+00  0.42869435156E+03  0.42869435156E+03  0.00000000000E+00 0. -1.
         -2   -1    0    0    0  501 -0.00000000000E+00 -0.00000000000E+00 -0.31007211854E+02  0.31007211854E+02  0.00000000000E+00 0.  1.
         23    2    1    2    0    0  0.34266773644E+02  0.10846315071E+02  0.18991683020E+03  0.23023433961E+03  0.12509034502E+03 0.  0.
          5    1    3    3  502    0  0.66686708587E+02  0.21883165088E+02  0.18161294408E+03  0.19474784690E+03  0.41800000000E+01 0.  1.
         -5    1    3    3    0  502 -0.32419934943E+02 -0.11036850017E+02  0.83038861196E+01  0.35486492708E+02  0.41800000000E+01 0.  1.
        -11    1    1    2    0    0 -0.35227359257E+02 -0.47633119557E+02  0.14605695661E+03  0.15761508650E+03  0.00000000000E+00 0.  1.
         11    1    1    2    0    0  0.96058561314E+00  0.36786804486E+02  0.61713352903E+02  0.71852137306E+02  0.00000000000E+00 0. -1.
</event>
<event>
 7    1  0.1226955E-005  0.8924075E+02  0.7561462E-02  0.1304701E+00
          1   -1    0    0  501    0  0.00000000000E+00  0.00000000000E+00  0.20254620002E+02  0.20254620002E+02  0.00000000000E+00 0. -1.
         -1   -1    0    0    0  501 -0.00000000000E+00 -0.00000000000E+00 -0.61841412747E+03  0.61841412747E+03  0.00000000000E+00 0.  1.
         23    2    1    2    0    0 -0.71575001306E+01  0.38745047669E+01 -0.40032501262E+03  0.41948820771E+03  0.12507597326E+03 0.  0.
          5    1    3    3  502    0  0.25180031231E+02  0.46480309297E+02 -0.30942622397E+03  0.31393711728E+03  0.41800000000E+01 0.  1.
         -5    1    3    3    0  502 -0.32337531361E+02 -0.42605804530E+02 -0.90898788649E+02  0.10555109044E+03  0.41800000000E+01 0.  1.
        -11    1    1    2    0    0  0.29859047871E+02 -0.26375054704E+02 -0.34358287036E+02  0.52608916910E+02  0.00000000000E+00 0. -1.
         11    1    1    2    0    0 -0.22701547741E+02  0.22500549937E+02 -0.16347620781E+03  0.16657162285E+03  0.00000000000E+00 0.  1.
</event>
<event>
 7    1  0.1226955E-005  0.8910809E+02  0.7561462E-02  0.1305026E+00
          1   -1    0    0  501    0  0.00000000000E+00  0.00000000000E+00  0.77563070146E+02  0.77563070146E+02  0.00000000000E+00 0. -1.
         -1   -1    0    0    0  501 -0.00000000000E+00 -0.00000000000E+00 -0.22236761207E+03  0.22236761207E+03  0.00000000000E+00 0.  1.
         23    2    1    2    0    0  0.65519512361E+02  0.13055695109E+02 -0.98621359318E+02  0.17270811234E+03  0.12505463558E+03 0.  0.
          5    1    3    3  502    0  0.35537403300E+02 -0.11346104482E+02 -0.12179170557E+03  0.12744541210E+03  0.41800000000E+01 0.  1.
         -5    1    3    3    0  502  0.29982109061E+02  0.24401799591E+02  0.23170346255E+02  0.45262700235E+02  0.41800000000E+01 0.  1.
        -11    1    1    2    0    0  0.51747356526E+01  0.22201886431E+02  0.15010842841E+02  0.27295183695E+02  0.00000000000E+00 0. -1.
         11    1    1    2    0    0 -0.70694248014E+02 -0.35257581540E+02 -0.61194025443E+02  0.99927386177E+02  0.00000000000E+00 0.  1.
</event>
<event>
 7    1  0.1226955E-005  0.3479371E+03  0.7561462E-02  0.1063465E+00
         -2   -1    0    0    0  501 -0.00000000000E+00  0.00000000000E+00  0.57857101399E+02  0.57857101399E+02  0.00000000000E+00 0.  1.
          2   -1    0    0  501    0  0.00000000000E+00 -0.00000000000E+00 -0.23630355968E+04  0.23630355968E+04  0.00000000000E+00 0. -1.
         23    2    1    2    0    0 -0.33077998026E+03 -0.62222413798E+02 -0.82058973788E+03  0.89571654633E+03  0.12511430512E+03 0.  0.
          5    1    3    3  502    0 -0.12342166167E+03 -0.68218978617E+02 -0.44236560085E+03  0.46431835289E+03  0.41800000000E+01 0. -1.
         -5    1    3    3    0  502 -0.20735831858E+03  0.59965648190E+01 -0.37822413703E+03  0.43139819344E+03  0.41800000000E+01 0. -1.
        -11    1    1    2    0    0  0.15453961986E+03  0.72633124452E+02 -0.64452449313E+03  0.66676074203E+03  0.00000000000E+00 0. -1.
         11    1    1    2    0    0  0.17624036040E+03 -0.10410710653E+02 -0.84006426438E+03  0.85841540983E+03  0.00000000000E+00 0.  1.
</event>
<event>
 7    1  0.1226955E-005  0.1310551E+03  0.7561462E-02  0.1225899E+00
         -1   -1    0    0    0  501 -0.00000000000E+00  0.00000000000E+00  0.72578142806E+03  0.72578142806E+03  0.00000000000E+00 0.  1.
          1   -1    0    0  501    0  0.00000000000E+00 -0.00000000000E+00 -0.28816662758E+02  0.28816662758E+02  0.00000000000E+00 0. -1.
         23    2    1    2    0    0  0.10103116415E+03 -0.12134304023E+02  0.42517108124E+03  0.45472225889E+03  0.12508935585E+03 0.  0.
          5    1    3    3  502    0  0.42050410986E+02  0.49928617985E+02  0.10884623244E+03  0.12698849820E+03  0.41800000000E+01 0.  1.
         -5    1    3    3    0  502  0.58980753160E+02 -0.62062922008E+02  0.31632484880E+03  0.32773376070E+03  0.41800000000E+01 0.  1.
        -11    1    1    2    0    0 -0.76924846046E+02  0.28287257540E+02  0.25136106094E+03  0.26438605075E+03  0.00000000000E+00 0.  1.
         11    1    1    2    0    0 -0.24106318100E+02 -0.16152953517E+02  0.20432623122E+02  0.35489781167E+02  0.00000000000E+00 0. -1.
</event>
<event>
 7    1  0.1226955E-005  0.1009117E+03  0.7561462E-02  0.1278390E+00
         -1   -1    0    0    0  501 -0.00000000000E+00  0.00000000000E+00  0.16811229200E+03  0.16811229200E+03  0.00000000000E+00 0.  1.
          1   -1    0    0  501    0  0.00000000000E+00 -0.00000000000E+00 -0.13357222383E+03  0.13357222383E+03  0.00000000000E+00 0. -1.
         23    2    1    2    0    0 -0.68456800467E+01  0.81153288842E+02  0.87893888364E+02  0.17322032147E+03  0.12508886654E+03 0.  0.
          5    1    3    3  502    0  0.76433315139E+00  0.99340869994E+02  0.18730620313E+02  0.10118053762E+03  0.41800000000E+01 0. -1.
         -5    1    3    3    0  502 -0.76100131981E+01 -0.18187581152E+02  0.69163268051E+02  0.72039783845E+02  0.41800000000E+01 0. -1.
        -11    1    1    2    0    0 -0.20445521796E+01 -0.43554837313E+02 -0.73068697407E+02  0.85089591536E+02  0.00000000000E+00 0. -1.
         11    1    1    2    0    0  0.88902322263E+01 -0.37598451529E+02  0.19714877210E+02  0.43374602820E+02  0.00000000000E+00 0.  1.
</event>
<event>
 7    1  0.1226955E-005  0.9762490E+02  0.7561462E-02  0.1285371E+00
          1   -1    0    0  501    0  0.00000000000E+00  0.00000000000E+00  0.60094792831E+03  0.60094792831E+03  0.00000000000E+00 0. -1.
         -1   -1    0    0    0  501 -0.00000000000E+00 -0.00000000000E+00 -0.21923571046E+02  0.21923571046E+02  0.00000000000E+00 0.  1.
         23    2    1    2    0    0 -0.39154809456E+01 -0.42280964217E+02  0.31511979492E+03  0.34169311581E+03  0.12510271504E+03 0.  0.
          5    1    3    3  502    0  0.42030964212E+02 -0.11836414948E+02  0.34848922168E+02  0.56023409818E+02  0.41800000000E+01 0.  1.
         -5    1    3    3    0  502 -0.45946445157E+02 -0.30444549268E+02  0.28027087276E+03  0.28566970599E+03  0.41800000000E+01 0.  1.
        -11    1    1    2    0    0  0.18424854701E+02  0.65878862090E+02  0.16918995771E+03  0.18249586716E+03  0.00000000000E+00 0. -1.
         11    1    1    2    0    0 -0.14509373756E+02 -0.23597897873E+02  0.94714604635E+02  0.98682516394E+02  0.00000000000E+00 0.  1.
</event>
<event>
 7    1  0.1226955E-005  0.8006314E+02  0.7561462E-02  0.1328872E+00
          2   -1    0    0  501    0  0.00000000000E+00  0.00000000000E+00  0.35949979199E+03  0.35949979199E+03  0.00000000000E+00 0. -1.
         -2   -1    0    0    0  501 -0.00000000000E+00 -0.00000000000E+00 -0.49818092518E+02  0.49818092518E+02  0.00000000000E+00 0.  1.
         23    2    1    2    0    0 -0.46929068251E+02 -0.38772480933E+02  0.96181270024E+02  0.16912833856E+03  0.12509162832E+03 0.  0.
          5    1    3    3  502    0 -0.15555798532E+02  0.61224392722E+00  0.11431544929E+03  0.11544631678E+03  0.41800000000E+01 0. -1.
         -5    1    3    3    0  502 -0.31373269719E+02 -0.39384724860E+02 -0.18134179266E+02  0.53682021784E+02  0.41800000000E+01 0. -1.
        -11    1    1    2    0    0  0.84275722140E+01  0.52069962174E+02  0.53674311029E+02  0.75254478928E+02  0.00000000000E+00 0.  1.
         11    1    1    2    0    0  0.38501496037E+02 -0.13297481241E+02  0.15982611842E+03  0.16493506702E+03  0.00000000000E+00 0. -1.
</event>
<event>
 7    1  0.1226955E-005  0.1992162E+03  0.7561462E-02  0.1150402E+00
          2   -1    0    0  501    0  0.00000000000E+00  0.00000000000E+00  0.16213737083E+03  0.16213737083E+03  0.00000000000E+00 0. -1.
         -2   -1    0    0    0  501 -0.00000000000E+00 -0.00000000000E+00 -0.27408911573E+03  0.27408911573E+03  0.00000000000E+00 0.  1.
         23    2    1    2    0    0  0.13691662125E+03 -0.11730953088E+03 -0.50726863297E+02  0.22522911904E+03  0.12508898511E+03 0.  0.
          5    1    3    3  502    0  0.14089673622E+03 -0.48480850992E+02 -0.23116300936E+02  0.15084468489E+03  0.41800000000E+01 0.  1.
         -5    1    3    3    0  502 -0.39801149722E+01 -0.68828679890E+02 -0.27610562361E+02  0.74384434155E+02  0.41800000000E+01 0.  1.
        -11    1    1    2    0    0 -0.11216587186E+03  0.96274282525E+02 -0.72407156864E+01  0.14799441966E+03  0.00000000000E+00 0. -1.
         11    1    1    2    0    0 -0.24750749390E+02  0.21035248358E+02 -0.53984165920E+02  0.63002947859E+02  0.00000000000E+00 0.  1.
</event>
<event>
 7    1  0.1226955E-005  0.1469327E+03  0.7561462E-02  0.1204294E+00
          2   -1    0    0  501    0  0.00000000000E+00  0.00000000000E+00  0.38847295723E+03  0.38847295723E+03  0.00000000000E+00 0. -1.
         -2   -1    0    0    0  501 -0.00000000000E+00 -0.00000000000E+00 -0.65354909149E+02  0.65354909149E+02  0.00000000000E+00 0.  1.
         23    2    1    2    0    0  0.11856810268E+03 -0.16301955986E+02  0.13054898754E+03  0.20987323913E+03  0.11260368384E+03 0.  0.
          5    1    3    3  502    0  0.10089281991E+03  0.29044026737E+02  0.12072566506E+03  0.16004710308E+03  0.41800000000E+01 0. -1.
         -5    1    3    3    0  502  0.17675282765E+02 -0.45345982723E+02  0.98233224848E+01  0.49826136059E+02  0.41800000000E+01 0.  1.
        -11    1    1    2    0    0 -0.10948593174E+03 -0.12074312123E+02  0.10788473919E+03  0.15418195488E+03  0.00000000000E+00 0.  1.
         11    1    1    2    0    0 -0.90821709405E+01  0.28376268109E+02  0.84684321353E+02  0.89772672366E+02  0.00000000000E+00 0. -1.
</event>
<event>
 7    1  0.1226955E-005  0.1116775E+03  0.7561462E-02  0.1257495E+00
          1   -1    0    0  501    0  0.00000000000E+00  0.00000000000E+00  0.26795832055E+03  0.26795832055E+03  0.00000000000E+00 0. -1.
         -1   -1    0    0    0  501 -0.00000000000E+00 -0.00000000000E+00 -0.73598082832E+02  0.73598082832E+02  0.00000000000E+00 0.  1.
         23    2    1    2    0    0 -0.45397799751E+02 -0.34606626954E+02  0.23449847134E+02  0.13941276835E+03  0.12500978280E+03 0.  0.
          5    1    3    3  502    0  0.36097430593E+02  0.10241009406E+01  0.33966127105E+02  0.49751818747E+02  0.41800000000E+01 0. -1.
         -5    1    3    3    0  502 -0.81495230344E+02 -0.35630727894E+02 -0.10516279971E+02  0.89660949602E+02  0.41800000000E+01 0.  1.
        -11    1    1    2    0    0  0.55401584739E+02 -0.63820900995E+01  0.13732419196E+03  0.14821605973E+03  0.00000000000E+00 0. -1.
         11    1    1    2    0    0 -0.10003784988E+02  0.40988717053E+02  0.33586198629E+02  0.53927575303E+02  0.00000000000E+00 0.  1.
</event>
<event>
 7    1  0.1226955E-005  0.2210303E+03  0.7561462E-02  0.1133117E+00
          1   -1    0    0  501    0  0.00000000000E+00  0.00000000000E+00  0.64037000894E+02  0.64037000894E+02  0.00000000000E+00 0. -1.
         -1   -1    0    0    0  501 -0.00000000000E+00 -0.00000000000E+00 -0.86066825754E+03  0.86066825754E+03  0.00000000000E+00 0.  1.
         23    2    1    2    0    0  0.18626281752E+03  0.76599787361E+02 -0.51301924299E+03  0.56516015434E+03  0.12512350602E+03 0.  0.
          5    1    3    3  502    0 -0.12472707232E+02  0.26497028974E+02 -0.96415829815E+02  0.10085209769E+03  0.41800000000E+01 0.  1.
         -5    1    3    3    0  502  0.19873552475E+03  0.50102758387E+02 -0.41660341318E+03  0.46430805665E+03  0.41800000000E+01 0.  1.
        -11    1    1    2    0    0 -0.10860776906E+03 -0.70722179313E+02 -0.11279780789E+03  0.17181565590E+03  0.00000000000E+00 0.  1.
         11    1    1    2    0    0 -0.77655048459E+02 -0.58776080476E+01 -0.17081420577E+03  0.18772944820E+03  0.00000000000E+00 0. -1.
</event>
<event>
 7    1  0.1226955E-005  0.1074557E+03  0.7561462E-02  0.1265355E+00
          1   -1    0    0  501    0  0.00000000000E+00  0.00000000000E+00  0.32672951080E+03  0.32672951080E+03  0.00000000000E+00 0. -1.
         -1   -1    0    0    0  501 -0.00000000000E+00 -0.00000000000E+00 -0.52822534756E+02  0.52822534756E+02  0.00000000000E+00 0.  1.
         23    2    1    2    0    0  0.12308944153E+02 -0.64928224756E+02  0.10763105527E+03  0.17776301475E+03  0.12509220951E+03 0.  0.
          5    1    3    3  502    0  0.58661122258E+02 -0.61193650613E+01  0.19992909990E+02  0.62416045559E+02  0.41800000000E+01 0. -1.
         -5    1    3    3    0  502 -0.46352178105E+02 -0.58808859695E+02  0.87638145283E+02  0.11534696919E+03  0.41800000000E+01 0. -1.
        -11    1    1    2    0    0 -0.26398226729E+02  0.18413282540E+02  0.14535470334E+03  0.14887546853E+03  0.00000000000E+00 0. -1.
         11    1    1    2    0    0  0.14089282576E+02  0.46514942216E+02  0.20921217429E+02  0.52913562265E+02  0.00000000000E+00 0.  1.
</event>
<event>
 7    1  0.1226955E-005  0.2167970E+03  0.7561462E-02  0.1136294E+00
         -2   -1    0    0    0  501 -0.00000000000E+00  0.00000000000E+00  0.96257024587E+02  0.96257024587E+02  0.00000000000E+00 0.  1.
          2   -1    0    0  501    0  0.00000000000E+00 -0.00000000000E+00 -0.66130297809E+03  0.66130297809E+03  0.00000000000E+00 0. -1.
         23    2    1    2    0    0 -0.19815456846E+03  0.14622028394E+02 -0.12375419480E+03  0.26540747299E+03  0.12508792616E+03 0.  0.
          5    1    3    3  502    0  0.15867692838E+02  0.11833739316E+02 -0.61224232093E+01  0.21137112578E+02  0.41800000000E+01 0. -1.
         -5    1    3    3    0  502 -0.21402226130E+03  0.27882890775E+01 -0.11763177159E+03  0.24427036041E+03  0.41800000000E+01 0. -1.
        -11    1    1    2    0    0  0.18557017419E+03 -0.98779980588E+01 -0.44116061975E+03  0.47870299436E+03  0.00000000000E+00 0.  1.
         11    1    1    2    0    0  0.12584394268E+02 -0.47440303349E+01 -0.13113894782E+00  0.13449535320E+02  0.00000000000E+00 0. -1.
</event>
<event>
 7    1  0.1226955E-005  0.1778771E+03  0.7561462E-02  0.1169874E+00
          2   -1    0    0  501    0  0.00000000000E+00  0.00000000000E+00  0.76444518112E+02  0.76444518112E+02  0.00000000000E+00 0. -1.
         -2   -1    0    0    0  501 -0.00000000000E+00 -0.00000000000E+00 -0.51794110751E+03  0.51794110751E+03  0.00000000000E+00 0.  1.
         23    2    1    2    0    0  0.32942355052E+02 -0.15619940339E+03 -0.18462365060E+03  0.27425650760E+03  0.12508911714E+03 0.  0.
          5    1    3    3  502    0 -0.33841942916E+02 -0.10073360352E+03 -0.59360342313E+02  0.12179350812E+03  0.41800000000E+01 0.  1.
         -5    1    3    3    0  502  0.66784297968E+02 -0.55465799863E+02 -0.12526330829E+03  0.15246299949E+03  0.41800000000E+01 0.  1.
        -11    1    1    2    0    0 -0.38760002975E+02  0.13007095464E+03 -0.25988583649E+03  0.29319181278E+03  0.00000000000E+00 0.  1.
         11    1    1    2    0    0  0.58176479230E+01  0.26128448744E+02  0.30128976925E+01  0.26937305240E+02  0.00000000000E+00 0. -1.
</event>
<event>
 7    1  0.1226955E-005  0.2490415E+03  0.7561462E-02  0.1113912E+00
         -2   -1    0    0    0  501 -0.00000000000E+00  0.00000000000E+00  0.11272747103E+03  0.11272747103E+03  0.00000000000E+00 0.  1.
          2   -1    0    0  501    0  0.00000000000E+00 -0.00000000000E+00 -0.62721707572E+03  0.62721707572E+03  0.00000000000E+00 0. -1.
         23    2    1    2    0    0 -0.20548517945E+03 -0.11819455988E+03 -0.33438262837E+03  0.42854809143E+03  0.12509041352E+03 0.  0.
          5    1    3    3  502    0 -0.51318358837E+02 -0.82482428909E+02 -0.67913464799E+02  0.11860285044E+03  0.41800000000E+01 0. -1.
         -5    1    3    3    0  502 -0.15416682062E+03 -0.35712130973E+02 -0.26646916357E+03  0.30994524099E+03  0.41800000000E+01 0. -1.
        -11    1    1    2    0    0  0.34717639126E+02  0.44788673342E+02 -0.64733170758E+01  0.57037212066E+02  0.00000000000E+00 0.  1.
         11    1    1    2    0    0  0.17076754033E+03  0.73405886540E+02 -0.17363365924E+03  0.25435924326E+03  0.00000000000E+00 0. -1.
</event>
<event>
 7    1  0.1226955E-005  0.1426253E+03  0.7561462E-02  0.1209839E+00
          1   -1    0    0  501    0  0.00000000000E+00  0.00000000000E+00  0.48418787540E+02  0.48418787540E+02  0.00000000000E+00 0. -1.
         -1   -1    0    0    0  501 -0.00000000000E+00 -0.00000000000E+00 -0.63343508583E+03  0.63343508583E+03  0.00000000000E+00 0.  1.
         23    2    1    2    0    0 -0.42829504928E+02  0.11595774947E+03 -0.43806064054E+03  0.47203220695E+03  0.12504684505E+03 0.  0.
          5    1    3    3  502    0  0.18520686719E+00  0.77799793162E+02 -0.38779502152E+03  0.39554429997E+03  0.41800000000E+01 0. -1.
         -5    1    3    3    0  502 -0.43014711795E+02  0.38157956307E+02 -0.50265619017E+02  0.76487906989E+02  0.41800000000E+01 0. -1.
        -11    1    1    2    0    0 -0.16406319244E+02 -0.77138401191E+02 -0.80788796504E+02  0.11289964522E+03  0.00000000000E+00 0. -1.
         11    1    1    2    0    0  0.59235824172E+02 -0.38819348278E+02 -0.66166861243E+02  0.96922021196E+02  0.00000000000E+00 0.  1.
</event>
<event>
 7    1  0.1226955E-005  0.1901636E+03  0.7561462E-02  0.1158314E+00
          2   -1    0    0  501    0  0.00000000000E+00  0.00000000000E+00  0.59966246719E+03  0.59966246719E+03  0.00000000000E+00 0. -1.
         -2   -1    0    0    0  501 -0.00000000000E+00 -0.00000000000E+00 -0.94466329243E+02  0.94466329243E+02  0.00000000000E+00 0.  1.
         23    2    1    2    0    0 -0.13432137680E+03  0.86026160755E+02  0.58075974338E+02  0.21086287311E+03  0.12509036678E+03 0.  0.
          5    1    3    3  502    0  0.18413778534E+02  0.37438457316E+02  0.64459755510E+01  0.42423205052E+02  0.41800000000E+01 0.  1.
         -5    1    3    3    0  502 -0.15273515534E+03  0.48587703440E+02  0.51629998787E+02  0.16843966806E+03  0.41800000000E+01 0.  1.
        -11    1    1    2    0    0  0.14449406474E+02 -0.51253400508E+02  0.85657818202E+02  0.10086108382E+03  0.00000000000E+00 0.  1.
         11    1    1    2    0    0  0.11987197033E+03 -0.34772760247E+02  0.36146234541E+03  0.38240483950E+03  0.00000000000E+00 0. -1.
</event>
<event>
 7    1  0.1226955E-005  0.1381495E+03  0.7561462E-02  0.1215841E+00
         -2   -1    0    0    0  501 -0.00000000000E+00  0.00000000000E+00  0.16013753865E+03  0.16013753865E+03  0.00000000000E+00 0.  1.
          2   -1    0    0  501    0  0.00000000000E+00 -0.00000000000E+00 -0.14931136038E+03  0.14931136038E+03  0.00000000000E+00 0. -1.
         23    2    1    2    0    0 -0.48382511766E+02  0.94338055614E+02  0.34849157215E+02  0.16763612628E+03  0.12508745299E+03 0.  0.
          5    1    3    3  502    0  0.28815494627E+02  0.40633167392E+02 -0.25198605545E+02  0.55980614004E+02  0.41800000000E+01 0.  1.
         -5    1    3    3    0  502 -0.77198006393E+02  0.53704888222E+02  0.60047762760E+02  0.11165551228E+03  0.41800000000E+01 0.  1.
        -11    1    1    2    0    0  0.58118026075E+02 -0.26903939111E+02 -0.34713209496E+02  0.72845959449E+02  0.00000000000E+00 0.  1.
         11    1    1    2    0    0 -0.97355143084E+01 -0.67434116503E+02  0.10690230551E+02  0.68966813299E+02  0.00000000000E+00 0. -1.
</event>
<event>
 7    1  0.1226955E-005  0.1537369E+03  0.7561462E-02  0.1195955E+00
          1   -1    0    0  501    0  0.00000000000E+00  0.00000000000E+00  0.14149632119E+03  0.14149632119E+03  0.00000000000E+00 0. -1.
         -1   -1    0    0    0  501 -0.00000000000E+00 -0.00000000000E+00 -0.22435823175E+03  0.22435823175E+03  0.00000000000E+00 0.  1.
         23    2    1    2    0    0  0.36380577106E+02 -0.12479856308E+03  0.12624469496E+02  0.18084611694E+03  0.12509081918E+03 0.  0.
          5    1    3    3  502    0  0.72186081958E+02 -0.79211057429E+02  0.42662458386E+02  0.11542434666E+03  0.41800000000E+01 0.  1.
         -5    1    3    3    0  502 -0.35805504852E+02 -0.45587505647E+02 -0.30037988890E+02  0.65421770271E+02  0.41800000000E+01 0.  1.
        -11    1    1    2    0    0  0.15472224951E+02  0.21099933417E+02  0.10242882167E+02  0.28098284116E+02  0.00000000000E+00 0. -1.
         11    1    1    2    0    0 -0.51852802058E+02  0.10369862966E+03 -0.10572926223E+03  0.15691015189E+03  0.00000000000E+00 0.  1.
</event>
<event>
 7    1  0.1226955E-005  0.1009695E+03  0.7561462E-02  0.1278270E+00
          1   -1    0    0  501    0  0.00000000000E+00  0.00000000000E+00  0.32052358977E+02  0.32052358977E+02  0.00000000000E+00 0. -1.
         -1   -1    0    0    0  501 -0.00000000000E+00 -0.00000000000E+00 -0.61673440240E+03  0.61673440240E+03  0.00000000000E+00 0.  1.
         23    2    1    2    0    0  0.56070893666E+02  0.34336656473E+02 -0.44059411344E+03  0.46270296032E+03  0.12509158881E+03 0.  0.
          5    1    3    3  502    0  0.45662666128E+02  0.54924931090E+02 -0.10964787405E+03  0.13092729210E+03  0.41800000000E+01 0.  1.
         -5    1    3    3    0  502  0.10408227538E+02 -0.20588274617E+02 -0.33094623940E+03  0.33177566822E+03  0.41800000000E+01 0.  1.
        -11    1    1    2    0    0 -0.51806954689E+02  0.17689508365E+02 -0.11238810388E+03  0.12501186005E+03  0.00000000000E+00 0. -1.
         11    1    1    2    0    0 -0.42639389763E+01 -0.52026164838E+02 -0.31699826098E+02  0.61071941004E+02  0.00000000000E+00 0.  1.
</event>
<event>
 7    1  0.1226955E-005  0.1455802E+03  0.7561462E-02  0.1206012E+00
          1   -1    0    0  501    0  0.00000000000E+00  0.00000000000E+00  0.61623611381E+03  0.61623611381E+03  0.00000000000E+00 0. -1.
         -1   -1    0    0    0  501 -0.00000000000E+00 -0.00000000000E+00 -0.42628735517E+02  0.42628735517E+02  0.00000000000E+00 0.  1.
         23    2    1    2    0    0 -0.79821730334E+02 -0.84636428582E+02  0.24811335184E+03  0.30123438302E+03  0.12508830672E+03 0.  0.
          5    1    3    3  502    0 -0.50477112794E+02  0.25331921955E+02  0.74101977359E+02  0.93264251642E+02  0.41800000000E+01 0. -1.
         -5    1    3    3    0  502 -0.29344617540E+02 -0.10996835054E+03  0.17401137448E+03  0.20797013138E+03  0.41800000000E+01 0. -1.
        -11    1    1    2    0    0  0.51702676184E+02  0.74629357191E+02  0.31187937137E+03  0.32482526066E+03  0.00000000000E+00 0. -1.
         11    1    1    2    0    0  0.28119054149E+02  0.10007071391E+02  0.13614655087E+02  0.32805205642E+02  0.00000000000E+00 0.  1.
</event>
<event>
 7    1  0.1226955E-005  0.1087306E+03  0.7561462E-02  0.1262939E+00
         -1   -1    0    0    0  501 -0.00000000000E+00  0.00000000000E+00  0.12339192657E+03  0.12339192657E+03  0.00000000000E+00 0.  1.
          1   -1    0    0  501    0  0.00000000000E+00 -0.00000000000E+00 -0.16383351968E+03  0.16383351968E+03  0.00000000000E+00 0. -1.
         23    2    1    2    0    0 -0.50925510738E+02  0.71644012816E+02 -0.46150133900E+02  0.15969855688E+03  0.12509005554E+03 0.  0.
          5    1    3    3  502    0 -0.32504547050E+02  0.90980631471E+02 -0.73332209353E+02  0.12136352916E+03  0.41800000000E+01 0. -1.
         -5    1    3    3    0  502 -0.18420963688E+02 -0.19336618656E+02  0.27182075453E+02  0.38335027718E+02  0.41800000000E+01 0. -1.
        -11    1    1    2    0    0  0.15662213498E+01 -0.27385988835E+02  0.43343042192E+02  0.51293905488E+02  0.00000000000E+00 0.  1.
         11    1    1    2    0    0  0.49359289388E+02 -0.44258023980E+02 -0.37634501407E+02  0.76232983883E+02  0.00000000000E+00 0. -1.
</event>
<event>
 7    1  0.1226955E-005  0.1116181E+03  0.7561462E-02  0.1257602E+00
         -1   -1    0    0    0  501 -0.00000000000E+00  0.00000000000E+00  0.71408474170E+02  0.71408474170E+02  0.00000000000E+00 0.  1.
          1   -1    0    0  501    0  0.00000000000E+00 -0.00000000000E+00 -0.17798021648E+03  0.17798021648E+03  0.00000000000E+00 0. -1.
         23    2    1    2    0    0 -0.26064815983E+02  0.16382046169E+02 -0.70163712885E+02  0.14668773324E+03  0.12508636379E+03 0.  0.
          5    1    3    3  502    0 -0.25643666008E+02  0.70176304125E+02 -0.39222206457E+02  0.84487662687E+02  0.41800000000E+01 0.  1.
         -5    1    3    3    0  502 -0.42114997491E+00 -0.53794257956E+02 -0.30941506428E+02  0.62200070550E+02  0.41800000000E+01 0.  1.
        -11    1    1    2    0    0  0.52744145105E+02  0.13442714362E+02 -0.11707095191E+02  0.55675016750E+02  0.00000000000E+00 0.  1.
         11    1    1    2    0    0 -0.26679329122E+02 -0.29824760531E+02 -0.24700934229E+02  0.47025940659E+02  0.00000000000E+00 0. -1.
</event>
<event>
 7    1  0.1226955E-005  0.1651185E+03  0.7561462E-02  0.1183036E+00
          2   -1    0    0  501    0  0.00000000000E+00  0.00000000000E+00  0.82451639701E+03  0.82451639701E+03  0.00000000000E+00 0. -1.
         -2   -1    0    0    0  501 -0.00000000000E+00 -0.00000000000E+00 -0.53133602829E+02  0.53133602829E+02  0.00000000000E+00 0.  1.
         23    2    1    2    0    0 -0.13391077219E+03 -0.55149818102E+02  0.18432044817E+03  0.26570133684E+03  0.12509826315E+03 0.  0.
          5    1    3    3  502    0 -0.14794277206E+03 -0.57228706877E+02  0.11798501150E+03  0.19773751296E+03  0.41800000000E+01 0. -1.
         -5    1    3    3    0  502  0.14031999864E+02  0.20788887754E+01  0.66335436666E+02  0.67963823880E+02  0.41800000000E+01 0. -1.
        -11    1    1    2    0    0  0.93635794696E+02  0.68595282370E+01  0.46775965816E+03  0.47708889421E+03  0.00000000000E+00 0. -1.
         11    1    1    2    0    0  0.40274977496E+02  0.48290289865E+02  0.11930268785E+03  0.13485976878E+03  0.00000000000E+00 0.  1.
</event>
<event>
 7    1  0.1226955E-005  0.1452604E+03  0.7561462E-02  0.1206421E+00
          1   -1    0    0  501    0  0.00000000000E+00  0.00000000000E+00  0.46810944062E+03  0.46810944062E+03  0.00000000000E+00 0. -1.
         -1   -1    0    0    0  501 -0.00000000000E+00 -0.00000000000E+00 -0.66937539064E+02  0.66937539064E+02  0.00000000000E+00 0.  1.
         23    2    1    2    0    0  0.10248889142E+03 -0.90685473774E+02  0.15067744761E+03  0.23891347412E+03  0.12509247331E+03 0.  0.
          5    1    3    3  502    0  0.53880634839E+02 -0.32108735194E+02 -0.75166161835E+01  0.63309285300E+02  0.41800000000E+01 0. -1.
         -5    1    3    3    0  502  0.48608256586E+02 -0.58576738580E+02  0.15819406380E+03  0.17560418882E+03  0.41800000000E+01 0. -1.
        -11    1    1    2    0    0 -0.93174079497E+02  0.10107779452E+03  0.24539123401E+03  0.28127386541E+03  0.00000000000E+00 0. -1.
         11    1    1    2    0    0 -0.93148119278E+01 -0.10392320745E+02  0.51032199340E+01  0.14859640151E+02  0.00000000000E+00 0.  1.
</event>
<event>
 7    1  0.1226955E-005  0.1268852E+03  0.7561462E-02  0.1232152E+00
         -2   -1    0    0    0  501 -0.00000000000E+00  0.00000000000E+00  0.73856931152E+03  0.73856931152E+03  0.00000000000E+00 0.  1.
          2   -1    0    0  501    0  0.00000000000E+00 -0.00000000000E+00 -0.61512113451E+02  0.61512113451E+02  0.00000000000E+00 0. -1.
         23    2    1    2    0    0 -0.46288546662E+02 -0.72095644785E+02  0.65746477669E+03  0.67419855596E+03  0.12224299048E+03 0.  0.
          5    1    3    3  502    0 -0.36106267664E+02  0.17691605983E+02  0.79394283084E+02  0.89093097787E+02  0.41800000000E+01 0. -1.
         -5    1    3    3    0  502 -0.10182278999E+02 -0.89787250768E+02  0.57807049361E+03  0.58510545818E+03  0.41800000000E+01 0.  1.
        -11    1    1    2    0    0 -0.13304639833E+02  0.60792121403E+02  0.19541788798E+02  0.65227118403E+02  0.00000000000E+00 0.  1.
         11    1    1    2    0    0  0.59593186495E+02  0.11303523382E+02  0.50632576787E-01  0.60655750603E+02  0.00000000000E+00 0. -1.
</event>
<event>
 7    1  0.1226955E-005  0.1509794E+03  0.7561462E-02  0.1199275E+00
         -2   -1    0    0    0  501 -0.00000000000E+00  0.00000000000E+00  0.10716181759E+03  0.10716181759E+03  0.00000000000E+00 0. -1.
          2   -1    0    0  501    0  0.00000000000E+00 -0.00000000000E+00 -0.21791796723E+03  0.21791796723E+03  0.00000000000E+00 0.  1.
         23    2    1    2    0    0  0.31526605793E+02 -0.10238725784E+03 -0.57944089093E+02  0.17459141061E+03  0.12509023047E+03 0.  0.
          5    1    3    3  502    0  0.73879206607E+02 -0.34394298080E+02 -0.45469600558E+02  0.93413392424E+02  0.41800000000E+01 0. -1.
         -5    1    3    3    0  502 -0.42352600814E+02 -0.67992959763E+02 -0.12474488535E+02  0.81178018190E+02  0.41800000000E+01 0. -1.
        -11    1    1    2    0    0 -0.55106489993E+02  0.27409727103E+02 -0.31037366102E+02  0.68929938879E+02  0.00000000000E+00 0.  1.
         11    1    1    2    0    0  0.23579884200E+02  0.74977530739E+02 -0.21774694441E+02  0.81558435325E+02  0.00000000000E+00 0. -1.
</event>
<event>
 7    1  0.1226955E-005  0.1375013E+03  0.7561462E-02  0.1216731E+00
          2   -1    0    0  501    0  0.00000000000E+00  0.00000000000E+00  0.30637828326E+03  0.30637828326E+03  0.00000000000E+00 0. -1.
         -2   -1    0    0    0  501 -0.00000000000E+00 -0.00000000000E+00 -0.90359806511E+02  0.90359806511E+02  0.00000000000E+00 0.  1.
         23    2    1    2    0    0  0.30039636755E+02 -0.97772923829E+02  0.30978518290E+02  0.16452704847E+03  0.12509019415E+03 0.  0.
          5    1    3    3  502    0  0.42911869877E+01 -0.11977290543E+03  0.44372421133E+02  0.12786847664E+03  0.41800000000E+01 0.  1.
         -5    1    3    3    0  502  0.25748449767E+02  0.21999981598E+02 -0.13393902843E+02  0.36658571837E+02  0.41800000000E+01 0.  1.
        -11    1    1    2    0    0 -0.15214945887E+02  0.10383188327E+03  0.97584761643E+02  0.14330157105E+03  0.00000000000E+00 0.  1.
         11    1    1    2    0    0 -0.14824690868E+02 -0.60589594405E+01  0.87455196811E+02  0.88909470239E+02  0.00000000000E+00 0. -1.
</event>
<event>
 7    1  0.1226955E-005  0.1310732E+03  0.7561462E-02  0.1225872E+00
         -2   -1    0    0    0  501 -0.00000000000E+00  0.00000000000E+00  0.34556060338E+02  0.34556060338E+02  0.00000000000E+00 0.  1.
          2   -1    0    0  501    0  0.00000000000E+00 -0.00000000000E+00 -0.87458451748E+03  0.87458451748E+03  0.00000000000E+00 0. -1.
         23    2    1    2    0    0  0.94724756556E+01  0.12791553186E+03 -0.32959962573E+03  0.37514780631E+03  0.12509137547E+03 0.  0.
          5    1    3    3  502    0 -0.45815849169E+01  0.11065419861E+03 -0.33414756236E+03  0.35204745195E+03  0.41800000000E+01 0.  1.
         -5    1    3    3    0  502  0.14054060572E+02  0.17261333253E+02  0.45479366364E+01  0.23100354368E+02  0.41800000000E+01 0.  1.
        -11    1    1    2    0    0 -0.52929432227E+01 -0.11442090091E+03 -0.50655539370E+03  0.51934432191E+03  0.00000000000E+00 0. -1.
         11    1    1    2    0    0 -0.41795324329E+01 -0.13494630947E+02 -0.38734377175E+01  0.14648449594E+02  0.00000000000E+00 0.  1.
</event>
<event>
 7    1  0.1226955E-005  0.1006015E+03  0.7561462E-02  0.1279036E+00
         -1   -1    0    0    0  501 -0.00000000000E+00  0.00000000000E+00  0.26348734723E+03  0.26348734723E+03  0.00000000000E+00 0.  1.
          1   -1    0    0  501    0  0.00000000000E+00 -0.00000000000E+00 -0.15767217774E+03  0.15767217774E+03  0.00000000000E+00 0. -1.
         23    2    1    2    0    0  0.12796431595E+02 -0.69784616722E+02  0.22093290927E+03  0.25798878394E+03  0.11275291948E+03 0.  0.
          5    1    3    3  502    0  0.30755109139E+02 -0.47910401453E+02  0.29175529432E+02  0.64109026066E+02  0.41800000000E+01 0. -1.
         -5    1    3    3    0  502 -0.17958677544E+02 -0.21874215269E+02  0.19175737984E+03  0.19387975788E+03  0.41800000000E+01 0.  1.
        -11    1    1    2    0    0 -0.47204700497E+02  0.12745930171E+02 -0.44908162010E+02  0.66388895909E+02  0.00000000000E+00 0. -1.
         11    1    1    2    0    0  0.34408268902E+02  0.57038686552E+02 -0.70209577774E+02  0.96781845114E+02  0.00000000000E+00 0.  1.
</event>
<event>
 7    1  0.1226955E-005  0.2142474E+03  0.7561462E-02  0.1138246E+00
         -1   -1    0    0    0  501 -0.00000000000E+00  0.00000000000E+00  0.13151412728E+03  0.13151412728E+03  0.00000000000E+00 0.  1.
          1   -1    0    0  501    0  0.00000000000E+00 -0.00000000000E+00 -0.35958181565E+03  0.35958181565E+03  0.00000000000E+00 0. -1.
         23    2    1    2    0    0 -0.15852634267E+03  0.95579602224E+02 -0.76886745619E+02  0.23626409091E+03  0.12507232835E+03 0.  0.
          5    1    3    3  502    0 -0.14864757843E+02 -0.29225651412E+02 -0.11648823345E+02  0.35046643370E+02  0.41800000000E+01 0. -1.
         -5    1    3    3    0  502 -0.14366158483E+03  0.12480525364E+03 -0.65237922274E+02  0.20121744754E+03  0.41800000000E+01 0. -1.
        -11    1    1    2    0    0  0.14592636178E+03 -0.44616243207E+02 -0.10999903198E+03  0.18810874317E+03  0.00000000000E+00 0.  1.
         11    1    1    2    0    0  0.12599980892E+02 -0.50963359017E+02 -0.41181910774E+02  0.66723108859E+02  0.00000000000E+00 0. -1.
</event>
<event>
 7    1  0.1226955E-005  0.8649253E+02  0.7561462E-02  0.1311575E+00
         -1   -1    0    0    0  501 -0.00000000000E+00  0.00000000000E+00  0.65248505450E+02  0.65248505450E+02  0.00000000000E+00 0.  1.
          1   -1    0    0  501    0  0.00000000000E+00 -0.00000000000E+00 -0.37932665773E+03  0.37932665773E+03  0.00000000000E+00 0. -1.
         23    2    1    2    0    0  0.56475863787E+02 -0.45520657816E+02 -0.45236199759E+02  0.15151095645E+03  0.12509037804E+03 0.  0.
          5    1    3    3  502    0  0.10524217811E+02 -0.16377213024E+02  0.43213333273E+02  0.47579794446E+02  0.41800000000E+01 0. -1.
         -5    1    3    3    0  502  0.45951645976E+02 -0.29143444792E+02 -0.88449533032E+02  0.10393116201E+03  0.41800000000E+01 0. -1.
        -11    1    1    2    0    0 -0.68899851099E+02  0.22747138991E+02 -0.25175068499E+03  0.26199814734E+03  0.00000000000E+00 0. -1.
         11    1    1    2    0    0  0.12423987312E+02  0.22773518825E+02 -0.17091267532E+02  0.31066059394E+02  0.00000000000E+00 0.  1.
</event>
<event>
 7    1  0.1226955E-005  0.1334614E+03  0.7561462E-02  0.1222408E+00
          2   -1    0    0  501    0  0.00000000000E+00  0.00000000000E+00  0.17836276246E+03  0.17836276246E+03  0.00000000000E+00 0. -1.
         -2   -1    0    0    0  501 -0.00000000000E+00 -0.00000000000E+00 -0.13239560099E+03  0.13239560099E+03  0.00000000000E+00 0.  1.
         23    2    1    2    0    0  0.32854755995E+01  0.10301360987E+03 -0.51613369798E+01  0.16445714333E+03  0.12805043703E+03 0.  0.
          5    1    3    3  502    0 -0.32514770110E+02  0.51440473156E+01  0.38991636523E+02  0.51200504069E+02  0.41800000000E+01 0. -1.
         -5    1    3    3    0  502  0.35800245710E+02  0.97869562553E+02 -0.44152973503E+02  0.11325663926E+03  0.41800000000E+01 0.  1.
        -11    1    1    2    0    0  0.36300431387E+02 -0.65607003435E+02  0.52975236474E+02  0.91806186600E+02  0.00000000000E+00 0.  1.
         11    1    1    2    0    0 -0.39585906986E+02 -0.37406606434E+02 -0.18467380270E+01  0.54495033518E+02  0.00000000000E+00 0. -1.
</event>
<event>
 7    1  0.1226955E-005  0.9468198E+02  0.7561462E-02  0.1291894E+00
          2   -1    0    0  501    0  0.00000000000E+00  0.00000000000E+00  0.83429008855E+02  0.83429008855E+02  0.00000000000E+00 0. -1.
         -2   -1    0    0    0  501 -0.00000000000E+00 -0.00000000000E+00 -0.15843227114E+03  0.15843227114E+03  0.00000000000E+00 0.  1.
         23    2    1    2    0    0  0.29655836839E+02  0.19341112261E+02 -0.42872292683E+02  0.13689244420E+03  0.12509180836E+03 0.  0.
          5    1    3    3  502    0 -0.30280184287E+02 -0.28756709972E+02 -0.42782034391E+02  0.59930065872E+02  0.41800000000E+01 0.  1.
         -5    1    3    3    0  502  0.59936021126E+02  0.48097822233E+02 -0.90258292693E-01  0.76962378332E+02  0.41800000000E+01 0.  1.
        -11    1    1    2    0    0  0.13111143641E+02 -0.24066750577E+02  0.22478165826E+02  0.35445430027E+02  0.00000000000E+00 0. -1.
         11    1    1    2    0    0 -0.42766980481E+02  0.47256383153E+01 -0.54609135431E+02  0.69523405767E+02  0.00000000000E+00 0.  1.
</event>
<event>
 7    1  0.1226955E-005  0.8572019E+02  0.7561462E-02  0.1313560E+00
         -1   -1    0    0    0  501 -0.00000000000E+00  0.00000000000E+00  0.70512140777E+02  0.70512140777E+02  0.00000000000E+00 0.  1.
          1   -1    0    0  501    0  0.00000000000E+00 -0.00000000000E+00 -0.18537740329E+03  0.18537740329E+03  0.00000000000E+00 0. -1.
         23    2    1    2    0    0  0.27826725575E+02  0.11559188756E+02 -0.89405536331E+02  0.15667985635E+03  0.12508911207E+03 0.  0.
          5    1    3    3  502    0  0.58640833230E+02  0.34436965820E+02 -0.95790800228E+02  0.11754999679E+03  0.41800000000E+01 0.  1.
         -5    1    3    3    0  502 -0.30814107656E+02 -0.22877777064E+02  0.63852638974E+01  0.39129859559E+02  0.41800000000E+01 0.  1.
        -11    1    1    2    0    0 -0.13954275650E+02 -0.34879536183E+02 -0.50056863835E+02  0.62585888747E+02  0.00000000000E+00 0. -1.
         11    1    1    2    0    0 -0.13872449924E+02  0.23320347427E+02  0.24597137649E+02  0.36623798977E+02  0.00000000000E+00 0.  1.
</event>
<event>
 7    1  0.1226955E-005  0.1487983E+03  0.7561462E-02  0.1201957E+00
         -2   -1    0    0    0  501 -0.00000000000E+00  0.00000000000E+00  0.71794736433E+02  0.71794736433E+02  0.00000000000E+00 0.  1.
          2   -1    0    0  501    0  0.00000000000E+00 -0.00000000000E+00 -0.46199940269E+03  0.46199940269E+03  0.00000000000E+00 0. -1.
         23    2    1    2    0    0 -0.78771536269E+02  0.11343691900E+03 -0.13596833390E+03  0.23065778152E+03  0.12507091922E+03 0.  0.
          5    1    3    3  502    0  0.59285891270E+01  0.19870190338E+02  0.20589718401E+02  0.29519172362E+02  0.41800000000E+01 0. -1.
         -5    1    3    3    0  502 -0.84700125396E+02  0.93566728657E+02 -0.15655805230E+03  0.20113860916E+03  0.41800000000E+01 0. -1.
        -11    1    1    2    0    0  0.81396763776E+02 -0.72078191102E+02 -0.23175242441E+03  0.25598805637E+03  0.00000000000E+00 0. -1.
         11    1    1    2    0    0 -0.26252275070E+01 -0.41358727893E+02 -0.22483907950E+02  0.47148301233E+02  0.00000000000E+00 0.  1.
</event>
<event>
 7    1  0.1226955E-005  0.8405128E+02  0.7561462E-02  0.1317932E+00
          3   -1    0    0  501    0  0.00000000000E+00  0.00000000000E+00  0.93043673489E+03  0.93043673489E+03  0.00000000000E+00 0. -1.
         -3   -1    0    0    0  501 -0.00000000000E+00 -0.00000000000E+00 -0.12839925668E+02  0.12839925668E+02  0.00000000000E+00 0.  1.
         23    2    1    2    0    0  0.17947902219E+02 -0.43016419388E+01  0.59564172915E+03  0.60891482705E+03  0.12509023058E+03 0.  0.
          5    1    3    3  502    0  0.40652916484E+02  0.24841217758E+02  0.53927026102E+03  0.54138676798E+03  0.41800000000E+01 0.  1.
         -5    1    3    3    0  502 -0.22705014265E+02 -0.29142859696E+02  0.56371468126E+02  0.67528059077E+02  0.41800000000E+01 0.  1.
        -11    1    1    2    0    0 -0.58299559929E+01  0.42564831500E+02  0.10048062377E+03  0.10927995708E+03  0.00000000000E+00 0.  1.
         11    1    1    2    0    0 -0.12117946226E+02 -0.38263189561E+02  0.22147445631E+03  0.22508187642E+03  0.00000000000E+00 0. -1.
</event>
<event>
 6    1  0.1226955E-005  0.1031680E+03  0.7561462E-02  0.1273772E+00
          3   -1    0    0  501    0  0.00000000000E+00  0.00000000000E+00  0.52914483872E+03  0.52914483872E+03  0.00000000000E+00 0. -1.
         -3   -1    0    0    0  501 -0.00000000000E+00 -0.00000000000E+00 -0.14303605203E+03  0.14303605203E+03  0.00000000000E+00 0.  1.
          5    1    1    2  502    0 -0.33561598108E+02  0.18278409383E+02  0.52923040390E+02  0.65412550182E+02  0.41800000000E+01 0. -1.
         -5    1    1    2    0  502  0.18276522072E+02  0.56748176420E+02 -0.12246058976E+03  0.13626611916E+03  0.41800000000E+01 0.  1.
        -11    1    1    2    0    0 -0.23198733171E+02  0.67101585725E+00  0.39786615446E+02  0.46060897209E+02  0.00000000000E+00 0.  1.
         11    1    1    2    0    0  0.38483809208E+02 -0.75697601660E+02  0.41585972061E+03  0.42444132420E+03  0.00000000000E+00 0. -1.
</event>
<event>
 7    1  0.1226955E-005  0.2065603E+03  0.7561462E-02  0.1144319E+00
         -2   -1    0    0    0  501 -0.00000000000E+00  0.00000000000E+00  0.33880229287E+02  0.33880229287E+02  0.00000000000E+00 0.  1.
          2   -1    0    0  501    0  0.00000000000E+00 -0.00000000000E+00 -0.15705095264E+04  0.15705095264E+04  0.00000000000E+00 0. -1.
         23    2    1    2    0    0 -0.15357298978E+03  0.13277346697E+03 -0.80401137720E+03  0.83862715244E+03  0.12509096464E+03 0.  0.
          5    1    3    3  502    0 -0.38663605476E+02  0.41137227635E+02 -0.47367791185E+03  0.47704861645E+03  0.41800000000E+01 0. -1.
         -5    1    3    3    0  502 -0.11490938431E+03  0.91636239335E+02 -0.33033346535E+03  0.36157853599E+03  0.41800000000E+01 0. -1.
        -11    1    1    2    0    0  0.43761257957E+02 -0.71222516909E+02 -0.42923587707E+03  0.43729982023E+03  0.00000000000E+00 0.  1.
         11    1    1    2    0    0  0.10981173182E+03 -0.61550950062E+02 -0.30338204285E+03  0.32846278301E+03  0.00000000000E+00 0. -1.
</event>
<event>
 7    1  0.1226955E-005  0.7602009E+02  0.7561462E-02  0.1340741E+00
          1   -1    0    0  501    0  0.00000000000E+00  0.00000000000E+00  0.68024621584E+02  0.68024621584E+02  0.00000000000E+00 0. -1.
         -1   -1    0    0    0  501 -0.00000000000E+00 -0.00000000000E+00 -0.32174914601E+03  0.32174914601E+03  0.00000000000E+00 0.  1.
         23    2    1    2    0    0  0.33874600576E+02  0.45512372260E+02 -0.24376366340E+03  0.27979668100E+03  0.12508634821E+03 0.  0.
          5    1    3    3  502    0  0.10619444345E+02  0.47374097877E+02 -0.25046913745E+03  0.25516531693E+03  0.41800000000E+01 0. -1.
         -5    1    3    3    0  502  0.23255156231E+02 -0.18617256176E+01  0.67054740496E+01  0.24631364067E+02  0.41800000000E+01 0. -1.
        -11    1    1    2    0    0  0.90953189173E+01  0.72015331178E+01 -0.35487508169E+02  0.37335641705E+02  0.00000000000E+00 0.  1.
         11    1    1    2    0    0 -0.42969919493E+02 -0.52713905377E+02  0.25526647146E+02  0.72641444891E+02  0.00000000000E+00 0. -1.
</event>
<event>
 7    1  0.1226955E-005  0.1051608E+03  0.7561462E-02  0.1269803E+00
          2   -1    0    0  501    0  0.00000000000E+00  0.00000000000E+00  0.56505370991E+03  0.56505370991E+03  0.00000000000E+00 0.  1.
         -2   -1    0    0    0  501 -0.00000000000E+00 -0.00000000000E+00 -0.31564142723E+02  0.31564142723E+02  0.00000000000E+00 0. -1.
         23    2    1    2    0    0  0.77566997288E+02 -0.13485300098E+01  0.28699805589E+03  0.32254445214E+03  0.12509429213E+03 0.  0.
          5    1    3    3  502    0  0.91628276771E+02 -0.92631099074E+00  0.29274821752E+03  0.30678264361E+03  0.41800000000E+01 0.  1.
         -5    1    3    3    0  502 -0.14061279483E+02 -0.42221901906E+00 -0.57501616311E+01  0.15761808537E+02  0.41800000000E+01 0.  1.
        -11    1    1    2    0    0 -0.73627576810E+02 -0.24633284606E+02  0.23070232445E+03  0.24341606620E+03  0.00000000000E+00 0.  1.
         11    1    1    2    0    0 -0.39394204779E+01  0.25981814616E+02  0.15789186845E+02  0.30657334288E+02  0.00000000000E+00 0. -1.
</event>
<event>
 7    1  0.1226955E-005  0.1925653E+03  0.7561462E-02  0.1156168E+00
         -1   -1    0    0    0  501 -0.00000000000E+00  0.00000000000E+00  0.11220538828E+04  0.11220538828E+04  0.00000000000E+00 0.  1.
          1   -1    0    0  501    0  0.00000000000E+00 -0.00000000000E+00 -0.50980047501E+02  0.50980047501E+02  0.00000000000E+00 0. -1.
         23    2    1    2    0    0 -0.14493540740E+03  0.10238254140E+03  0.84649771747E+03  0.87389554130E+03  0.12508626752E+03 0.  0.
          5    1    3    3  502    0 -0.14037996847E+03  0.74533117267E+02  0.46693099356E+03  0.49325829569E+03  0.41800000000E+01 0.  1.
         -5    1    3    3    0  502 -0.45554389244E+01  0.27849424135E+02  0.37956672391E+03  0.38063724561E+03  0.41800000000E+01 0.  1.
        -11    1    1    2    0    0  0.32766308463E+02 -0.75441105835E+02  0.93725291512E+02  0.12469732030E+03  0.00000000000E+00 0. -1.
         11    1    1    2    0    0  0.11216909894E+03 -0.26941435566E+02  0.13085082636E+03  0.17444106875E+03  0.00000000000E+00 0.  1.
</event>
<event>
 7    1  0.1226955E-005  0.1112304E+03  0.7561462E-02  0.1258308E+00
          2   -1    0    0  501    0  0.00000000000E+00  0.00000000000E+00  0.69773819462E+03  0.69773819462E+03  0.00000000000E+00 0. -1.
         -2   -1    0    0    0  501 -0.00000000000E+00 -0.00000000000E+00 -0.42221162053E+02  0.42221162053E+02  0.00000000000E+00 0.  1.
         23    2    1    2    0    0 -0.60563238768E+02 -0.34836563739E+02  0.10949968964E+03  0.18276717379E+03  0.12857746971E+03 0.  0.
          5    1    3    3  502    0 -0.85175754858E+01 -0.55755484314E+02  0.11304925978E+03  0.12640739954E+03  0.41800000000E+01 0. -1.
         -5    1    3    3    0  502 -0.52045663282E+02  0.20918920575E+02 -0.35495701320E+01  0.56359774242E+02  0.41800000000E+01 0.  1.
        -11    1    1    2    0    0 -0.20735958589E+02 -0.11072839186E+01  0.73046222818E+02  0.75940481459E+02  0.00000000000E+00 0.  1.
         11    1    1    2    0    0  0.81299197357E+02  0.35943847657E+02  0.47297112011E+03  0.48125170143E+03  0.00000000000E+00 0. -1.
</event>
<event>
 7    1  0.1226955E-005  0.2162048E+03  0.7561462E-02  0.1136745E+00
         -2   -1    0    0    0  501 -0.00000000000E+00  0.00000000000E+00  0.46814547574E+02  0.46814547574E+02  0.00000000000E+00 0.  1.
          2   -1    0    0  501    0  0.00000000000E+00 -0.00000000000E+00 -0.12497826428E+04  0.12497826428E+04  0.00000000000E+00 0. -1.
         23    2    1    2    0    0  0.77240908699E+01 -0.21394727417E+03 -0.55745991685E+03  0.61011657600E+03  0.12509028626E+03 0.  0.
          5    1    3    3  502    0  0.83250873197E+01 -0.15165537732E+02  0.48394267019E+00  0.17804696406E+02  0.41800000000E+01 0. -1.
         -5    1    3    3    0  502 -0.60099644977E+00 -0.19878173644E+03 -0.55794385952E+03  0.59231187960E+03  0.41800000000E+01 0. -1.
        -11    1    1    2    0    0  0.96178815959E+01  0.10803043666E+03 -0.45570706940E+03  0.46843570743E+03  0.00000000000E+00 0. -1.
         11    1    1    2    0    0 -0.17341972466E+02  0.10591683751E+03 -0.18980110901E+03  0.21804490698E+03  0.00000000000E+00 0.  1.
</event>
<event>
 7    1  0.1226955E-005  0.2106484E+03  0.7561462E-02  0.1141054E+00
         -1   -1    0    0    0  501 -0.00000000000E+00  0.00000000000E+00  0.24068020930E+02  0.24068020930E+02  0.00000000000E+00 0.  1.
          1   -1    0    0  501    0  0.00000000000E+00 -0.00000000000E+00 -0.19869967761E+04  0.19869967761E+04  0.00000000000E+00 0. -1.
         23    2    1    2    0    0  0.16407651731E+03  0.10048519454E+03 -0.11272627035E+04  0.11503854471E+04  0.12508835370E+03 0.  0.
          5    1    3    3  502    0  0.11133699104E+03  0.12754662689E+03 -0.87245057110E+03  0.88873592198E+03  0.41800000000E+01 0.  1.
         -5    1    3    3    0  502  0.52739526269E+02 -0.27061432349E+02 -0.25481213242E+03  0.26164952509E+03  0.41800000000E+01 0.  1.
        -11    1    1    2    0    0 -0.92243051265E+02 -0.60344101209E+02 -0.62246052619E+03  0.63214499738E+03  0.00000000000E+00 0. -1.
         11    1    1    2    0    0 -0.71833466049E+02 -0.40141093331E+02 -0.21320552546E+03  0.22853435257E+03  0.00000000000E+00 0.  1.
</event>
<event>
 7    1  0.1226955E-005  0.1258329E+03  0.7561462E-02  0.1233773E+00
         -2   -1    0    0    0  501 -0.00000000000E+00  0.00000000000E+00  0.12907136924E+03  0.12907136924E+03  0.00000000000E+00 0.  1.
          2   -1    0    0  501    0  0.00000000000E+00 -0.00000000000E+00 -0.14715546647E+03  0.14715546647E+03  0.00000000000E+00 0. -1.
         23    2    1    2    0    0 -0.40476335888E+02  0.74572943692E+02 -0.82162601017E+01  0.15137335948E+03  0.12508768658E+03 0.  0.
          5    1    3    3  502    0 -0.69653309402E+02  0.10955142115E+02 -0.31714137686E+02  0.77426465621E+02  0.41800000000E+01 0. -1.
         -5    1    3    3    0  502  0.29176973514E+02  0.63617801577E+02  0.23497877584E+02  0.73946893862E+02  0.41800000000E+01 0. -1.
        -11    1    1    2    0    0  0.38235356031E+02 -0.19755537320E+01 -0.30941340678E+02  0.49226129507E+02  0.00000000000E+00 0. -1.
         11    1    1    2    0    0  0.22409798576E+01 -0.72597389960E+02  0.21073503550E+02  0.75627346718E+02  0.00000000000E+00 0.  1.
</event>
<event>
 7    1  0.1226955E-005  0.6139865E+02  0.7561462E-02  0.1392054E+00
          2   -1    0    0  501    0  0.00000000000E+00  0.00000000000E+00  0.35673108058E+03  0.35673108058E+03  0.00000000000E+00 0. -1.
         -2   -1    0    0    0  501 -0.00000000000E+00 -0.00000000000E+00 -0.52794326472E+02  0.52794326472E+02  0.00000000000E+00 0.  1.
         23    2    1    2    0    0 -0.48435140956E+01  0.98708492810E+01  0.32185007886E+02  0.12224874795E+03  0.11742226513E+03 0.  0.
          5    1    3    3  502    0 -0.53817259834E+01  0.23410444277E+02  0.74095641473E+02  0.78004156050E+02  0.41800000000E+01 0. -1.
         -5    1    3    3    0  502  0.53821188780E+00 -0.13539594996E+02 -0.41910633587E+02  0.44244591899E+02  0.41800000000E+01 0.  1.
        -11    1    1    2    0    0  0.24539616279E+02  0.30600790191E+02  0.18948029987E+03  0.19349776527E+03  0.00000000000E+00 0.  1.
         11    1    1    2    0    0 -0.19696102183E+02 -0.40471639472E+02  0.82271446358E+02  0.93778893833E+02  0.00000000000E+00 0. -1.
</event>
<event>
 7    1  0.1226955E-005  0.1592265E+03  0.7561462E-02  0.1189573E+00
         -1   -1    0    0    0  501 -0.00000000000E+00  0.00000000000E+00  0.34966932573E+03  0.34966932573E+03  0.00000000000E+00 0.  1.
          1   -1    0    0  501    0  0.00000000000E+00 -0.00000000000E+00 -0.12572731567E+03  0.12572731567E+03  0.00000000000E+00 0. -1.
         23    2    1    2    0    0  0.11650280461E+03  0.68301181705E+02  0.25082765750E+03  0.31112525771E+03  0.12508579982E+03 0.  0.
          5    1    3    3  502    0  0.18807462088E+02  0.56502997203E+02  0.24938912185E+02  0.64697226093E+02  0.41800000000E+01 0.  1.
         -5    1    3    3    0  502  0.97695342517E+02  0.11798184501E+02  0.22588874532E+03  0.24642803162E+03  0.41800000000E+01 0.  1.
        -11    1    1    2    0    0 -0.76269980582E+02  0.52239233434E+01 -0.25015891836E+02  0.80437517101E+02  0.00000000000E+00 0.  1.
         11    1    1    2    0    0 -0.40232824023E+02 -0.73525105048E+02 -0.18697556112E+01  0.83833866589E+02  0.00000000000E+00 0. -1.
</event>
<event>
 7    1  0.1226955E-005  0.1126705E+03  0.7561462E-02  0.1255703E+00
          1   -1    0    0  501    0  0.00000000000E+00  0.00000000000E+00  0.82561838753E+02  0.82561838753E+02  0.00000000000E+00 0. -1.
         -1   -1    0    0    0  501 -0.00000000000E+00 -0.00000000000E+00 -0.21922043970E+03  0.21922043970E+03  0.00000000000E+00 0.  1.
         23    2    1    2    0    0 -0.40226818099E+02  0.31683567727E+02 -0.14311590175E+03  0.19685600792E+03  0.12509229057E+03 0.  0.
          5    1    3    3  502    0 -0.84559924130E+01 -0.40586557903E+02 -0.11337644516E+02  0.43183180444E+02  0.41800000000E+01 0.  1.
         -5    1    3    3    0  502 -0.31770825686E+02  0.72270125629E+02 -0.13177825724E+03  0.15367282747E+03  0.41800000000E+01 0.  1.
        -11    1    1    2    0    0  0.68976682245E+02 -0.12622018845E+02  0.65912724581E+01  0.70431121856E+02  0.00000000000E+00 0.  1.
         11    1    1    2    0    0 -0.28749864146E+02 -0.19061548882E+02 -0.13397165310E+00  0.34495148682E+02  0.00000000000E+00 0. -1.
</event>
<event>
 7    1  0.1226955E-005  0.9091545E+02  0.7561462E-02  0.1300650E+00
          2   -1    0    0  501    0  0.00000000000E+00  0.00000000000E+00  0.83908956297E+02  0.83908956297E+02  0.00000000000E+00 0. -1.
         -2   -1    0    0    0  501 -0.00000000000E+00 -0.00000000000E+00 -0.17402373759E+03  0.17402373759E+03  0.00000000000E+00 0.  1.
         23    2    1    2    0    0  0.22991170135E+02  0.38053874281E+02 -0.80401280274E+02  0.15527115928E+03  0.12517218454E+03 0.  0.
          5    1    3    3  502    0 -0.23834903721E+02  0.56123177198E+02 -0.85005077648E+02  0.10469598502E+03  0.41800000000E+01 0.  1.
         -5    1    3    3    0  502  0.46826073855E+02 -0.18069302917E+02  0.46037973743E+01  0.50575174255E+02  0.41800000000E+01 0.  1.
        -11    1    1    2    0    0 -0.11975156138E+02  0.13258739978E+02 -0.38758883162E+02  0.42678443907E+02  0.00000000000E+00 0.  1.
         11    1    1    2    0    0 -0.11016013997E+02 -0.51312614259E+02  0.29045382142E+02  0.59983090703E+02  0.00000000000E+00 0. -1.
</event>
<event>
 7    1  0.1226955E-005  0.2989052E+03  0.7561462E-02  0.1085789E+00
          1   -1    0    0  501    0  0.00000000000E+00  0.00000000000E+00  0.70741116554E+03  0.70741116554E+03  0.00000000000E+00 0. -1.
         -1   -1    0    0    0  501 -0.00000000000E+00 -0.00000000000E+00 -0.13073084954E+03  0.13073084954E+03  0.00000000000E+00 0.  1.
         23    2    1    2    0    0  0.25450632907E+03  0.12308887778E+03  0.33327504281E+03  0.45458185357E+03  0.12509222225E+03 0.  0.
          5    1    3    3  502    0  0.25534940779E+03  0.83030880968E+02  0.28255823733E+03  0.38981287451E+03  0.41800000000E+01 0.  1.
         -5    1    3    3    0  502 -0.84307872327E+00  0.40057996809E+02  0.50716805477E+02  0.64768979055E+02  0.41800000000E+01 0.  1.
        -11    1    1    2    0    0 -0.93158917063E+02 -0.13966222965E+02  0.12163228600E+03  0.15384424659E+03  0.00000000000E+00 0.  1.
         11    1    1    2    0    0 -0.16134741200E+03 -0.10912265481E+03  0.12177298720E+03  0.22971591491E+03  0.00000000000E+00 0. -1.
</event>
<event>
 7    1  0.1226955E-005  0.8096560E+02  0.7561462E-02  0.1326333E+00
         -1   -1    0    0    0  501 -0.00000000000E+00  0.00000000000E+00  0.70397167706E+02  0.70397167706E+02  0.00000000000E+00 0.  1.
          1   -1    0    0  501    0  0.00000000000E+00 -0.00000000000E+00 -0.22219751372E+03  0.22219751372E+03  0.00000000000E+00 0. -1.
         23    2    1    2    0    0  0.44913347059E+01 -0.58320821362E+02 -0.58416700825E+02  0.14993402260E+03  0.12508481085E+03 0.  0.
          5    1    3    3  502    0  0.20724470295E+02 -0.43713618853E+02  0.31122513836E+02  0.57675535626E+02  0.41800000000E+01 0.  1.
         -5    1    3    3    0  502 -0.16233135590E+02 -0.14607202509E+02 -0.89539214660E+02  0.92258486971E+02  0.41800000000E+01 0.  1.
        -11    1    1    2    0    0  0.27811007503E+02  0.50889680420E+02 -0.18669732049E+02  0.60924302264E+02  0.00000000000E+00 0.  1.
         11    1    1    2    0    0 -0.32302342208E+02  0.74311409419E+01 -0.74713913141E+02  0.81736356566E+02  0.00000000000E+00 0. -1.
</event>
<event>
 7    1  0.1226955E-005  0.1280527E+03  0.7561462E-02  0.1230374E+00
          1   -1    0    0  501    0  0.00000000000E+00  0.00000000000E+00  0.39337717914E+02  0.39337717914E+02  0.00000000000E+00 0.  1.
         -1   -1    0    0    0  501 -0.00000000000E+00 -0.00000000000E+00 -0.55885404934E+03  0.55885404934E+03  0.00000000000E+00 0. -1.
         23    2    1    2    0    0 -0.85725528800E+02 -0.73284280983E+01 -0.39172180629E+03  0.42011591898E+03  0.12509532251E+03 0.  0.
          5    1    3    3  502    0  0.30199425970E+02 -0.17838569464E+01 -0.44367784290E+02  0.53862418784E+02  0.41800000000E+01 0.  1.
         -5    1    3    3    0  502 -0.11592495477E+03 -0.55445711519E+01 -0.34735402200E+03  0.36625350020E+03  0.41800000000E+01 0.  1.
        -11    1    1    2    0    0  0.87185256856E+02  0.25785532585E+02 -0.13082449587E+03  0.15931481859E+03  0.00000000000E+00 0. -1.
         11    1    1    2    0    0 -0.14597280561E+01 -0.18457104487E+02  0.30299707314E+01  0.18761029680E+02  0.00000000000E+00 0.  1.
</event>
<event>
 7    1  0.1226955E-005  0.2436505E+03  0.7561462E-02  0.1117385E+00
         -1   -1    0    0    0  501 -0.00000000000E+00  0.00000000000E+00  0.12801164380E+03  0.12801164380E+03  0.00000000000E+00 0.  1.
          1   -1    0    0  501    0  0.00000000000E+00 -0.00000000000E+00 -0.52075585722E+03  0.52075585722E+03  0.00000000000E+00 0. -1.
         23    2    1    2    0    0  0.23063815317E+03 -0.11835221349E+02 -0.25158710819E+03  0.36370301659E+03  0.12509908518E+03 0.  0.
          5    1    3    3  502    0  0.17810773363E+03 -0.55218408863E+02 -0.22019384071E+03  0.28857275918E+03  0.41800000000E+01 0. -1.
         -5    1    3    3    0  502  0.52530419541E+02  0.43383187514E+02 -0.31393267481E+02  0.75130257414E+02  0.41800000000E+01 0. -1.
        -11    1    1    2    0    0 -0.19573147514E+03  0.19775069420E+02 -0.76343492580E+02  0.21102178227E+03  0.00000000000E+00 0.  1.
         11    1    1    2    0    0 -0.34906678027E+02 -0.79398480705E+01 -0.64813612654E+02  0.74042702162E+02  0.00000000000E+00 0. -1.
</event>
<event>
 7    1  0.1226955E-005  0.1201092E+03  0.7561462E-02  0.1242917E+00
          1   -1    0    0  501    0  0.00000000000E+00  0.00000000000E+00  0.32354868627E+03  0.32354868627E+03  0.00000000000E+00 0. -1.
         -1   -1    0    0    0  501 -0.00000000000E+00 -0.00000000000E+00 -0.60228993554E+02  0.60228993554E+02  0.00000000000E+00 0.  1.
         23    2    1    2    0    0 -0.88018713861E+02 -0.11746080243E+01  0.13270382702E+03  0.20250419574E+03  0.12509584283E+03 0.  0.
          5    1    3    3  502    0  0.17916957233E+02  0.14209667306E+01  0.83645735562E+02  0.85656978587E+02  0.41800000000E+01 0.  1.
         -5    1    3    3    0  502 -0.10593567109E+03 -0.25955747549E+01  0.49058091455E+02  0.11684721715E+03  0.41800000000E+01 0.  1.
        -11    1    1    2    0    0  0.85731283852E+02 -0.25109005748E+02  0.64781046180E+02  0.11034898796E+03  0.00000000000E+00 0. -1.
         11    1    1    2    0    0  0.22874300092E+01  0.26283613773E+02  0.65834819516E+02  0.70924496118E+02  0.00000000000E+00 0.  1.
</event>
<event>
 7    1  0.1226955E-005  0.8947926E+02  0.7561462E-02  0.1304118E+00
          4   -1    0    0  501    0  0.00000000000E+00  0.00000000000E+00  0.21122600763E+03  0.21122600763E+03  0.00000000000E+00 0. -1.
         -4   -1    0    0    0  501 -0.00000000000E+00 -0.00000000000E+00 -0.69876490180E+02  0.69876490180E+02  0.00000000000E+00 0.  1.
         23    2    1    2    0    0  0.41787050133E+02 -0.31078751436E+02  0.58385849354E+02  0.14754151701E+03  0.12509014945E+03 0.  0.
          5    1    3    3  502    0 -0.29424899722E+02  0.40189881300E+01  0.61025048391E+02  0.67996366965E+02  0.41800000000E+01 0. -1.
         -5    1    3    3    0  502  0.71211949855E+02 -0.35097739566E+02 -0.26391990376E+01  0.79545150049E+02  0.41800000000E+01 0. -1.
        -11    1    1    2    0    0 -0.49044690621E+02  0.14146391658E+02  0.97527187034E+02  0.11007749219E+03  0.00000000000E+00 0. -1.
         11    1    1    2    0    0  0.72576404884E+01  0.16932359779E+02 -0.14563518942E+02  0.23483488606E+02  0.00000000000E+00 0.  1.
</event>
<event>
 7    1  0.1226955E-005  0.1169325E+03  0.7561462E-02  0.1248245E+00
         -2   -1    0    0    0  501 -0.00000000000E+00  0.00000000000E+00  0.33298357428E+02  0.33298357428E+02  0.00000000000E+00 0.  1.
          2   -1    0    0  501    0  0.00000000000E+00 -0.00000000000E+00 -0.48753877205E+03  0.48753877205E+03  0.00000000000E+00 0. -1.
         23    2    1    2    0    0  0.36415207073E+02  0.57049351336E+02 -0.26696979583E+03  0.30249282764E+03  0.12509333752E+03 0.  0.
          5    1    3    3  502    0  0.61945748665E+02 -0.27076665261E+01 -0.19851035725E+03  0.20801067658E+03  0.41800000000E+01 0.  1.
         -5    1    3    3    0  502 -0.25530541592E+02  0.59757017862E+02 -0.68459438586E+02  0.94482151062E+02  0.41800000000E+01 0.  1.
        -11    1    1    2    0    0 -0.44324965215E+02 -0.74925525265E+02 -0.11973924134E+03  0.14804061197E+03  0.00000000000E+00 0.  1.
         11    1    1    2    0    0  0.79097581415E+01  0.17876173929E+02 -0.67531377451E+02  0.70303689865E+02  0.00000000000E+00 0. -1.
</event>
<event>
 7    1  0.2128440E-005  0.2804655E+03  0.7561462E-02  0.1095435E+00
          1   -1    0    0  501    0  0.00000000000E+00  0.00000000000E+00  0.45040285769E+03  0.45040285769E+03  0.00000000000E+00 0. -1.
         -1   -1    0    0    0  501 -0.00000000000E+00 -0.00000000000E+00 -0.18858192281E+03  0.18858192281E+03  0.00000000000E+00 0.  1.
         23    2    1    2    0    0  0.22778398547E+03 -0.14104932807E+03  0.97406346381E+02  0.31131305924E+03  0.12508943822E+03 0.  0.
          5    1    3    3  502    0  0.75160653801E+01  0.88169753104E+01  0.35764871304E+02  0.37826296565E+02  0.41800000000E+01 0.  1.
         -5    1    3    3    0  502  0.22026792009E+03 -0.14986630338E+03  0.61641475077E+02  0.27348676267E+03  0.41800000000E+01 0.  1.
        -11    1    1    2    0    0 -0.88688320523E+02  0.10697211190E+03  0.96484072091E+02  0.16916804393E+03  0.00000000000E+00 0.  1.
         11    1    1    2    0    0 -0.13909566494E+03  0.34077216172E+02  0.67930516411E+02  0.15850367733E+03  0.00000000000E+00 0. -1.
</event>
<event>
 7    1  0.1226955E-005  0.1699365E+03  0.7561462E-02  0.1177914E+00
          1   -1    0    0  501    0  0.00000000000E+00  0.00000000000E+00  0.72110700591E+03  0.72110700591E+03  0.00000000000E+00 0.  1.
         -1   -1    0    0    0  501 -0.00000000000E+00 -0.00000000000E+00 -0.53602107161E+02  0.53602107161E+02  0.00000000000E+00 0. -1.
         23    2    1    2    0    0 -0.13878234685E+03 -0.82884513587E+01  0.17930485784E+03  0.25908867030E+03  0.12508984294E+03 0.  0.
          5    1    3    3  502    0 -0.14176922927E+03  0.22783240908E+02  0.10364687795E+03  0.17713762487E+03  0.41800000000E+01 0.  1.
         -5    1    3    3    0  502  0.29868824139E+01 -0.31071692267E+02  0.75657979888E+02  0.81951045433E+02  0.41800000000E+01 0.  1.
        -11    1    1    2    0    0  0.12565478553E+02 -0.30254066693E+02  0.12373405943E+03  0.12799733304E+03  0.00000000000E+00 0. -1.
         11    1    1    2    0    0  0.12621686830E+03  0.38542518052E+02  0.36446598148E+03  0.38762310973E+03  0.00000000000E+00 0.  1.
</event>
<event>
 7    1  0.1226955E-005  0.1929168E+03  0.7561462E-02  0.1155857E+00
         -2   -1    0    0    0  501 -0.00000000000E+00  0.00000000000E+00  0.23336737780E+03  0.23336737780E+03  0.00000000000E+00 0.  1.
          2   -1    0    0  501    0  0.00000000000E+00 -0.00000000000E+00 -0.22158628538E+03  0.22158628538E+03  0.00000000000E+00 0. -1.
         23    2    1    2    0    0 -0.15273428263E+03 -0.88639514782E+02  0.99312507632E+02  0.23810916060E+03  0.12509305944E+03 0.  0.
          5    1    3    3  502    0 -0.29410590960E+02  0.98805293259E+01 -0.22608992462E+02  0.38616662990E+02  0.41800000000E+01 0. -1.
         -5    1    3    3    0  502 -0.12332369167E+03 -0.98520044107E+02  0.12192150009E+03  0.19949249761E+03  0.41800000000E+01 0. -1.
        -11    1    1    2    0    0  0.15725126192E+03  0.98657938620E+02 -0.88797335709E+02  0.20578220297E+03  0.00000000000E+00 0. -1.
         11    1    1    2    0    0 -0.45169792881E+01 -0.10018423838E+02  0.12659204939E+01  0.11062299616E+02  0.00000000000E+00 0.  1.
</event>
<event>
 7    1  0.1226955E-005  0.1156745E+03  0.7561462E-02  0.1250408E+00
          1   -1    0    0  501    0  0.00000000000E+00  0.00000000000E+00  0.25849733273E+03  0.25849733273E+03  0.00000000000E+00 0. -1.
         -1   -1    0    0    0  501 -0.00000000000E+00 -0.00000000000E+00 -0.11452478809E+03  0.11452478809E+03  0.00000000000E+00 0.  1.
         23    2    1    2    0    0  0.61293717405E+02  0.26658188106E+02 -0.47231083363E+02  0.14948577938E+03  0.12509054406E+03 0.  0.
          5    1    3    3  502    0  0.81003235197E+02 -0.25829728790E+02 -0.34437137640E+02  0.91826400618E+02  0.41800000000E+01 0. -1.
         -5    1    3    3    0  502 -0.19709517791E+02  0.52487916896E+02 -0.12793945723E+02  0.57659378758E+02  0.41800000000E+01 0. -1.
        -11    1    1    2    0    0 -0.72821893960E+02 -0.28739589146E+02  0.19586264712E+03  0.21092929802E+03  0.00000000000E+00 0. -1.
         11    1    1    2    0    0  0.11528176554E+02  0.20814010406E+01 -0.46590191085E+01  0.12607043429E+02  0.00000000000E+00 0.  1.
</event>
<event>
 7    1  0.1226955E-005  0.1232219E+03  0.7561462E-02  0.1237875E+00
         -1   -1    0    0    0  501 -0.00000000000E+00  0.00000000000E+00  0.31162490384E+02  0.31162490384E+02  0.00000000000E+00 0.  1.
          1   -1    0    0  501    0  0.00000000000E+00 -0.00000000000E+00 -0.53360772941E+03  0.53360772941E+03  0.00000000000E+00 0. -1.
         23    2    1    2    0    0  0.42592965857E+02  0.48880999482E+02 -0.23054188646E+03  0.27015363543E+03  0.12501964833E+03 0.  0.
          5    1    3    3  502    0 -0.41978480406E+01  0.81585546377E+02 -0.15626065627E+03  0.17637655288E+03  0.41800000000E+01 0.  1.
         -5    1    3    3    0  502  0.46790813898E+02 -0.32704546894E+02 -0.74281230191E+02  0.93777082549E+02  0.41800000000E+01 0.  1.
        -11    1    1    2    0    0  0.19740082106E+02 -0.39780906877E+02 -0.68107049865E+02  0.81306590354E+02  0.00000000000E+00 0.  1.
         11    1    1    2    0    0 -0.62333047963E+02 -0.91000926051E+01 -0.20379630270E+03  0.21330999402E+03  0.00000000000E+00 0. -1.
</event>
<event>
 7    1  0.1226955E-005  0.1096433E+03  0.7561462E-02  0.1261232E+00
         -1   -1    0    0    0  501 -0.00000000000E+00  0.00000000000E+00  0.57452838766E+02  0.57452838766E+02  0.00000000000E+00 0.  1.
          1   -1    0    0  501    0  0.00000000000E+00 -0.00000000000E+00 -0.27681142195E+03  0.27681142195E+03  0.00000000000E+00 0. -1.
         23    2    1    2    0    0  0.32536469426E+02 -0.37804718512E+02 -0.68415256112E+02  0.15104940448E+03  0.12508979471E+03 0.  0.
          5    1    3    3  502    0  0.76631834016E+02 -0.42576997215E+02 -0.31680785459E+02  0.93308002035E+02  0.41800000000E+01 0. -1.
         -5    1    3    3    0  502 -0.44095364589E+02  0.47722787022E+01 -0.36734470653E+02  0.57741402446E+02  0.41800000000E+01 0. -1.
        -11    1    1    2    0    0  0.15062006168E+02  0.36354966408E+02 -0.12033467521E+03  0.12660561469E+03  0.00000000000E+00 0. -1.
         11    1    1    2    0    0 -0.47598475595E+02  0.14497521041E+01 -0.30608651868E+02  0.56609241554E+02  0.00000000000E+00 0.  1.
</event>
<event>
 7    1  0.1226955E-005  0.1267399E+03  0.7561462E-02  0.1232375E+00
         -2   -1    0    0    0  501 -0.00000000000E+00  0.00000000000E+00  0.52217681900E+02  0.52217681900E+02  0.00000000000E+00 0.  1.
          2   -1    0    0  501    0  0.00000000000E+00 -0.00000000000E+00 -0.55313354432E+03  0.55313354432E+03  0.00000000000E+00 0. -1.
         23    2    1    2    0    0 -0.39121500229E+02  0.79316988846E+02 -0.94798604276E+02  0.18026748599E+03  0.12525140571E+03 0.  0.
          5    1    3    3  502    0  0.32055359650E+02  0.70353704375E+02 -0.28527177052E+02  0.82513405167E+02  0.41800000000E+01 0.  1.
         -5    1    3    3    0  502 -0.71176859879E+02  0.89632844711E+01 -0.66271427223E+02  0.97754080820E+02  0.41800000000E+01 0.  1.
        -11    1    1    2    0    0  0.51549280327E+02 -0.75061049209E+02 -0.40062941856E+03  0.41084719839E+03  0.00000000000E+00 0. -1.
         11    1    1    2    0    0 -0.12427780098E+02 -0.42559396374E+01 -0.54878395872E+01  0.14236541845E+02  0.00000000000E+00 0.  1.
</event>
<event>
 7    1  0.1226955E-005  0.8889326E+02  0.7561462E-02  0.1305554E+00
         -1   -1    0    0    0  501 -0.00000000000E+00  0.00000000000E+00  0.33237958087E+02  0.33237958087E+02  0.00000000000E+00 0.  1.
          1   -1    0    0  501    0  0.00000000000E+00 -0.00000000000E+00 -0.35341357104E+03  0.35341357104E+03  0.00000000000E+00 0. -1.
         23    2    1    2    0    0  0.51104269441E+01  0.46490603850E+01 -0.18628826548E+03  0.22449533546E+03  0.12508839899E+03 0.  0.
          5    1    3    3  502    0 -0.20951674633E+02  0.41230256437E+02 -0.17048720294E+03  0.17669823282E+03  0.41800000000E+01 0.  1.
         -5    1    3    3    0  502  0.26062101577E+02 -0.36581196052E+02 -0.15801062539E+02  0.47797102638E+02  0.41800000000E+01 0.  1.
        -11    1    1    2    0    0  0.34790216755E+02 -0.23628327790E+02 -0.38432754688E+02  0.56971340944E+02  0.00000000000E+00 0.  1.
         11    1    1    2    0    0 -0.39900643699E+02  0.18979267405E+02 -0.95454592782E+02  0.10518485272E+03  0.00000000000E+00 0. -1.
</event>
<event>
 7    1  0.1226955E-005  0.1374800E+03  0.7561462E-02  0.1216761E+00
         -2   -1    0    0    0  501 -0.00000000000E+00  0.00000000000E+00  0.10160901248E+03  0.10160901248E+03  0.00000000000E+00 0.  1.
          2   -1    0    0  501    0  0.00000000000E+00 -0.00000000000E+00 -0.30339169907E+03  0.30339169907E+03  0.00000000000E+00 0. -1.
         23    2    1    2    0    0 -0.10109301740E+03  0.46394783336E+02 -0.12977610123E+02  0.16788848829E+03  0.12508338038E+03 0.  0.
          5    1    3    3  502    0 -0.12584222487E+03  0.20539635625E+02  0.48854437894E+01  0.12766942528E+03  0.41800000000E+01 0. -1.
         -5    1    3    3    0  502  0.24749207470E+02  0.25855147710E+02 -0.17863053912E+02  0.40219063000E+02  0.41800000000E+01 0. -1.
        -11    1    1    2    0    0  0.58677844465E+02 -0.24126898135E+02 -0.28045526607E+02  0.69366765871E+02  0.00000000000E+00 0.  1.
         11    1    1    2    0    0  0.42415172933E+02 -0.22267885200E+02 -0.16075954985E+03  0.16774545739E+03  0.00000000000E+00 0. -1.
</event>
<event>
 7    1  0.1226955E-005  0.8456442E+02  0.7561462E-02  0.1316576E+00
         -1   -1    0    0    0  501 -0.00000000000E+00  0.00000000000E+00  0.81888604108E+02  0.81888604108E+02  0.00000000000E+00 0.  1.
          1   -1    0    0  501    0  0.00000000000E+00 -0.00000000000E+00 -0.37936900798E+03  0.37936900798E+03  0.00000000000E+00 0. -1.
         23    2    1    2    0    0  0.72382564115E+01 -0.27452863800E+02  0.19400807536E+02  0.12972725075E+03  0.12508683450E+03 0.  0.
          5    1    3    3  502    0  0.21747985227E+02 -0.46071032497E+02 -0.40494219854E+02  0.65213258915E+02  0.41800000000E+01 0. -1.
         -5    1    3    3    0  502 -0.14509728815E+02  0.18618168698E+02  0.59895027389E+02  0.64513991831E+02  0.41800000000E+01 0. -1.
        -11    1    1    2    0    0 -0.12597059020E+02  0.59870920165E+02 -0.16121274590E+03  0.17243190661E+03  0.00000000000E+00 0.  1.
         11    1    1    2    0    0  0.53588026088E+01 -0.32418056366E+02 -0.15566846550E+03  0.15909845473E+03  0.00000000000E+00 0. -1.
</event>
<event>
 7    1  0.1226955E-005  0.1153736E+03  0.7561462E-02  0.1250930E+00
          1   -1    0    0  501    0  0.00000000000E+00  0.00000000000E+00  0.49087171884E+03  0.49087171884E+03  0.00000000000E+00 0. -1.
         -1   -1    0    0    0  501 -0.00000000000E+00 -0.00000000000E+00 -0.52935236495E+02  0.52935236495E+02  0.00000000000E+00 0.  1.
         23    2    1    2    0    0  0.25321195478E+02  0.59653647345E+02  0.66131550778E+02  0.15563303046E+03  0.12509411489E+03 0.  0.
          5    1    3    3  502    0 -0.13050847333E+02  0.84612291417E+02  0.15245040202E+02  0.87060025992E+02  0.41800000000E+01 0. -1.
         -5    1    3    3    0  502  0.38372042812E+02 -0.24958644072E+02  0.50886510576E+02  0.68573004470E+02  0.41800000000E+01 0. -1.
        -11    1    1    2    0    0 -0.38499692532E+02 -0.71590413423E+02  0.35322271316E+03  0.36245509889E+03  0.00000000000E+00 0. -1.
         11    1    1    2    0    0  0.13178497054E+02  0.11936766078E+02  0.18582218405E+02  0.25718825982E+02  0.00000000000E+00 0.  1.
</event>
<event>
 7    1  0.1226955E-005  0.2068670E+03  0.7561462E-02  0.1144071E+00
         -1   -1    0    0    0  501 -0.00000000000E+00  0.00000000000E+00  0.18007237033E+03  0.18007237033E+03  0.00000000000E+00 0.  1.
          1   -1    0    0  501    0  0.00000000000E+00 -0.00000000000E+00 -0.33632979679E+03  0.33632979679E+03  0.00000000000E+00 0. -1.
         23    2    1    2    0    0 -0.41185837944E+02 -0.18996301165E+03  0.28246006485E+02  0.23286581983E+03  0.12508570709E+03 0.  0.
          5    1    3    3  502    0 -0.62134826528E+02 -0.16854434549E+03 -0.14759625290E+02  0.18028658299E+03  0.41800000000E+01 0. -1.
         -5    1    3    3    0  502  0.20948988585E+02 -0.21418666158E+02  0.43005631775E+02  0.52579236844E+02  0.41800000000E+01 0. -1.
        -11    1    1    2    0    0  0.39096197947E+02  0.48373767946E+02 -0.17566962051E+02  0.64630737849E+02  0.00000000000E+00 0. -1.
         11    1    1    2    0    0  0.20896399965E+01  0.14158924371E+03 -0.16693647090E+03  0.21890560944E+03  0.00000000000E+00 0.  1.
</event>
<event>
 7    1  0.1226955E-005  0.1073888E+03  0.7561462E-02  0.1265483E+00
          1   -1    0    0  501    0  0.00000000000E+00  0.00000000000E+00  0.30482420891E+03  0.30482420891E+03  0.00000000000E+00 0. -1.
         -1   -1    0    0    0  501 -0.00000000000E+00 -0.00000000000E+00 -0.48370500702E+02  0.48370500702E+02  0.00000000000E+00 0.  1.
         23    2    1    2    0    0  0.70762003967E+01  0.99600786903E+01  0.66567376700E+02  0.14222623771E+03  0.12509121181E+03 0.  0.
          5    1    3    3  502    0 -0.14263691022E+02 -0.55053634276E+02  0.27302359241E+02  0.63223783094E+02  0.41800000000E+01 0. -1.
         -5    1    3    3    0  502  0.21339891419E+02  0.65013712966E+02  0.39265017460E+02  0.79002454617E+02  0.41800000000E+01 0. -1.
        -11    1    1    2    0    0  0.45450795269E+01 -0.48619018175E+02  0.12883056422E+03  0.13777438424E+03  0.00000000000E+00 0. -1.
         11    1    1    2    0    0 -0.11621279924E+02  0.38658939484E+02  0.61055767294E+02  0.73194087664E+02  0.00000000000E+00 0.  1.
</event>
<event>
 7    1  0.1226955E-005  0.1176377E+03  0.7561462E-02  0.1247046E+00
          1   -1    0    0  501    0  0.00000000000E+00  0.00000000000E+00  0.55671426083E+03  0.55671426083E+03  0.00000000000E+00 0. -1.
         -1   -1    0    0    0  501 -0.00000000000E+00 -0.00000000000E+00 -0.32555383957E+02  0.32555383957E+02  0.00000000000E+00 0.  1.
         23    2    1    2    0    0  0.17915636050E+02  0.50842032236E+02  0.16283704423E+03  0.21229548889E+03  0.12509032485E+03 0.  0.
          5    1    3    3  502    0  0.37196592152E+02  0.83411481549E+02  0.14200609603E+03  0.16889128287E+03  0.41800000000E+01 0. -1.
         -5    1    3    3    0  502 -0.19280956102E+02 -0.32569449313E+02  0.20830948205E+02  0.43404206016E+02  0.41800000000E+01 0. -1.
        -11    1    1    2    0    0 -0.55223627336E+02 -0.26753652472E+02  0.17546288750E+03  0.18588338233E+03  0.00000000000E+00 0.  1.
         11    1    1    2    0    0  0.37307991286E+02 -0.24088379764E+02  0.18585894514E+03  0.19109077357E+03  0.00000000000E+00 0. -1.
</event>
<event>
 7    1  0.1226955E-005  0.9894137E+02  0.7561462E-02  0.1282538E+00
          2   -1    0    0  501    0  0.00000000000E+00  0.00000000000E+00  0.22907948887E+03  0.22907948887E+03  0.00000000000E+00 0. -1.
         -2   -1    0    0    0  501 -0.00000000000E+00 -0.00000000000E+00 -0.64873975333E+02  0.64873975333E+02  0.00000000000E+00 0.  1.
         23    2    1    2    0    0  0.13619426388E+02  0.32460246739E+02  0.61930558153E+02  0.14393510132E+03  0.12507103168E+03 0.  0.
          5    1    3    3  502    0  0.41257275882E+02  0.67945227690E+02  0.58203733426E+02  0.98609653502E+02  0.41800000000E+01 0. -1.
         -5    1    3    3    0  502 -0.27637849495E+02 -0.35484980951E+02  0.37268247271E+01  0.45325447823E+02  0.41800000000E+01 0. -1.
        -11    1    1    2    0    0  0.69835728149E+01  0.17622367974E+02 -0.12775922900E+02  0.22859185205E+02  0.00000000000E+00 0.  1.
         11    1    1    2    0    0 -0.20602999203E+02 -0.50082614713E+02  0.11505087828E+03  0.12715917767E+03  0.00000000000E+00 0. -1.
</event>
<event>
 6    1  0.1226955E-005  0.7876774E+02  0.7561462E-02  0.1332585E+00
          2   -1    0    0  501    0  0.00000000000E+00  0.00000000000E+00  0.19028391135E+02  0.19028391135E+02  0.00000000000E+00 0.  1.
         -2   -1    0    0    0  501 -0.00000000000E+00 -0.00000000000E+00 -0.64462402874E+03  0.64462402874E+03  0.00000000000E+00 0. -1.
          5    1    1    2  502    0 -0.39013076180E+02  0.45644376545E+02 -0.49188107602E+03  0.49555009290E+03  0.41800000000E+01 0. -1.
         -5    1    1    2    0  502  0.39542422860E+02 -0.22221542306E+02 -0.85737387689E+02  0.97086416124E+02  0.41800000000E+01 0.  1.
        -11    1    1    2    0    0  0.22566569112E+02 -0.15500497630E+02 -0.30522821984E+02  0.41001928371E+02  0.00000000000E+00 0.  1.
         11    1    1    2    0    0 -0.23095915792E+02 -0.79223366091E+01 -0.17454351906E+02  0.30013982476E+02  0.00000000000E+00 0. -1.
</event>
<event>
 6    1  0.1226955E-005  0.1148474E+03  0.7561462E-02  0.1251848E+00
          2   -1    0    0  501    0  0.00000000000E+00  0.00000000000E+00  0.38228717592E+03  0.38228717592E+03  0.00000000000E+00 0. -1.
         -2   -1    0    0    0  501 -0.00000000000E+00 -0.00000000000E+00 -0.73373345687E+02  0.73373345687E+02  0.00000000000E+00 0.  1.
          5    1    1    2  502    0  0.23726424671E+02 -0.56597099008E+02  0.13966980291E+03  0.15261487833E+03  0.41800000000E+01 0. -1.
         -5    1    1    2    0  502 -0.36435783500E+02 -0.30701690305E+02 -0.37381919827E+02  0.60704533906E+02  0.41800000000E+01 0.  1.
        -11    1    1    2    0    0  0.46698581216E+02  0.63666429315E+02  0.96463005768E+02  0.12465666124E+03  0.00000000000E+00 0. -1.
         11    1    1    2    0    0 -0.33989222387E+02  0.23632359998E+02  0.11016294138E+03  0.11768444812E+03  0.00000000000E+00 0.  1.
</event>
<event>
 7    1  0.1226955E-005  0.1063351E+03  0.7561462E-02  0.1267511E+00
         -2   -1    0    0    0  501 -0.00000000000E+00  0.00000000000E+00  0.22937990624E+02  0.22937990624E+02  0.00000000000E+00 0.  1.
          2   -1    0    0  501    0  0.00000000000E+00 -0.00000000000E+00 -0.50235085964E+03  0.50235085964E+03  0.00000000000E+00 0. -1.
         23    2    1    2    0    0  0.15540991035E+00 -0.27113746656E+01 -0.26924718874E+03  0.29689851089E+03  0.12508917387E+03 0.  0.
          5    1    3    3  502    0  0.61317762378E+02  0.45635958582E+01 -0.15928237030E+03  0.17078946185E+03  0.41800000000E+01 0.  1.
         -5    1    3    3    0  502 -0.61162352468E+02 -0.72749705237E+01 -0.10996481845E+03  0.12610904905E+03  0.41800000000E+01 0.  1.
        -11    1    1    2    0    0  0.42859713614E+02  0.13541657558E+02 -0.10050540204E+03  0.11009844404E+03  0.00000000000E+00 0.  1.
         11    1    1    2    0    0 -0.43015123525E+02 -0.10830282893E+02 -0.10966027824E+03  0.11829189534E+03  0.00000000000E+00 0. -1.
</event>
<event>
 6    1  0.1226955E-005  0.1285112E+03  0.7561462E-02  0.1229682E+00
         -1   -1    0    0    0  501 -0.00000000000E+00  0.00000000000E+00  0.47053330141E+03  0.47053330141E+03  0.00000000000E+00 0.  1.
          1   -1    0    0  501    0  0.00000000000E+00 -0.00000000000E+00 -0.88631373424E+02  0.88631373424E+02  0.00000000000E+00 0. -1.
          5    1    1    2  502    0 -0.95623857802E+01  0.45368830325E+01 -0.10627492616E+02  0.15570437655E+02  0.41800000000E+01 0. -1.
         -5    1    1    2    0  502 -0.78758300856E+02  0.74713426513E+02  0.37795370911E+03  0.39325747887E+03  0.41800000000E+01 0.  1.
        -11    1    1    2    0    0  0.99762012460E+02 -0.66616244426E+02  0.33814185864E+02  0.12463379284E+03  0.00000000000E+00 0.  1.
         11    1    1    2    0    0 -0.11441325823E+02 -0.12634065119E+02 -0.19238474372E+02  0.25702965474E+02  0.00000000000E+00 0. -1.
</event>
<event>
 7    1  0.1226955E-005  0.9524685E+02  0.7561462E-02  0.1290621E+00
          2   -1    0    0  501    0  0.00000000000E+00  0.00000000000E+00  0.17710492552E+03  0.17710492552E+03  0.00000000000E+00 0. -1.
         -2   -1    0    0    0  501 -0.00000000000E+00 -0.00000000000E+00 -0.79404619138E+02  0.79404619138E+02  0.00000000000E+00 0.  1.
         23    2    1    2    0    0 -0.37407630527E+01  0.20873898867E+02  0.93012487860E+01  0.12722559292E+03  0.12510046084E+03 0.  0.
          5    1    3    3  502    0 -0.43606546452E+02 -0.11751170876E+02 -0.36461455590E+02  0.58193909082E+02  0.41800000000E+01 0.  1.
         -5    1    3    3    0  502  0.39865783399E+02  0.32625069743E+02  0.45762704376E+02  0.69031683839E+02  0.41800000000E+01 0.  1.
        -11    1    1    2    0    0 -0.40651950146E+02 -0.26767403878E+02  0.37183506445E+02  0.61251025400E+02  0.00000000000E+00 0.  1.
         11    1    1    2    0    0  0.44392713199E+02  0.58935050107E+01  0.51215551151E+02  0.68032926339E+02  0.00000000000E+00 0. -1.
</event>
<event>
 7    1  0.1226955E-005  0.1056161E+03  0.7561462E-02  0.1268911E+00
          2   -1    0    0  501    0  0.00000000000E+00  0.00000000000E+00  0.41846645808E+02  0.41846645808E+02  0.00000000000E+00 0. -1.
         -2   -1    0    0    0  501 -0.00000000000E+00 -0.00000000000E+00 -0.38332235118E+03  0.38332235118E+03  0.00000000000E+00 0.  1.
         23    2    1    2    0    0  0.38264379300E+02  0.35734514186E+02 -0.25217188930E+03  0.28631935793E+03  0.12508794804E+03 0.  0.
          5    1    3    3  502    0  0.64191879355E+02  0.59243431733E+02 -0.22625934238E+03  0.24257193571E+03  0.41800000000E+01 0. -1.
         -5    1    3    3    0  502 -0.25927500055E+02 -0.23508917547E+02 -0.25912546918E+02  0.43747422222E+02  0.41800000000E+01 0. -1.
        -11    1    1    2    0    0  0.20985063803E+02 -0.14859805150E+02  0.43497845076E+01  0.26078867636E+02  0.00000000000E+00 0. -1.
         11    1    1    2    0    0 -0.59249443103E+02 -0.20874709036E+02 -0.93653600579E+02  0.11277077142E+03  0.00000000000E+00 0.  1.
</event>
<event>
 7    1  0.1226955E-005  0.4714411E+02  0.7561462E-02  0.1461384E+00
          4   -1    0    0  501    0  0.00000000000E+00  0.00000000000E+00  0.12064413858E+03  0.12064413858E+03  0.00000000000E+00 0. -1.
         -4   -1    0    0    0  501 -0.00000000000E+00 -0.00000000000E+00 -0.15112069256E+03  0.15112069256E+03  0.00000000000E+00 0.  1.
         23    2    1    2    0    0 -0.35076950528E+02 -0.14166536914E+02 -0.87080096300E+02  0.15703978249E+03  0.12508983527E+03 0.  0.
          5    1    3    3  502    0 -0.14550334068E+02  0.50832371179E+01 -0.11563446052E+03  0.11673196812E+03  0.41800000000E+01 0.  1.
         -5    1    3    3    0  502 -0.20526616460E+02 -0.19249774032E+02  0.28554364219E+02  0.40307814374E+02  0.41800000000E+01 0.  1.
        -11    1    1    2    0    0  0.32881152716E+02 -0.25774365670E+01 -0.18452295598E+02  0.37792864353E+02  0.00000000000E+00 0.  1.
         11    1    1    2    0    0  0.21957978126E+01  0.16743973481E+02  0.75055837912E+02  0.76932184297E+02  0.00000000000E+00 0. -1.
</event>
<event>
 7    1  0.1226955E-005  0.8504872E+02  0.7561462E-02  0.1315305E+00
          3   -1    0    0  501    0  0.00000000000E+00  0.00000000000E+00  0.31971393300E+02  0.31971393300E+02  0.00000000000E+00 0. -1.
         -3   -1    0    0    0  501 -0.00000000000E+00 -0.00000000000E+00 -0.46632455003E+03  0.46632455003E+03  0.00000000000E+00 0.  1.
         23    2    1    2    0    0  0.18351763259E+01 -0.48697422603E+01 -0.35765326107E+03  0.37893235627E+03  0.12508714248E+03 0.  0.
          5    1    3    3  502    0 -0.45643849280E+02  0.39104736201E+02 -0.17967589737E+03  0.18950842162E+03  0.41800000000E+01 0. -1.
         -5    1    3    3    0  502  0.47479025606E+02 -0.43974478461E+02 -0.17797736370E+03  0.18942393465E+03  0.41800000000E+01 0. -1.
        -11    1    1    2    0    0 -0.11797834023E+01  0.24914620309E+02 -0.91242525470E+02  0.94590320055E+02  0.00000000000E+00 0.  1.
         11    1    1    2    0    0 -0.65539292362E+00 -0.20044878049E+02  0.14542629814E+02  0.24773266998E+02  0.00000000000E+00 0. -1.
</event>
<event>
 7    1  0.1226955E-005  0.2757099E+03  0.7561462E-02  0.1098055E+00
         -3   -1    0    0    0  501 -0.00000000000E+00  0.00000000000E+00  0.68547542746E+03  0.68547542746E+03  0.00000000000E+00 0.  1.
          3   -1    0    0  501    0  0.00000000000E+00 -0.00000000000E+00 -0.11880873839E+03  0.11880873839E+03  0.00000000000E+00 0. -1.
         23    2    1    2    0    0 -0.51893114235E+02  0.25841320715E+03  0.28080372357E+03  0.40493115588E+03  0.12509288109E+03 0.  0.
          5    1    3    3  502    0 -0.53891513644E+02  0.45571661515E+02  0.32371154503E+02  0.77758829852E+02  0.41800000000E+01 0. -1.
         -5    1    3    3    0  502  0.19983994087E+01  0.21284154563E+03  0.24843256906E+03  0.32717232603E+03  0.41800000000E+01 0. -1.
        -11    1    1    2    0    0  0.25184174115E+02 -0.21759399072E+03  0.27079541710E+03  0.34829806968E+03  0.00000000000E+00 0.  1.
         11    1    1    2    0    0  0.26708940120E+02 -0.40819216429E+02  0.15067548400E+02  0.51054940280E+02  0.00000000000E+00 0. -1.
</event>
<event>
 7    1  0.1226955E-005  0.1227685E+03  0.7561462E-02  0.1238599E+00
          3   -1    0    0  501    0  0.00000000000E+00  0.00000000000E+00  0.10517703531E+03  0.10517703531E+03  0.00000000000E+00 0. -1.
         -3   -1    0    0    0  501 -0.00000000000E+00 -0.00000000000E+00 -0.30790203122E+03  0.30790203122E+03  0.00000000000E+00 0.  1.
         23    2    1    2    0    0  0.89778272032E+01  0.30596838476E+02 -0.15838515996E+03  0.20631561793E+03  0.12831019992E+03 0.  0.
          5    1    3    3  502    0 -0.45689629974E+02 -0.26382046396E+02 -0.57792486575E+02  0.78364523630E+02  0.41800000000E+01 0. -1.
         -5    1    3    3    0  502  0.54667457177E+02  0.56978884872E+02 -0.10059267338E+03  0.12795109430E+03  0.41800000000E+01 0.  1.
        -11    1    1    2    0    0  0.50180087415E+02 -0.13876580994E+02 -0.10699270015E+03  0.11898755632E+03  0.00000000000E+00 0.  1.
         11    1    1    2    0    0 -0.59157914618E+02 -0.16720257482E+02  0.62652864201E+02  0.87775892276E+02  0.00000000000E+00 0. -1.
</event>
<event>
 7    1  0.1226955E-005  0.9982147E+02  0.7561462E-02  0.1280672E+00
          2   -1    0    0  501    0  0.00000000000E+00  0.00000000000E+00  0.32479896375E+03  0.32479896375E+03  0.00000000000E+00 0. -1.
         -2   -1    0    0    0  501 -0.00000000000E+00 -0.00000000000E+00 -0.37522306235E+02  0.37522306235E+02  0.00000000000E+00 0.  1.
         23    2    1    2    0    0  0.16896589365E+02  0.62495304633E+00  0.14198972254E+03  0.18998729857E+03  0.12509279360E+03 0.  0.
          5    1    3    3  502    0 -0.38745107258E+02  0.25442931901E+02  0.11335754062E+03  0.12253950602E+03  0.41800000000E+01 0.  1.
         -5    1    3    3    0  502  0.55641696623E+02 -0.24817978854E+02  0.28632181916E+02  0.67447792542E+02  0.41800000000E+01 0.  1.
        -11    1    1    2    0    0  0.37114768065E+02  0.60744122024E+01  0.49521060966E+02  0.62183116449E+02  0.00000000000E+00 0. -1.
         11    1    1    2    0    0 -0.54011357430E+02 -0.66993652487E+01  0.95765874004E+02  0.11015085497E+03  0.00000000000E+00 0.  1.
</event>
<event>
 7    1  0.1226955E-005  0.6275759E+02  0.7561462E-02  0.1386611E+00
          2   -1    0    0  501    0  0.00000000000E+00  0.00000000000E+00  0.85319109833E+03  0.85319109833E+03  0.00000000000E+00 0. -1.
         -2   -1    0    0    0  501 -0.00000000000E+00 -0.00000000000E+00 -0.14421488406E+02  0.14421488406E+02  0.00000000000E+00 0.  1.
         23    2    1    2    0    0  0.14920030074E+02 -0.24092421391E+02  0.52870490185E+03  0.54403877863E+03  0.12508504045E+03 0.  0.
          5    1    3    3  502    0  0.78550480030E+01 -0.31151749568E+02  0.53179394561E+03  0.53277988538E+03  0.41800000000E+01 0.  1.
         -5    1    3    3    0  502  0.70649820715E+01  0.70593281770E+01 -0.30890437525E+01  0.11258893253E+02  0.41800000000E+01 0.  1.
        -11    1    1    2    0    0  0.38052138078E+01 -0.27315185818E+02  0.43899800481E+02  0.51843914886E+02  0.00000000000E+00 0.  1.
         11    1    1    2    0    0 -0.18725243882E+02  0.51407607208E+02  0.26616490759E+03  0.27172989322E+03  0.00000000000E+00 0. -1.
</event>
<event>
 7    1  0.1226955E-005  0.1256630E+03  0.7561462E-02  0.1234037E+00
         -4   -1    0    0    0  501 -0.00000000000E+00  0.00000000000E+00  0.28968737632E+03  0.28968737632E+03  0.00000000000E+00 0.  1.
          4   -1    0    0  501    0  0.00000000000E+00 -0.00000000000E+00 -0.91434466462E+02  0.91434466462E+02  0.00000000000E+00 0. -1.
         23    2    1    2    0    0 -0.72934079885E+02  0.41575480224E+02  0.17495438250E+03  0.23087559008E+03  0.12508637645E+03 0.  0.
          5    1    3    3  502    0  0.75427037933E+01  0.21385461764E+02 -0.12217481335E+02  0.26095394336E+02  0.41800000000E+01 0.  1.
         -5    1    3    3    0  502 -0.80476783678E+02  0.20190018460E+02  0.18717186384E+03  0.20478019575E+03  0.41800000000E+01 0.  1.
        -11    1    1    2    0    0  0.86135110173E+02 -0.71847265503E+02  0.30926547421E+02  0.11635178598E+03  0.00000000000E+00 0.  1.
         11    1    1    2    0    0 -0.13201030289E+02  0.30271785279E+02 -0.76280200630E+01  0.33894466727E+02  0.00000000000E+00 0. -1.
</event>
<event>
 7    1  0.1306050E-005  0.1360450E+03  0.7561462E-02  0.1218752E+00
          1   -1    0    0  501    0  0.00000000000E+00  0.00000000000E+00  0.96094169909E+03  0.96094169909E+03  0.00000000000E+00 0. -1.
         -1   -1    0    0    0  501 -0.00000000000E+00 -0.00000000000E+00 -0.21630211711E+02  0.21630211711E+02  0.00000000000E+00 0.  1.
         23    2    1    2    0    0 -0.39137331572E+01 -0.92490612121E+02  0.45638307971E+03  0.48218567652E+03  0.12509068934E+03 0.  0.
          5    1    3    3  502    0  0.25988731589E+02 -0.11391946818E+03  0.31382154037E+03  0.33489474615E+03  0.41800000000E+01 0.  1.
         -5    1    3    3    0  502 -0.29902464747E+02  0.21428856060E+02  0.14256153933E+03  0.14729093036E+03  0.41800000000E+01 0.  1.
        -11    1    1    2    0    0 -0.28831893797E+02  0.11966412017E+02  0.50983668855E+02  0.59781331588E+02  0.00000000000E+00 0.  1.
         11    1    1    2    0    0  0.32745626955E+02  0.80524200104E+02  0.43194473882E+03  0.44060490270E+03  0.00000000000E+00 0. -1.
</event>
<event>
 7    1  0.1226955E-005  0.8879630E+02  0.7561462E-02  0.1305793E+00
         -1   -1    0    0    0  501 -0.00000000000E+00  0.00000000000E+00  0.43492737826E+03  0.43492737826E+03  0.00000000000E+00 0.  1.
          1   -1    0    0  501    0  0.00000000000E+00 -0.00000000000E+00 -0.41854318104E+02  0.41854318104E+02  0.00000000000E+00 0. -1.
         23    2    1    2    0    0  0.49673085346E+02 -0.48083365195E+02  0.28643597403E+03  0.32011395157E+03  0.12509176373E+03 0.  0.
          5    1    3    3  502    0  0.29499716624E+02 -0.63094392303E+02  0.59352248934E+02  0.91604025428E+02  0.41800000000E+01 0.  1.
         -5    1    3    3    0  502  0.20173368722E+02  0.15011027108E+02  0.22708372510E+03  0.22850992614E+03  0.41800000000E+01 0.  1.
        -11    1    1    2    0    0 -0.55902845802E+02  0.30520635993E+02  0.11853185787E+03  0.13456016766E+03  0.00000000000E+00 0.  1.
         11    1    1    2    0    0  0.62297604557E+01  0.17562729202E+02 -0.11894771740E+02  0.22107577142E+02  0.00000000000E+00 0. -1.
</event>
<event>
 7    1  0.1226955E-005  0.1505374E+03  0.7561462E-02  0.1199814E+00
         -2   -1    0    0    0  501 -0.00000000000E+00  0.00000000000E+00  0.78171165313E+02  0.78171165313E+02  0.00000000000E+00 0.  1.
          2   -1    0    0  501    0  0.00000000000E+00 -0.00000000000E+00 -0.31614362966E+03  0.31614362966E+03  0.00000000000E+00 0. -1.
         23    2    1    2    0    0  0.71565659902E+02 -0.85317032764E+02 -0.15322707000E+03  0.22699612661E+03  0.12509223300E+03 0.  0.
          5    1    3    3  502    0 -0.21182334242E+02  0.14552541126E+02 -0.48554410217E+02  0.55095107666E+02  0.41800000000E+01 0. -1.
         -5    1    3    3    0  502  0.92747994144E+02 -0.99869573890E+02 -0.10467265978E+03  0.17190101894E+03  0.41800000000E+01 0. -1.
        -11    1    1    2    0    0 -0.75148444997E+01 -0.16648200186E+02  0.27527654416E+01  0.18471956444E+02  0.00000000000E+00 0. -1.
         11    1    1    2    0    0 -0.64050815402E+02  0.10196523295E+03 -0.87498159792E+02  0.14884671193E+03  0.00000000000E+00 0.  1.
</event>
<event>
 7    1  0.1226955E-005  0.1688806E+03  0.7561462E-02  0.1179020E+00
          2   -1    0    0  501    0  0.00000000000E+00  0.00000000000E+00  0.57691568035E+03  0.57691568035E+03  0.00000000000E+00 0. -1.
         -2   -1    0    0    0  501 -0.00000000000E+00 -0.00000000000E+00 -0.59872861510E+02  0.59872861510E+02  0.00000000000E+00 0.  1.
         23    2    1    2    0    0 -0.14101674932E+03  0.36938872610E+01  0.18318320608E+03  0.26287426492E+03  0.12508966295E+03 0.  0.
          5    1    3    3  502    0 -0.15574887149E+03 -0.57669490663E+01  0.18800196415E+03  0.24424000409E+03  0.41800000000E+01 0. -1.
         -5    1    3    3    0  502  0.14732122170E+02  0.94608363273E+01 -0.48187580674E+01  0.18634260838E+02  0.41800000000E+01 0. -1.
        -11    1    1    2    0    0  0.14314889590E+03  0.15999947864E+02  0.31584356952E+03  0.34713796268E+03  0.00000000000E+00 0. -1.
         11    1    1    2    0    0 -0.21321465741E+01 -0.19693835125E+02  0.18016043242E+02  0.26776314254E+02  0.00000000000E+00 0.  1.
</event>
<event>
 7    1  0.1226955E-005  0.1116999E+03  0.7561462E-02  0.1257454E+00
          3   -1    0    0  501    0  0.00000000000E+00  0.00000000000E+00  0.83853394478E+02  0.83853394478E+02  0.00000000000E+00 0. -1.
         -3   -1    0    0    0  501 -0.00000000000E+00 -0.00000000000E+00 -0.28524727812E+03  0.28524727812E+03  0.00000000000E+00 0.  1.
         23    2    1    2    0    0 -0.44728523513E+02 -0.22601145221E+02 -0.22486892004E+03  0.26215094434E+03  0.12508250811E+03 0.  0.
          5    1    3    3  502    0 -0.49894904323E+02  0.42879894993E+02 -0.14006576308E+03  0.15480335028E+03  0.41800000000E+01 0. -1.
         -5    1    3    3    0  502  0.51663808105E+01 -0.65481040213E+02 -0.84803156965E+02  0.10734759405E+03  0.41800000000E+01 0. -1.
        -11    1    1    2    0    0 -0.17261474324E+02  0.24110306814E+02 -0.15750723562E+02  0.33576043293E+02  0.00000000000E+00 0. -1.
         11    1    1    2    0    0  0.61989997837E+02 -0.15091615936E+01  0.39225759965E+02  0.73373684965E+02  0.00000000000E+00 0.  1.
</event>
<event>
 7    1  0.1226955E-005  0.1077095E+03  0.7561462E-02  0.1264871E+00
          1   -1    0    0  501    0  0.00000000000E+00  0.00000000000E+00  0.20387090680E+03  0.20387090680E+03  0.00000000000E+00 0. -1.
         -1   -1    0    0    0  501 -0.00000000000E+00 -0.00000000000E+00 -0.13166157848E+03  0.13166157848E+03  0.00000000000E+00 0.  1.
         23    2    1    2    0    0  0.74199336097E+02  0.65275483773E+02 -0.34859911554E+02  0.16318446202E+03  0.12509006737E+03 0.  0.
          5    1    3    3  502    0  0.48375247787E+02  0.31392306423E+01 -0.71474834277E+02  0.86464696278E+02  0.41800000000E+01 0.  1.
         -5    1    3    3    0  502  0.25824088309E+02  0.62136253131E+02  0.36614922723E+02  0.76719765746E+02  0.41800000000E+01 0.  1.
        -11    1    1    2    0    0 -0.36342306632E+02 -0.25263216712E+02  0.10856935291E+03  0.11724460653E+03  0.00000000000E+00 0. -1.
         11    1    1    2    0    0 -0.37857029465E+02 -0.40012267061E+02 -0.15001130305E+01  0.55103416722E+02  0.00000000000E+00 0.  1.
</event>
<event>
 7    1  0.1226955E-005  0.1066113E+03  0.7561462E-02  0.1266977E+00
         -2   -1    0    0    0  501 -0.00000000000E+00  0.00000000000E+00  0.19357939565E+02  0.19357939565E+02  0.00000000000E+00 0.  1.
          2   -1    0    0  501    0  0.00000000000E+00 -0.00000000000E+00 -0.61892327554E+03  0.61892327554E+03  0.00000000000E+00 0. -1.
         23    2    1    2    0    0  0.16615606355E+02  0.27659666451E+01 -0.32413898151E+03  0.34784764475E+03  0.12509266838E+03 0.  0.
          5    1    3    3  502    0 -0.41061621244E+02  0.39970462630E+02 -0.14632569444E+03  0.15720170442E+03  0.41800000000E+01 0. -1.
         -5    1    3    3    0  502  0.57677227599E+02 -0.37204495985E+02 -0.17781328707E+03  0.19064594033E+03  0.41800000000E+01 0. -1.
        -11    1    1    2    0    0 -0.40346936601E+02  0.27289336190E+02 -0.10485685293E+03  0.11561809014E+03  0.00000000000E+00 0. -1.
         11    1    1    2    0    0  0.23731330245E+02 -0.30055302835E+02 -0.17056950154E+03  0.17481548021E+03  0.00000000000E+00 0.  1.
</event>
<event>
 7    1  0.1226955E-005  0.5557572E+02  0.7561462E-02  0.1417396E+00
          2   -1    0    0  501    0  0.00000000000E+00  0.00000000000E+00  0.50321296865E+02  0.50321296865E+02  0.00000000000E+00 0. -1.
         -2   -1    0    0    0  501 -0.00000000000E+00 -0.00000000000E+00 -0.23305118712E+03  0.23305118712E+03  0.00000000000E+00 0.  1.
         23    2    1    2    0    0  0.10966633727E+02 -0.15658836787E+02 -0.97442963950E+02  0.15971899597E+03  0.12509820232E+03 0.  0.
          5    1    3    3  502    0  0.34015760372E+01 -0.15207416619E+02 -0.12746105344E+03  0.12847812570E+03  0.41800000000E+01 0. -1.
         -5    1    3    3    0  502  0.75650576898E+01 -0.45142016733E+00  0.30018089492E+02  0.31240870263E+02  0.41800000000E+01 0. -1.
        -11    1    1    2    0    0 -0.40955566245E+02 -0.14866955278E+02 -0.26692055185E+02  0.51096483007E+02  0.00000000000E+00 0. -1.
         11    1    1    2    0    0  0.29988932518E+02  0.30525792065E+02 -0.58594871120E+02  0.72557005012E+02  0.00000000000E+00 0.  1.
</event>
<event>
 7    1  0.1226955E-005  0.5630612E+02  0.7561462E-02  0.1414021E+00
          3   -1    0    0  501    0  0.00000000000E+00  0.00000000000E+00  0.63983175890E+02  0.63983175890E+02  0.00000000000E+00 0. -1.
         -3   -1    0    0    0  501 -0.00000000000E+00 -0.00000000000E+00 -0.30496987724E+03  0.30496987724E+03  0.00000000000E+00 0.  1.
         23    2    1    2    0    0  0.47510919530E+02  0.44684430755E+01 -0.22496299521E+03  0.26178865353E+03  0.12509074884E+03 0.  0.
          5    1    3    3  502    0  0.31809190762E+02 -0.32901351965E+01  0.36597875321E+01  0.32457911999E+02  0.41800000000E+01 0. -1.
         -5    1    3    3    0  502  0.15701728768E+02  0.77585782720E+01 -0.22862278274E+03  0.22933074153E+03  0.41800000000E+01 0. -1.
        -11    1    1    2    0    0 -0.21308490447E+02 -0.22157559051E+02 -0.51293249337E+02  0.59799720867E+02  0.00000000000E+00 0.  1.
         11    1    1    2    0    0 -0.26202429083E+02  0.17689115975E+02  0.35269543199E+02  0.47364678731E+02  0.00000000000E+00 0. -1.
</event>
<event>
 7    1  0.1226955E-005  0.2873004E+03  0.7561462E-02  0.1091767E+00
          1   -1    0    0  501    0  0.00000000000E+00  0.00000000000E+00  0.20265401325E+03  0.20265401325E+03  0.00000000000E+00 0. -1.
         -1   -1    0    0    0  501 -0.00000000000E+00 -0.00000000000E+00 -0.45032622488E+03  0.45032622488E+03  0.00000000000E+00 0.  1.
         23    2    1    2    0    0  0.24033409377E+03 -0.11284308934E+03 -0.22645234606E+03  0.37070496545E+03  0.12508983547E+03 0.  0.
          5    1    3    3  502    0  0.95287414880E+02 -0.11323219653E+03 -0.10541918691E+03  0.18174679952E+03  0.41800000000E+01 0. -1.
         -5    1    3    3    0  502  0.14504667889E+03  0.38910718990E+00 -0.12103315915E+03  0.18895816594E+03  0.41800000000E+01 0. -1.
        -11    1    1    2    0    0 -0.20084685209E+03  0.49591947527E+02 -0.13697228074E+02  0.20733169876E+03  0.00000000000E+00 0. -1.
         11    1    1    2    0    0 -0.39487241675E+02  0.63251141815E+02 -0.75226374910E+01  0.74943573913E+02  0.00000000000E+00 0.  1.
</event>
<event>
 7    1  0.1226955E-005  0.1068704E+03  0.7561462E-02  0.1266478E+00
         -2   -1    0    0    0  501 -0.00000000000E+00  0.00000000000E+00  0.15359056895E+03  0.15359056895E+03  0.00000000000E+00 0.  1.
          2   -1    0    0  501    0  0.00000000000E+00 -0.00000000000E+00 -0.84656606143E+02  0.84656606143E+02  0.00000000000E+00 0. -1.
         23    2    1    2    0    0  0.19525306690E+02  0.19700923169E+02  0.59773760769E+02  0.14139910389E+03  0.12510571581E+03 0.  0.
          5    1    3    3  502    0  0.72498134583E+01 -0.52721874110E+02  0.15739580694E+02  0.55653954085E+02  0.41800000000E+01 0.  1.
         -5    1    3    3    0  502  0.12275493231E+02  0.72422797279E+02  0.44034180075E+02  0.85745149802E+02  0.41800000000E+01 0.  1.
        -11    1    1    2    0    0 -0.31939843259E+02  0.24892994877E+02 -0.16724821465E+02  0.43812491762E+02  0.00000000000E+00 0. -1.
         11    1    1    2    0    0  0.12414536569E+02 -0.44593918046E+02  0.25885023500E+02  0.53035579440E+02  0.00000000000E+00 0.  1.
</event>
<event>
 7    1  0.1226955E-005  0.1370157E+03  0.7561462E-02  0.1217402E+00
         -2   -1    0    0    0  501 -0.00000000000E+00  0.00000000000E+00  0.86144710946E+03  0.86144710946E+03  0.00000000000E+00 0.  1.
          2   -1    0    0  501    0  0.00000000000E+00 -0.00000000000E+00 -0.23128129250E+02  0.23128129250E+02  0.00000000000E+00 0. -1.
         23    2    1    2    0    0  0.55965853451E+02 -0.63999549749E+02  0.54592693520E+03  0.56649042628E+03  0.12508823034E+03 0.  0.
          5    1    3    3  502    0 -0.38555949976E+02 -0.66299548709E+01  0.11326302673E+03  0.11990205671E+03  0.41800000000E+01 0.  1.
         -5    1    3    3    0  502  0.94521803427E+02 -0.57369594878E+02  0.43266390847E+03  0.44658836957E+03  0.41800000000E+01 0.  1.
        -11    1    1    2    0    0  0.94517160826E+01  0.57530495845E+02  0.11566848890E+03  0.12953104730E+03  0.00000000000E+00 0.  1.
         11    1    1    2    0    0 -0.65417569533E+02  0.64690539038E+01  0.17672355610E+03  0.18855376513E+03  0.00000000000E+00 0. -1.
</event>
<event>
 7    1  0.1226955E-005  0.1547095E+03  0.7561462E-02  0.1194803E+00
         -2   -1    0    0    0  501 -0.00000000000E+00  0.00000000000E+00  0.25710497840E+03  0.25710497840E+03  0.00000000000E+00 0.  1.
          2   -1    0    0  501    0  0.00000000000E+00 -0.00000000000E+00 -0.11309069091E+03  0.11309069091E+03  0.00000000000E+00 0. -1.
         23    2    1    2    0    0  0.27318246001E+02 -0.12225660569E+03  0.11951551524E+03  0.21362674223E+03  0.12513777372E+03 0.  0.
          5    1    3    3  502    0 -0.46973305595E+02 -0.22238265835E+02  0.40656911698E+02  0.66117235080E+02  0.41800000000E+01 0.  1.
         -5    1    3    3    0  502  0.74291551596E+02 -0.10001833986E+03  0.78858603543E+02  0.14750950715E+03  0.41800000000E+01 0.  1.
        -11    1    1    2    0    0 -0.38965600831E+02  0.10286798610E+03 -0.15033882776E+02  0.11102323290E+03  0.00000000000E+00 0. -1.
         11    1    1    2    0    0  0.11647354830E+02  0.19388619592E+02  0.39532655025E+02  0.45545694171E+02  0.00000000000E+00 0.  1.
</event>
<event>
 7    1  0.1608907E-005  0.3334952E+03  0.7561462E-02  0.1069601E+00
         -2   -1    0    0    0  501 -0.00000000000E+00  0.00000000000E+00  0.20858354506E+04  0.20858354506E+04  0.00000000000E+00 0.  1.
          2   -1    0    0  501    0  0.00000000000E+00 -0.00000000000E+00 -0.65884634065E+02  0.65884634065E+02  0.00000000000E+00 0. -1.
         23    2    1    2    0    0 -0.25688167108E+03  0.19715279097E+03  0.14405316343E+04  0.14817678655E+04  0.12508877591E+03 0.  0.
          5    1    3    3  502    0  0.37589896722E+01 -0.91279619427E+01  0.10259803259E+03  0.10315657218E+03  0.41800000000E+01 0. -1.
         -5    1    3    3    0  502 -0.26064066075E+03  0.20628075291E+03  0.13379336018E+04  0.13786112933E+04  0.41800000000E+01 0. -1.
        -11    1    1    2    0    0  0.18501833296E+03 -0.14462959545E+03  0.49209398120E+03  0.54525772782E+03  0.00000000000E+00 0.  1.
         11    1    1    2    0    0  0.71863338120E+02 -0.52523195512E+02  0.87325200944E+02  0.12469449127E+03  0.00000000000E+00 0. -1.
</event>
<event>
 7    1  0.1226955E-005  0.1441843E+03  0.7561462E-02  0.1207807E+00
         -1   -1    0    0    0  501 -0.00000000000E+00  0.00000000000E+00  0.26714850614E+02  0.26714850614E+02  0.00000000000E+00 0.  1.
          1   -1    0    0  501    0  0.00000000000E+00 -0.00000000000E+00 -0.98208481680E+03  0.98208481680E+03  0.00000000000E+00 0. -1.
         23    2    1    2    0    0 -0.13683642163E+02  0.10768804675E+03 -0.35014657728E+03  0.38734176511E+03  0.12508820867E+03 0.  0.
          5    1    3    3  502    0  0.11587537946E+02  0.13064167777E+03 -0.27892272635E+03  0.30824807977E+03  0.41800000000E+01 0. -1.
         -5    1    3    3    0  502 -0.25271180109E+02 -0.22953631017E+02 -0.71223850928E+02  0.79093685348E+02  0.41800000000E+01 0. -1.
        -11    1    1    2    0    0 -0.20536813431E+02 -0.20181306092E+02 -0.45094198452E+02  0.53502640640E+02  0.00000000000E+00 0. -1.
         11    1    1    2    0    0  0.34220455595E+02 -0.87506740660E+02 -0.56012919045E+03  0.56795526166E+03  0.00000000000E+00 0.  1.
</event>
<event>
 7    1  0.1226955E-005  0.2851842E+03  0.7561462E-02  0.1092891E+00
         -3   -1    0    0    0  501 -0.00000000000E+00  0.00000000000E+00  0.53179564404E+03  0.53179564404E+03  0.00000000000E+00 0.  1.
          3   -1    0    0  501    0  0.00000000000E+00 -0.00000000000E+00 -0.17680625722E+03  0.17680625722E+03  0.00000000000E+00 0. -1.
         23    2    1    2    0    0  0.12257122958E+03  0.24398689267E+03  0.27960608217E+03  0.41034272429E+03  0.12509308564E+03 0.  0.
          5    1    3    3  502    0  0.55740185395E+01 -0.46430427166E+01  0.54396845655E+02  0.55037412235E+02  0.41800000000E+01 0.  1.
         -5    1    3    3    0  502  0.11699721105E+03  0.24862993538E+03  0.22520923652E+03  0.35530531205E+03  0.41800000000E+01 0.  1.
        -11    1    1    2    0    0 -0.10945234174E+03 -0.11967061884E+03  0.57039537029E+02  0.17191387644E+03  0.00000000000E+00 0. -1.
         11    1    1    2    0    0 -0.13118887840E+02 -0.12431627383E+03  0.18343767623E+02  0.12634530053E+03  0.00000000000E+00 0.  1.
</event>
<event>
 7    1  0.1226955E-005  0.1091075E+03  0.7561462E-02  0.1262232E+00
          2   -1    0    0  501    0  0.00000000000E+00  0.00000000000E+00  0.46889067229E+03  0.46889067229E+03  0.00000000000E+00 0. -1.
         -2   -1    0    0    0  501 -0.00000000000E+00 -0.00000000000E+00 -0.25544530327E+02  0.25544530327E+02  0.00000000000E+00 0.  1.
         23    2    1    2    0    0 -0.18980513780E+02 -0.11758637732E+02  0.24721217631E+03  0.27795875954E+03  0.12509470983E+03 0.  0.
          5    1    3    3  502    0  0.49442272836E+02  0.17243050288E+02  0.10799983020E+03  0.12009703098E+03  0.41800000000E+01 0. -1.
         -5    1    3    3    0  502 -0.68422786616E+02 -0.29001688021E+02  0.13921234611E+03  0.15786172857E+03  0.41800000000E+01 0. -1.
        -11    1    1    2    0    0  0.54241419928E+02  0.51926084733E+00  0.10698353548E+03  0.11994948158E+03  0.00000000000E+00 0.  1.
         11    1    1    2    0    0 -0.35260906148E+02  0.11239376885E+02  0.89150430178E+02  0.96526961498E+02  0.00000000000E+00 0. -1.
</event>
<event>
 7    1  0.1226955E-005  0.1599779E+03  0.7561462E-02  0.1188722E+00
          2   -1    0    0  501    0  0.00000000000E+00  0.00000000000E+00  0.92276030003E+02  0.92276030003E+02  0.00000000000E+00 0.  1.
         -2   -1    0    0    0  501 -0.00000000000E+00 -0.00000000000E+00 -0.12618778288E+04  0.12618778288E+04  0.00000000000E+00 0. -1.
         23    2    1    2    0    0 -0.91311727028E+02 -0.81789849073E+02 -0.11875863651E+04  0.12004318662E+04  0.12509148676E+03 0.  0.
          5    1    3    3  502    0 -0.99166560978E+02 -0.10494101498E+03 -0.87296738211E+03  0.88483679064E+03  0.41800000000E+01 0. -1.
         -5    1    3    3    0  502  0.78548339503E+01  0.23151165909E+02 -0.31461898296E+03  0.31559507559E+03  0.41800000000E+01 0. -1.
        -11    1    1    2    0    0  0.38618859356E+02 -0.14250135126E+02  0.15983273173E+02  0.44158211812E+02  0.00000000000E+00 0. -1.
         11    1    1    2    0    0  0.52692867672E+02  0.96039984199E+02  0.20012931531E+01  0.10956378071E+03  0.00000000000E+00 0.  1.
</event>
<event>
 7    1  0.1226955E-005  0.1156261E+03  0.7561462E-02  0.1250492E+00
          2   -1    0    0  501    0  0.00000000000E+00  0.00000000000E+00  0.55154215234E+03  0.55154215234E+03  0.00000000000E+00 0. -1.
         -2   -1    0    0    0  501 -0.00000000000E+00 -0.00000000000E+00 -0.40297528953E+02  0.40297528953E+02  0.00000000000E+00 0.  1.
         23    2    1    2    0    0 -0.10151932196E+03  0.99264568785E+01  0.26334300556E+03  0.30885449385E+03  0.12504740107E+03 0.  0.
          5    1    3    3  502    0 -0.27982314776E+02  0.42703707351E+01 -0.62802642083E+01  0.29294370192E+02  0.41800000000E+01 0.  1.
         -5    1    3    3    0  502 -0.73537007187E+02  0.56560861434E+01  0.26962326977E+03  0.27956012366E+03  0.41800000000E+01 0.  1.
        -11    1    1    2    0    0  0.92965228518E+02 -0.37238575244E+02  0.22516913962E+03  0.24643535996E+03  0.00000000000E+00 0.  1.
         11    1    1    2    0    0  0.85540934439E+01  0.27312118365E+02  0.22732478206E+02  0.36549827491E+02  0.00000000000E+00 0. -1.
</event>
<event>
 7    1  0.1226955E-005  0.2424138E+03  0.7561462E-02  0.1118195E+00
         -2   -1    0    0    0  501 -0.00000000000E+00  0.00000000000E+00  0.24353015320E+03  0.24353015320E+03  0.00000000000E+00 0.  1.
          2   -1    0    0  501    0  0.00000000000E+00 -0.00000000000E+00 -0.27267587082E+03  0.27267587082E+03  0.00000000000E+00 0. -1.
         23    2    1    2    0    0 -0.18595018708E+03  0.14301106900E+03  0.27492170574E+01  0.26586568334E+03  0.12508942982E+03 0.  0.
          5    1    3    3  502    0 -0.81538859321E+02  0.12335962566E+02  0.43963349927E+02  0.93546833665E+02  0.41800000000E+01 0.  1.
         -5    1    3    3    0  502 -0.10441132776E+03  0.13067510643E+03 -0.41214132870E+02  0.17231884967E+03  0.41800000000E+01 0.  1.
        -11    1    1    2    0    0  0.16616393118E+03 -0.13255070687E+03 -0.14589828596E+01  0.21256121600E+03  0.00000000000E+00 0.  1.
         11    1    1    2    0    0  0.19786255901E+02 -0.10460362124E+02 -0.30435951825E+02  0.37779124683E+02  0.00000000000E+00 0. -1.
</event>
<event>
 7    1  0.1226955E-005  0.3920020E+03  0.7561462E-02  0.1046585E+00
          2   -1    0    0  501    0  0.00000000000E+00  0.00000000000E+00  0.19951563775E+03  0.19951563775E+03  0.00000000000E+00 0.  1.
         -2   -1    0    0    0  501 -0.00000000000E+00 -0.00000000000E+00 -0.93205754078E+03  0.93205754078E+03  0.00000000000E+00 0. -1.
         23    2    1    2    0    0 -0.37178721905E+03  0.75958790329E+02 -0.59716330538E+03  0.71850603055E+03  0.12510566961E+03 0.  0.
          5    1    3    3  502    0 -0.13938338399E+03 -0.27259332319E+02 -0.17219404646E+03  0.22324663708E+03  0.41800000000E+01 0. -1.
         -5    1    3    3    0  502 -0.23240383506E+03  0.10321812265E+03 -0.42496925892E+03  0.49525939347E+03  0.41800000000E+01 0. -1.
        -11    1    1    2    0    0  0.34606686996E+03 -0.90951388478E+02 -0.11115547017E+03  0.37468649842E+03  0.00000000000E+00 0.  1.
         11    1    1    2    0    0  0.25720349090E+02  0.14992598149E+02 -0.24223127484E+02  0.38380649574E+02  0.00000000000E+00 0. -1.
</event>
<event>
 7    1  0.1226955E-005  0.5768796E+02  0.7561462E-02  0.1407799E+00
          1   -1    0    0  501    0  0.00000000000E+00  0.00000000000E+00  0.44809136850E+03  0.44809136850E+03  0.00000000000E+00 0. -1.
         -1   -1    0    0    0  501 -0.00000000000E+00 -0.00000000000E+00 -0.43159872199E+02  0.43159872199E+02  0.00000000000E+00 0.  1.
         23    2    1    2    0    0  0.21582440909E+01 -0.25239139904E+01  0.68613992857E+02  0.14270825889E+03  0.12508692570E+03 0.  0.
          5    1    3    3  502    0 -0.10860561970E+02 -0.10174628911E+01 -0.35663199792E+02  0.37527633238E+02  0.41800000000E+01 0. -1.
         -5    1    3    3    0  502  0.13018806061E+02 -0.15064510993E+01  0.10427719265E+03  0.10518062565E+03  0.41800000000E+01 0. -1.
        -11    1    1    2    0    0 -0.36013358218E+02 -0.27005761491E+02  0.13623291850E+03  0.14347711039E+03  0.00000000000E+00 0.  1.
         11    1    1    2    0    0  0.33855114128E+02  0.29529675481E+02  0.20008458494E+03  0.20506587141E+03  0.00000000000E+00 0. -1.
</event>
<event>
 7    1  0.1226955E-005  0.1011964E+03  0.7561462E-02  0.1277800E+00
          1   -1    0    0  501    0  0.00000000000E+00  0.00000000000E+00  0.43884500644E+03  0.43884500644E+03  0.00000000000E+00 0. -1.
         -1   -1    0    0    0  501 -0.00000000000E+00 -0.00000000000E+00 -0.34243355240E+02  0.34243355240E+02  0.00000000000E+00 0.  1.
         23    2    1    2    0    0 -0.38870441362E+02 -0.36902421888E+02  0.18728002071E+03  0.23150483416E+03  0.12509189473E+03 0.  0.
          5    1    3    3  502    0 -0.48009405325E+02  0.20002043106E+02  0.15866252702E+03  0.16702171897E+03  0.41800000000E+01 0. -1.
         -5    1    3    3    0  502  0.91389639633E+01 -0.56904464994E+02  0.28617493692E+02  0.64483115184E+02  0.41800000000E+01 0. -1.
        -11    1    1    2    0    0  0.32702351214E+02 -0.17900885560E+02  0.14996583906E+03  0.15453038007E+03  0.00000000000E+00 0. -1.
         11    1    1    2    0    0  0.61680901484E+01  0.54803307448E+02  0.67355791428E+02  0.87053147457E+02  0.00000000000E+00 0.  1.
</event>
<event>
 7    1  0.1226955E-005  0.2288133E+03  0.7561462E-02  0.1127478E+00
         -2   -1    0    0    0  501 -0.00000000000E+00  0.00000000000E+00  0.96715413810E+02  0.96715413810E+02  0.00000000000E+00 0.  1.
          2   -1    0    0  501    0  0.00000000000E+00 -0.00000000000E+00 -0.57605235983E+03  0.57605235983E+03  0.00000000000E+00 0. -1.
         23    2    1    2    0    0 -0.19998731817E+03 -0.52580421756E+02 -0.20694557912E+03  0.31817124230E+03  0.12508732361E+03 0.  0.
          5    1    3    3  502    0 -0.21525579188E+03 -0.59420275710E+02 -0.18345975942E+03  0.28903422086E+03  0.41800000000E+01 0. -1.
         -5    1    3    3    0  502  0.15268473704E+02  0.68398539539E+01 -0.23485819705E+02  0.29137021443E+02  0.41800000000E+01 0. -1.
        -11    1    1    2    0    0  0.12435162711E+03 -0.98201614742E+00 -0.10285036761E+03  0.16137685595E+03  0.00000000000E+00 0.  1.
         11    1    1    2    0    0  0.75635691066E+02  0.53562437903E+02 -0.16954099928E+03  0.19321967538E+03  0.00000000000E+00 0. -1.
</event>
<event>
 7    1  0.1226955E-005  0.1497172E+03  0.7561462E-02  0.1200821E+00
          3   -1    0    0  501    0  0.00000000000E+00  0.00000000000E+00  0.72327933504E+02  0.72327933504E+02  0.00000000000E+00 0. -1.
         -3   -1    0    0    0  501 -0.00000000000E+00 -0.00000000000E+00 -0.38681558946E+03  0.38681558946E+03  0.00000000000E+00 0.  1.
         23    2    1    2    0    0 -0.12009105051E+03  0.11034683497E+02 -0.14020291171E+03  0.22326838394E+03  0.12509312596E+03 0.  0.
          5    1    3    3  502    0  0.32736272989E+01 -0.21817482154E+02 -0.78052638588E+02  0.81218261209E+02  0.41800000000E+01 0.  1.
         -5    1    3    3    0  502 -0.12336467781E+03  0.32852165651E+02 -0.62150273126E+02  0.14205012273E+03  0.41800000000E+01 0.  1.
        -11    1    1    2    0    0  0.48003724304E+02  0.38706534958E+02 -0.33787238319E+02  0.70314513926E+02  0.00000000000E+00 0. -1.
         11    1    1    2    0    0  0.72087326203E+02 -0.49741218455E+02 -0.14049750592E+03  0.16556062510E+03  0.00000000000E+00 0.  1.
</event>
<event>
 7    1  0.1226955E-005  0.1158214E+03  0.7561462E-02  0.1250154E+00
         -2   -1    0    0    0  501 -0.00000000000E+00  0.00000000000E+00  0.78762965821E+02  0.78762965821E+02  0.00000000000E+00 0.  1.
          2   -1    0    0  501    0  0.00000000000E+00 -0.00000000000E+00 -0.46479452726E+03  0.46479452726E+03  0.00000000000E+00 0. -1.
         23    2    1    2    0    0  0.76378602941E+02  0.31705341066E+02 -0.11821412880E+02  0.15037684357E+03  0.12503811275E+03 0.  0.
          5    1    3    3  502    0  0.79466153109E+02  0.48949056358E+02 -0.51587808148E+02  0.10672232174E+03  0.41800000000E+01 0. -1.
         -5    1    3    3    0  502 -0.30875501684E+01 -0.17243715292E+02  0.39766395268E+02  0.43654521825E+02  0.41800000000E+01 0. -1.
        -11    1    1    2    0    0 -0.40587828591E+02  0.28898135079E+02 -0.13865981380E+03  0.14733980454E+03  0.00000000000E+00 0.  1.
         11    1    1    2    0    0 -0.35790774350E+02 -0.60603476145E+02 -0.23555033476E+03  0.24584084497E+03  0.00000000000E+00 0. -1.
</event>
<event>
 7    1  0.1226955E-005  0.1566440E+03  0.7561462E-02  0.1192539E+00
         -2   -1    0    0    0  501 -0.00000000000E+00  0.00000000000E+00  0.43310094440E+03  0.43310094440E+03  0.00000000000E+00 0.  1.
          2   -1    0    0  501    0  0.00000000000E+00 -0.00000000000E+00 -0.65062879817E+02  0.65062879817E+02  0.00000000000E+00 0. -1.
         23    2    1    2    0    0 -0.10023426897E+03  0.62601601432E+02  0.27094020301E+03  0.32096913231E+03  0.12508685428E+03 0.  0.
          5    1    3    3  502    0 -0.12255175813E+03  0.75249118960E+02  0.24579865470E+03  0.28480838186E+03  0.41800000000E+01 0.  1.
         -5    1    3    3    0  502  0.22317489160E+02 -0.12647517528E+02  0.25141548304E+02  0.36160750451E+02  0.41800000000E+01 0.  1.
        -11    1    1    2    0    0  0.72432090643E+02 -0.82088068349E+02  0.53250041144E+02  0.12173917037E+03  0.00000000000E+00 0. -1.
         11    1    1    2    0    0  0.27802178322E+02  0.19486466918E+02  0.43847820434E+02  0.55455521539E+02  0.00000000000E+00 0.  1.
</event>
<event>
 7    1  0.1226955E-005  0.6651638E+02  0.7561462E-02  0.1372357E+00
         -2   -1    0    0    0  501 -0.00000000000E+00  0.00000000000E+00  0.10557583201E+03  0.10557583201E+03  0.00000000000E+00 0. -1.
          2   -1    0    0  501    0  0.00000000000E+00 -0.00000000000E+00 -0.12260586348E+03  0.12260586348E+03  0.00000000000E+00 0.  1.
         23    2    1    2    0    0 -0.20941209945E+02 -0.28059910967E+02 -0.21247441971E+00  0.12989801317E+03  0.12509019067E+03 0.  0.
          5    1    3    3  502    0  0.25009116799E+02  0.18029381972E+02 -0.42129672313E+02  0.52372666789E+02  0.41800000000E+01 0. -1.
         -5    1    3    3    0  502 -0.45950326744E+02 -0.46089292939E+02  0.41917197894E+02  0.77525346376E+02  0.41800000000E+01 0. -1.
        -11    1    1    2    0    0  0.12627955162E+02  0.78947378960E+01 -0.53539658047E+02  0.55572359333E+02  0.00000000000E+00 0.  1.
         11    1    1    2    0    0  0.83132547821E+01  0.20165173071E+02  0.36722100999E+02  0.42711322993E+02  0.00000000000E+00 0. -1.
</event>
<event>
 7    1  0.1226955E-005  0.2435222E+03  0.7561462E-02  0.1117468E+00
          1   -1    0    0  501    0  0.00000000000E+00  0.00000000000E+00  0.11608548400E+04  0.11608548400E+04  0.00000000000E+00 0. -1.
         -1   -1    0    0    0  501 -0.00000000000E+00 -0.00000000000E+00 -0.62891635306E+02  0.62891635306E+02  0.00000000000E+00 0.  1.
         23    2    1    2    0    0  0.20684824085E+03 -0.12373000522E+03  0.45821872113E+03  0.53264304947E+03  0.12509561473E+03 0.  0.
          5    1    3    3  502    0  0.87035402042E+02 -0.24938176734E+02  0.28924219216E+03  0.30310986786E+03  0.41800000000E+01 0. -1.
         -5    1    3    3    0  502  0.11981283881E+03 -0.98791828485E+02  0.16897652896E+03  0.22953318161E+03  0.41800000000E+01 0. -1.
        -11    1    1    2    0    0 -0.17726035803E+03  0.10767898249E+03  0.61581552072E+03  0.64980362677E+03  0.00000000000E+00 0.  1.
         11    1    1    2    0    0 -0.29587882822E+02  0.16051022730E+02  0.23928962859E+02  0.41299799080E+02  0.00000000000E+00 0. -1.
</event>
<event>
 7    1  0.1226955E-005  0.1191158E+03  0.7561462E-02  0.1244563E+00
          1   -1    0    0  501    0  0.00000000000E+00  0.00000000000E+00  0.21467670956E+02  0.21467670956E+02  0.00000000000E+00 0. -1.
         -1   -1    0    0    0  501 -0.00000000000E+00 -0.00000000000E+00 -0.75934105613E+03  0.75934105613E+03  0.00000000000E+00 0.  1.
         23    2    1    2    0    0 -0.37336171937E+02  0.47169587898E+02 -0.50069689134E+03  0.51958082652E+03  0.12509156062E+03 0.  0.
          5    1    3    3  502    0 -0.63122028466E+02 -0.17351819760E+02 -0.18454656172E+03  0.19585806588E+03  0.41800000000E+01 0.  1.
         -5    1    3    3    0  502  0.25785856529E+02  0.64521407658E+02 -0.31615032961E+03  0.32372276064E+03  0.41800000000E+01 0.  1.
        -11    1    1    2    0    0  0.50378048754E+02 -0.64180361616E+02 -0.14296560317E+03  0.16460932629E+03  0.00000000000E+00 0.  1.
         11    1    1    2    0    0 -0.13041876817E+02  0.17010773718E+02 -0.94210890668E+02  0.96618574269E+02  0.00000000000E+00 0. -1.
</event>
<event>
 7    1  0.1226955E-005  0.9106551E+02  0.7561462E-02  0.1300292E+00
          3   -1    0    0  501    0  0.00000000000E+00  0.00000000000E+00  0.14241932077E+02  0.14241932077E+02  0.00000000000E+00 0. -1.
         -3   -1    0    0    0  501 -0.00000000000E+00 -0.00000000000E+00 -0.71483431754E+03  0.71483431754E+03  0.00000000000E+00 0.  1.
         23    2    1    2    0    0  0.37850208873E+01 -0.46175434257E+02 -0.55878782706E+03  0.57448909461E+03  0.12508951613E+03 0.  0.
          5    1    3    3  502    0  0.51771099935E+01 -0.89020173097E+02 -0.40920708404E+03  0.41883087722E+03  0.41800000000E+01 0.  1.
         -5    1    3    3    0  502 -0.13920891062E+01  0.42844738839E+02 -0.14958074301E+03  0.15565821738E+03  0.41800000000E+01 0.  1.
        -11    1    1    2    0    0 -0.88645720904E+01  0.10433720559E+02 -0.76985855347E+01  0.15707048809E+02  0.00000000000E+00 0. -1.
         11    1    1    2    0    0  0.50795512031E+01  0.35741713698E+02 -0.13410597287E+03  0.13888010620E+03  0.00000000000E+00 0.  1.
</event>
<event>
 7    1  0.1226955E-005  0.1971415E+03  0.7561462E-02  0.1152173E+00
          2   -1    0    0  501    0  0.00000000000E+00  0.00000000000E+00  0.34443487688E+03  0.34443487688E+03  0.00000000000E+00 0.  1.
         -2   -1    0    0    0  501 -0.00000000000E+00 -0.00000000000E+00 -0.13499338099E+03  0.13499338099E+03  0.00000000000E+00 0. -1.
         23    2    1    2    0    0 -0.17592142897E+03  0.57515554157E+02  0.12745347075E+03  0.25719235511E+03  0.12508849740E+03 0.  0.
          5    1    3    3  502    0 -0.57005669974E+02 -0.22177940454E+02  0.90461384033E+02  0.10928056485E+03  0.41800000000E+01 0. -1.
         -5    1    3    3    0  502 -0.11891575899E+03  0.79693494611E+02  0.36992086722E+02  0.14791179027E+03  0.41800000000E+01 0. -1.
        -11    1    1    2    0    0  0.81121147142E+02 -0.48546015073E+02 -0.30235603804E+01  0.94585929242E+02  0.00000000000E+00 0. -1.
         11    1    1    2    0    0  0.94800281825E+02 -0.89695390835E+01  0.85011585513E+02  0.12764997351E+03  0.00000000000E+00 0.  1.
</event>
<event>
 7    1  0.1226955E-005  0.1201139E+03  0.7561462E-02  0.1242909E+00
         -1   -1    0    0    0  501 -0.00000000000E+00  0.00000000000E+00  0.23606375255E+02  0.23606375255E+02  0.00000000000E+00 0.  1.
          1   -1    0    0  501    0  0.00000000000E+00 -0.00000000000E+00 -0.80043303730E+03  0.80043303730E+03  0.00000000000E+00 0. -1.
         23    2    1    2    0    0 -0.56791847830E+02  0.55991470160E+02 -0.34481016437E+03  0.37537243299E+03  0.12510018100E+03 0.  0.
          5    1    3    3  502    0 -0.27112636406E+02 -0.22292338148E+02 -0.21502845187E+02  0.41374970019E+02  0.41800000000E+01 0. -1.
         -5    1    3    3    0  502 -0.29679211425E+02  0.78283808307E+02 -0.32330731918E+03  0.33399746297E+03  0.41800000000E+01 0. -1.
        -11    1    1    2    0    0  0.43084064513E+02  0.17347196011E+02 -0.16016500056E+03  0.16676327302E+03  0.00000000000E+00 0.  1.
         11    1    1    2    0    0  0.13707783318E+02 -0.73338666170E+02 -0.27185149712E+03  0.28190370654E+03  0.00000000000E+00 0. -1.
</event>
<event>
 7    1  0.1226955E-005  0.1663806E+03  0.7561462E-02  0.1181676E+00
          1   -1    0    0  501    0  0.00000000000E+00  0.00000000000E+00  0.11576727775E+04  0.11576727775E+04  0.00000000000E+00 0. -1.
         -1   -1    0    0    0  501 -0.00000000000E+00 -0.00000000000E+00 -0.26291267683E+02  0.26291267683E+02  0.00000000000E+00 0.  1.
         23    2    1    2    0    0 -0.11782606626E+03 -0.68168829339E+02  0.58225256830E+03  0.61089740588E+03  0.12509043144E+03 0.  0.
          5    1    3    3  502    0 -0.67879243992E+02 -0.91184748347E+02  0.25766704970E+03  0.28165942377E+03  0.41800000000E+01 0.  1.
         -5    1    3    3    0  502 -0.49946822271E+02  0.23015919008E+02  0.32458551860E+03  0.32923798212E+03  0.41800000000E+01 0.  1.
        -11    1    1    2    0    0  0.13323545320E+03  0.64440705321E+02  0.49196355866E+03  0.51374354842E+03  0.00000000000E+00 0.  1.
         11    1    1    2    0    0 -0.15409386940E+02  0.37281240182E+01  0.57165382879E+02  0.59323090902E+02  0.00000000000E+00 0. -1.
</event>
<event>
 7    1  0.1226955E-005  0.1457383E+03  0.7561462E-02  0.1205810E+00
          1   -1    0    0  501    0  0.00000000000E+00  0.00000000000E+00  0.41489124355E+03  0.41489124355E+03  0.00000000000E+00 0. -1.
         -1   -1    0    0    0  501 -0.00000000000E+00 -0.00000000000E+00 -0.73848718403E+02  0.73848718403E+02  0.00000000000E+00 0.  1.
         23    2    1    2    0    0  0.28237429954E+02  0.12673595932E+03  0.12124527927E+03  0.21727441360E+03  0.12509355389E+03 0.  0.
          5    1    3    3  502    0 -0.29273007859E+02  0.83388516775E+02  0.11467277491E+03  0.14483739650E+03  0.41800000000E+01 0.  1.
         -5    1    3    3    0  502  0.57510437814E+02  0.43347442542E+02  0.65725043529E+01  0.72437017097E+02  0.41800000000E+01 0.  1.
        -11    1    1    2    0    0 -0.27917198754E+02 -0.92411067260E+02  0.21641899738E+03  0.23697332712E+03  0.00000000000E+00 0.  1.
         11    1    1    2    0    0 -0.32023120012E+00 -0.34324892058E+02  0.33782484999E+01  0.34492221235E+02  0.00000000000E+00 0. -1.
</event>
<event>
 7    1  0.1226955E-005  0.1269843E+03  0.7561462E-02  0.1232000E+00
          1   -1    0    0  501    0  0.00000000000E+00  0.00000000000E+00  0.12608054752E+03  0.12608054752E+03  0.00000000000E+00 0.  1.
         -1   -1    0    0    0  501 -0.00000000000E+00 -0.00000000000E+00 -0.20074376123E+03  0.20074376123E+03  0.00000000000E+00 0. -1.
         23    2    1    2    0    0 -0.48957372287E+02  0.79356649646E+02 -0.11424687321E+03  0.19337250100E+03  0.12508506689E+03 0.  0.
          5    1    3    3  502    0 -0.76136932754E+02  0.96965873154E+02 -0.89721114380E+02  0.15253381216E+03  0.41800000000E+01 0. -1.
         -5    1    3    3    0  502  0.27179560467E+02 -0.17609223507E+02 -0.24525758834E+02  0.40838688839E+02  0.41800000000E+01 0. -1.
        -11    1    1    2    0    0  0.23195909267E+02 -0.12585376982E+02  0.54311473180E+02  0.60383590814E+02  0.00000000000E+00 0.  1.
         11    1    1    2    0    0  0.25761463019E+02 -0.66771272664E+02 -0.14727813678E+02  0.73068216933E+02  0.00000000000E+00 0. -1.
</event>
<event>
 7    1  0.1226955E-005  0.1090289E+03  0.7561462E-02  0.1262379E+00
         -1   -1    0    0    0  501 -0.00000000000E+00  0.00000000000E+00  0.62341517201E+03  0.62341517201E+03  0.00000000000E+00 0.  1.
          1   -1    0    0  501    0  0.00000000000E+00 -0.00000000000E+00 -0.23202127107E+02  0.23202127107E+02  0.00000000000E+00 0. -1.
         23    2    1    2    0    0  0.92906267947E+01  0.50946051785E+02  0.35596444038E+03  0.38082614011E+03  0.12504419316E+03 0.  0.
          5    1    3    3  502    0  0.48150071072E+02 -0.28911965912E+01  0.25737636048E+03  0.26189091564E+03  0.41800000000E+01 0.  1.
         -5    1    3    3    0  502 -0.38859444278E+02  0.53837248376E+02  0.98588079898E+02  0.11893522447E+03  0.41800000000E+01 0.  1.
        -11    1    1    2    0    0 -0.47558939104E+02 -0.42809791508E+02  0.12740110413E+03  0.14256778133E+03  0.00000000000E+00 0. -1.
         11    1    1    2    0    0  0.38268312310E+02 -0.81362602763E+01  0.11684750039E+03  0.12322337768E+03  0.00000000000E+00 0.  1.
</event>
<event>
 7    1  0.1226955E-005  0.2359225E+03  0.7561462E-02  0.1122539E+00
          2   -1    0    0  501    0  0.00000000000E+00  0.00000000000E+00  0.60659102073E+03  0.60659102073E+03  0.00000000000E+00 0. -1.
         -2   -1    0    0    0  501 -0.00000000000E+00 -0.00000000000E+00 -0.94604655713E+02  0.94604655713E+02  0.00000000000E+00 0.  1.
         23    2    1    2    0    0 -0.18571584296E+03 -0.10020004905E+03  0.21756387524E+03  0.32789018316E+03  0.12509000058E+03 0.  0.
          5    1    3    3  502    0  0.15292554602E+02  0.47531693535E+01  0.56292029343E+01  0.17481852614E+02  0.41800000000E+01 0. -1.
         -5    1    3    3    0  502 -0.20100839757E+03 -0.10495321841E+03  0.21193467230E+03  0.31040833054E+03  0.41800000000E+01 0. -1.
        -11    1    1    2    0    0  0.13109432744E+03  0.21722601741E+02  0.18825156154E+03  0.23042622362E+03  0.00000000000E+00 0.  1.
         11    1    1    2    0    0  0.54621515528E+02  0.78477447311E+02  0.10617092824E+03  0.14287926966E+03  0.00000000000E+00 0. -1.
</event>
<event>
 7    1  0.1226955E-005  0.1574957E+03  0.7561462E-02  0.1191553E+00
         -1   -1    0    0    0  501 -0.00000000000E+00  0.00000000000E+00  0.45528101136E+03  0.45528101136E+03  0.00000000000E+00 0.  1.
          1   -1    0    0  501    0  0.00000000000E+00 -0.00000000000E+00 -0.64423911208E+02  0.64423911208E+02  0.00000000000E+00 0. -1.
         23    2    1    2    0    0  0.39380723056E+02 -0.12362122879E+03  0.24043650208E+03  0.30048297870E+03  0.12508900593E+03 0.  0.
          5    1    3    3  502    0  0.81770545475E+02 -0.10605435800E+03  0.17320291405E+03  0.21897641607E+03  0.41800000000E+01 0.  1.
         -5    1    3    3    0  502 -0.42389822418E+02 -0.17566870789E+02  0.67233588026E+02  0.81506562637E+02  0.41800000000E+01 0.  1.
        -11    1    1    2    0    0 -0.52461195628E+00  0.62526635811E+02  0.12958060981E+03  0.14387838560E+03  0.00000000000E+00 0.  1.
         11    1    1    2    0    0 -0.38856111100E+02  0.61094592978E+02  0.20839988260E+02  0.75343558262E+02  0.00000000000E+00 0. -1.
</event>
<event>
 7    1  0.1226955E-005  0.1865792E+03  0.7561462E-02  0.1161583E+00
         -1   -1    0    0    0  501 -0.00000000000E+00  0.00000000000E+00  0.14475405772E+03  0.14475405772E+03  0.00000000000E+00 0.  1.
          1   -1    0    0  501    0  0.00000000000E+00 -0.00000000000E+00 -0.28344973963E+03  0.28344973963E+03  0.00000000000E+00 0. -1.
         23    2    1    2    0    0 -0.16398910212E+03 -0.27150481255E+02 -0.44616517800E+02  0.21276088059E+03  0.12508790670E+03 0.  0.
          5    1    3    3  502    0 -0.50186490623E+02  0.42828737705E+02  0.12716378905E+02  0.67321343621E+02  0.41800000000E+01 0. -1.
         -5    1    3    3    0  502 -0.11380261149E+03 -0.69979218959E+02 -0.57332896705E+02  0.14543953697E+03  0.41800000000E+01 0. -1.
        -11    1    1    2    0    0  0.95374471801E+02  0.40272602687E+02 -0.10175686203E+03  0.14516415318E+03  0.00000000000E+00 0. -1.
         11    1    1    2    0    0  0.68614630317E+02 -0.13122121432E+02  0.76776979190E+01  0.70278763576E+02  0.00000000000E+00 0.  1.
</event>
<event>
 7    1  0.1226955E-005  0.1227915E+03  0.7561462E-02  0.1238562E+00
          1   -1    0    0  501    0  0.00000000000E+00  0.00000000000E+00  0.11168542295E+03  0.11168542295E+03  0.00000000000E+00 0. -1.
         -1   -1    0    0    0  501 -0.00000000000E+00 -0.00000000000E+00 -0.15445858816E+03  0.15445858816E+03  0.00000000000E+00 0.  1.
         23    2    1    2    0    0  0.11116411674E+02  0.69051603169E+02 -0.53932044048E+02  0.15312920228E+03  0.12509272044E+03 0.  0.
          5    1    3    3  502    0 -0.41174433278E+02  0.72459443421E+02 -0.89164800738E+01  0.83920682275E+02  0.41800000000E+01 0.  1.
         -5    1    3    3    0  502  0.52290844953E+02 -0.34078402523E+01 -0.45015563974E+02  0.69208520003E+02  0.41800000000E+01 0.  1.
        -11    1    1    2    0    0 -0.80370270981E+01  0.19433860764E+02  0.12501860517E+02  0.24465593497E+02  0.00000000000E+00 0. -1.
         11    1    1    2    0    0 -0.30793845761E+01 -0.88485463932E+02 -0.13429816875E+01  0.88549215335E+02  0.00000000000E+00 0.  1.
</event>
<event>
 7    1  0.1226955E-005  0.8695124E+02  0.7561462E-02  0.1310407E+00
         -1   -1    0    0    0  501 -0.00000000000E+00  0.00000000000E+00  0.29598514375E+03  0.29598514375E+03  0.00000000000E+00 0.  1.
          1   -1    0    0  501    0  0.00000000000E+00 -0.00000000000E+00 -0.31618987170E+03  0.31618987170E+03  0.00000000000E+00 0. -1.
         23    2    1    2    0    0 -0.26663461520E+02  0.13648086099E+02  0.27494613943E+03  0.30156270154E+03  0.12019764115E+03 0.  0.
          5    1    3    3  502    0 -0.24050063646E+02 -0.27750329921E+02  0.17733380841E+02  0.40993067318E+02  0.41800000000E+01 0. -1.
         -5    1    3    3    0  502 -0.26133978742E+01  0.41398416020E+02  0.25721275859E+03  0.26056963422E+03  0.41800000000E+01 0.  1.
        -11    1    1    2    0    0  0.30549027905E+02  0.34995886688E+02 -0.11659946388E+03  0.12551251001E+03  0.00000000000E+00 0.  1.
         11    1    1    2    0    0 -0.38855663853E+01 -0.48643972787E+02 -0.17855140349E+03  0.18509980390E+03  0.00000000000E+00 0. -1.
</event>
<event>
 7    1  0.1226955E-005  0.1469325E+03  0.7561462E-02  0.1204294E+00
          1   -1    0    0  501    0  0.00000000000E+00  0.00000000000E+00  0.19265456490E+02  0.19265456490E+02  0.00000000000E+00 0. -1.
         -1   -1    0    0    0  501 -0.00000000000E+00 -0.00000000000E+00 -0.19819847191E+04  0.19819847191E+04  0.00000000000E+00 0.  1.
         23    2    1    2    0    0  0.22197616531E+02  0.11254739867E+03 -0.16184305708E+04  0.16273058944E+04  0.12508921046E+03 0.  0.
          5    1    3    3  502    0  0.49087244399E+02  0.12827121921E+03 -0.12468050607E+04  0.12543537759E+04  0.41800000000E+01 0.  1.
         -5    1    3    3    0  502 -0.26889627868E+02 -0.15723820548E+02 -0.37162551004E+03  0.37295211855E+03  0.41800000000E+01 0.  1.
        -11    1    1    2    0    0 -0.37286962886E+02 -0.62706384353E+02 -0.97791886172E+02  0.12200680817E+03  0.00000000000E+00 0. -1.
         11    1    1    2    0    0  0.15089346354E+02 -0.49841014314E+02 -0.24649680563E+03  0.25193747293E+03  0.00000000000E+00 0.  1.
</event>
<event>
 6    1  0.1226955E-005  0.1777777E+03  0.7561462E-02  0.1169971E+00
          2   -1    0    0  501    0  0.00000000000E+00  0.00000000000E+00  0.92950132000E+03  0.92950132000E+03  0.00000000000E+00 0. -1.
         -2   -1    0    0    0  501 -0.00000000000E+00 -0.00000000000E+00 -0.73645009135E+02  0.73645009135E+02  0.00000000000E+00 0.  1.
          5    1    1    2  502    0  0.78902144569E+02  0.17904117271E+02  0.36910619161E+03  0.37789278760E+03  0.41800000000E+01 0. -1.
         -5    1    1    2    0  502 -0.10599555025E+03  0.85823153286E+02  0.20879459618E+02  0.13803656960E+03  0.41800000000E+01 0.  1.
        -11    1    1    2    0    0 -0.20630428876E+02 -0.83922524638E+02  0.22871424325E+03  0.24449705479E+03  0.00000000000E+00 0. -1.
         11    1    1    2    0    0  0.47723834556E+02 -0.19804745919E+02  0.23715641639E+03  0.24271991714E+03  0.00000000000E+00 0.  1.
</event>
<event>
 7    1  0.1226955E-005  0.8702468E+02  0.7561462E-02  0.1310221E+00
         -1   -1    0    0    0  501 -0.00000000000E+00  0.00000000000E+00  0.23918809964E+02  0.23918809964E+02  0.00000000000E+00 0.  1.
          1   -1    0    0  501    0  0.00000000000E+00 -0.00000000000E+00 -0.61792289361E+03  0.61792289361E+03  0.00000000000E+00 0. -1.
         23    2    1    2    0    0 -0.40963626945E+02  0.41600208419E+02 -0.27794212498E+03  0.31033771529E+03  0.12509626941E+03 0.  0.
          5    1    3    3  502    0 -0.10844558271E+02  0.42170100128E+02 -0.15909059107E+02  0.46545594320E+02  0.41800000000E+01 0. -1.
         -5    1    3    3    0  502 -0.30119068673E+02 -0.56989170940E+00 -0.26203306588E+03  0.26379212097E+03  0.41800000000E+01 0. -1.
        -11    1    1    2    0    0  0.44701757003E+02  0.11903729467E+02 -0.15395261173E+03  0.16075245726E+03  0.00000000000E+00 0.  1.
         11    1    1    2    0    0 -0.37381300581E+01 -0.53503937886E+02 -0.16210934693E+03  0.17075153102E+03  0.00000000000E+00 0. -1.
</event>
<event>
 7    1  0.1226955E-005  0.1070632E+03  0.7561462E-02  0.1266107E+00
         -1   -1    0    0    0  501 -0.00000000000E+00  0.00000000000E+00  0.64523598601E+02  0.64523598601E+02  0.00000000000E+00 0.  1.
          1   -1    0    0  501    0  0.00000000000E+00 -0.00000000000E+00 -0.23309013655E+03  0.23309013655E+03  0.00000000000E+00 0. -1.
         23    2    1    2    0    0  0.10459005998E+02 -0.57643387270E+02 -0.92497580376E+02  0.16622885243E+03  0.12507628913E+03 0.  0.
          5    1    3    3  502    0 -0.35619884613E+02  0.24177625696E+02 -0.38011586826E+02  0.57582001504E+02  0.41800000000E+01 0. -1.
         -5    1    3    3    0  502  0.46078890611E+02 -0.81821012966E+02 -0.54485993549E+02  0.10864685092E+03  0.41800000000E+01 0. -1.
        -11    1    1    2    0    0 -0.28124712565E+02  0.50535685761E+02 -0.52750823666E+01  0.58074792175E+02  0.00000000000E+00 0.  1.
         11    1    1    2    0    0  0.17665706567E+02  0.71077015086E+01 -0.70793875211E+02  0.73310090551E+02  0.00000000000E+00 0. -1.
</event>
<event>
 7    1  0.1226955E-005  0.9268880E+02  0.7561462E-02  0.1296468E+00
          3   -1    0    0  501    0  0.00000000000E+00  0.00000000000E+00  0.53585117105E+03  0.53585117105E+03  0.00000000000E+00 0. -1.
         -3   -1    0    0    0  501 -0.00000000000E+00 -0.00000000000E+00 -0.44959883156E+02  0.44959883156E+02  0.00000000000E+00 0.  1.
         23    2    1    2    0    0 -0.39395674864E+02  0.21341727553E+02  0.63962879086E+02  0.14172979795E+03  0.11827340019E+03 0.  0.
          5    1    3    3  502    0 -0.10547587409E+02 -0.29780422454E+02  0.75329757777E+02  0.81793459204E+02  0.41800000000E+01 0. -1.
         -5    1    3    3    0  502 -0.28848087455E+02  0.51122150008E+02 -0.11366878692E+02  0.59936338747E+02  0.41800000000E+01 0.  1.
        -11    1    1    2    0    0 -0.22170896055E+02  0.11399039524E+02  0.51315667952E+02  0.57050718762E+02  0.00000000000E+00 0.  1.
         11    1    1    2    0    0  0.61566570919E+02 -0.32740767077E+02  0.37561274086E+03  0.38203053750E+03  0.00000000000E+00 0. -1.
</event>
<event>
 7    1  0.1226955E-005  0.1137818E+03  0.7561462E-02  0.1253723E+00
         -1   -1    0    0    0  501 -0.00000000000E+00  0.00000000000E+00  0.60322196597E+02  0.60322196597E+02  0.00000000000E+00 0.  1.
          1   -1    0    0  501    0  0.00000000000E+00 -0.00000000000E+00 -0.28839276123E+03  0.28839276123E+03  0.00000000000E+00 0. -1.
         23    2    1    2    0    0  0.20411448113E+02 -0.66811582213E+02 -0.63862348858E+02  0.15686396373E+03  0.12508992280E+03 0.  0.
          5    1    3    3  502    0 -0.33197536081E+02  0.21464757937E+02 -0.21078790784E+02  0.44995555959E+02  0.41800000000E+01 0. -1.
         -5    1    3    3    0  502  0.53608984195E+02 -0.88276340150E+02 -0.42783558074E+02  0.11186840778E+03  0.41800000000E+01 0. -1.
        -11    1    1    2    0    0 -0.36020422756E+02  0.45572424072E+02 -0.15215784136E+03  0.16286904365E+03  0.00000000000E+00 0. -1.
         11    1    1    2    0    0  0.15608974643E+02  0.21239158141E+02 -0.12050374413E+02  0.28981950442E+02  0.00000000000E+00 0.  1.
</event>
<event>
 7    1  0.1226955E-005  0.9637820E+02  0.7561462E-02  0.1288102E+00
         -1   -1    0    0    0  501 -0.00000000000E+00  0.00000000000E+00  0.35450424296E+03  0.35450424296E+03  0.00000000000E+00 0.  1.
          1   -1    0    0  501    0  0.00000000000E+00 -0.00000000000E+00 -0.39674089806E+02  0.39674089806E+02  0.00000000000E+00 0. -1.
         23    2    1    2    0    0 -0.34611306836E+02 -0.15463325236E+02  0.22854755660E+03  0.26328163039E+03  0.12508466846E+03 0.  0.
          5    1    3    3  502    0 -0.50708338583E+02 -0.62502757904E+02  0.13371926122E+03  0.15612893251E+03  0.41800000000E+01 0.  1.
         -5    1    3    3    0  502  0.16097031747E+02  0.47039432668E+02  0.94828295378E+02  0.10715269787E+03  0.41800000000E+01 0.  1.
        -11    1    1    2    0    0  0.23832389791E+01 -0.16622577798E+02  0.83676788933E+02  0.85345151748E+02  0.00000000000E+00 0.  1.
         11    1    1    2    0    0  0.32228067857E+02  0.32085903033E+02  0.26058076212E+01  0.45551550628E+02  0.00000000000E+00 0. -1.
</event>
<event>
 7    1  0.1226955E-005  0.1203918E+03  0.7561462E-02  0.1242452E+00
         -1   -1    0    0    0  501 -0.00000000000E+00  0.00000000000E+00  0.46627397512E+02  0.46627397512E+02  0.00000000000E+00 0.  1.
          1   -1    0    0  501    0  0.00000000000E+00 -0.00000000000E+00 -0.37631716212E+03  0.37631716212E+03  0.00000000000E+00 0. -1.
         23    2    1    2    0    0 -0.55049871824E+02  0.45462004913E+02 -0.13924343598E+03  0.20033342541E+03  0.12508982611E+03 0.  0.
          5    1    3    3  502    0  0.30883921131E+02  0.42582407634E+02 -0.28202149641E+02  0.59832363055E+02  0.41800000000E+01 0.  1.
         -5    1    3    3    0  502 -0.85933792955E+02  0.28795972789E+01 -0.11104128634E+03  0.14050106236E+03  0.41800000000E+01 0.  1.
        -11    1    1    2    0    0  0.66278144646E+02 -0.55821800199E+02 -0.18817173883E+03  0.20716531836E+03  0.00000000000E+00 0. -1.
         11    1    1    2    0    0 -0.11228272822E+02  0.10359795286E+02 -0.22745897988E+01  0.15445815863E+02  0.00000000000E+00 0.  1.
</event>
<event>
 7    1  0.1226955E-005  0.1682167E+03  0.7561462E-02  0.1179720E+00
         -1   -1    0    0    0  501 -0.00000000000E+00  0.00000000000E+00  0.66351296834E+02  0.66351296834E+02  0.00000000000E+00 0.  1.
          1   -1    0    0  501    0  0.00000000000E+00 -0.00000000000E+00 -0.72281807747E+03  0.72281807747E+03  0.00000000000E+00 0. -1.
         23    2    1    2    0    0 -0.67322180060E+02  0.14345829265E+03 -0.15189868610E+03  0.25264928758E+03  0.12508354815E+03 0.  0.
          5    1    3    3  502    0 -0.66643839957E+01  0.11291866322E+02  0.21982373585E+02  0.25934868566E+02  0.41800000000E+01 0.  1.
         -5    1    3    3    0  502 -0.60657796065E+02  0.13216642633E+03 -0.17388105968E+03  0.22671441901E+03  0.41800000000E+01 0.  1.
        -11    1    1    2    0    0  0.59630813342E+02 -0.36414238786E+02 -0.26418155294E+03  0.27326493298E+03  0.00000000000E+00 0. -1.
         11    1    1    2    0    0  0.76913667185E+01 -0.10704405386E+03 -0.24038654159E+03  0.26325515374E+03  0.00000000000E+00 0.  1.
</event>
<event>
 7    1  0.1226955E-005  0.1562855E+03  0.7561462E-02  0.1192955E+00
          1   -1    0    0  501    0  0.00000000000E+00  0.00000000000E+00  0.44095501863E+03  0.44095501863E+03  0.00000000000E+00 0. -1.
         -1   -1    0    0    0  501 -0.00000000000E+00 -0.00000000000E+00 -0.56433209764E+02  0.56433209764E+02  0.00000000000E+00 0.  1.
         23    2    1    2    0    0  0.27739189863E+01 -0.11244328115E+03  0.18630156683E+03  0.25101183736E+03  0.12508989803E+03 0.  0.
          5    1    3    3  502    0  0.54526472795E+02 -0.13921620098E+02  0.54374095884E+02  0.78364293175E+02  0.41800000000E+01 0.  1.
         -5    1    3    3    0  502 -0.51752553809E+02 -0.98521661053E+02  0.13192747095E+03  0.17264754418E+03  0.41800000000E+01 0.  1.
        -11    1    1    2    0    0  0.43924498248E+02  0.62601390686E+02  0.86749202913E+02  0.11564480044E+03  0.00000000000E+00 0.  1.
         11    1    1    2    0    0 -0.46698417234E+02  0.49841890464E+02  0.11147103912E+03  0.13073159059E+03  0.00000000000E+00 0. -1.
</event>
<event>
 7    1  0.1226955E-005  0.1325388E+03  0.7561462E-02  0.1223736E+00
         -1   -1    0    0    0  501 -0.00000000000E+00  0.00000000000E+00  0.26438893425E+02  0.26438893425E+02  0.00000000000E+00 0.  1.
          1   -1    0    0  501    0  0.00000000000E+00 -0.00000000000E+00 -0.85577273728E+03  0.85577273728E+03  0.00000000000E+00 0. -1.
         23    2    1    2    0    0 -0.11661151841E+03  0.72823630149E+01 -0.41982762294E+03  0.45338059535E+03  0.12508977663E+03 0.  0.
          5    1    3    3  502    0 -0.39996307134E+02 -0.34059484187E+02 -0.47366578887E+02  0.70857732414E+02  0.41800000000E+01 0.  1.
         -5    1    3    3    0  502 -0.76615211276E+02  0.41341847202E+02 -0.37246104406E+03  0.38252286294E+03  0.41800000000E+01 0.  1.
        -11    1    1    2    0    0  0.14375690484E+02 -0.17301744361E+02 -0.10761810676E+03  0.10994392997E+03  0.00000000000E+00 0. -1.
         11    1    1    2    0    0  0.10223582793E+03  0.10019381346E+02 -0.30188811415E+03  0.31888710538E+03  0.00000000000E+00 0.  1.
</event>
<event>
 7    1  0.1226955E-005  0.9462470E+02  0.7561462E-02  0.1292024E+00
          1   -1    0    0  501    0  0.00000000000E+00  0.00000000000E+00  0.10878937635E+03  0.10878937635E+03  0.00000000000E+00 0. -1.
         -1   -1    0    0    0  501 -0.00000000000E+00 -0.00000000000E+00 -0.11747714579E+03  0.11747714579E+03  0.00000000000E+00 0.  1.
         23    2    1    2    0    0  0.11343339348E+02  0.95387947335E+00 -0.35616405867E+02  0.13055729359E+03  0.12508835801E+03 0.  0.
          5    1    3    3  502    0 -0.41523612798E+02  0.40463068447E+02 -0.26194436326E+02  0.63758067900E+02  0.41800000000E+01 0.  1.
         -5    1    3    3    0  502  0.52866952146E+02 -0.39509188974E+02 -0.94219695416E+01  0.66799225688E+02  0.41800000000E+01 0.  1.
        -11    1    1    2    0    0 -0.30747488522E+02 -0.20887210104E+02  0.48072765134E+02  0.60767378946E+02  0.00000000000E+00 0. -1.
         11    1    1    2    0    0  0.19404149174E+02  0.19933330631E+02 -0.21144128710E+02  0.34941849609E+02  0.00000000000E+00 0.  1.
</event>
<event>
 6    1  0.1226955E-005  0.2479919E+03  0.7561462E-02  0.1114580E+00
          1   -1    0    0  501    0  0.00000000000E+00  0.00000000000E+00  0.97542222514E+03  0.97542222514E+03  0.00000000000E+00 0. -1.
         -1   -1    0    0    0  501 -0.00000000000E+00 -0.00000000000E+00 -0.28819935965E+03  0.28819935965E+03  0.00000000000E+00 0.  1.
          5    1    1    2  502    0  0.67564097973E+02  0.11059025202E+03  0.83384966042E+02  0.15416107206E+03  0.41800000000E+01 0. -1.
         -5    1    1    2    0  502 -0.86517914084E+02  0.10258805833E+03 -0.21755199592E+03  0.25564820065E+03  0.41800000000E+01 0.  1.
        -11    1    1    2    0    0 -0.13653257405E+02 -0.19347797430E+03  0.71353293798E+03  0.73942504120E+03  0.00000000000E+00 0.  1.
         11    1    1    2    0    0  0.32607073517E+02 -0.19700336056E+02  0.10785695738E+03  0.11438727088E+03  0.00000000000E+00 0. -1.
</event>
<event>
 7    1  0.1226955E-005  0.1360400E+03  0.7561462E-02  0.1218759E+00
          2   -1    0    0  501    0  0.00000000000E+00  0.00000000000E+00  0.13555442660E+03  0.13555442660E+03  0.00000000000E+00 0.  1.
         -2   -1    0    0    0  501 -0.00000000000E+00 -0.00000000000E+00 -0.18044476034E+03  0.18044476034E+03  0.00000000000E+00 0. -1.
         23    2    1    2    0    0  0.75628839876E+02 -0.82889637842E+02 -0.50708962576E+02  0.17552681527E+03  0.12509136865E+03 0.  0.
          5    1    3    3  502    0  0.88331787766E+02 -0.99986020529E+02 -0.15790082468E+02  0.13441171130E+03  0.41800000000E+01 0.  1.
         -5    1    3    3    0  502 -0.12702947890E+02  0.17096382687E+02 -0.34918880108E+02  0.41115103965E+02  0.41800000000E+01 0.  1.
        -11    1    1    2    0    0 -0.34597512413E+02  0.15311193737E+02 -0.34961979165E+02  0.51514663019E+02  0.00000000000E+00 0.  1.
         11    1    1    2    0    0 -0.41031327463E+02  0.67578444105E+02  0.40780607996E+02  0.88957708657E+02  0.00000000000E+00 0. -1.
</event>
<event>
 7    1  0.1226955E-005  0.9323649E+02  0.7561462E-02  0.1295198E+00
         -2   -1    0    0    0  501 -0.00000000000E+00  0.00000000000E+00  0.62764223383E+03  0.62764223383E+03  0.00000000000E+00 0.  1.
          2   -1    0    0  501    0  0.00000000000E+00 -0.00000000000E+00 -0.24037721230E+02  0.24037721230E+02  0.00000000000E+00 0. -1.
         23    2    1    2    0    0  0.55390005658E+02 -0.11701723277E+02  0.36888423706E+03  0.39360886930E+03  0.12508948231E+03 0.  0.
          5    1    3    3  502    0  0.41402453350E+02  0.32671927880E+02  0.32577645365E+03  0.33004452452E+03  0.41800000000E+01 0.  1.
         -5    1    3    3    0  502  0.13987552308E+02 -0.44373651157E+02  0.43107783417E+02  0.63564344783E+02  0.41800000000E+01 0.  1.
        -11    1    1    2    0    0 -0.55469266984E+02 -0.17104669890E+02  0.21612441437E+03  0.22378376125E+03  0.00000000000E+00 0.  1.
         11    1    1    2    0    0  0.79261326629E-01  0.28806393168E+02  0.18595861173E+02  0.34287324516E+02  0.00000000000E+00 0. -1.
</event>
<event>
 7    1  0.1226955E-005  0.1840143E+03  0.7561462E-02  0.1163974E+00
         -1   -1    0    0    0  501 -0.00000000000E+00  0.00000000000E+00  0.10966899408E+03  0.10966899408E+03  0.00000000000E+00 0.  1.
          1   -1    0    0  501    0  0.00000000000E+00 -0.00000000000E+00 -0.34851662296E+03  0.34851662296E+03  0.00000000000E+00 0. -1.
         23    2    1    2    0    0 -0.15790055654E+03 -0.25422467930E+02 -0.92927339782E+02  0.22330216807E+03  0.12509788229E+03 0.  0.
          5    1    3    3  502    0 -0.16048884200E+03  0.87850206835E+01 -0.98115422094E+02  0.18835592225E+03  0.41800000000E+01 0.  1.
         -5    1    3    3    0  502  0.25882854550E+01 -0.34207488614E+02  0.51880823120E+01  0.34946245820E+02  0.41800000000E+01 0.  1.
        -11    1    1    2    0    0  0.89197499176E+02  0.46806027897E+02 -0.12380442353E+03  0.15960743526E+03  0.00000000000E+00 0. -1.
         11    1    1    2    0    0  0.68703057368E+02 -0.21383559967E+02 -0.22115865577E+02  0.75276013701E+02  0.00000000000E+00 0.  1.
</event>
<event>
 7    1  0.1226955E-005  0.1745854E+03  0.7561462E-02  0.1173149E+00
         -2   -1    0    0    0  501 -0.00000000000E+00  0.00000000000E+00  0.12563585077E+04  0.12563585077E+04  0.00000000000E+00 0.  1.
          2   -1    0    0  501    0  0.00000000000E+00 -0.00000000000E+00 -0.24785301397E+02  0.24785301397E+02  0.00000000000E+00 0. -1.
         23    2    1    2    0    0  0.90002861924E+02  0.10618963138E+03  0.68526320054E+03  0.71035840772E+03  0.12508661175E+03 0.  0.
          5    1    3    3  502    0  0.44626310424E+02  0.12634493537E+03  0.43523307661E+03  0.45541174079E+03  0.41800000000E+01 0. -1.
         -5    1    3    3    0  502  0.45376551500E+02 -0.20155303994E+02  0.25003012393E+03  0.25494666693E+03  0.41800000000E+01 0. -1.
        -11    1    1    2    0    0 -0.99331889766E+02 -0.55585364059E+02  0.38374295530E+03  0.40026892556E+03  0.00000000000E+00 0. -1.
         11    1    1    2    0    0  0.93290278414E+01 -0.50604267319E+02  0.16256705050E+03  0.17051647586E+03  0.00000000000E+00 0.  1.
</event>
<event>
 7    1  0.1226955E-005  0.1202145E+03  0.7561462E-02  0.1242744E+00
          2   -1    0    0  501    0  0.00000000000E+00  0.00000000000E+00  0.39132979538E+02  0.39132979538E+02  0.00000000000E+00 0. -1.
         -2   -1    0    0    0  501 -0.00000000000E+00 -0.00000000000E+00 -0.66074207554E+03  0.66074207554E+03  0.00000000000E+00 0.  1.
         23    2    1    2    0    0  0.85489268726E+02  0.32551176807E+02 -0.49632065986E+03  0.51994070649E+03  0.12504457876E+03 0.  0.
          5    1    3    3  502    0  0.24354927945E+02  0.52442947723E+02 -0.39924518246E+03  0.40343229098E+03  0.41800000000E+01 0. -1.
         -5    1    3    3    0  502  0.61134340781E+02 -0.19891770917E+02 -0.97075477397E+02  0.11650841551E+03  0.41800000000E+01 0. -1.
        -11    1    1    2    0    0  0.12331573962E+02 -0.13659479772E+02 -0.55026959664E+02  0.58022542119E+02  0.00000000000E+00 0.  1.
         11    1    1    2    0    0 -0.97820842688E+02 -0.18891697035E+02 -0.70261476479E+02  0.12191180648E+03  0.00000000000E+00 0. -1.
</event>
<event>
 7    1  0.1226955E-005  0.1068710E+03  0.7561462E-02  0.1266477E+00
          2   -1    0    0  501    0  0.00000000000E+00  0.00000000000E+00  0.10179985987E+04  0.10179985987E+04  0.00000000000E+00 0. -1.
         -2   -1    0    0    0  501 -0.00000000000E+00 -0.00000000000E+00 -0.17843605490E+02  0.17843605490E+02  0.00000000000E+00 0.  1.
         23    2    1    2    0    0  0.79362883012E+01 -0.58189404249E+02  0.75923636212E+03  0.77170996744E+03  0.12508968314E+03 0.  0.
          5    1    3    3  502    0  0.54632444203E+02 -0.22535465179E+02  0.18028346413E+03  0.18976867758E+03  0.41800000000E+01 0. -1.
         -5    1    3    3    0  502 -0.46696155902E+02 -0.35653939069E+02  0.57895289800E+03  0.58194128986E+03  0.41800000000E+01 0. -1.
        -11    1    1    2    0    0  0.24768874378E+02  0.57806124551E+02  0.90544979772E+02  0.11024263484E+03  0.00000000000E+00 0.  1.
         11    1    1    2    0    0 -0.32705162679E+02  0.38327969746E+00  0.15037365132E+03  0.15388960192E+03  0.00000000000E+00 0. -1.
</event>
<event>
 7    1  0.1226955E-005  0.1669347E+03  0.7561462E-02  0.1181083E+00
          2   -1    0    0  501    0  0.00000000000E+00  0.00000000000E+00  0.40622550750E+03  0.40622550750E+03  0.00000000000E+00 0. -1.
         -2   -1    0    0    0  501 -0.00000000000E+00 -0.00000000000E+00 -0.95306470870E+02  0.95306470870E+02  0.00000000000E+00 0.  1.
         23    2    1    2    0    0  0.83696651526E+02 -0.11006041567E+03  0.53712393300E+02  0.19403853684E+03  0.12508999964E+03 0.  0.
          5    1    3    3  502    0  0.27911044751E+02 -0.10635874802E+03 -0.84073429205E+01  0.11036016272E+03  0.41800000000E+01 0. -1.
         -5    1    3    3    0  502  0.55785606775E+02 -0.37016676446E+01  0.62119736220E+02  0.83678374116E+02  0.41800000000E+01 0. -1.
        -11    1    1    2    0    0 -0.61886751749E+02  0.68370803637E+01  0.81761936786E+02  0.10277027789E+03  0.00000000000E+00 0.  1.
         11    1    1    2    0    0 -0.21809899777E+02  0.10322333531E+03  0.17544470655E+03  0.20472316365E+03  0.00000000000E+00 0. -1.
</event>
<event>
 7    1  0.1226955E-005  0.2380050E+03  0.7561462E-02  0.1121129E+00
         -2   -1    0    0    0  501 -0.00000000000E+00  0.00000000000E+00  0.89367841011E+03  0.89367841011E+03  0.00000000000E+00 0.  1.
          2   -1    0    0  501    0  0.00000000000E+00 -0.00000000000E+00 -0.69578689802E+02  0.69578689802E+02  0.00000000000E+00 0. -1.
         23    2    1    2    0    0 -0.46166501049E+02  0.21605736792E+03  0.34981687791E+03  0.43224080552E+03  0.12509250111E+03 0.  0.
          5    1    3    3  502    0  0.19123412446E+02  0.15046283875E+03  0.27109266700E+03  0.31066618298E+03  0.41800000000E+01 0.  1.
         -5    1    3    3    0  502 -0.65289913495E+02  0.65594529179E+02  0.78724210908E+02  0.12157462254E+03  0.41800000000E+01 0.  1.
        -11    1    1    2    0    0  0.16700504024E+02 -0.19427676423E+03  0.34127394178E+03  0.39305250450E+03  0.00000000000E+00 0. -1.
         11    1    1    2    0    0  0.29465997025E+02 -0.21780603700E+02  0.13300890062E+03  0.13796378989E+03  0.00000000000E+00 0.  1.
</event>
<event>
 7    1  0.1226955E-005  0.9757321E+02  0.7561462E-02  0.1285484E+00
         -1   -1    0    0    0  501 -0.00000000000E+00  0.00000000000E+00  0.11972249794E+03  0.11972249794E+03  0.00000000000E+00 0.  1.
          1   -1    0    0  501    0  0.00000000000E+00 -0.00000000000E+00 -0.13933084962E+03  0.13933084962E+03  0.00000000000E+00 0. -1.
         23    2    1    2    0    0  0.45582240335E+02  0.27727660287E+02  0.36672008764E+02  0.14084898584E+03  0.12508811617E+03 0.  0.
          5    1    3    3  502    0  0.21953440092E+02 -0.36983561297E+02  0.54514311925E+02  0.69563064501E+02  0.41800000000E+01 0.  1.
         -5    1    3    3    0  502  0.23628800243E+02  0.64711221584E+02 -0.17842303162E+02  0.71285921344E+02  0.41800000000E+01 0.  1.
        -11    1    1    2    0    0 -0.15608881225E+02  0.20724190066E+02 -0.55455874517E+02  0.61224858068E+02  0.00000000000E+00 0. -1.
         11    1    1    2    0    0 -0.29973359109E+02 -0.48451850353E+02 -0.82448593070E+00  0.56979503648E+02  0.00000000000E+00 0.  1.
</event>
<event>
 7    1  0.1226955E-005  0.1496905E+03  0.7561462E-02  0.1200854E+00
          2   -1    0    0  501    0  0.00000000000E+00  0.00000000000E+00  0.64272440635E+02  0.64272440635E+02  0.00000000000E+00 0. -1.
         -2   -1    0    0    0  501 -0.00000000000E+00 -0.00000000000E+00 -0.48061564893E+03  0.48061564893E+03  0.00000000000E+00 0.  1.
         23    2    1    2    0    0  0.13235214292E+03  0.30568127357E+02 -0.25556840738E+03  0.31530218303E+03  0.12509498642E+03 0.  0.
          5    1    3    3  502    0  0.67336679418E+02 -0.34405088860E+00 -0.22167820384E+02  0.71015712533E+02  0.41800000000E+01 0.  1.
         -5    1    3    3    0  502  0.65015463501E+02  0.30912178245E+02 -0.23340058700E+03  0.24428647050E+03  0.41800000000E+01 0.  1.
        -11    1    1    2    0    0 -0.38601696527E+02  0.29391635219E+02 -0.73915038154E+02  0.88416016992E+02  0.00000000000E+00 0. -1.
         11    1    1    2    0    0 -0.93750446392E+02 -0.59959762575E+02 -0.86859762765E+02  0.14116988955E+03  0.00000000000E+00 0.  1.
</event>
<event>
 7    1  0.1226955E-005  0.1956215E+03  0.7561462E-02  0.1153487E+00
          2   -1    0    0  501    0  0.00000000000E+00  0.00000000000E+00  0.65228377889E+02  0.65228377889E+02  0.00000000000E+00 0.  1.
         -2   -1    0    0    0  501 -0.00000000000E+00 -0.00000000000E+00 -0.80401528428E+03  0.80401528428E+03  0.00000000000E+00 0. -1.
         23    2    1    2    0    0 -0.15874027176E+03  0.93577794055E+02 -0.50173506154E+03  0.54894434591E+03  0.12508615235E+03 0.  0.
          5    1    3    3  502    0 -0.81251546079E+02  0.99755790493E+02 -0.20415078045E+03  0.24134631764E+03  0.41800000000E+01 0.  1.
         -5    1    3    3    0  502 -0.77488725681E+02 -0.61779964385E+01 -0.29758428108E+03  0.30759802827E+03  0.41800000000E+01 0.  1.
        -11    1    1    2    0    0  0.30742677171E+02 -0.12711547657E+02  0.61404835154E+01  0.33828999117E+02  0.00000000000E+00 0.  1.
         11    1    1    2    0    0  0.12799759459E+03 -0.80866246398E+02 -0.24319232837E+03  0.28647031714E+03  0.00000000000E+00 0. -1.
</event>
<event>
 7    1  0.1226955E-005  0.1074213E+03  0.7561462E-02  0.1265421E+00
          2   -1    0    0  501    0  0.00000000000E+00  0.00000000000E+00  0.39864358113E+03  0.39864358113E+03  0.00000000000E+00 0. -1.
         -2   -1    0    0    0  501 -0.00000000000E+00 -0.00000000000E+00 -0.55210770452E+02  0.55210770452E+02  0.00000000000E+00 0.  1.
         23    2    1    2    0    0  0.96324721214E+02  0.24521724601E+02  0.15765089940E+03  0.22445464650E+03  0.12508523238E+03 0.  0.
          5    1    3    3  502    0  0.10619108556E+02  0.82526313832E+01  0.13294831742E+03  0.13369217963E+03  0.41800000000E+01 0. -1.
         -5    1    3    3    0  502  0.85705612658E+02  0.16269093218E+02  0.24702581985E+02  0.90762466868E+02  0.41800000000E+01 0. -1.
        -11    1    1    2    0    0 -0.64448571922E+01  0.14171578341E+02 -0.38245058204E+01  0.16031115422E+02  0.00000000000E+00 0.  1.
         11    1    1    2    0    0 -0.89879864022E+02 -0.38693302942E+02  0.18960641710E+03  0.21336858966E+03  0.00000000000E+00 0. -1.
</event>
<event>
 7    1  0.1226955E-005  0.1813456E+03  0.7561462E-02  0.1166507E+00
         -2   -1    0    0    0  501 -0.00000000000E+00  0.00000000000E+00  0.46515537748E+02  0.46515537748E+02  0.00000000000E+00 0.  1.
          2   -1    0    0  501    0  0.00000000000E+00 -0.00000000000E+00 -0.94281863485E+03  0.94281863485E+03  0.00000000000E+00 0. -1.
         23    2    1    2    0    0 -0.53502754027E+02 -0.16793212113E+03 -0.39763957074E+03  0.45258003436E+03  0.12509083612E+03 0.  0.
          5    1    3    3  502    0 -0.31385820628E+01 -0.34508932496E+02 -0.22917499459E+03  0.23181753097E+03  0.41800000000E+01 0.  1.
         -5    1    3    3    0  502 -0.50364171964E+02 -0.13342318864E+03 -0.16846457615E+03  0.22076250339E+03  0.41800000000E+01 0.  1.
        -11    1    1    2    0    0 -0.98633165389E+01  0.52647081092E+02 -0.68683150009E+02  0.87099800550E+02  0.00000000000E+00 0.  1.
         11    1    1    2    0    0  0.63366070565E+02  0.11528504004E+03 -0.42998037635E+03  0.44965433769E+03  0.00000000000E+00 0. -1.
</event>
<event>
 7    1  0.1226955E-005  0.9656542E+02  0.7561462E-02  0.1287689E+00
          1   -1    0    0  501    0  0.00000000000E+00  0.00000000000E+00  0.25129394445E+03  0.25129394445E+03  0.00000000000E+00 0. -1.
         -1   -1    0    0    0  501 -0.00000000000E+00 -0.00000000000E+00 -0.65763673414E+02  0.65763673414E+02  0.00000000000E+00 0.  1.
         23    2    1    2    0    0 -0.22238189489E+02  0.30032295942E+02  0.29653313494E+02  0.13388288035E+03  0.12509528679E+03 0.  0.
          5    1    3    3  502    0  0.25982645468E+02 -0.21057967331E+02 -0.27279161365E+02  0.43360822160E+02  0.41800000000E+01 0. -1.
         -5    1    3    3    0  502 -0.48220834957E+02  0.51090263273E+02  0.56932474858E+02  0.90522058189E+02  0.41800000000E+01 0. -1.
        -11    1    1    2    0    0  0.17262523377E+02 -0.58065745558E+02  0.69339203062E+02  0.92073615123E+02  0.00000000000E+00 0. -1.
         11    1    1    2    0    0  0.49756661117E+01  0.28033449616E+02  0.86537754476E+02  0.91101122388E+02  0.00000000000E+00 0.  1.
</event>
<event>
 7    1  0.1226955E-005  0.8918812E+02  0.7561462E-02  0.1304830E+00
         -1   -1    0    0    0  501 -0.00000000000E+00  0.00000000000E+00  0.87955804867E+02  0.87955804867E+02  0.00000000000E+00 0.  1.
          1   -1    0    0  501    0  0.00000000000E+00 -0.00000000000E+00 -0.15184765291E+03  0.15184765291E+03  0.00000000000E+00 0. -1.
         23    2    1    2    0    0  0.35377640058E+02  0.23225537079E+02 -0.19902452158E+02  0.13353803246E+03  0.12508115574E+03 0.  0.
          5    1    3    3  502    0  0.80398001569E+02  0.20426914521E+02 -0.27733739505E+02  0.87565576570E+02  0.41800000000E+01 0.  1.
         -5    1    3    3    0  502 -0.45020361510E+02  0.27986225583E+01  0.78312873472E+01  0.45972455887E+02  0.41800000000E+01 0.  1.
        -11    1    1    2    0    0 -0.14751873211E+02 -0.25301664045E+02  0.22299260767E+02  0.36810990172E+02  0.00000000000E+00 0.  1.
         11    1    1    2    0    0 -0.20625766847E+02  0.20761269663E+01 -0.66288656649E+02  0.69454435147E+02  0.00000000000E+00 0. -1.
</event>
<event>
 7    1  0.1226955E-005  0.1553052E+03  0.7561462E-02  0.1194101E+00
         -1   -1    0    0    0  501 -0.00000000000E+00  0.00000000000E+00  0.10473635455E+03  0.10473635455E+03  0.00000000000E+00 0.  1.
          1   -1    0    0  501    0  0.00000000000E+00 -0.00000000000E+00 -0.27506266544E+03  0.27506266544E+03  0.00000000000E+00 0. -1.
         23    2    1    2    0    0 -0.64526906411E+02 -0.10009704838E+03 -0.27034560413E+02  0.17481957853E+03  0.12509147386E+03 0.  0.
          5    1    3    3  502    0 -0.75250633056E+02 -0.12585179292E+02  0.13665208688E+02  0.77622515043E+02  0.41800000000E+01 0.  1.
         -5    1    3    3    0  502  0.10723726644E+02 -0.87511869091E+02 -0.40699769101E+02  0.97197063483E+02  0.41800000000E+01 0.  1.
        -11    1    1    2    0    0  0.47253349077E+02  0.30383965202E+01 -0.55673853887E+02  0.73086858319E+02  0.00000000000E+00 0.  1.
         11    1    1    2    0    0  0.17273557334E+02  0.97058651863E+02 -0.87617896598E+02  0.13189258314E+03  0.00000000000E+00 0. -1.
</event>
<event>
 7    1  0.1226955E-005  0.9270406E+02  0.7561462E-02  0.1296432E+00
         -2   -1    0    0    0  501 -0.00000000000E+00  0.00000000000E+00  0.16328527420E+03  0.16328527420E+03  0.00000000000E+00 0.  1.
          2   -1    0    0  501    0  0.00000000000E+00 -0.00000000000E+00 -0.25122793039E+03  0.25122793039E+03  0.00000000000E+00 0. -1.
         23    2    1    2    0    0  0.59328329972E+02 -0.25851152255E+02  0.11998718322E+03  0.17584002922E+03  0.11106150966E+03 0.  0.
          5    1    3    3  502    0  0.10396239698E+02  0.52912809200E+01 -0.20409378502E+02  0.23876653544E+02  0.41800000000E+01 0. -1.
         -5    1    3    3    0  502  0.48932090274E+02 -0.31142433175E+02  0.14039656173E+03  0.15196337568E+03  0.41800000000E+01 0.  1.
        -11    1    1    2    0    0 -0.18667337180E+02 -0.36169845140E+02 -0.97466198313E+02  0.10562379935E+03  0.00000000000E+00 0.  1.
         11    1    1    2    0    0 -0.40660992792E+02  0.62020997395E+02 -0.11046364111E+03  0.13304937602E+03  0.00000000000E+00 0. -1.
</event>
<event>
 7    1  0.1226955E-005  0.1130243E+03  0.7561462E-02  0.1255070E+00
         -2   -1    0    0    0  501 -0.00000000000E+00  0.00000000000E+00  0.12449353260E+03  0.12449353260E+03  0.00000000000E+00 0.  1.
          2   -1    0    0  501    0  0.00000000000E+00 -0.00000000000E+00 -0.19575478872E+03  0.19575478872E+03  0.00000000000E+00 0. -1.
         23    2    1    2    0    0 -0.66935793074E+02  0.47212710561E+02  0.39831304782E+02  0.15473698016E+03  0.12509020647E+03 0.  0.
          5    1    3    3  502    0 -0.46725307972E+02 -0.15588750601E+02 -0.30602969045E+02  0.58140155355E+02  0.41800000000E+01 0. -1.
         -5    1    3    3    0  502 -0.20210485102E+02  0.62801461162E+02  0.70434273827E+02  0.96596824801E+02  0.41800000000E+01 0. -1.
        -11    1    1    2    0    0 -0.82024463047E+01  0.12212636454E+02 -0.49457271439E+02  0.51598937128E+02  0.00000000000E+00 0.  1.
         11    1    1    2    0    0  0.75138239378E+02 -0.59425347015E+02 -0.61635289469E+02  0.11391240403E+03  0.00000000000E+00 0. -1.
</event>
<event>
 7    1  0.1226955E-005  0.9728306E+02  0.7561462E-02  0.1286115E+00
         -2   -1    0    0    0  501 -0.00000000000E+00  0.00000000000E+00  0.83555417887E+02  0.83555417887E+02  0.00000000000E+00 0.  1.
          2   -1    0    0  501    0  0.00000000000E+00 -0.00000000000E+00 -0.18910443997E+03  0.18910443997E+03  0.00000000000E+00 0. -1.
         23    2    1    2    0    0  0.18201954613E+02  0.49083080140E+02 -0.42030099779E+02  0.14195971640E+03  0.12508226047E+03 0.  0.
          5    1    3    3  502    0  0.37541287295E+02  0.58135187858E+02  0.23269932628E+02  0.73130092873E+02  0.41800000000E+01 0.  1.
         -5    1    3    3    0  502 -0.19339332682E+02 -0.90521077179E+01 -0.65300032406E+02  0.68829623528E+02  0.41800000000E+01 0.  1.
        -11    1    1    2    0    0  0.15747170517E+02 -0.64354399946E+02 -0.65837103781E+02  0.93402282660E+02  0.00000000000E+00 0. -1.
         11    1    1    2    0    0 -0.33949125130E+02  0.15271319806E+02  0.23181814730E+01  0.37297858800E+02  0.00000000000E+00 0.  1.
</event>
<event>
 7    1  0.1226955E-005  0.1208522E+03  0.7561462E-02  0.1241698E+00
         -2   -1    0    0    0  501 -0.00000000000E+00  0.00000000000E+00  0.31428787931E+02  0.31428787931E+02  0.00000000000E+00 0.  1.
          2   -1    0    0  501    0  0.00000000000E+00 -0.00000000000E+00 -0.56366871972E+03  0.56366871972E+03  0.00000000000E+00 0. -1.
         23    2    1    2    0    0 -0.12997468325E+00  0.77718988087E+02 -0.32013445659E+03  0.35238363740E+03  0.12509156491E+03 0.  0.
          5    1    3    3  502    0  0.44970260875E+02 -0.84166573880E+00 -0.17912033505E+03  0.18472844825E+03  0.41800000000E+01 0.  1.
         -5    1    3    3    0  502 -0.45100235558E+02  0.78560653826E+02 -0.14101412154E+03  0.16765518915E+03  0.41800000000E+01 0.  1.
        -11    1    1    2    0    0 -0.16718463154E+02 -0.85622927561E+02 -0.11778281501E+03  0.14657279504E+03  0.00000000000E+00 0.  1.
         11    1    1    2    0    0  0.16848437837E+02  0.79039394742E+01 -0.94322660185E+02  0.96141075203E+02  0.00000000000E+00 0. -1.
</event>
<event>
 7    1  0.1226955E-005  0.6269244E+02  0.7561462E-02  0.1386868E+00
          2   -1    0    0  501    0  0.00000000000E+00  0.00000000000E+00  0.22083765475E+02  0.22083765475E+02  0.00000000000E+00 0. -1.
         -2   -1    0    0    0  501 -0.00000000000E+00 -0.00000000000E+00 -0.59365543275E+03  0.59365543275E+03  0.00000000000E+00 0.  1.
         23    2    1    2    0    0  0.13409482635E+02  0.16073716216E+02 -0.40810340202E+03  0.42735664745E+03  0.12508852386E+03 0.  0.
          5    1    3    3  502    0  0.25891248691E+02  0.20220992108E+02 -0.41175192385E+03  0.41308154700E+03  0.41800000000E+01 0.  1.
         -5    1    3    3    0  502 -0.12481766057E+02 -0.41472758919E+01  0.36485218300E+01  0.14275100447E+02  0.41800000000E+01 0.  1.
        -11    1    1    2    0    0  0.24480099821E+02  0.15646072333E+02 -0.11699367914E+03  0.12054706892E+03  0.00000000000E+00 0.  1.
         11    1    1    2    0    0 -0.37889582456E+02 -0.31719788549E+02 -0.46474586127E+02  0.67835481866E+02  0.00000000000E+00 0. -1.
</event>
<event>
 7    1  0.1226955E-005  0.1009397E+03  0.7561462E-02  0.1278332E+00
         -2   -1    0    0    0  501 -0.00000000000E+00  0.00000000000E+00  0.31001144048E+02  0.31001144048E+02  0.00000000000E+00 0.  1.
          2   -1    0    0  501    0  0.00000000000E+00 -0.00000000000E+00 -0.53629975026E+03  0.53629975026E+03  0.00000000000E+00 0. -1.
         23    2    1    2    0    0 -0.16856847787E+02 -0.56988134323E+02 -0.21020979007E+03  0.25172902939E+03  0.12509015798E+03 0.  0.
          5    1    3    3  502    0 -0.42231095324E+02  0.99681156948E+01 -0.19081564388E+02  0.47585788238E+02  0.41800000000E+01 0. -1.
         -5    1    3    3    0  502  0.25374247537E+02 -0.66956250018E+02 -0.19112822568E+03  0.20414324115E+03  0.41800000000E+01 0. -1.
        -11    1    1    2    0    0  0.21307667637E+02  0.69810142287E+02 -0.29285872593E+03  0.30181733883E+03  0.00000000000E+00 0. -1.
         11    1    1    2    0    0 -0.44508198503E+01 -0.12822007964E+02 -0.22300902112E+01  0.13754526088E+02  0.00000000000E+00 0.  1.
</event>
<event>
 7    1  0.1226955E-005  0.8098057E+02  0.7561462E-02  0.1326292E+00
         -1   -1    0    0    0  501 -0.00000000000E+00  0.00000000000E+00  0.58241517522E+03  0.58241517522E+03  0.00000000000E+00 0. -1.
          1   -1    0    0  501    0  0.00000000000E+00 -0.00000000000E+00 -0.28403273852E+02  0.28403273852E+02  0.00000000000E+00 0.  1.
         23    2    1    2    0    0 -0.22137954085E+02  0.52453952717E+02  0.40276738259E+03  0.42557400924E+03  0.12510062629E+03 0.  0.
          5    1    3    3  502    0 -0.41173674279E+02  0.17496888363E+02  0.37299590353E+03  0.37569246599E+03  0.41800000000E+01 0.  1.
         -5    1    3    3    0  502  0.19035720194E+02  0.34957064355E+02  0.29771479064E+02  0.49881543253E+02  0.41800000000E+01 0.  1.
        -11    1    1    2    0    0 -0.10469275801E+02 -0.41203523859E+02  0.15602778111E+02  0.45285569434E+02  0.00000000000E+00 0.  1.
         11    1    1    2    0    0  0.32607229887E+02 -0.11250428858E+02  0.13564174066E+03  0.13995887039E+03  0.00000000000E+00 0. -1.
</event>
<event>
 7    1  0.1226955E-005  0.1474796E+03  0.7561462E-02  0.1203605E+00
          2   -1    0    0  501    0  0.00000000000E+00  0.00000000000E+00  0.22821067053E+03  0.22821067053E+03  0.00000000000E+00 0. -1.
         -2   -1    0    0    0  501 -0.00000000000E+00 -0.00000000000E+00 -0.42521337974E+03  0.42521337974E+03  0.00000000000E+00 0.  1.
         23    2    1    2    0    0 -0.95543481077E+02  0.28641158832E+02 -0.38790109389E+03  0.41959885185E+03  0.12508822915E+03 0.  0.
          5    1    3    3  502    0  0.23937518067E+02 -0.19394709992E+02 -0.71203592846E+02  0.77695454056E+02  0.41800000000E+01 0. -1.
         -5    1    3    3    0  502 -0.11948099914E+03  0.48035868824E+02 -0.31669750105E+03  0.34190339779E+03  0.41800000000E+01 0. -1.
        -11    1    1    2    0    0  0.58001277438E+02  0.30073346832E+02  0.92828507299E+02  0.11351513618E+03  0.00000000000E+00 0.  1.
         11    1    1    2    0    0  0.37542203639E+02 -0.58714505664E+02  0.98069877380E+02  0.12031006225E+03  0.00000000000E+00 0. -1.
</event>
<event>
 7    1  0.1226955E-005  0.1191469E+03  0.7561462E-02  0.1244511E+00
         -1   -1    0    0    0  501 -0.00000000000E+00  0.00000000000E+00  0.20244161637E+03  0.20244161637E+03  0.00000000000E+00 0.  1.
          1   -1    0    0  501    0  0.00000000000E+00 -0.00000000000E+00 -0.90761371997E+02  0.90761371997E+02  0.00000000000E+00 0. -1.
         23    2    1    2    0    0 -0.34416044885E+02 -0.69657416769E+02  0.45094694400E+02  0.15400511124E+03  0.12508965971E+03 0.  0.
          5    1    3    3  502    0 -0.76379188289E+02 -0.58635211795E+02  0.78991764911E+01  0.96704383847E+02  0.41800000000E+01 0.  1.
         -5    1    3    3    0  502  0.41963143404E+02 -0.11022204974E+02  0.37195517909E+02  0.57300727389E+02  0.41800000000E+01 0.  1.
        -11    1    1    2    0    0  0.12727243375E+01  0.64817857351E+02  0.18835758006E+00  0.64830624997E+02  0.00000000000E+00 0. -1.
         11    1    1    2    0    0  0.33143320548E+02  0.48395594178E+01  0.66397192394E+02  0.74367252135E+02  0.00000000000E+00 0.  1.
</event>
<event>
 7    1  0.1226955E-005  0.1157211E+03  0.7561462E-02  0.1250328E+00
         -2   -1    0    0    0  501 -0.00000000000E+00  0.00000000000E+00  0.20827929446E+03  0.20827929446E+03  0.00000000000E+00 0.  1.
          2   -1    0    0  501    0  0.00000000000E+00 -0.00000000000E+00 -0.66009473210E+02  0.66009473210E+02  0.00000000000E+00 0. -1.
         23    2    1    2    0    0 -0.28059619867E+02 -0.29401951303E+02  0.94030627178E+02  0.16168339139E+03  0.12509173913E+03 0.  0.
          5    1    3    3  502    0 -0.42339902581E+01 -0.77132486297E+02  0.47563528453E+02  0.90813593447E+02  0.41800000000E+01 0. -1.
         -5    1    3    3    0  502 -0.23825629609E+02  0.47730534993E+02  0.46467098725E+02  0.70869797946E+02  0.41800000000E+01 0. -1.
        -11    1    1    2    0    0 -0.23991192040E+02 -0.18138790682E+02  0.22492569222E+02  0.37556739649E+02  0.00000000000E+00 0.  1.
         11    1    1    2    0    0  0.52050811907E+02  0.47540741985E+02  0.25746624853E+02  0.75048636630E+02  0.00000000000E+00 0. -1.
</event>
<event>
 7    1  0.1226955E-005  0.6611049E+02  0.7561462E-02  0.1373842E+00
          3   -1    0    0  501    0  0.00000000000E+00  0.00000000000E+00  0.13711748334E+03  0.13711748334E+03  0.00000000000E+00 0. -1.
         -3   -1    0    0    0  501 -0.00000000000E+00 -0.00000000000E+00 -0.79440254872E+02  0.79440254872E+02  0.00000000000E+00 0.  1.
         23    2    1    2    0    0 -0.84880751471E+01  0.45358280479E+01  0.39462383608E+02  0.12227673200E+03  0.11533298883E+03 0.  0.
          5    1    3    3  502    0  0.16225404616E+02  0.35104973905E+01  0.76029107033E+02  0.77932566126E+02  0.41800000000E+01 0. -1.
         -5    1    3    3    0  502 -0.24713479763E+02  0.10253306574E+01 -0.36566723424E+02  0.44344165873E+02  0.41800000000E+01 0.  1.
        -11    1    1    2    0    0  0.22964376385E+02 -0.43093748573E+02 -0.98301533243E+00  0.48840557613E+02  0.00000000000E+00 0. -1.
         11    1    1    2    0    0 -0.14476301237E+02  0.38557920525E+02  0.19197860189E+02  0.45440448596E+02  0.00000000000E+00 0.  1.
</event>
<event>
 7    1  0.1226955E-005  0.1029223E+03  0.7561462E-02  0.1274268E+00
         -2   -1    0    0    0  501 -0.00000000000E+00  0.00000000000E+00  0.17052272828E+03  0.17052272828E+03  0.00000000000E+00 0.  1.
          2   -1    0    0  501    0  0.00000000000E+00 -0.00000000000E+00 -0.20771985223E+03  0.20771985223E+03  0.00000000000E+00 0. -1.
         23    2    1    2    0    0  0.29076237903E+02 -0.33399047695E+02  0.12630061905E+03  0.18319583923E+03  0.12509174689E+03 0.  0.
          5    1    3    3  502    0  0.52594394862E+02  0.66824656738E+01  0.12574975493E+03  0.13653314243E+03  0.41800000000E+01 0.  1.
         -5    1    3    3    0  502 -0.23518156959E+02 -0.40081513368E+02  0.55086412049E+00  0.46662696792E+02  0.41800000000E+01 0.  1.
        -11    1    1    2    0    0 -0.31789915347E+02  0.66017200351E+02 -0.12014825405E+03  0.14072836392E+03  0.00000000000E+00 0. -1.
         11    1    1    2    0    0  0.27136774447E+01 -0.32618152656E+02 -0.43349488954E+02  0.54318377374E+02  0.00000000000E+00 0.  1.
</event>
<event>
 7    1  0.1226955E-005  0.9474284E+02  0.7561462E-02  0.1291756E+00
         -1   -1    0    0    0  501 -0.00000000000E+00  0.00000000000E+00  0.36429114800E+02  0.36429114800E+02  0.00000000000E+00 0.  1.
          1   -1    0    0  501    0  0.00000000000E+00 -0.00000000000E+00 -0.35536915962E+03  0.35536915962E+03  0.00000000000E+00 0. -1.
         23    2    1    2    0    0  0.19265647283E+02 -0.29512921215E+02 -0.19136250592E+03  0.23132101357E+03  0.12509046710E+03 0.  0.
          5    1    3    3  502    0  0.53253263848E+02  0.29768668898E+02 -0.81873429138E+02  0.10219009031E+03  0.41800000000E+01 0. -1.
         -5    1    3    3    0  502 -0.33987616565E+02 -0.59281590113E+02 -0.10948907679E+03  0.12913092326E+03  0.41800000000E+01 0. -1.
        -11    1    1    2    0    0 -0.72688644702E+01 -0.13437832537E+02  0.83574315516E+01  0.17414315838E+02  0.00000000000E+00 0.  1.
         11    1    1    2    0    0 -0.11996782813E+02  0.42950753752E+02 -0.13593497045E+03  0.14306294501E+03  0.00000000000E+00 0. -1.
</event>
<event>
 7    1  0.1226955E-005  0.3082954E+03  0.7561462E-02  0.1081166E+00
         -2   -1    0    0    0  501 -0.00000000000E+00  0.00000000000E+00  0.11256627506E+04  0.11256627506E+04  0.00000000000E+00 0.  1.
          2   -1    0    0  501    0  0.00000000000E+00 -0.00000000000E+00 -0.89434097554E+02  0.89434097554E+02  0.00000000000E+00 0. -1.
         23    2    1    2    0    0  0.21592220391E+02  0.29501160282E+03  0.59173996953E+03  0.67327389232E+03  0.12507386924E+03 0.  0.
          5    1    3    3  502    0 -0.27408865531E+02  0.16503425871E+02  0.11017594195E+03  0.11480339525E+03  0.41800000000E+01 0.  1.
         -5    1    3    3    0  502  0.49001085923E+02  0.27850817695E+03  0.48156402758E+03  0.55847049708E+03  0.41800000000E+01 0.  1.
        -11    1    1    2    0    0  0.10641569942E+02 -0.21478066717E+03  0.36877394887E+03  0.42689366752E+03  0.00000000000E+00 0.  1.
         11    1    1    2    0    0 -0.32233790333E+02 -0.80230935642E+02  0.75714734694E+02  0.11492928836E+03  0.00000000000E+00 0. -1.
</event>
<event>
 7    1  0.1226955E-005  0.9590672E+02  0.7561462E-02  0.1289147E+00
         -2   -1    0    0    0  501 -0.00000000000E+00  0.00000000000E+00  0.52873251904E+02  0.52873251904E+02  0.00000000000E+00 0.  1.
          2   -1    0    0  501    0  0.00000000000E+00 -0.00000000000E+00 -0.32404099455E+03  0.32404099455E+03  0.00000000000E+00 0. -1.
         23    2    1    2    0    0  0.30403231081E+02 -0.61928149271E+02 -0.11743602549E+03  0.18500091038E+03  0.12519850089E+03 0.  0.
          5    1    3    3  502    0  0.64449470477E+02 -0.26811970481E+02 -0.11653153014E+03  0.13590322264E+03  0.41800000000E+01 0. -1.
         -5    1    3    3    0  502 -0.34046239396E+02 -0.35116178790E+02 -0.90449534780E+00  0.49097687742E+02  0.41800000000E+01 0.  1.
        -11    1    1    2    0    0 -0.28690405915E+02  0.32640993443E+02 -0.91827289064E+01  0.44417297921E+02  0.00000000000E+00 0.  1.
         11    1    1    2    0    0 -0.17128251667E+01  0.29287155828E+02 -0.14454898825E+03  0.14749603815E+03  0.00000000000E+00 0. -1.
</event>
<event>
 7    1  0.1226955E-005  0.1759198E+03  0.7561462E-02  0.1171811E+00
          2   -1    0    0  501    0  0.00000000000E+00  0.00000000000E+00  0.47359687725E+03  0.47359687725E+03  0.00000000000E+00 0. -1.
         -2   -1    0    0    0  501 -0.00000000000E+00 -0.00000000000E+00 -0.83422428058E+02  0.83422428058E+02  0.00000000000E+00 0.  1.
         23    2    1    2    0    0 -0.36699427739E+02 -0.14517410302E+03  0.10237896839E+03  0.22034344527E+03  0.12508961796E+03 0.  0.
          5    1    3    3  502    0 -0.47878809272E+02 -0.16877328510E+02  0.71594650417E+02  0.87866324398E+02  0.41800000000E+01 0.  1.
         -5    1    3    3    0  502  0.11179381533E+02 -0.12829677451E+03  0.30784317973E+02  0.13247712087E+03  0.41800000000E+01 0.  1.
        -11    1    1    2    0    0  0.64120365710E+02  0.90856041448E+02  0.21277080777E+03  0.24007844177E+03  0.00000000000E+00 0. -1.
         11    1    1    2    0    0 -0.27420937971E+02  0.54318061570E+02  0.75024673030E+02  0.96597418263E+02  0.00000000000E+00 0.  1.
</event>
<event>
 7    1  0.1226955E-005  0.9298253E+02  0.7561462E-02  0.1295786E+00
          2   -1    0    0  501    0  0.00000000000E+00  0.00000000000E+00  0.78339518266E+03  0.78339518266E+03  0.00000000000E+00 0. -1.
         -2   -1    0    0    0  501 -0.00000000000E+00 -0.00000000000E+00 -0.24088950491E+02  0.24088950491E+02  0.00000000000E+00 0.  1.
         23    2    1    2    0    0  0.81011260448E+02  0.14723812768E+02  0.31979821843E+03  0.35312608120E+03  0.12509002251E+03 0.  0.
          5    1    3    3  502    0  0.83477170418E+02  0.85433825836E+01  0.89732059941E+02  0.12292575950E+03  0.41800000000E+01 0. -1.
         -5    1    3    3    0  502 -0.24659099700E+01  0.61804301840E+01  0.23006615849E+03  0.23020032171E+03  0.41800000000E+01 0. -1.
        -11    1    1    2    0    0 -0.79592281469E+02 -0.25224309918E+02  0.43483338130E+03  0.44277676833E+03  0.00000000000E+00 0. -1.
         11    1    1    2    0    0 -0.14189789794E+01  0.10500497150E+02  0.46746324283E+01  0.11581283611E+02  0.00000000000E+00 0.  1.
</event>
<event>
 7    1  0.1226955E-005  0.1703404E+03  0.7561462E-02  0.1177493E+00
         -4   -1    0    0    0  501 -0.00000000000E+00  0.00000000000E+00  0.99361343776E+02  0.99361343776E+02  0.00000000000E+00 0.  1.
          4   -1    0    0  501    0  0.00000000000E+00 -0.00000000000E+00 -0.41042498582E+03  0.41042498582E+03  0.00000000000E+00 0. -1.
         23    2    1    2    0    0  0.27181705087E+02 -0.15769022278E+03 -0.88695035310E+02  0.22162760126E+03  0.12508770084E+03 0.  0.
          5    1    3    3  502    0 -0.23298506862E+02 -0.99093151802E+02 -0.10069826506E+03  0.14324763922E+03  0.41800000000E+01 0.  1.
         -5    1    3    3    0  502  0.50480211949E+02 -0.58597070976E+02  0.12003229751E+02  0.78379962043E+02  0.41800000000E+01 0.  1.
        -11    1    1    2    0    0  0.51930441351E+00  0.54444933633E+02 -0.17693749126E+02  0.57250233480E+02  0.00000000000E+00 0.  1.
         11    1    1    2    0    0 -0.27701009500E+02  0.10324528915E+03 -0.20467485761E+03  0.23090849485E+03  0.00000000000E+00 0. -1.
</event>
<event>
 7    1  0.1226955E-005  0.1152111E+03  0.7561462E-02  0.1251213E+00
          1   -1    0    0  501    0  0.00000000000E+00  0.00000000000E+00  0.24305454245E+03  0.24305454245E+03  0.00000000000E+00 0. -1.
         -1   -1    0    0    0  501 -0.00000000000E+00 -0.00000000000E+00 -0.78642845529E+02  0.78642845529E+02  0.00000000000E+00 0.  1.
         23    2    1    2    0    0  0.13302210369E+02 -0.46989380249E+02  0.54239492383E+01  0.13439569238E+03  0.12509129565E+03 0.  0.
          5    1    3    3  502    0 -0.55773247390E+02 -0.27788010426E+02  0.14411034515E+01  0.62469014935E+02  0.41800000000E+01 0.  1.
         -5    1    3    3    0  502  0.69075457759E+02 -0.19201369823E+02  0.39828457868E+01  0.71926677445E+02  0.41800000000E+01 0.  1.
        -11    1    1    2    0    0  0.21102501372E+02  0.56621410964E+02  0.12040880545E+03  0.13472037772E+03  0.00000000000E+00 0. -1.
         11    1    1    2    0    0 -0.34404711741E+02 -0.96320307149E+01  0.38578942228E+02  0.52581317871E+02  0.00000000000E+00 0.  1.
</event>
<event>
 7    1  0.1226955E-005  0.2223181E+03  0.7561462E-02  0.1132167E+00
          2   -1    0    0  501    0  0.00000000000E+00  0.00000000000E+00  0.47588573079E+03  0.47588573079E+03  0.00000000000E+00 0. -1.
         -2   -1    0    0    0  501 -0.00000000000E+00 -0.00000000000E+00 -0.10609568679E+03  0.10609568679E+03  0.00000000000E+00 0.  1.
         23    2    1    2    0    0 -0.12786454394E+01  0.19546745050E+03  0.17069533581E+03  0.28808085424E+03  0.12507806272E+03 0.  0.
          5    1    3    3  502    0  0.15068665915E+02  0.20754815436E+03  0.13931173340E+03  0.25045664801E+03  0.41800000000E+01 0. -1.
         -5    1    3    3    0  502 -0.16347311355E+02 -0.12080703857E+02  0.31383602416E+02  0.37624206235E+02  0.41800000000E+01 0. -1.
        -11    1    1    2    0    0  0.38349281826E+02 -0.38045487176E+02  0.58216756529E+02  0.79418620309E+02  0.00000000000E+00 0.  1.
         11    1    1    2    0    0 -0.37070636387E+02 -0.15742196333E+03  0.14087795166E+03  0.21448194303E+03  0.00000000000E+00 0. -1.
</event>
<event>
 7    1  0.1226955E-005  0.1017797E+03  0.7561462E-02  0.1276597E+00
         -4   -1    0    0    0  501 -0.00000000000E+00  0.00000000000E+00  0.30300303644E+03  0.30300303644E+03  0.00000000000E+00 0.  1.
          4   -1    0    0  501    0  0.00000000000E+00 -0.00000000000E+00 -0.73879574263E+02  0.73879574263E+02  0.00000000000E+00 0. -1.
         23    2    1    2    0    0  0.84757304570E+02  0.52152474431E+02  0.15493338009E+03  0.22261114271E+03  0.12509071639E+03 0.  0.
          5    1    3    3  502    0  0.57417035553E+02  0.49190694925E+02  0.17340713518E+03  0.18921931025E+03  0.41800000000E+01 0.  1.
         -5    1    3    3    0  502  0.27340269018E+02  0.29617795064E+01 -0.18473755095E+02  0.33391832461E+02  0.41800000000E+01 0.  1.
        -11    1    1    2    0    0 -0.26974099585E+02 -0.22205876004E+02 -0.19639449008E+02  0.40080056573E+02  0.00000000000E+00 0. -1.
         11    1    1    2    0    0 -0.57783204985E+02 -0.29946598427E+02  0.93829531096E+02  0.11419141142E+03  0.00000000000E+00 0.  1.
</event>
<event>
 6    1  0.1226955E-005  0.2081897E+03  0.7561462E-02  0.1143008E+00
         -1   -1    0    0    0  501 -0.00000000000E+00  0.00000000000E+00  0.40985931474E+02  0.40985931474E+02  0.00000000000E+00 0.  1.
          1   -1    0    0  501    0  0.00000000000E+00 -0.00000000000E+00 -0.11694390036E+04  0.11694390036E+04  0.00000000000E+00 0. -1.
          5    1    1    2  502    0 -0.15102890382E+03 -0.87247860540E+02 -0.35610144455E+03  0.39654461309E+03  0.41800000000E+01 0. -1.
         -5    1    1    2    0  502  0.24246209209E+02  0.84250368731E+02 -0.41076790375E+03  0.42004017242E+03  0.41800000000E+01 0.  1.
        -11    1    1    2    0    0  0.14510031989E+02  0.34588310029E+02 -0.63492865566E+02  0.73744397732E+02  0.00000000000E+00 0.  1.
         11    1    1    2    0    0  0.11227266262E+03 -0.31590818220E+02 -0.29809085827E+03  0.32009575185E+03  0.00000000000E+00 0. -1.
</event>
<event>
 7    1  0.1226955E-005  0.1039369E+03  0.7561462E-02  0.1272228E+00
         -1   -1    0    0    0  501 -0.00000000000E+00  0.00000000000E+00  0.32324243356E+03  0.32324243356E+03  0.00000000000E+00 0.  1.
          1   -1    0    0  501    0  0.00000000000E+00 -0.00000000000E+00 -0.38230808831E+02  0.38230808831E+02  0.00000000000E+00 0. -1.
         23    2    1    2    0    0 -0.18989069810E+02 -0.32661269865E+02  0.18787024727E+03  0.22884655427E+03  0.12509265475E+03 0.  0.
          5    1    3    3  502    0 -0.64585539330E+02 -0.44201095195E+02  0.14614239366E+03  0.16583154203E+03  0.41800000000E+01 0. -1.
         -5    1    3    3    0  502  0.45596469519E+02  0.11539825330E+02  0.41727853608E+02  0.63015012243E+02  0.41800000000E+01 0. -1.
        -11    1    1    2    0    0  0.23199818541E+02  0.54924023779E+02  0.91610382859E+02  0.10930389845E+03  0.00000000000E+00 0. -1.
         11    1    1    2    0    0 -0.42107487309E+01 -0.22262753914E+02  0.55309946009E+01  0.23322789670E+02  0.00000000000E+00 0.  1.
</event>
<event>
 7    1  0.1226955E-005  0.2343990E+03  0.7561462E-02  0.1123581E+00
          1   -1    0    0  501    0  0.00000000000E+00  0.00000000000E+00  0.10235637465E+03  0.10235637465E+03  0.00000000000E+00 0. -1.
         -1   -1    0    0    0  501 -0.00000000000E+00 -0.00000000000E+00 -0.61403490303E+03  0.61403490303E+03  0.00000000000E+00 0.  1.
         23    2    1    2    0    0 -0.16582162633E+03 -0.13727844754E+03 -0.35455603427E+03  0.43324317633E+03  0.12508990560E+03 0.  0.
          5    1    3    3  502    0 -0.41837612157E+02  0.20035398138E+02 -0.90564040479E+02  0.10183869990E+03  0.41800000000E+01 0.  1.
         -5    1    3    3    0  502 -0.12398401418E+03 -0.15731384568E+03 -0.26399199379E+03  0.33140447643E+03  0.41800000000E+01 0.  1.
        -11    1    1    2    0    0  0.12183426588E+03  0.12840424155E+03 -0.15942221522E+03  0.23821561723E+03  0.00000000000E+00 0.  1.
         11    1    1    2    0    0  0.43987360451E+02  0.88742059899E+01  0.22997211113E+01  0.44932484113E+02  0.00000000000E+00 0. -1.
</event>
<event>
 7    1  0.1226955E-005  0.1018826E+03  0.7561462E-02  0.1276386E+00
          2   -1    0    0  501    0  0.00000000000E+00  0.00000000000E+00  0.43580695373E+03  0.43580695373E+03  0.00000000000E+00 0. -1.
         -2   -1    0    0    0  501 -0.00000000000E+00 -0.00000000000E+00 -0.46490472040E+02  0.46490472040E+02  0.00000000000E+00 0.  1.
         23    2    1    2    0    0 -0.33356923857E+01  0.81080315350E+02  0.13447830233E+03  0.20079011952E+03  0.12508842439E+03 0.  0.
          5    1    3    3  502    0  0.32490358535E+02  0.68660374900E+02  0.14275037390E+03  0.16175602656E+03  0.41800000000E+01 0. -1.
         -5    1    3    3    0  502 -0.35826050921E+02  0.12419940450E+02 -0.82720715666E+01  0.39034092962E+02  0.41800000000E+01 0. -1.
        -11    1    1    2    0    0 -0.12177162614E+02 -0.68489685162E+02  0.25188084561E+03  0.26131031485E+03  0.00000000000E+00 0. -1.
         11    1    1    2    0    0  0.15512854999E+02 -0.12590630188E+02  0.29573337492E+01  0.20196991401E+02  0.00000000000E+00 0.  1.
</event>
<event>
 7    1  0.1226955E-005  0.6558687E+02  0.7561462E-02  0.1375777E+00
         -2   -1    0    0    0  501 -0.00000000000E+00  0.00000000000E+00  0.13339065859E+03  0.13339065859E+03  0.00000000000E+00 0.  1.
          2   -1    0    0  501    0  0.00000000000E+00 -0.00000000000E+00 -0.94178342117E+02  0.94178342117E+02  0.00000000000E+00 0. -1.
         23    2    1    2    0    0  0.27961209333E+02  0.11982146637E+02  0.39887722143E+02  0.13477712450E+03  0.12509373224E+03 0.  0.
          5    1    3    3  502    0  0.16352921048E+02 -0.21084979863E+02  0.78172157333E+02  0.82706426502E+02  0.41800000000E+01 0. -1.
         -5    1    3    3    0  502  0.11608288285E+02  0.33067126501E+02 -0.38284435190E+02  0.52070697995E+02  0.41800000000E+01 0. -1.
        -11    1    1    2    0    0 -0.30845026358E+02  0.19998500342E+02  0.30702620229E+02  0.47895788498E+02  0.00000000000E+00 0.  1.
         11    1    1    2    0    0  0.28838170253E+01 -0.31980646979E+02 -0.31378025903E+02  0.44896087707E+02  0.00000000000E+00 0. -1.
</event>
<event>
 7    1  0.1226955E-005  0.9821244E+02  0.7561462E-02  0.1284100E+00
         -1   -1    0    0    0  501 -0.00000000000E+00  0.00000000000E+00  0.15889159589E+03  0.15889159589E+03  0.00000000000E+00 0.  1.
          1   -1    0    0  501    0  0.00000000000E+00 -0.00000000000E+00 -0.14514349100E+03  0.14514349100E+03  0.00000000000E+00 0. -1.
         23    2    1    2    0    0 -0.13802307032E+02 -0.42493889567E+02  0.10146050990E+03  0.16714782962E+03  0.12509167657E+03 0.  0.
          5    1    3    3  502    0 -0.40269390723E+02 -0.49901111865E+02  0.24469396159E+01  0.64305557365E+02  0.41800000000E+01 0. -1.
         -5    1    3    3    0  502  0.26467083691E+02  0.74072222981E+01  0.99013570284E+02  0.10284227225E+03  0.41800000000E+01 0. -1.
        -11    1    1    2    0    0  0.13485596396E+02 -0.29465929309E+02 -0.20014329350E+02  0.38087736603E+02  0.00000000000E+00 0. -1.
         11    1    1    2    0    0  0.31671063597E+00  0.71959818876E+02 -0.67698075660E+02  0.98799520679E+02  0.00000000000E+00 0.  1.
</event>
<event>
 7    1  0.1226955E-005  0.1494830E+03  0.7561462E-02  0.1201110E+00
         -1   -1    0    0    0  501 -0.00000000000E+00  0.00000000000E+00  0.43414283544E+02  0.43414283544E+02  0.00000000000E+00 0.  1.
          1   -1    0    0  501    0  0.00000000000E+00 -0.00000000000E+00 -0.66949686684E+03  0.66949686684E+03  0.00000000000E+00 0. -1.
         23    2    1    2    0    0 -0.10827203538E+03 -0.60829244436E+02 -0.25114742454E+03  0.30683300528E+03  0.12509369950E+03 0.  0.
          5    1    3    3  502    0 -0.23932435629E+02 -0.81545378484E+02 -0.90850089627E+02  0.12447337632E+03  0.41800000000E+01 0. -1.
         -5    1    3    3    0  502 -0.84339599749E+02  0.20716134049E+02 -0.16029733491E+03  0.18235962896E+03  0.41800000000E+01 0. -1.
        -11    1    1    2    0    0  0.82172946000E+02  0.32375345377E+02 -0.34791893258E+03  0.35895423063E+03  0.00000000000E+00 0. -1.
         11    1    1    2    0    0  0.26099089377E+02  0.28453899059E+02 -0.27016226182E+02  0.47123914471E+02  0.00000000000E+00 0.  1.
</event>
<event>
 7    1  0.1226955E-005  0.1057829E+03  0.7561462E-02  0.1268585E+00
         -1   -1    0    0    0  501 -0.00000000000E+00  0.00000000000E+00  0.46492705316E+03  0.46492705316E+03  0.00000000000E+00 0.  1.
          1   -1    0    0  501    0  0.00000000000E+00 -0.00000000000E+00 -0.34317536519E+02  0.34317536519E+02  0.00000000000E+00 0. -1.
         23    2    1    2    0    0  0.27260255579E+02  0.52553600055E+02  0.29273054923E+03  0.32379564000E+03  0.12508972627E+03 0.  0.
          5    1    3    3  502    0  0.47784454002E+02  0.77158375790E+02  0.26836305320E+03  0.28332484840E+03  0.41800000000E+01 0. -1.
         -5    1    3    3    0  502 -0.20524198423E+02 -0.24604775735E+02  0.24367496027E+02  0.40470791597E+02  0.41800000000E+01 0. -1.
        -11    1    1    2    0    0 -0.48054277191E+02 -0.25883502178E+02  0.29767072553E+02  0.62171117488E+02  0.00000000000E+00 0. -1.
         11    1    1    2    0    0  0.20794021612E+02 -0.26670097877E+02  0.10811189485E+03  0.11327783219E+03  0.00000000000E+00 0.  1.
</event>
<event>
 7    1  0.1626785E-005  0.1705192E+03  0.7561462E-02  0.1177307E+00
          1   -1    0    0  501    0  0.00000000000E+00  0.00000000000E+00  0.99513523358E+03  0.99513523358E+03  0.00000000000E+00 0. -1.
         -1   -1    0    0    0  501 -0.00000000000E+00 -0.00000000000E+00 -0.38272192219E+02  0.38272192219E+02  0.00000000000E+00 0.  1.
         23    2    1    2    0    0  0.94956004107E+02  0.10882406138E+03  0.30492224607E+03  0.35983920076E+03  0.12508938884E+03 0.  0.
          5    1    3    3  502    0  0.49329243009E+02 -0.20709387739E+02  0.86950995836E+02  0.10217730195E+03  0.41800000000E+01 0.  1.
         -5    1    3    3    0  502  0.45626761098E+02  0.12953344912E+03  0.21797125024E+03  0.25766189881E+03  0.41800000000E+01 0.  1.
        -11    1    1    2    0    0  0.27040846739E+01 -0.12563898204E+02  0.78876682582E+01  0.15079088916E+02  0.00000000000E+00 0.  1.
         11    1    1    2    0    0 -0.97660088781E+02 -0.96260163178E+02  0.64405312703E+03  0.65848913613E+03  0.00000000000E+00 0. -1.
</event>
<event>
 6    1  0.1226955E-005  0.1378872E+03  0.7561462E-02  0.1216200E+00
          2   -1    0    0  501    0  0.00000000000E+00  0.00000000000E+00  0.66715113792E+03  0.66715113792E+03  0.00000000000E+00 0. -1.
         -2   -1    0    0    0  501 -0.00000000000E+00 -0.00000000000E+00 -0.43930417422E+02  0.43930417422E+02  0.00000000000E+00 0.  1.
          5    1    1    2  502    0  0.18592503376E+01  0.75547324492E+02  0.13546080173E+03  0.15517073260E+03  0.41800000000E+01 0. -1.
         -5    1    1    2    0  502 -0.86672223969E+02 -0.71358373748E+02  0.78013069127E+02  0.13677574078E+03  0.41800000000E+01 0.  1.
        -11    1    1    2    0    0  0.76584854444E+02 -0.10596282728E+02  0.37348570394E+03  0.38140410615E+03  0.00000000000E+00 0. -1.
         11    1    1    2    0    0  0.82281191871E+01  0.64073319839E+01  0.36261145700E+02  0.37730975815E+02  0.00000000000E+00 0.  1.
</event>
<event>
 7    1  0.1226955E-005  0.9571339E+02  0.7561462E-02  0.1289577E+00
         -1   -1    0    0    0  501 -0.00000000000E+00  0.00000000000E+00  0.33053059664E+02  0.33053059664E+02  0.00000000000E+00 0.  1.
          1   -1    0    0  501    0  0.00000000000E+00 -0.00000000000E+00 -0.50556552957E+03  0.50556552957E+03  0.00000000000E+00 0. -1.
         23    2    1    2    0    0  0.81126412906E+02  0.25911540019E+02 -0.23321674135E+03  0.27801777883E+03  0.12510369348E+03 0.  0.
          5    1    3    3  502    0  0.61445033875E+02  0.65018834347E+01 -0.24113587577E+03  0.24896134169E+03  0.41800000000E+01 0.  1.
         -5    1    3    3    0  502  0.19681379030E+02  0.19409656584E+02  0.79191344156E+01  0.29056437138E+02  0.41800000000E+01 0.  1.
        -11    1    1    2    0    0 -0.70935865911E+02 -0.42043893501E+02 -0.17357817919E+03  0.19216911913E+03  0.00000000000E+00 0.  1.
         11    1    1    2    0    0 -0.10190546995E+02  0.16132353482E+02 -0.65717549360E+02  0.68431691276E+02  0.00000000000E+00 0. -1.
</event>
<event>
 7    1  0.1226955E-005  0.1104514E+03  0.7561462E-02  0.1259736E+00
          1   -1    0    0  501    0  0.00000000000E+00  0.00000000000E+00  0.12277382047E+03  0.12277382047E+03  0.00000000000E+00 0. -1.
         -1   -1    0    0    0  501 -0.00000000000E+00 -0.00000000000E+00 -0.14979931607E+03  0.14979931607E+03  0.00000000000E+00 0.  1.
         23    2    1    2    0    0 -0.12344001239E+02  0.59953651783E+02 -0.68718463690E+02  0.15526867183E+03  0.12505726077E+03 0.  0.
          5    1    3    3  502    0  0.22087057191E+02  0.90348808639E+02 -0.44946573937E+02  0.10338477754E+03  0.41800000000E+01 0.  1.
         -5    1    3    3    0  502 -0.34431058431E+02 -0.30395156856E+02 -0.23771889753E+02  0.51883894296E+02  0.41800000000E+01 0.  1.
        -11    1    1    2    0    0 -0.21562766633E+02 -0.23875811512E+02 -0.20244026275E+02  0.38010891598E+02  0.00000000000E+00 0.  1.
         11    1    1    2    0    0  0.33906767873E+02 -0.36077840271E+02  0.61936994357E+02  0.79293573108E+02  0.00000000000E+00 0. -1.
</event>
<event>
 7    1  0.1226955E-005  0.1213241E+03  0.7561462E-02  0.1240928E+00
          1   -1    0    0  501    0  0.00000000000E+00  0.00000000000E+00  0.72176181517E+03  0.72176181517E+03  0.00000000000E+00 0. -1.
         -1   -1    0    0    0  501 -0.00000000000E+00 -0.00000000000E+00 -0.22793606670E+02  0.22793606670E+02  0.00000000000E+00 0.  1.
         23    2    1    2    0    0  0.51831651581E+01  0.71918937659E+02  0.38391837882E+03  0.41017125555E+03  0.12509172031E+03 0.  0.
          5    1    3    3  502    0 -0.41356485313E+02 -0.92660858758E+01  0.19130911429E+03  0.19599201217E+03  0.41800000000E+01 0.  1.
         -5    1    3    3    0  502  0.46539650471E+02  0.81185023535E+02  0.19260926453E+03  0.21417924338E+03  0.41800000000E+01 0.  1.
        -11    1    1    2    0    0  0.36459430703E+02 -0.38200184726E+02  0.10399774971E+03  0.11663651292E+03  0.00000000000E+00 0.  1.
         11    1    1    2    0    0 -0.41642595861E+02 -0.33718752933E+02  0.21105207997E+03  0.21774765338E+03  0.00000000000E+00 0. -1.
</event>
<event>
 7    1  0.1226955E-005  0.9259994E+02  0.7561462E-02  0.1296675E+00
          3   -1    0    0  501    0  0.00000000000E+00  0.00000000000E+00  0.87237111040E+02  0.87237111040E+02  0.00000000000E+00 0. -1.
         -3   -1    0    0    0  501 -0.00000000000E+00 -0.00000000000E+00 -0.16112291051E+03  0.16112291051E+03  0.00000000000E+00 0.  1.
         23    2    1    2    0    0  0.26412329049E+02  0.12532305911E+01 -0.10876127020E+03  0.16785878729E+03  0.12509347251E+03 0.  0.
          5    1    3    3  502    0 -0.47223192825E+02 -0.10308481453E+02 -0.21629581817E+02  0.53118790838E+02  0.41800000000E+01 0.  1.
         -5    1    3    3    0  502  0.73635521874E+02  0.11561712044E+02 -0.87131688379E+02  0.11473999646E+03  0.41800000000E+01 0.  1.
        -11    1    1    2    0    0  0.16094550894E+02  0.88094188093E+01  0.31797362729E+02  0.36711206801E+02  0.00000000000E+00 0. -1.
         11    1    1    2    0    0 -0.42506879943E+02 -0.10062649400E+02  0.30781079981E+01  0.43790027453E+02  0.00000000000E+00 0.  1.
</event>
<event>
 7    1  0.1226955E-005  0.9053014E+02  0.7561462E-02  0.1301573E+00
          2   -1    0    0  501    0  0.00000000000E+00  0.00000000000E+00  0.23901676759E+03  0.23901676759E+03  0.00000000000E+00 0. -1.
         -2   -1    0    0    0  501 -0.00000000000E+00 -0.00000000000E+00 -0.78699493923E+02  0.78699493923E+02  0.00000000000E+00 0.  1.
         23    2    1    2    0    0  0.37806277826E+02 -0.40988307533E+02  0.12868623229E+02  0.13754504559E+03  0.12507470610E+03 0.  0.
          5    1    3    3  502    0 -0.10912353002E+02 -0.66445561537E+02  0.37475474206E+02  0.77174967853E+02  0.41800000000E+01 0. -1.
         -5    1    3    3    0  502  0.48718630829E+02  0.25457254004E+02 -0.24606850977E+02  0.60370077739E+02  0.41800000000E+01 0. -1.
        -11    1    1    2    0    0 -0.25356230318E+02  0.14525172001E+02 -0.63350251237E+00  0.29228759178E+02  0.00000000000E+00 0.  1.
         11    1    1    2    0    0 -0.12450047508E+02  0.26463135532E+02  0.14808215295E+03  0.15094245674E+03  0.00000000000E+00 0. -1.
</event>
<event>
 7    1  0.1226955E-005  0.8807490E+02  0.7561462E-02  0.1307582E+00
         -1   -1    0    0    0  501 -0.00000000000E+00  0.00000000000E+00  0.19756555967E+03  0.19756555967E+03  0.00000000000E+00 0.  1.
          1   -1    0    0  501    0  0.00000000000E+00 -0.00000000000E+00 -0.64989643069E+02  0.64989643069E+02  0.00000000000E+00 0. -1.
         23    2    1    2    0    0  0.11636424707E+02  0.17473321866E+02  0.76726932264E+02  0.14822039655E+03  0.12506614435E+03 0.  0.
          5    1    3    3  502    0  0.55727622987E+01  0.50432387043E+02  0.96485203276E+02  0.10909330041E+03  0.41800000000E+01 0.  1.
         -5    1    3    3    0  502  0.60636624084E+01 -0.32959065178E+02 -0.19758271013E+02  0.39127096143E+02  0.41800000000E+01 0.  1.
        -11    1    1    2    0    0 -0.44292512097E+02 -0.33071066315E+02  0.55229280255E+02  0.78139589534E+02  0.00000000000E+00 0.  1.
         11    1    1    2    0    0  0.32656087390E+02  0.15597744449E+02  0.61970408141E+00  0.36195216654E+02  0.00000000000E+00 0. -1.
</event>
<event>
 7    1  0.1226955E-005  0.1309377E+03  0.7561462E-02  0.1226071E+00
         -1   -1    0    0    0  501 -0.00000000000E+00  0.00000000000E+00  0.63392082747E+02  0.63392082747E+02  0.00000000000E+00 0.  1.
          1   -1    0    0  501    0  0.00000000000E+00 -0.00000000000E+00 -0.44985102598E+03  0.44985102598E+03  0.00000000000E+00 0. -1.
         23    2    1    2    0    0 -0.69157012448E+02 -0.37152979440E+02 -0.49651163467E+02  0.15579074663E+03  0.12506991025E+03 0.  0.
          5    1    3    3  502    0  0.28798169611E+02 -0.33920546440E+02  0.23661472769E+01  0.44754989629E+02  0.41800000000E+01 0. -1.
         -5    1    3    3    0  502 -0.97955182059E+02 -0.32324329998E+01 -0.52017310744E+02  0.11103575700E+03  0.41800000000E+01 0. -1.
        -11    1    1    2    0    0 -0.11524970248E+01  0.47939489099E+02 -0.11795237331E+03  0.12732747243E+03  0.00000000000E+00 0.  1.
         11    1    1    2    0    0  0.70309509473E+02 -0.10786509660E+02 -0.21885540646E+03  0.23012488968E+03  0.00000000000E+00 0. -1.
</event>
<event>
 7    1  0.1226955E-005  0.1022182E+03  0.7561462E-02  0.1275699E+00
         -3   -1    0    0    0  501 -0.00000000000E+00  0.00000000000E+00  0.36162121585E+02  0.36162121585E+02  0.00000000000E+00 0. -1.
          3   -1    0    0  501    0  0.00000000000E+00 -0.00000000000E+00 -0.34639835701E+03  0.34639835701E+03  0.00000000000E+00 0.  1.
         23    2    1    2    0    0 -0.79859372420E+00 -0.11325614260E+02 -0.13206223665E+03  0.18225379504E+03  0.12508838542E+03 0.  0.
          5    1    3    3  502    0 -0.10355767160E+02  0.52747464467E+02 -0.31161177859E+02  0.62273817345E+02  0.41800000000E+01 0.  1.
         -5    1    3    3    0  502  0.95571734363E+01 -0.64073078727E+02 -0.10090105879E+03  0.11997997769E+03  0.41800000000E+01 0.  1.
        -11    1    1    2    0    0  0.55471696625E+01  0.48152703715E+02 -0.13457693877E+03  0.14303987701E+03  0.00000000000E+00 0.  1.
         11    1    1    2    0    0 -0.47485759383E+01 -0.36827089455E+02 -0.43597060003E+02  0.57266806547E+02  0.00000000000E+00 0. -1.
</event>
<event>
 7    1  0.1226955E-005  0.1073022E+03  0.7561462E-02  0.1265649E+00
         -2   -1    0    0    0  501 -0.00000000000E+00  0.00000000000E+00  0.73269518193E+02  0.73269518193E+02  0.00000000000E+00 0. -1.
          2   -1    0    0  501    0  0.00000000000E+00 -0.00000000000E+00 -0.27546455767E+03  0.27546455767E+03  0.00000000000E+00 0.  1.
         23    2    1    2    0    0  0.48374796749E+02  0.76594460760E+01 -0.15328282858E+02  0.13520679708E+03  0.12508850325E+03 0.  0.
          5    1    3    3  502    0  0.66838670697E+02  0.47759486672E+02  0.11988892712E+02  0.83123897985E+02  0.41800000000E+01 0.  1.
         -5    1    3    3    0  502 -0.18463873948E+02 -0.40100040596E+02 -0.27317175570E+02  0.52082899094E+02  0.41800000000E+01 0.  1.
        -11    1    1    2    0    0  0.87046403703E+01 -0.26503204291E+02 -0.12176342750E+03  0.12491806465E+03  0.00000000000E+00 0.  1.
         11    1    1    2    0    0 -0.57079437119E+02  0.18843758215E+02 -0.65103329125E+02  0.88609214130E+02  0.00000000000E+00 0. -1.
</event>
<event>
 7    1  0.1226955E-005  0.1058015E+03  0.7561462E-02  0.1268548E+00
         -2   -1    0    0    0  501 -0.00000000000E+00  0.00000000000E+00  0.12538337353E+03  0.12538337353E+03  0.00000000000E+00 0. -1.
          2   -1    0    0  501    0  0.00000000000E+00 -0.00000000000E+00 -0.11053363161E+03  0.11053363161E+03  0.00000000000E+00 0.  1.
         23    2    1    2    0    0  0.41447882991E+00  0.13992444735E+02  0.50619140887E+02  0.13566811125E+03  0.12509028213E+03 0.  0.
          5    1    3    3  502    0 -0.39306357496E+02 -0.37591490451E+02  0.25059770664E+01  0.54606430161E+02  0.41800000000E+01 0.  1.
         -5    1    3    3    0  502  0.39720836326E+02  0.51583935186E+02  0.48113163821E+02  0.81061681086E+02  0.41800000000E+01 0.  1.
        -11    1    1    2    0    0 -0.15642767946E+02  0.36161740819E+02 -0.56693467739E+01  0.39805893796E+02  0.00000000000E+00 0.  1.
         11    1    1    2    0    0  0.15228289116E+02 -0.50154185554E+02 -0.30100052200E+02  0.60443000094E+02  0.00000000000E+00 0. -1.
</event>
<event>
 7    1  0.1226955E-005  0.1178351E+03  0.7561462E-02  0.1246712E+00
         -2   -1    0    0    0  501 -0.00000000000E+00  0.00000000000E+00  0.41212663139E+02  0.41212663139E+02  0.00000000000E+00 0. -1.
          2   -1    0    0  501    0  0.00000000000E+00 -0.00000000000E+00 -0.43824975117E+03  0.43824975117E+03  0.00000000000E+00 0.  1.
         23    2    1    2    0    0 -0.16441016225E+02  0.68415273673E+02 -0.15087167608E+03  0.20823573714E+03  0.12509557504E+03 0.  0.
          5    1    3    3  502    0 -0.60187600667E+02  0.33341526159E+02 -0.30497855113E+02  0.75377690381E+02  0.41800000000E+01 0.  1.
         -5    1    3    3    0  502  0.43746584442E+02  0.35073747514E+02 -0.12037382097E+03  0.13285804676E+03  0.41800000000E+01 0.  1.
        -11    1    1    2    0    0  0.50943267730E+02 -0.50092678327E+02 -0.12570312181E+03  0.14458826987E+03  0.00000000000E+00 0. -1.
         11    1    1    2    0    0 -0.34502251505E+02 -0.18322595345E+02 -0.12046229014E+03  0.12663840730E+03  0.00000000000E+00 0.  1.
</event>
<event>
 7    1  0.1226955E-005  0.1090608E+03  0.7561462E-02  0.1262319E+00
          2   -1    0    0  501    0  0.00000000000E+00  0.00000000000E+00  0.13399456156E+03  0.13399456156E+03  0.00000000000E+00 0. -1.
         -2   -1    0    0    0  501 -0.00000000000E+00 -0.00000000000E+00 -0.12470995217E+03  0.12470995217E+03  0.00000000000E+00 0.  1.
         23    2    1    2    0    0  0.42371199858E+02 -0.55963411594E+02  0.52379042272E+01  0.14353724323E+03  0.12509309548E+03 0.  0.
          5    1    3    3  502    0 -0.23278090684E+02 -0.17276551617E+02  0.47871937004E+02  0.56120793777E+02  0.41800000000E+01 0. -1.
         -5    1    3    3    0  502  0.65649290542E+02 -0.38686859977E+02 -0.42634032777E+02  0.87416449449E+02  0.41800000000E+01 0. -1.
        -11    1    1    2    0    0  0.96034886294E+01  0.59644939884E+02  0.14254139374E+02  0.62071944846E+02  0.00000000000E+00 0. -1.
         11    1    1    2    0    0 -0.51974688487E+02 -0.36815282900E+01 -0.10207434208E+02  0.53095325661E+02  0.00000000000E+00 0.  1.
</event>
<event>
 7    1  0.1226955E-005  0.2207985E+03  0.7561462E-02  0.1133289E+00
          3   -1    0    0  501    0  0.00000000000E+00  0.00000000000E+00  0.64524525660E+03  0.64524525660E+03  0.00000000000E+00 0. -1.
         -3   -1    0    0    0  501 -0.00000000000E+00 -0.00000000000E+00 -0.10303824806E+03  0.10303824806E+03  0.00000000000E+00 0.  1.
         23    2    1    2    0    0 -0.57859274970E+02  0.19664355355E+03  0.11609460689E+03  0.26672539212E+03  0.12509234270E+03 0.  0.
          5    1    3    3  502    0  0.58566588523E+01  0.15333909308E+03  0.11094234213E+03  0.18940130305E+03  0.41800000000E+01 0.  1.
         -5    1    3    3    0  502 -0.63715933822E+02  0.43304460472E+02  0.51522647643E+01  0.77324089079E+02  0.41800000000E+01 0.  1.
        -11    1    1    2    0    0 -0.75103597096E+01 -0.47589715148E+02  0.40268715405E+02  0.62791368286E+02  0.00000000000E+00 0.  1.
         11    1    1    2    0    0  0.65369634680E+02 -0.14905383840E+03  0.38584368624E+03  0.41876674425E+03  0.00000000000E+00 0. -1.
</event>
<event>
 7    1  0.1226955E-005  0.9111291E+02  0.7561462E-02  0.1300179E+00
          2   -1    0    0  501    0  0.00000000000E+00  0.00000000000E+00  0.37560511402E+02  0.37560511402E+02  0.00000000000E+00 0. -1.
         -2   -1    0    0    0  501 -0.00000000000E+00 -0.00000000000E+00 -0.51123739594E+03  0.51123739594E+03  0.00000000000E+00 0.  1.
         23    2    1    2    0    0  0.22103621082E+02  0.69874702477E+02 -0.35311422200E+03  0.38171930727E+03  0.12509568998E+03 0.  0.
          5    1    3    3  502    0  0.31912874366E+02  0.24117212053E+02 -0.19290834422E+02  0.44605831012E+02  0.41800000000E+01 0. -1.
         -5    1    3    3    0  502 -0.98092532838E+01  0.45757490424E+02 -0.33382338758E+03  0.33711347626E+03  0.41800000000E+01 0. -1.
        -11    1    1    2    0    0 -0.41605229578E+02 -0.32233901504E+02 -0.11211284209E+03  0.12385196364E+03  0.00000000000E+00 0.  1.
         11    1    1    2    0    0  0.19501608496E+02 -0.37640800972E+02 -0.84498204398E+01  0.43226636432E+02  0.00000000000E+00 0. -1.
</event>
<event>
 7    1  0.1226955E-005  0.1320959E+03  0.7561462E-02  0.1224379E+00
         -2   -1    0    0    0  501 -0.00000000000E+00  0.00000000000E+00  0.60345944092E+02  0.60345944092E+02  0.00000000000E+00 0.  1.
          2   -1    0    0  501    0  0.00000000000E+00 -0.00000000000E+00 -0.32447195499E+03  0.32447195499E+03  0.00000000000E+00 0. -1.
         23    2    1    2    0    0 -0.16187317889E+02 -0.83580833003E+02 -0.17734891257E+03  0.23312543487E+03  0.12508815566E+03 0.  0.
          5    1    3    3  502    0 -0.63004895083E+02 -0.62567791898E+02 -0.66862279544E+02  0.11123121061E+03  0.41800000000E+01 0.  1.
         -5    1    3    3    0  502  0.46817577193E+02 -0.21013041105E+02 -0.11048663303E+03  0.12189422426E+03  0.41800000000E+01 0.  1.
        -11    1    1    2    0    0 -0.37574638694E+02  0.35188747863E+02 -0.43530555327E+02  0.67416694492E+02  0.00000000000E+00 0.  1.
         11    1    1    2    0    0  0.53761956583E+02  0.48392085140E+02 -0.43246542994E+02  0.84275769714E+02  0.00000000000E+00 0. -1.
</event>
<event>
 7    1  0.1226955E-005  0.1217071E+03  0.7561462E-02  0.1240307E+00
         -2   -1    0    0    0  501 -0.00000000000E+00  0.00000000000E+00  0.12691237904E+03  0.12691237904E+03  0.00000000000E+00 0.  1.
          2   -1    0    0  501    0  0.00000000000E+00 -0.00000000000E+00 -0.54786524532E+03  0.54786524532E+03  0.00000000000E+00 0. -1.
         23    2    1    2    0    0  0.78539812391E+02  0.63577674423E+02  0.62315456166E+02  0.17245310725E+03  0.12508491239E+03 0.  0.
          5    1    3    3  502    0 -0.13399216270E+02 -0.46883379903E+00  0.58606729021E+02  0.60265909836E+02  0.41800000000E+01 0. -1.
         -5    1    3    3    0  502  0.91939028660E+02  0.64046508222E+02  0.37087271451E+01  0.11218719741E+03  0.41800000000E+01 0. -1.
        -11    1    1    2    0    0  0.56612963902E+01 -0.23166026736E+02 -0.24669091444E+02  0.34311501632E+02  0.00000000000E+00 0.  1.
         11    1    1    2    0    0 -0.84201108781E+02 -0.40411647687E+02 -0.45859923100E+03  0.46801301548E+03  0.00000000000E+00 0. -1.
</event>
<event>
 7    1  0.1226955E-005  0.1117472E+03  0.7561462E-02  0.1257368E+00
          2   -1    0    0  501    0  0.00000000000E+00  0.00000000000E+00  0.65238030519E+02  0.65238030519E+02  0.00000000000E+00 0. -1.
         -2   -1    0    0    0  501 -0.00000000000E+00 -0.00000000000E+00 -0.20889974201E+03  0.20889974201E+03  0.00000000000E+00 0.  1.
         23    2    1    2    0    0 -0.23438977856E+02 -0.34425982383E+02 -0.79954475366E+02  0.15419307059E+03  0.12509296918E+03 0.  0.
          5    1    3    3  502    0  0.44888237117E+02 -0.36887349117E+02 -0.58149318005E+02  0.82307022427E+02  0.41800000000E+01 0.  1.
         -5    1    3    3    0  502 -0.68327214974E+02  0.24613667342E+01 -0.21805157361E+02  0.71886048158E+02  0.41800000000E+01 0.  1.
        -11    1    1    2    0    0  0.10595309455E+02 -0.29602178810E+02 -0.44338490004E+01  0.31752300541E+02  0.00000000000E+00 0. -1.
         11    1    1    2    0    0  0.12843668401E+02  0.64028161193E+02 -0.59273387123E+02  0.88192401400E+02  0.00000000000E+00 0.  1.
</event>
<event>
 7    1  0.1226955E-005  0.1176840E+03  0.7561462E-02  0.1246967E+00
         -4   -1    0    0    0  501 -0.00000000000E+00  0.00000000000E+00  0.25763551898E+02  0.25763551898E+02  0.00000000000E+00 0. -1.
          4   -1    0    0  501    0  0.00000000000E+00 -0.00000000000E+00 -0.68438057056E+03  0.68438057056E+03  0.00000000000E+00 0.  1.
         23    2    1    2    0    0  0.12336541780E+02  0.56922163621E+02 -0.22201518752E+03  0.26139756307E+03  0.12508245088E+03 0.  0.
          5    1    3    3  502    0 -0.40112733197E+02  0.72496533947E+02 -0.13947575559E+03  0.16228289373E+03  0.41800000000E+01 0.  1.
         -5    1    3    3    0  502  0.52449274976E+02 -0.15574370326E+02 -0.82539431928E+02  0.99114669346E+02  0.41800000000E+01 0.  1.
        -11    1    1    2    0    0 -0.44180498644E+02 -0.46227945350E+02 -0.35123485967E+03  0.35700821564E+03  0.00000000000E+00 0.  1.
         11    1    1    2    0    0  0.31843956865E+02 -0.10694218271E+02 -0.85366971474E+02  0.91738343739E+02  0.00000000000E+00 0. -1.
</event>
<event>
 7    1  0.1226955E-005  0.1540100E+03  0.7561462E-02  0.1195630E+00
          2   -1    0    0  501    0  0.00000000000E+00  0.00000000000E+00  0.64163386433E+03  0.64163386433E+03  0.00000000000E+00 0.  1.
         -2   -1    0    0    0  501 -0.00000000000E+00 -0.00000000000E+00 -0.44998038050E+02  0.44998038050E+02  0.00000000000E+00 0. -1.
         23    2    1    2    0    0  0.73831259913E+02  0.10659582616E+03  0.28506371150E+03  0.33723028846E+03  0.12509685344E+03 0.  0.
          5    1    3    3  502    0  0.10181796916E+03  0.10628836316E+03  0.20568667293E+03  0.25295967032E+03  0.41800000000E+01 0.  1.
         -5    1    3    3    0  502 -0.27986709250E+02  0.30746299714E+00  0.79377038575E+02  0.84270618136E+02  0.41800000000E+01 0.  1.
        -11    1    1    2    0    0 -0.24576838681E+02 -0.15912851306E+02  0.10450391351E+02  0.31087787243E+02  0.00000000000E+00 0. -1.
         11    1    1    2    0    0 -0.49254421232E+02 -0.90682974851E+02  0.30112172342E+03  0.31831382668E+03  0.00000000000E+00 0.  1.
</event>
<event>
 7    1  0.1226955E-005  0.9798708E+02  0.7561462E-02  0.1284587E+00
          1   -1    0    0  501    0  0.00000000000E+00  0.00000000000E+00  0.71212571790E+02  0.71212571790E+02  0.00000000000E+00 0. -1.
         -1   -1    0    0    0  501 -0.00000000000E+00 -0.00000000000E+00 -0.17698116668E+03  0.17698116668E+03  0.00000000000E+00 0.  1.
         23    2    1    2    0    0  0.24661330671E+02 -0.16811196659E+01 -0.80077605613E+02  0.15055113461E+03  0.12506883631E+03 0.  0.
          5    1    3    3  502    0  0.63021876761E+02  0.11428315434E+01 -0.90605908789E+02  0.11045345681E+03  0.41800000000E+01 0. -1.
         -5    1    3    3    0  502 -0.38360546090E+02 -0.28239512092E+01  0.10528303176E+02  0.40097677795E+02  0.41800000000E+01 0. -1.
        -11    1    1    2    0    0 -0.58252882904E+02 -0.88225894202E+01 -0.14017766268E+02  0.60561821488E+02  0.00000000000E+00 0.  1.
         11    1    1    2    0    0  0.33591552234E+02  0.10503709086E+02 -0.11673223007E+02  0.37080782373E+02  0.00000000000E+00 0. -1.
</event>
<event>
 7    1  0.1226955E-005  0.1929088E+03  0.7561462E-02  0.1155864E+00
         -2   -1    0    0    0  501 -0.00000000000E+00  0.00000000000E+00  0.38844659497E+02  0.38844659497E+02  0.00000000000E+00 0.  1.
          2   -1    0    0  501    0  0.00000000000E+00 -0.00000000000E+00 -0.11484716870E+04  0.11484716870E+04  0.00000000000E+00 0. -1.
         23    2    1    2    0    0  0.64198232132E+02  0.15828263435E+03 -0.41382862907E+03  0.46483702564E+03  0.12507805889E+03 0.  0.
          5    1    3    3  502    0 -0.17859596978E+02  0.64699202689E+02 -0.25095157587E+03  0.25980592346E+03  0.41800000000E+01 0.  1.
         -5    1    3    3    0  502  0.82057829111E+02  0.93583431658E+02 -0.16287705320E+03  0.20503110218E+03  0.41800000000E+01 0.  1.
        -11    1    1    2    0    0 -0.85368101759E+02 -0.97090783908E+02 -0.48727349308E+03  0.50413271088E+03  0.00000000000E+00 0.  1.
         11    1    1    2    0    0  0.21169869627E+02 -0.61191850439E+02 -0.20852490534E+03  0.21834660997E+03  0.00000000000E+00 0. -1.
</event>
<event>
 7    1  0.1226955E-005  0.8889158E+02  0.7561462E-02  0.1305558E+00
          2   -1    0    0  501    0  0.00000000000E+00  0.00000000000E+00  0.71774344013E+02  0.71774344013E+02  0.00000000000E+00 0. -1.
         -2   -1    0    0    0  501 -0.00000000000E+00 -0.00000000000E+00 -0.17443736488E+03  0.17443736488E+03  0.00000000000E+00 0.  1.
         23    2    1    2    0    0 -0.41372511127E+01 -0.23115494580E+02 -0.70213894911E+02  0.14535938448E+03  0.12509163314E+03 0.  0.
          5    1    3    3  502    0 -0.60812615367E+02 -0.33303798115E+02 -0.35763210467E+02  0.78126799369E+02  0.41800000000E+01 0.  1.
         -5    1    3    3    0  502  0.56675364254E+02  0.10188303535E+02 -0.34450684444E+02  0.67232585113E+02  0.41800000000E+01 0.  1.
        -11    1    1    2    0    0  0.24450145407E+02  0.10049946713E+02  0.26326354232E+02  0.37308014776E+02  0.00000000000E+00 0. -1.
         11    1    1    2    0    0 -0.20312894295E+02  0.13065547867E+02 -0.58775480193E+02  0.63544309640E+02  0.00000000000E+00 0.  1.
</event>
<event>
 7    1  0.1226955E-005  0.1655230E+03  0.7561462E-02  0.1182599E+00
          1   -1    0    0  501    0  0.00000000000E+00  0.00000000000E+00  0.10596431093E+04  0.10596431093E+04  0.00000000000E+00 0. -1.
         -1   -1    0    0    0  501 -0.00000000000E+00 -0.00000000000E+00 -0.34578465509E+02  0.34578465509E+02  0.00000000000E+00 0.  1.
         23    2    1    2    0    0  0.89439256421E+02  0.11139857892E+03  0.34646236938E+03  0.39508618975E+03  0.12509156629E+03 0.  0.
          5    1    3    3  502    0 -0.14415387298E+02  0.12675326023E+02  0.15324124870E+03  0.15449537205E+03  0.41800000000E+01 0. -1.
         -5    1    3    3    0  502  0.10385464372E+03  0.98723252896E+02  0.19322112068E+03  0.24059081770E+03  0.41800000000E+01 0. -1.
        -11    1    1    2    0    0 -0.89174010677E+02 -0.41859583230E+02  0.41196473625E+03  0.42357900420E+03  0.00000000000E+00 0. -1.
         11    1    1    2    0    0 -0.26524574433E+00 -0.69538995688E+02  0.26663753820E+03  0.27555638090E+03  0.00000000000E+00 0.  1.
</event>
<event>
 7    1  0.1226955E-005  0.7516186E+02  0.7561462E-02  0.1343371E+00
         -3   -1    0    0    0  501 -0.00000000000E+00  0.00000000000E+00  0.52781442175E+03  0.52781442175E+03  0.00000000000E+00 0.  1.
          3   -1    0    0  501    0  0.00000000000E+00 -0.00000000000E+00 -0.33412025374E+02  0.33412025374E+02  0.00000000000E+00 0. -1.
         23    2    1    2    0    0  0.40645428652E+02 -0.41944339242E+02  0.37479760549E+03  0.39941390276E+03  0.12508733819E+03 0.  0.
          5    1    3    3  502    0  0.11004690543E+02 -0.51866119008E+02  0.49707116934E+02  0.72797440812E+02  0.41800000000E+01 0. -1.
         -5    1    3    3    0  502  0.29640738109E+02  0.99217797665E+01  0.32509048855E+03  0.32661646195E+03  0.41800000000E+01 0. -1.
        -11    1    1    2    0    0 -0.29935418047E+02  0.45372225479E+02  0.13337941072E+03  0.14403067487E+03  0.00000000000E+00 0.  1.
         11    1    1    2    0    0 -0.10710010605E+02 -0.34278862371E+01 -0.13774619832E+02  0.17781869495E+02  0.00000000000E+00 0. -1.
</event>
<event>
 7    1  0.1226955E-005  0.1464897E+03  0.7561462E-02  0.1204854E+00
         -1   -1    0    0    0  501 -0.00000000000E+00  0.00000000000E+00  0.44877887409E+02  0.44877887409E+02  0.00000000000E+00 0.  1.
          1   -1    0    0  501    0  0.00000000000E+00 -0.00000000000E+00 -0.49390207881E+03  0.49390207881E+03  0.00000000000E+00 0. -1.
         23    2    1    2    0    0  0.22429386903E+02 -0.98836957866E+02 -0.22633534880E+03  0.27775346618E+03  0.12508987258E+03 0.  0.
          5    1    3    3  502    0 -0.43480982805E+02 -0.29223345488E+01 -0.50276446826E+02  0.66665803905E+02  0.41800000000E+01 0. -1.
         -5    1    3    3    0  502  0.65910369707E+02 -0.95914623317E+02 -0.17605890198E+03  0.21108766228E+03  0.41800000000E+01 0. -1.
        -11    1    1    2    0    0  0.33052899520E+02  0.34148137449E+02 -0.10927110255E+03  0.11915856373E+03  0.00000000000E+00 0. -1.
         11    1    1    2    0    0 -0.55482286423E+02  0.64688820417E+02 -0.11341774005E+03  0.14186793631E+03  0.00000000000E+00 0.  1.
</event>
<event>
 7    1  0.1226955E-005  0.1017015E+03  0.7561462E-02  0.1276758E+00
          2   -1    0    0  501    0  0.00000000000E+00  0.00000000000E+00  0.33591333178E+03  0.33591333178E+03  0.00000000000E+00 0.  1.
         -2   -1    0    0    0  501 -0.00000000000E+00 -0.00000000000E+00 -0.47612372157E+02  0.47612372157E+02  0.00000000000E+00 0. -1.
         23    2    1    2    0    0  0.36494225501E+02  0.51990223891E+02  0.14398489030E+03  0.20103280697E+03  0.12509088284E+03 0.  0.
          5    1    3    3  502    0 -0.29730290021E+02 -0.15006616381E+02  0.62959446284E+01  0.34149670550E+02  0.41800000000E+01 0.  1.
         -5    1    3    3    0  502  0.66224515522E+02  0.66996840272E+02  0.13768894567E+03  0.16688313642E+03  0.41800000000E+01 0.  1.
        -11    1    1    2    0    0 -0.36611274050E+02 -0.16679506455E+02  0.14145645945E+03  0.14706638380E+03  0.00000000000E+00 0.  1.
         11    1    1    2    0    0  0.11704854994E+00 -0.35310717436E+02  0.28596098696E+01  0.35426513162E+02  0.00000000000E+00 0. -1.
</event>
<event>
 7    1  0.1226955E-005  0.7362045E+02  0.7561462E-02  0.1348197E+00
         -1   -1    0    0    0  501 -0.00000000000E+00  0.00000000000E+00  0.16170925099E+03  0.16170925099E+03  0.00000000000E+00 0.  1.
          1   -1    0    0  501    0  0.00000000000E+00 -0.00000000000E+00 -0.10170559407E+03  0.10170559407E+03  0.00000000000E+00 0. -1.
         23    2    1    2    0    0  0.68515742057E+02 -0.18224732625E+01  0.44215616334E+02  0.14933287837E+03  0.12509020551E+03 0.  0.
          5    1    3    3  502    0  0.60322174154E+02  0.11944551495E+01 -0.34766734205E+02  0.69759512793E+02  0.41800000000E+01 0. -1.
         -5    1    3    3    0  502  0.81935679032E+01 -0.30169284120E+01  0.78982350540E+02  0.79573365574E+02  0.41800000000E+01 0. -1.
        -11    1    1    2    0    0 -0.16984720430E+02  0.16315565257E+02 -0.33744589949E+02  0.41150647000E+02  0.00000000000E+00 0. -1.
         11    1    1    2    0    0 -0.51531021628E+02 -0.14493091994E+02  0.49532630535E+02  0.72931319700E+02  0.00000000000E+00 0.  1.
</event>
<event>
 7    1  0.1226955E-005  0.1825598E+03  0.7561462E-02  0.1165348E+00
          1   -1    0    0  501    0  0.00000000000E+00  0.00000000000E+00  0.47926417519E+03  0.47926417519E+03  0.00000000000E+00 0. -1.
         -1   -1    0    0    0  501 -0.00000000000E+00 -0.00000000000E+00 -0.94358529558E+02  0.94358529558E+02  0.00000000000E+00 0.  1.
         23    2    1    2    0    0  0.14291715051E+03 -0.36159422833E+02  0.56025238279E+02  0.20129134401E+03  0.12508621857E+03 0.  0.
          5    1    3    3  502    0 -0.64613397123E+01  0.28901540381E+02  0.38343426877E+01  0.30153317083E+02  0.41800000000E+01 0.  1.
         -5    1    3    3    0  502  0.14937849023E+03 -0.65060963214E+02  0.52190895591E+02  0.17113802692E+03  0.41800000000E+01 0.  1.
        -11    1    1    2    0    0 -0.39910966381E+02  0.54549106901E+02  0.15960931483E+03  0.17333096574E+03  0.00000000000E+00 0.  1.
         11    1    1    2    0    0 -0.10300618413E+03 -0.18389684069E+02  0.16927109252E+03  0.19900039501E+03  0.00000000000E+00 0. -1.
</event>
<event>
 7    1  0.1226955E-005  0.1041504E+03  0.7561462E-02  0.1271803E+00
         -3   -1    0    0    0  501 -0.00000000000E+00  0.00000000000E+00  0.15214885406E+03  0.15214885406E+03  0.00000000000E+00 0.  1.
          3   -1    0    0  501    0  0.00000000000E+00 -0.00000000000E+00 -0.11289074162E+03  0.11289074162E+03  0.00000000000E+00 0. -1.
         23    2    1    2    0    0 -0.36607450734E+02  0.66917037267E+01  0.83456889571E+02  0.15581578665E+03  0.12620864710E+03 0.  0.
          5    1    3    3  502    0  0.22027127511E+02 -0.32285611668E+02 -0.82093926052E+01  0.40154969731E+02  0.41800000000E+01 0. -1.
         -5    1    3    3    0  502 -0.58634578245E+02  0.38977315395E+02  0.91666282177E+02  0.11566081691E+03  0.41800000000E+01 0.  1.
        -11    1    1    2    0    0 -0.28171710183E+02  0.12615040381E+02 -0.55577725547E+01  0.31363566988E+02  0.00000000000E+00 0.  1.
         11    1    1    2    0    0  0.64779160917E+02 -0.19306744108E+02 -0.38641004568E+02  0.77860242045E+02  0.00000000000E+00 0. -1.
</event>
<event>
 7    1  0.1226955E-005  0.1031637E+03  0.7561462E-02  0.1273780E+00
          1   -1    0    0  501    0  0.00000000000E+00  0.00000000000E+00  0.20361584167E+03  0.20361584167E+03  0.00000000000E+00 0. -1.
         -1   -1    0    0    0  501 -0.00000000000E+00 -0.00000000000E+00 -0.66069868606E+02  0.66069868606E+02  0.00000000000E+00 0.  1.
         23    2    1    2    0    0 -0.10573757362E+02 -0.22460216582E+02  0.37118773165E+02  0.13282610552E+03  0.12509478531E+03 0.  0.
          5    1    3    3  502    0  0.20310337653E+02  0.39316078669E+02  0.44920814711E+02  0.63195061925E+02  0.41800000000E+01 0.  1.
         -5    1    3    3    0  502 -0.30884095015E+02 -0.61776295251E+02 -0.78020415454E+01  0.69631043595E+02  0.41800000000E+01 0.  1.
        -11    1    1    2    0    0 -0.12282463548E+02  0.53076242853E+02  0.64314737608E+02  0.84287199145E+02  0.00000000000E+00 0.  1.
         11    1    1    2    0    0  0.22856220910E+02 -0.30616026271E+02  0.36112462286E+02  0.52572405606E+02  0.00000000000E+00 0. -1.
</event>
<event>
 7    1  0.1226955E-005  0.1432224E+03  0.7561462E-02  0.1209058E+00
         -1   -1    0    0    0  501 -0.00000000000E+00  0.00000000000E+00  0.94721250509E+02  0.94721250509E+02  0.00000000000E+00 0.  1.
          1   -1    0    0  501    0  0.00000000000E+00 -0.00000000000E+00 -0.22188596701E+03  0.22188596701E+03  0.00000000000E+00 0. -1.
         23    2    1    2    0    0 -0.90857129219E+02 -0.24946315460E+02 -0.48664535934E+02  0.16399299919E+03  0.12509248634E+03 0.  0.
          5    1    3    3  502    0 -0.83782746645E+02 -0.70798921687E+02 -0.38395054844E+02  0.11629139514E+03  0.41800000000E+01 0. -1.
         -5    1    3    3    0  502 -0.70743825744E+01  0.45852606227E+02 -0.10269481090E+02  0.47701604045E+02  0.41800000000E+01 0. -1.
        -11    1    1    2    0    0 -0.82709680877E+01  0.29719016360E+02 -0.25979855580E+02  0.40330903070E+02  0.00000000000E+00 0. -1.
         11    1    1    2    0    0  0.99128097307E+02 -0.47727008996E+01 -0.52520324984E+02  0.11228331526E+03  0.00000000000E+00 0.  1.
</event>
<event>
 7    1  0.1226955E-005  0.1321840E+03  0.7561462E-02  0.1224251E+00
         -4   -1    0    0    0  501 -0.00000000000E+00  0.00000000000E+00  0.22016854899E+02  0.22016854899E+02  0.00000000000E+00 0.  1.
          4   -1    0    0  501    0  0.00000000000E+00 -0.00000000000E+00 -0.10044954303E+04  0.10044954303E+04  0.00000000000E+00 0. -1.
         23    2    1    2    0    0  0.98448135201E+02  0.24124392573E+02 -0.55598358138E+03  0.57882697398E+03  0.12509556906E+03 0.  0.
          5    1    3    3  502    0  0.98273423784E+02 -0.32513687527E+02 -0.38271137199E+03  0.39648489549E+03  0.41800000000E+01 0. -1.
         -5    1    3    3    0  502  0.17471141646E+00  0.56638080099E+02 -0.17327220939E+03  0.18234207849E+03  0.41800000000E+01 0. -1.
        -11    1    1    2    0    0 -0.67197716880E+02 -0.50952327076E+01 -0.39080528032E+03  0.39657314796E+03  0.00000000000E+00 0.  1.
         11    1    1    2    0    0 -0.31250418321E+02 -0.19029159865E+02 -0.35689713710E+02  0.51112163279E+02  0.00000000000E+00 0. -1.
</event>
<event>
 7    1  0.1226955E-005  0.1273993E+03  0.7561462E-02  0.1231367E+00
         -1   -1    0    0    0  501 -0.00000000000E+00  0.00000000000E+00  0.10327189543E+04  0.10327189543E+04  0.00000000000E+00 0.  1.
          1   -1    0    0  501    0  0.00000000000E+00 -0.00000000000E+00 -0.28281161102E+02  0.28281161102E+02  0.00000000000E+00 0. -1.
         23    2    1    2    0    0 -0.91208184724E+01 -0.11016268344E+03  0.75128875249E+03  0.76961148129E+03  0.12509211151E+03 0.  0.
          5    1    3    3  502    0 -0.42514885513E+02 -0.68813717398E+02  0.65111972971E+03  0.65613810895E+03  0.41800000000E+01 0.  1.
         -5    1    3    3    0  502  0.33394067041E+02 -0.41348966043E+02  0.10016902278E+03  0.11347337234E+03  0.41800000000E+01 0.  1.
        -11    1    1    2    0    0  0.23155604621E+02  0.10124805664E+03  0.25433004821E+03  0.27472008376E+03  0.00000000000E+00 0.  1.
         11    1    1    2    0    0 -0.14034786149E+02  0.89146268057E+01 -0.11810074701E+01  0.16668550386E+02  0.00000000000E+00 0. -1.
</event>
<event>
 7    1  0.1226955E-005  0.1095401E+03  0.7561462E-02  0.1261424E+00
          2   -1    0    0  501    0  0.00000000000E+00  0.00000000000E+00  0.54936445842E+03  0.54936445842E+03  0.00000000000E+00 0. -1.
         -2   -1    0    0    0  501 -0.00000000000E+00 -0.00000000000E+00 -0.31214651809E+02  0.31214651809E+02  0.00000000000E+00 0.  1.
         23    2    1    2    0    0  0.58577215177E+02  0.10079541840E+02  0.21279560829E+03  0.25389372020E+03  0.12508862037E+03 0.  0.
          5    1    3    3  502    0 -0.10794018458E+02  0.50901980197E+02  0.50225566004E+02  0.72440336159E+02  0.41800000000E+01 0.  1.
         -5    1    3    3    0  502  0.69371233635E+02 -0.40822438356E+02  0.16257004229E+03  0.18145338404E+03  0.41800000000E+01 0.  1.
        -11    1    1    2    0    0 -0.46425942534E+02 -0.35274724900E+02  0.28783169411E+03  0.29367798435E+03  0.00000000000E+00 0. -1.
         11    1    1    2    0    0 -0.12151272643E+02  0.25195183060E+02  0.17522504212E+02  0.33007405686E+02  0.00000000000E+00 0.  1.
</event>
<event>
 7    1  0.1226955E-005  0.8936880E+02  0.7561462E-02  0.1304387E+00
         -1   -1    0    0    0  501 -0.00000000000E+00  0.00000000000E+00  0.15513596220E+02  0.15513596220E+02  0.00000000000E+00 0.  1.
          1   -1    0    0  501    0  0.00000000000E+00 -0.00000000000E+00 -0.86077751409E+03  0.86077751409E+03  0.00000000000E+00 0. -1.
         23    2    1    2    0    0 -0.24986481781E+02 -0.78165361043E+00 -0.36508543479E+03  0.38672760840E+03  0.12508370457E+03 0.  0.
          5    1    3    3  502    0 -0.53829142408E+02 -0.72703341672E+01 -0.34818001681E+03  0.35241627493E+03  0.41800000000E+01 0. -1.
         -5    1    3    3    0  502  0.28842660627E+02  0.64886805568E+01 -0.16905417985E+02  0.34311333472E+02  0.41800000000E+01 0. -1.
        -11    1    1    2    0    0  0.59558192346E+02  0.39239224970E+01 -0.33636146939E+03  0.34161617868E+03  0.00000000000E+00 0. -1.
         11    1    1    2    0    0 -0.34571710565E+02 -0.31422688866E+01 -0.14381701369E+03  0.14794732323E+03  0.00000000000E+00 0.  1.
</event>
<event>
 7    1  0.1226955E-005  0.7488531E+02  0.7561462E-02  0.1344227E+00
         -3   -1    0    0    0  501 -0.00000000000E+00  0.00000000000E+00  0.20252095679E+03  0.20252095679E+03  0.00000000000E+00 0.  1.
          3   -1    0    0  501    0  0.00000000000E+00 -0.00000000000E+00 -0.62270831432E+02  0.62270831432E+02  0.00000000000E+00 0. -1.
         23    2    1    2    0    0  0.33178832436E+02  0.57195995428E+01  0.75473014504E+02  0.14992715512E+03  0.12509367363E+03 0.  0.
          5    1    3    3  502    0  0.37537360592E+02 -0.17154781747E+02 -0.23833192001E+02  0.47841753918E+02  0.41800000000E+01 0.  1.
         -5    1    3    3    0  502 -0.43585281563E+01  0.22874381289E+02  0.99306206506E+02  0.10208540120E+03  0.41800000000E+01 0.  1.
        -11    1    1    2    0    0 -0.46686140824E+01  0.34785309848E+02  0.53629339934E+02  0.64093056101E+02  0.00000000000E+00 0.  1.
         11    1    1    2    0    0 -0.28510218353E+02 -0.40504909390E+02  0.11147770922E+02  0.50771577007E+02  0.00000000000E+00 0. -1.
</event>
<event>
 7    1  0.1226955E-005  0.1250175E+03  0.7561462E-02  0.1235042E+00
         -1   -1    0    0    0  501 -0.00000000000E+00  0.00000000000E+00  0.52628415830E+02  0.52628415830E+02  0.00000000000E+00 0.  1.
          1   -1    0    0  501    0  0.00000000000E+00 -0.00000000000E+00 -0.38367744654E+03  0.38367744654E+03  0.00000000000E+00 0. -1.
         23    2    1    2    0    0  0.33143603015E+02 -0.81298294894E+02 -0.14610901457E+03  0.21143235365E+03  0.12509150593E+03 0.  0.
          5    1    3    3  502    0  0.73363162759E+02 -0.16391188099E+02 -0.60030460131E+02  0.96290982137E+02  0.41800000000E+01 0.  1.
         -5    1    3    3    0  502 -0.40219559745E+02 -0.64907106795E+02 -0.86078554442E+02  0.11514137151E+03  0.41800000000E+01 0.  1.
        -11    1    1    2    0    0  0.87305867245E-01  0.57261777451E+02 -0.17289177443E+03  0.18212765975E+03  0.00000000000E+00 0. -1.
         11    1    1    2    0    0 -0.33230908882E+02  0.24036517443E+02 -0.12048241698E+02  0.42745848967E+02  0.00000000000E+00 0.  1.
</event>
<event>
 7    1  0.1226955E-005  0.9723267E+02  0.7561462E-02  0.1286225E+00
          2   -1    0    0  501    0  0.00000000000E+00  0.00000000000E+00  0.10652634102E+03  0.10652634102E+03  0.00000000000E+00 0. -1.
         -2   -1    0    0    0  501 -0.00000000000E+00 -0.00000000000E+00 -0.12330947533E+03  0.12330947533E+03  0.00000000000E+00 0.  1.
         23    2    1    2    0    0  0.19193060695E+02 -0.82718591992E+01 -0.45667881788E+02  0.13479290319E+03  0.12508706603E+03 0.  0.
          5    1    3    3  502    0 -0.10236831456E+02  0.55425963457E+02 -0.19488451181E+02  0.59783796072E+02  0.41800000000E+01 0.  1.
         -5    1    3    3    0  502  0.29429892150E+02 -0.63697822656E+02 -0.26179430607E+02  0.75009107114E+02  0.41800000000E+01 0.  1.
        -11    1    1    2    0    0 -0.52501792251E+01 -0.28160468348E+02 -0.18169101250E+02  0.33921860204E+02  0.00000000000E+00 0.  1.
         11    1    1    2    0    0 -0.13942881470E+02  0.36432327547E+02  0.47053848736E+02  0.61121052960E+02  0.00000000000E+00 0. -1.
</event>
<event>
 7    1  0.1226955E-005  0.1053625E+03  0.7561462E-02  0.1269407E+00
          1   -1    0    0  501    0  0.00000000000E+00  0.00000000000E+00  0.77642289440E+02  0.77642289440E+02  0.00000000000E+00 0. -1.
         -1   -1    0    0    0  501 -0.00000000000E+00 -0.00000000000E+00 -0.22108170565E+03  0.22108170565E+03  0.00000000000E+00 0.  1.
         23    2    1    2    0    0 -0.16350928334E+02 -0.68421726993E+02 -0.55902496021E+02  0.15401682024E+03  0.12508879355E+03 0.  0.
          5    1    3    3  502    0  0.27176956329E+02 -0.70588886519E+01 -0.71623975313E+02  0.77044669536E+02  0.41800000000E+01 0. -1.
         -5    1    3    3    0  502 -0.43527884664E+02 -0.61362838341E+02  0.15721479291E+02  0.76972150702E+02  0.41800000000E+01 0. -1.
        -11    1    1    2    0    0  0.23003427241E+01 -0.18648914501E+02 -0.40738828828E+02  0.44863412298E+02  0.00000000000E+00 0.  1.
         11    1    1    2    0    0  0.14050585610E+02  0.87070641493E+02 -0.46798091362E+02  0.99843762555E+02  0.00000000000E+00 0. -1.
</event>
<event>
 7    1  0.1226955E-005  0.1572970E+03  0.7561462E-02  0.1191783E+00
          3   -1    0    0  501    0  0.00000000000E+00  0.00000000000E+00  0.18630848995E+03  0.18630848995E+03  0.00000000000E+00 0. -1.
         -3   -1    0    0    0  501 -0.00000000000E+00 -0.00000000000E+00 -0.15434464972E+03  0.15434464972E+03  0.00000000000E+00 0.  1.
         23    2    1    2    0    0  0.97869323686E+02  0.82446692762E+02 -0.11318318594E+02  0.17930967427E+03  0.12509193933E+03 0.  0.
          5    1    3    3  502    0  0.10600658917E+02  0.83061812229E+02  0.20527095586E+02  0.86316120588E+02  0.41800000000E+01 0.  1.
         -5    1    3    3    0  502  0.87268664769E+02 -0.61511946734E+00 -0.31845414180E+02  0.92993553684E+02  0.41800000000E+01 0.  1.
        -11    1    1    2    0    0 -0.18750677177E+02  0.10365308091E+02 -0.15020519524E+02  0.26165693440E+02  0.00000000000E+00 0.  1.
         11    1    1    2    0    0 -0.79118646509E+02 -0.92812000852E+02  0.58302678356E+02  0.13517777196E+03  0.00000000000E+00 0. -1.
</event>
<event>
 7    1  0.1226955E-005  0.1026121E+03  0.7561462E-02  0.1274897E+00
         -2   -1    0    0    0  501 -0.00000000000E+00  0.00000000000E+00  0.12043268074E+02  0.12043268074E+02  0.00000000000E+00 0.  1.
          2   -1    0    0  501    0  0.00000000000E+00 -0.00000000000E+00 -0.11375002224E+04  0.11375002224E+04  0.00000000000E+00 0. -1.
         23    2    1    2    0    0 -0.20260262853E+02 -0.33233019963E+02 -0.66034856715E+03  0.67322158460E+03  0.12510859274E+03 0.  0.
          5    1    3    3  502    0  0.24273505972E+02 -0.51621747728E+02 -0.54706291504E+03  0.55004482849E+03  0.41800000000E+01 0. -1.
         -5    1    3    3    0  502 -0.44533768825E+02  0.18388727765E+02 -0.11328565210E+03  0.12317675611E+03  0.41800000000E+01 0. -1.
        -11    1    1    2    0    0  0.56076944074E+02  0.30273281737E+02 -0.34928746367E+03  0.35505327420E+03  0.00000000000E+00 0. -1.
         11    1    1    2    0    0 -0.35816681221E+02  0.29597382265E+01 -0.11582092347E+03  0.12126863163E+03  0.00000000000E+00 0.  1.
</event>
<event>
 7    1  0.1226955E-005  0.1276890E+03  0.7561462E-02  0.1230926E+00
         -2   -1    0    0    0  501 -0.00000000000E+00  0.00000000000E+00  0.11273036706E+03  0.11273036706E+03  0.00000000000E+00 0.  1.
          2   -1    0    0  501    0  0.00000000000E+00 -0.00000000000E+00 -0.15565000016E+03  0.15565000016E+03  0.00000000000E+00 0. -1.
         23    2    1    2    0    0  0.69840041733E+02  0.29327783059E+02 -0.21184531667E+02  0.14776238365E+03  0.12508871792E+03 0.  0.
          5    1    3    3  502    0  0.10439283111E+03  0.12902183649E+02 -0.27400464343E+02  0.10877769706E+03  0.41800000000E+01 0.  1.
         -5    1    3    3    0  502 -0.34552789379E+02  0.16425599410E+02  0.62159326752E+01  0.38984686594E+02  0.41800000000E+01 0.  1.
        -11    1    1    2    0    0  0.17335910510E+02  0.48247507651E+01  0.11398274876E+02  0.21301001932E+02  0.00000000000E+00 0.  1.
         11    1    1    2    0    0 -0.87175952243E+02 -0.34152533824E+02 -0.33133376304E+02  0.99316981637E+02  0.00000000000E+00 0. -1.
</event>
<event>
 7    1  0.1226955E-005  0.7111762E+02  0.7561462E-02  0.1356333E+00
         -1   -1    0    0    0  501 -0.00000000000E+00  0.00000000000E+00  0.24099127475E+03  0.24099127475E+03  0.00000000000E+00 0.  1.
          1   -1    0    0  501    0  0.00000000000E+00 -0.00000000000E+00 -0.51399883881E+02  0.51399883881E+02  0.00000000000E+00 0. -1.
         23    2    1    2    0    0 -0.24202755659E+02 -0.12001601641E+02  0.14975768287E+03  0.18992293811E+03  0.11363778870E+03 0.  0.
          5    1    3    3  502    0 -0.13790848238E+02 -0.26102962340E+02 -0.82136254165E+01  0.30927143104E+02  0.41800000000E+01 0. -1.
         -5    1    3    3    0  502 -0.10411907421E+02  0.14101360699E+02  0.15797130828E+03  0.15899579501E+03  0.41800000000E+01 0.  1.
        -11    1    1    2    0    0 -0.82838143152E+01  0.46371191994E+02  0.20632550312E+02  0.51425783017E+02  0.00000000000E+00 0.  1.
         11    1    1    2    0    0  0.32486569974E+02 -0.34369590353E+02  0.19201157692E+02  0.51042437505E+02  0.00000000000E+00 0. -1.
</event>
<event>
 7    1  0.1226955E-005  0.2326011E+03  0.7561462E-02  0.1124822E+00
         -2   -1    0    0    0  501 -0.00000000000E+00  0.00000000000E+00  0.23973906591E+03  0.23973906591E+03  0.00000000000E+00 0.  1.
          2   -1    0    0  501    0  0.00000000000E+00 -0.00000000000E+00 -0.39080337463E+03  0.39080337463E+03  0.00000000000E+00 0. -1.
         23    2    1    2    0    0  0.11273393944E+02  0.22074366997E+03  0.11018237474E+03  0.27684356826E+03  0.12508936141E+03 0.  0.
          5    1    3    3  502    0 -0.20099249062E+02  0.77048014757E+02 -0.17951829850E+02  0.81731982638E+02  0.41800000000E+01 0. -1.
         -5    1    3    3    0  502  0.31372643007E+02  0.14369565521E+03  0.12813420459E+03  0.19511158562E+03  0.41800000000E+01 0. -1.
        -11    1    1    2    0    0  0.29208163438E+02 -0.17423944264E+03 -0.19836471684E+03  0.26563332070E+03  0.00000000000E+00 0.  1.
         11    1    1    2    0    0 -0.40481557383E+02 -0.46504227333E+02 -0.62881966622E+02  0.88065551575E+02  0.00000000000E+00 0. -1.
</event>
<event>
 7    1  0.1226955E-005  0.2976100E+03  0.7561462E-02  0.1086441E+00
         -2   -1    0    0    0  501 -0.00000000000E+00  0.00000000000E+00  0.66026788418E+02  0.66026788418E+02  0.00000000000E+00 0.  1.
          2   -1    0    0  501    0  0.00000000000E+00 -0.00000000000E+00 -0.15177741151E+04  0.15177741151E+04  0.00000000000E+00 0. -1.
         23    2    1    2    0    0 -0.24213309013E+03  0.13537569007E+03 -0.47331753097E+03  0.56270097123E+03  0.12509151490E+03 0.  0.
          5    1    3    3  502    0 -0.24582756145E+03  0.14984800040E+03 -0.45737690658E+03  0.54045973047E+03  0.41800000000E+01 0. -1.
         -5    1    3    3    0  502  0.36944713152E+01 -0.14472310325E+02 -0.15940624390E+02  0.22241240757E+02  0.41800000000E+01 0. -1.
        -11    1    1    2    0    0  0.20864011468E+03 -0.73110133055E+02 -0.72046239541E+03  0.75361916921E+03  0.00000000000E+00 0.  1.
         11    1    1    2    0    0  0.33492975454E+02 -0.62265557018E+02 -0.25796740035E+03  0.26748076312E+03  0.00000000000E+00 0. -1.
</event>
<event>
 7    1  0.1226955E-005  0.8913738E+02  0.7561462E-02  0.1304954E+00
         -1   -1    0    0    0  501 -0.00000000000E+00  0.00000000000E+00  0.35223201088E+03  0.35223201088E+03  0.00000000000E+00 0. -1.
          1   -1    0    0  501    0  0.00000000000E+00 -0.00000000000E+00 -0.39949882930E+02  0.39949882930E+02  0.00000000000E+00 0.  1.
         23    2    1    2    0    0  0.25429341223E+02 -0.33909287930E+02  0.19769127984E+03  0.23774977685E+03  0.12508646236E+03 0.  0.
          5    1    3    3  502    0  0.36357949898E+02 -0.46009504528E+02  0.20923639004E+03  0.21733870881E+03  0.41800000000E+01 0.  1.
         -5    1    3    3    0  502 -0.10928608675E+02  0.12100216598E+02 -0.11545110199E+02  0.20411068046E+02  0.41800000000E+01 0.  1.
        -11    1    1    2    0    0  0.32166621126E+02 -0.58125741238E+01  0.46191475437E+02  0.56587365513E+02  0.00000000000E+00 0. -1.
         11    1    1    2    0    0 -0.57595962349E+02  0.39721862054E+02  0.68399372673E+02  0.97844751448E+02  0.00000000000E+00 0.  1.
</event>
<event>
 7    1  0.1226955E-005  0.1409382E+03  0.7561462E-02  0.1212072E+00
         -2   -1    0    0    0  501 -0.00000000000E+00  0.00000000000E+00  0.25366063539E+02  0.25366063539E+02  0.00000000000E+00 0.  1.
          2   -1    0    0  501    0  0.00000000000E+00 -0.00000000000E+00 -0.85025532370E+03  0.85025532370E+03  0.00000000000E+00 0. -1.
         23    2    1    2    0    0 -0.35032582963E+02 -0.89850735223E+02 -0.38324678122E+03  0.41451874511E+03  0.12508900127E+03 0.  0.
          5    1    3    3  502    0  0.37966055334E+02  0.21804499136E+00 -0.13847450690E+03  0.14364585049E+03  0.41800000000E+01 0. -1.
         -5    1    3    3    0  502 -0.72998638297E+02 -0.90068780215E+02 -0.24477227432E+03  0.27087289462E+03  0.41800000000E+01 0. -1.
        -11    1    1    2    0    0  0.74370470015E+01  0.98476258615E+02 -0.38555306926E+03  0.39800006582E+03  0.00000000000E+00 0. -1.
         11    1    1    2    0    0  0.27595535961E+02 -0.86255233911E+01 -0.56089409680E+02  0.63102576310E+02  0.00000000000E+00 0.  1.
</event>
<event>
 7    1  0.1226955E-005  0.1110086E+03  0.7561462E-02  0.1258714E+00
         -1   -1    0    0    0  501 -0.00000000000E+00  0.00000000000E+00  0.11928665365E+03  0.11928665365E+03  0.00000000000E+00 0.  1.
          1   -1    0    0  501    0  0.00000000000E+00 -0.00000000000E+00 -0.12050941621E+03  0.12050941621E+03  0.00000000000E+00 0. -1.
         23    2    1    2    0    0 -0.41718795076E+02  0.28646895944E+02  0.16376963782E+02  0.13593313201E+03  0.12509400036E+03 0.  0.
          5    1    3    3  502    0 -0.78345586796E+02 -0.99375959869E+01 -0.30498321806E+01  0.79142660183E+02  0.41800000000E+01 0.  1.
         -5    1    3    3    0  502  0.36626791721E+02  0.38584491931E+02  0.19426795963E+02  0.56790471830E+02  0.41800000000E+01 0.  1.
        -11    1    1    2    0    0  0.33718428830E+02 -0.53622734308E+02 -0.35019530401E+02  0.72378847649E+02  0.00000000000E+00 0. -1.
         11    1    1    2    0    0  0.80003662457E+01  0.24975838364E+02  0.17419804056E+02  0.31484090194E+02  0.00000000000E+00 0.  1.
</event>
<event>
 7    1  0.1226955E-005  0.1072614E+03  0.7561462E-02  0.1265727E+00
          2   -1    0    0  501    0  0.00000000000E+00  0.00000000000E+00  0.26019137925E+03  0.26019137925E+03  0.00000000000E+00 0. -1.
         -2   -1    0    0    0  501 -0.00000000000E+00 -0.00000000000E+00 -0.64462106708E+02  0.64462106708E+02  0.00000000000E+00 0.  1.
         23    2    1    2    0    0  0.87768710343E+01  0.89946689678E+01  0.22310217868E+02  0.12768741395E+03  0.12509353431E+03 0.  0.
          5    1    3    3  502    0  0.13597549023E+02  0.66344217010E+02  0.87693585395E+01  0.68416536884E+02  0.41800000000E+01 0. -1.
         -5    1    3    3    0  502 -0.48206779888E+01 -0.57349548042E+02  0.13540859328E+02  0.59270877066E+02  0.41800000000E+01 0. -1.
        -11    1    1    2    0    0 -0.30194890964E+02  0.31202276996E+02  0.54891599663E+02  0.69988579380E+02  0.00000000000E+00 0.  1.
         11    1    1    2    0    0  0.21418019929E+02 -0.40196945964E+02  0.11852745502E+03  0.12697749263E+03  0.00000000000E+00 0. -1.
</event>
<event>
 7    1  0.1226955E-005  0.1353045E+03  0.7561462E-02  0.1219791E+00
         -2   -1    0    0    0  501 -0.00000000000E+00  0.00000000000E+00  0.62143398090E+02  0.62143398090E+02  0.00000000000E+00 0.  1.
          2   -1    0    0  501    0  0.00000000000E+00 -0.00000000000E+00 -0.38611217724E+03  0.38611217724E+03  0.00000000000E+00 0. -1.
         23    2    1    2    0    0  0.46156390974E+02 -0.96962385064E+02 -0.14253274313E+03  0.21793511281E+03  0.12509202208E+03 0.  0.
          5    1    3    3  502    0  0.57878254547E+02 -0.97760118851E+00 -0.19141287451E+02  0.61112268317E+02  0.41800000000E+01 0.  1.
         -5    1    3    3    0  502 -0.11721863574E+02 -0.95984783875E+02 -0.12339145568E+03  0.15682284450E+03  0.41800000000E+01 0.  1.
        -11    1    1    2    0    0 -0.84762311851E+01  0.67292428222E+02 -0.35186707118E+02  0.76408257073E+02  0.00000000000E+00 0.  1.
         11    1    1    2    0    0 -0.37680159789E+02  0.29669956842E+02 -0.14624932890E+03  0.15391220544E+03  0.00000000000E+00 0. -1.
</event>
<event>
 7    1  0.1226955E-005  0.1151731E+03  0.7561462E-02  0.1251279E+00
         -1   -1    0    0    0  501 -0.00000000000E+00  0.00000000000E+00  0.60865715054E+02  0.60865715054E+02  0.00000000000E+00 0.  1.
          1   -1    0    0  501    0  0.00000000000E+00 -0.00000000000E+00 -0.45125957597E+03  0.45125957597E+03  0.00000000000E+00 0. -1.
         23    2    1    2    0    0  0.19809859754E+02 -0.55322191297E+02 -0.37626811056E+02  0.14323662177E+03  0.12509187629E+03 0.  0.
          5    1    3    3  502    0  0.38069503998E+01 -0.86898352461E+02  0.55357078506E+01  0.87257853476E+02  0.41800000000E+01 0. -1.
         -5    1    3    3    0  502  0.16002909354E+02  0.31576161164E+02 -0.43162518907E+02  0.55978768297E+02  0.41800000000E+01 0. -1.
        -11    1    1    2    0    0  0.12756302163E+02  0.70531440464E+02 -0.22298940982E+03  0.23422571215E+03  0.00000000000E+00 0.  1.
         11    1    1    2    0    0 -0.32566161916E+02 -0.15209249167E+02 -0.12977764004E+03  0.13466295711E+03  0.00000000000E+00 0. -1.
</event>
<event>
 7    1  0.1226955E-005  0.1761395E+03  0.7561462E-02  0.1171592E+00
          1   -1    0    0  501    0  0.00000000000E+00  0.00000000000E+00  0.67047104647E+02  0.67047104647E+02  0.00000000000E+00 0. -1.
         -1   -1    0    0    0  501 -0.00000000000E+00 -0.00000000000E+00 -0.58727749292E+03  0.58727749292E+03  0.00000000000E+00 0.  1.
         23    2    1    2    0    0 -0.15127813629E+03 -0.57665466139E+02 -0.33405259748E+03  0.39172481532E+03  0.12508721976E+03 0.  0.
          5    1    3    3  502    0 -0.24377879140E+01 -0.12348200033E+02 -0.15043090062E+03  0.15101440036E+03  0.41800000000E+01 0. -1.
         -5    1    3    3    0  502 -0.14884034837E+03 -0.45317266106E+02 -0.18362169686E+03  0.24071041496E+03  0.41800000000E+01 0. -1.
        -11    1    1    2    0    0  0.15622662290E+03  0.69166931882E+02 -0.18141635973E+03  0.24920416880E+03  0.00000000000E+00 0. -1.
         11    1    1    2    0    0 -0.49484866157E+01 -0.11501465743E+02 -0.47614310612E+01  0.13395613453E+02  0.00000000000E+00 0.  1.
</event>
<event>
 7    1  0.1226955E-005  0.8496057E+02  0.7561462E-02  0.1315536E+00
         -1   -1    0    0    0  501 -0.00000000000E+00  0.00000000000E+00  0.21493329891E+03  0.21493329891E+03  0.00000000000E+00 0.  1.
          1   -1    0    0  501    0  0.00000000000E+00 -0.00000000000E+00 -0.62940726795E+02  0.62940726795E+02  0.00000000000E+00 0. -1.
         23    2    1    2    0    0  0.32829475546E+02  0.35129489991E+00  0.98864778787E+02  0.16278980124E+03  0.12509347317E+03 0.  0.
          5    1    3    3  502    0 -0.17919982743E+02 -0.51493995127E+02  0.28622106297E+02  0.61720780006E+02  0.41800000000E+01 0. -1.
         -5    1    3    3    0  502  0.50749458289E+02  0.51845290027E+02  0.70242672490E+02  0.10106902123E+03  0.41800000000E+01 0. -1.
        -11    1    1    2    0    0 -0.21005584459E+02  0.13024335136E+02  0.79491194992E+02  0.83244927566E+02  0.00000000000E+00 0.  1.
         11    1    1    2    0    0 -0.11823891087E+02 -0.13375630036E+02 -0.26363401668E+02  0.31839296895E+02  0.00000000000E+00 0. -1.
</event>
<event>
 7    1  0.1226955E-005  0.9247232E+02  0.7561462E-02  0.1296973E+00
          1   -1    0    0  501    0  0.00000000000E+00  0.00000000000E+00  0.51153766218E+03  0.51153766218E+03  0.00000000000E+00 0. -1.
         -1   -1    0    0    0  501 -0.00000000000E+00 -0.00000000000E+00 -0.23459903261E+02  0.23459903261E+02  0.00000000000E+00 0.  1.
         23    2    1    2    0    0 -0.18568063963E+02 -0.84626612987E+01  0.25418292125E+03  0.28389608486E+03  0.12478637708E+03 0.  0.
          5    1    3    3  502    0  0.16895604496E+02 -0.57269868330E+02  0.82900797732E+02  0.10225122950E+03  0.41800000000E+01 0. -1.
         -5    1    3    3    0  502 -0.35463668459E+02  0.48807207031E+02  0.17128212352E+03  0.18164485536E+03  0.41800000000E+01 0.  1.
        -11    1    1    2    0    0 -0.20171730140E+02 -0.90374853207E+01  0.11959492679E+02  0.25131738955E+02  0.00000000000E+00 0.  1.
         11    1    1    2    0    0  0.38739794103E+02  0.17500146619E+02  0.22193534498E+03  0.22596974163E+03  0.00000000000E+00 0. -1.
</event>
<event>
 7    1  0.1226955E-005  0.2466342E+03  0.7561462E-02  0.1115451E+00
         -2   -1    0    0    0  501 -0.00000000000E+00  0.00000000000E+00  0.40496620626E+02  0.40496620626E+02  0.00000000000E+00 0. -1.
          2   -1    0    0  501    0  0.00000000000E+00 -0.00000000000E+00 -0.17057229908E+04  0.17057229908E+04  0.00000000000E+00 0.  1.
         23    2    1    2    0    0  0.11862414056E+03  0.20631572231E+03 -0.78185985356E+03  0.82679478811E+03  0.12508767743E+03 0.  0.
          5    1    3    3  502    0  0.95182440351E+02  0.14583006896E+03 -0.70466510881E+03  0.72587636271E+03  0.41800000000E+01 0.  1.
         -5    1    3    3    0  502  0.23441700208E+02  0.60485653342E+02 -0.77194744754E+02  0.10091842541E+03  0.41800000000E+01 0.  1.
        -11    1    1    2    0    0  0.14818554062E+02 -0.21688468389E+02 -0.70246225090E+02  0.74996742229E+02  0.00000000000E+00 0. -1.
         11    1    1    2    0    0 -0.13344269462E+03 -0.18462725392E+03 -0.81312029153E+03  0.84442808109E+03  0.00000000000E+00 0.  1.
</event>
<event>
 7    1  0.1226955E-005  0.1433405E+03  0.7561462E-02  0.1208903E+00
         -1   -1    0    0    0  501 -0.00000000000E+00  0.00000000000E+00  0.96299245894E+02  0.96299245894E+02  0.00000000000E+00 0.  1.
          1   -1    0    0  501    0  0.00000000000E+00 -0.00000000000E+00 -0.36733832610E+03  0.36733832610E+03  0.00000000000E+00 0. -1.
         23    2    1    2    0    0  0.67276012042E+02 -0.11078648364E+03 -0.40403025047E+02  0.18460569101E+03  0.12508856849E+03 0.  0.
          5    1    3    3  502    0  0.61097689371E+02 -0.12601473623E+03 -0.65223945434E+02  0.15454538767E+03  0.41800000000E+01 0.  1.
         -5    1    3    3    0  502  0.61783226715E+01  0.15228252590E+02  0.24820920387E+02  0.30060303339E+02  0.41800000000E+01 0.  1.
        -11    1    1    2    0    0 -0.51845393789E+02  0.86047618782E+02 -0.88330224318E+02  0.13376982501E+03  0.00000000000E+00 0.  1.
         11    1    1    2    0    0 -0.15430618253E+02  0.24738864856E+02 -0.14230583084E+03  0.14526205597E+03  0.00000000000E+00 0. -1.
</event>
<event>
 7    1  0.1226955E-005  0.1117490E+03  0.7561462E-02  0.1257365E+00
         -1   -1    0    0    0  501 -0.00000000000E+00  0.00000000000E+00  0.30867647882E+02  0.30867647882E+02  0.00000000000E+00 0.  1.
          1   -1    0    0  501    0  0.00000000000E+00 -0.00000000000E+00 -0.43456489914E+03  0.43456489914E+03  0.00000000000E+00 0. -1.
         23    2    1    2    0    0  0.41080277306E+02  0.69341860731E+01 -0.22517199223E+03  0.26093237087E+03  0.12509038317E+03 0.  0.
          5    1    3    3  502    0  0.82623378729E+02  0.24710114194E+02 -0.14211461082E+03  0.16628664247E+03  0.41800000000E+01 0. -1.
         -5    1    3    3    0  502 -0.41543101423E+02 -0.17775928121E+02 -0.83057381411E+02  0.94645728394E+02  0.41800000000E+01 0. -1.
        -11    1    1    2    0    0  0.24154421528E+02 -0.10735533403E+02 -0.20350574643E+02  0.33359161337E+02  0.00000000000E+00 0.  1.
         11    1    1    2    0    0 -0.65234698834E+02  0.38013473302E+01 -0.15817468438E+03  0.17114101482E+03  0.00000000000E+00 0. -1.
</event>
<event>
 7    1  0.1226955E-005  0.1357757E+03  0.7561462E-02  0.1219129E+00
          3   -1    0    0  501    0  0.00000000000E+00  0.00000000000E+00  0.25268851023E+03  0.25268851023E+03  0.00000000000E+00 0. -1.
         -3   -1    0    0    0  501 -0.00000000000E+00 -0.00000000000E+00 -0.78966526390E+02  0.78966526390E+02  0.00000000000E+00 0.  1.
         23    2    1    2    0    0  0.75914833384E+02  0.55037888757E+02  0.89460331129E+02  0.18011587407E+03  0.12508535534E+03 0.  0.
          5    1    3    3  502    0 -0.28893674551E+02  0.37394981953E+02  0.43064225484E+02  0.64072061157E+02  0.41800000000E+01 0. -1.
         -5    1    3    3    0  502  0.10480850794E+03  0.17642906804E+02  0.46396105646E+02  0.11604381291E+03  0.41800000000E+01 0. -1.
        -11    1    1    2    0    0  0.77113409031E+00 -0.39491092195E+02  0.55614844310E+02  0.68214015555E+02  0.00000000000E+00 0. -1.
         11    1    1    2    0    0 -0.76685967474E+02 -0.15546796562E+02  0.28646808406E+02  0.83325147000E+02  0.00000000000E+00 0.  1.
</event>
<event>
 7    1  0.1226955E-005  0.1158738E+03  0.7561462E-02  0.1250064E+00
         -1   -1    0    0    0  501 -0.00000000000E+00  0.00000000000E+00  0.31809637585E+02  0.31809637585E+02  0.00000000000E+00 0.  1.
          1   -1    0    0  501    0  0.00000000000E+00 -0.00000000000E+00 -0.61342518700E+03  0.61342518700E+03  0.00000000000E+00 0. -1.
         23    2    1    2    0    0 -0.79222594618E+02 -0.16549419629E+02 -0.23845394401E+03  0.28117336846E+03  0.12509227367E+03 0.  0.
          5    1    3    3  502    0  0.90227030188E+00 -0.47598118584E+02 -0.32007523952E+02  0.57518249052E+02  0.41800000000E+01 0.  1.
         -5    1    3    3    0  502 -0.80124864920E+02  0.31048698955E+02 -0.20644642006E+03  0.22365511941E+03  0.41800000000E+01 0.  1.
        -11    1    1    2    0    0  0.35495695953E+02  0.35561040867E+02 -0.66640003489E+02  0.83459104499E+02  0.00000000000E+00 0.  1.
         11    1    1    2    0    0  0.43726898665E+02 -0.19011621237E+02 -0.27652160192E+03  0.28060235163E+03  0.00000000000E+00 0. -1.
</event>
<event>
 7    1  0.1226955E-005  0.1116057E+03  0.7561462E-02  0.1257625E+00
          3   -1    0    0  501    0  0.00000000000E+00  0.00000000000E+00  0.61831499728E+02  0.61831499728E+02  0.00000000000E+00 0. -1.
         -3   -1    0    0    0  501 -0.00000000000E+00 -0.00000000000E+00 -0.28151477466E+03  0.28151477466E+03  0.00000000000E+00 0.  1.
         23    2    1    2    0    0  0.45385326793E+02 -0.53496957360E+02 -0.15553665465E+03  0.21156676836E+03  0.12508834558E+03 0.  0.
          5    1    3    3  502    0 -0.22551864524E+02 -0.44534059651E+02 -0.12825668103E+03  0.13769211194E+03  0.41800000000E+01 0. -1.
         -5    1    3    3    0  502  0.67937191317E+02 -0.89628977089E+01 -0.27279973615E+02  0.73874656411E+02  0.41800000000E+01 0. -1.
        -11    1    1    2    0    0 -0.37119692725E+02 -0.11565213920E+02  0.16017858917E+01  0.38912613367E+02  0.00000000000E+00 0. -1.
         11    1    1    2    0    0 -0.82656340684E+01  0.65062171281E+02 -0.65748406172E+02  0.92866892661E+02  0.00000000000E+00 0.  1.
</event>
<event>
 7    1  0.1226955E-005  0.9886789E+02  0.7561462E-02  0.1282695E+00
         -1   -1    0    0    0  501 -0.00000000000E+00  0.00000000000E+00  0.45931310883E+02  0.45931310883E+02  0.00000000000E+00 0.  1.
          1   -1    0    0  501    0  0.00000000000E+00 -0.00000000000E+00 -0.32312635236E+03  0.32312635236E+03  0.00000000000E+00 0. -1.
         23    2    1    2    0    0 -0.12460801879E+02  0.38790393293E+02 -0.99882878485E+02  0.16518024437E+03  0.12509179638E+03 0.  0.
          5    1    3    3  502    0  0.34854019094E+02  0.35170025146E+02  0.50435980120E+01  0.49946407245E+02  0.41800000000E+01 0. -1.
         -5    1    3    3    0  502 -0.47314820973E+02  0.36203681475E+01 -0.10492647650E+03  0.11523383713E+03  0.41800000000E+01 0. -1.
        -11    1    1    2    0    0 -0.27053394403E+02 -0.52105883095E+02 -0.11028488855E+03  0.12493864832E+03  0.00000000000E+00 0. -1.
         11    1    1    2    0    0  0.39514196282E+02  0.13315489802E+02 -0.67027274447E+02  0.78938770553E+02  0.00000000000E+00 0.  1.
</event>
<event>
 7    1  0.1411719E-005  0.1405215E+03  0.7561462E-02  0.1212629E+00
         -1   -1    0    0    0  501 -0.00000000000E+00  0.00000000000E+00  0.18140370749E+02  0.18140370749E+02  0.00000000000E+00 0.  1.
          1   -1    0    0  501    0  0.00000000000E+00 -0.00000000000E+00 -0.12075549445E+04  0.12075549445E+04  0.00000000000E+00 0. -1.
         23    2    1    2    0    0  0.86113825742E+02 -0.51981068915E+02 -0.66050096913E+03  0.67972558926E+03  0.12509086280E+03 0.  0.
          5    1    3    3  502    0  0.61406055820E+02 -0.84880596794E+02 -0.32038441085E+03  0.33710393430E+03  0.41800000000E+01 0.  1.
         -5    1    3    3    0  502  0.24707769923E+02  0.32899527879E+02 -0.34011655828E+03  0.34262165496E+03  0.41800000000E+01 0.  1.
        -11    1    1    2    0    0 -0.98365848081E+02  0.64258700417E+02 -0.47595664384E+03  0.49024457922E+03  0.00000000000E+00 0. -1.
         11    1    1    2    0    0  0.12252022339E+02 -0.12277631501E+02 -0.52956960747E+02  0.55725146731E+02  0.00000000000E+00 0.  1.
</event>
<event>
 6    1  0.1226955E-005  0.1060082E+03  0.7561462E-02  0.1268146E+00
          1   -1    0    0  501    0  0.00000000000E+00  0.00000000000E+00  0.20720878476E+03  0.20720878476E+03  0.00000000000E+00 0. -1.
         -1   -1    0    0    0  501 -0.00000000000E+00 -0.00000000000E+00 -0.86234873051E+02  0.86234873051E+02  0.00000000000E+00 0.  1.
          5    1    1    2  502    0  0.21144708954E+02  0.54395027681E+02  0.12043196404E+02  0.59736326743E+02  0.41800000000E+01 0. -1.
         -5    1    1    2    0  502 -0.29270452826E+02 -0.61739595619E+02 -0.25306732419E+02  0.72982464891E+02  0.41800000000E+01 0.  1.
        -11    1    1    2    0    0  0.38779047397E+02 -0.20303133954E+02  0.90806563444E+02  0.10080606991E+03  0.00000000000E+00 0.  1.
         11    1    1    2    0    0 -0.30653303526E+02  0.27647701893E+02  0.43430884279E+02  0.59918796269E+02  0.00000000000E+00 0. -1.
</event>
<event>
 7    1  0.1226955E-005  0.1536810E+03  0.7561462E-02  0.1196021E+00
          2   -1    0    0  501    0  0.00000000000E+00  0.00000000000E+00  0.48488155703E+03  0.48488155703E+03  0.00000000000E+00 0. -1.
         -2   -1    0    0    0  501 -0.00000000000E+00 -0.00000000000E+00 -0.76341409836E+02  0.76341409836E+02  0.00000000000E+00 0.  1.
         23    2    1    2    0    0  0.11240806020E+03 -0.88783368284E+02  0.11184504731E+03  0.22062262462E+03  0.12508784676E+03 0.  0.
          5    1    3    3  502    0  0.87138243320E+02 -0.82536404518E+02  0.13837389082E+03  0.18322155326E+03  0.41800000000E+01 0. -1.
         -5    1    3    3    0  502  0.25269816878E+02 -0.62469637663E+01 -0.26528843505E+02  0.37401071362E+02  0.41800000000E+01 0. -1.
        -11    1    1    2    0    0 -0.24015142916E+02  0.65105922472E+02  0.83337447140E+02  0.10844647678E+03  0.00000000000E+00 0.  1.
         11    1    1    2    0    0 -0.88392917282E+02  0.23677445812E+02  0.21335765274E+03  0.23215386546E+03  0.00000000000E+00 0. -1.
</event>
<event>
 7    1  0.1226955E-005  0.1269457E+03  0.7561462E-02  0.1232059E+00
          2   -1    0    0  501    0  0.00000000000E+00  0.00000000000E+00  0.10478729625E+03  0.10478729625E+03  0.00000000000E+00 0. -1.
         -2   -1    0    0    0  501 -0.00000000000E+00 -0.00000000000E+00 -0.19228084383E+03  0.19228084383E+03  0.00000000000E+00 0.  1.
         23    2    1    2    0    0 -0.57930544401E+02  0.43643463187E+02 -0.97285021495E+02  0.17427881036E+03  0.12509208001E+03 0.  0.
          5    1    3    3  502    0 -0.87445140018E+02  0.22444224651E+01 -0.36375406181E+02  0.94827910025E+02  0.41800000000E+01 0.  1.
         -5    1    3    3    0  502  0.29514595616E+02  0.41399040722E+02 -0.60909615313E+02  0.79450900339E+02  0.41800000000E+01 0.  1.
        -11    1    1    2    0    0 -0.23637605713E+02 -0.20062122738E+01 -0.14804698250E+02  0.27963196917E+02  0.00000000000E+00 0.  1.
         11    1    1    2    0    0  0.81568150115E+02 -0.41637250913E+02  0.24596172169E+02  0.94826132802E+02  0.00000000000E+00 0. -1.
</event>
<event>
 7    1  0.1226955E-005  0.1764242E+03  0.7561462E-02  0.1171309E+00
          2   -1    0    0  501    0  0.00000000000E+00  0.00000000000E+00  0.11801305031E+04  0.11801305031E+04  0.00000000000E+00 0. -1.
         -2   -1    0    0    0  501 -0.00000000000E+00 -0.00000000000E+00 -0.31677085276E+02  0.31677085276E+02  0.00000000000E+00 0.  1.
         23    2    1    2    0    0  0.12517356989E+03  0.12199636045E+03  0.59040246251E+03  0.62574431373E+03  0.11148696723E+03 0.  0.
          5    1    3    3  502    0  0.66922013899E+02  0.52186489366E+02  0.45320718920E+03  0.46110325781E+03  0.41800000000E+01 0. -1.
         -5    1    3    3    0  502  0.58251555987E+02  0.69809871087E+02  0.13719527331E+03  0.16464105592E+03  0.41800000000E+01 0.  1.
        -11    1    1    2    0    0 -0.90179334054E+02 -0.69865617480E+02  0.31452811797E+03  0.33457652905E+03  0.00000000000E+00 0. -1.
         11    1    1    2    0    0 -0.34994235831E+02 -0.52130742973E+02  0.24352283733E+03  0.25148674558E+03  0.00000000000E+00 0.  1.
</event>
<event>
 7    1  0.1226955E-005  0.1066169E+03  0.7561462E-02  0.1266966E+00
         -2   -1    0    0    0  501 -0.00000000000E+00  0.00000000000E+00  0.32441569775E+02  0.32441569775E+02  0.00000000000E+00 0.  1.
          2   -1    0    0  501    0  0.00000000000E+00 -0.00000000000E+00 -0.44541443181E+03  0.44541443181E+03  0.00000000000E+00 0. -1.
         23    2    1    2    0    0 -0.17024708638E+02  0.26004181362E+00 -0.13424897558E+03  0.18428382148E+03  0.12509129102E+03 0.  0.
          5    1    3    3  502    0 -0.67748079462E+02  0.18296698074E+02 -0.59668584306E+02  0.92208371552E+02  0.41800000000E+01 0. -1.
         -5    1    3    3    0  502  0.50723370824E+02 -0.18036656261E+02 -0.74580391276E+02  0.92075449929E+02  0.41800000000E+01 0. -1.
        -11    1    1    2    0    0  0.19052002179E+02  0.42266711269E+02 -0.18345842435E+03  0.18922591559E+03  0.00000000000E+00 0. -1.
         11    1    1    2    0    0 -0.20272935408E+01 -0.42526753083E+02 -0.95265462107E+02  0.10434626451E+03  0.00000000000E+00 0.  1.
</event>
<event>
 7    1  0.1226955E-005  0.8834759E+02  0.7561462E-02  0.1306903E+00
         -1   -1    0    0    0  501 -0.00000000000E+00  0.00000000000E+00  0.70553182564E+02  0.70553182564E+02  0.00000000000E+00 0.  1.
          1   -1    0    0  501    0  0.00000000000E+00 -0.00000000000E+00 -0.25451593600E+03  0.25451593600E+03  0.00000000000E+00 0. -1.
         23    2    1    2    0    0 -0.36460964954E+02 -0.50242025323E+02 -0.53741045188E+02  0.14965377071E+03  0.12511789670E+03 0.  0.
          5    1    3    3  502    0 -0.10135065269E+02 -0.57059554325E+02  0.27206976810E+02  0.64157651725E+02  0.41800000000E+01 0. -1.
         -5    1    3    3    0  502 -0.26325899684E+02  0.68175290016E+01 -0.80948021998E+02  0.85496118984E+02  0.41800000000E+01 0. -1.
        -11    1    1    2    0    0  0.31657720125E+02  0.66754789480E+02 -0.40886653715E+02  0.84440106667E+02  0.00000000000E+00 0.  1.
         11    1    1    2    0    0  0.48032448283E+01 -0.16512764157E+02 -0.89335054535E+02  0.90975241191E+02  0.00000000000E+00 0. -1.
</event>
<event>
 7    1  0.1226955E-005  0.1365624E+03  0.7561462E-02  0.1218031E+00
          2   -1    0    0  501    0  0.00000000000E+00  0.00000000000E+00  0.16051822083E+03  0.16051822083E+03  0.00000000000E+00 0. -1.
         -2   -1    0    0    0  501 -0.00000000000E+00 -0.00000000000E+00 -0.14388005942E+03  0.14388005942E+03  0.00000000000E+00 0.  1.
         23    2    1    2    0    0  0.39942698301E+02 -0.95439945492E+02 -0.13107477704E+02  0.16280175912E+03  0.12501361709E+03 0.  0.
          5    1    3    3  502    0 -0.41939914552E+02 -0.14914420510E+02 -0.16959441162E+02  0.47817271109E+02  0.41800000000E+01 0. -1.
         -5    1    3    3    0  502  0.81882612853E+02 -0.80525524981E+02  0.38519634572E+01  0.11498448801E+03  0.41800000000E+01 0. -1.
        -11    1    1    2    0    0 -0.21699107472E+02  0.64241002701E+01 -0.26409223535E+02  0.34778835764E+02  0.00000000000E+00 0.  1.
         11    1    1    2    0    0 -0.18243590829E+02  0.89015845221E+02  0.56154862653E+02  0.10681768536E+03  0.00000000000E+00 0. -1.
</event>
<event>
 7    1  0.1226955E-005  0.1446055E+03  0.7561462E-02  0.1207263E+00
          2   -1    0    0  501    0  0.00000000000E+00  0.00000000000E+00  0.14095455521E+03  0.14095455521E+03  0.00000000000E+00 0. -1.
         -2   -1    0    0    0  501 -0.00000000000E+00 -0.00000000000E+00 -0.24337267012E+03  0.24337267012E+03  0.00000000000E+00 0.  1.
         23    2    1    2    0    0  0.31310334090E+01  0.12714104240E+03 -0.13583153571E+03  0.22421485054E+03  0.12508974809E+03 0.  0.
          5    1    3    3  502    0  0.44551156321E+00  0.13919356117E+03 -0.15019360338E+03  0.20481854615E+03  0.41800000000E+01 0. -1.
         -5    1    3    3    0  502  0.26855218457E+01 -0.12052518768E+02  0.14362067669E+02  0.19396304389E+02  0.41800000000E+01 0. -1.
        -11    1    1    2    0    0  0.23610197196E+02 -0.50533976910E+02 -0.23992090354E+02  0.60718569100E+02  0.00000000000E+00 0.  1.
         11    1    1    2    0    0 -0.26741230605E+02 -0.76607065492E+02  0.57405511158E+02  0.99393805687E+02  0.00000000000E+00 0. -1.
</event>
<event>
 7    1  0.1226955E-005  0.1821387E+03  0.7561462E-02  0.1165749E+00
         -1   -1    0    0    0  501 -0.00000000000E+00  0.00000000000E+00  0.84643954769E+02  0.84643954769E+02  0.00000000000E+00 0.  1.
          1   -1    0    0  501    0  0.00000000000E+00 -0.00000000000E+00 -0.49905225402E+03  0.49905225402E+03  0.00000000000E+00 0. -1.
         23    2    1    2    0    0  0.16805299756E+03 -0.75902493712E+01 -0.27995566084E+03  0.34974641485E+03  0.12509180943E+03 0.  0.
          5    1    3    3  502    0  0.78198345398E+02 -0.47726743168E+02 -0.62378496410E+02  0.11091155238E+03  0.41800000000E+01 0.  1.
         -5    1    3    3    0  502  0.89854652163E+02  0.40136493796E+02 -0.21757716443E+03  0.23883486247E+03  0.41800000000E+01 0.  1.
        -11    1    1    2    0    0 -0.10556902658E+03 -0.16984999028E+02 -0.32285190609E+02  0.11169441838E+03  0.00000000000E+00 0.  1.
         11    1    1    2    0    0 -0.62483970983E+02  0.24575248399E+02 -0.10216744780E+03  0.12225537556E+03  0.00000000000E+00 0. -1.
</event>
<event>
 7    1  0.1226955E-005  0.3416789E+03  0.7561462E-02  0.1066083E+00
         -1   -1    0    0    0  501 -0.00000000000E+00  0.00000000000E+00  0.17291435436E+03  0.17291435436E+03  0.00000000000E+00 0.  1.
          1   -1    0    0  501    0  0.00000000000E+00 -0.00000000000E+00 -0.85047751071E+03  0.85047751071E+03  0.00000000000E+00 0. -1.
         23    2    1    2    0    0 -0.33338442654E+03 -0.15741105251E+01 -0.13659816854E+03  0.38138370282E+03  0.12508723135E+03 0.  0.
          5    1    3    3  502    0 -0.39244035254E+02  0.16788527558E+02 -0.65325247201E+02  0.78146076565E+02  0.41800000000E+01 0.  1.
         -5    1    3    3    0  502 -0.29414039128E+03 -0.18362638083E+02 -0.71272921339E+02  0.30323762625E+03  0.41800000000E+01 0.  1.
        -11    1    1    2    0    0  0.20174018266E+03  0.45760056517E+02 -0.32559351118E+03  0.38575149850E+03  0.00000000000E+00 0.  1.
         11    1    1    2    0    0  0.13164424388E+03 -0.44185945992E+02 -0.21537147663E+03  0.25625666375E+03  0.00000000000E+00 0. -1.
</event>
<event>
 7    1  0.1226955E-005  0.1055034E+03  0.7561462E-02  0.1269131E+00
         -1   -1    0    0    0  501 -0.00000000000E+00  0.00000000000E+00  0.15166114935E+02  0.15166114935E+02  0.00000000000E+00 0.  1.
          1   -1    0    0  501    0  0.00000000000E+00 -0.00000000000E+00 -0.85669959613E+03  0.85669959613E+03  0.00000000000E+00 0. -1.
         23    2    1    2    0    0  0.18945470032E+02 -0.10677038250E+01 -0.37526610562E+03  0.39601873581E+03  0.12508444450E+03 0.  0.
          5    1    3    3  502    0  0.61885275890E+02  0.25465626966E+02 -0.28227191402E+03  0.29012616458E+03  0.41800000000E+01 0. -1.
         -5    1    3    3    0  502 -0.42939805858E+02 -0.26533330791E+02 -0.92994191601E+02  0.10589257123E+03  0.41800000000E+01 0. -1.
        -11    1    1    2    0    0  0.24799405202E+02 -0.30538097952E+02 -0.15368956908E+03  0.15864447538E+03  0.00000000000E+00 0.  1.
         11    1    1    2    0    0 -0.43744875234E+02  0.31605801777E+02 -0.31257780650E+03  0.31720249988E+03  0.00000000000E+00 0. -1.
</event>
<event>
 7    1  0.1226955E-005  0.1207450E+03  0.7561462E-02  0.1241873E+00
         -3   -1    0    0    0  501 -0.00000000000E+00  0.00000000000E+00  0.14966542926E+03  0.14966542926E+03  0.00000000000E+00 0.  1.
          3   -1    0    0  501    0  0.00000000000E+00 -0.00000000000E+00 -0.21230145196E+03  0.21230145196E+03  0.00000000000E+00 0. -1.
         23    2    1    2    0    0  0.53690118748E+02  0.77784689510E+02  0.72306386407E+02  0.17265264974E+03  0.12509051593E+03 0.  0.
          5    1    3    3  502    0  0.69163667844E+02  0.67388237696E+02 -0.12421327212E+01  0.96663347878E+02  0.41800000000E+01 0.  1.
         -5    1    3    3    0  502 -0.15473549095E+02  0.10396451814E+02  0.73548519128E+02  0.75989301865E+02  0.41800000000E+01 0.  1.
        -11    1    1    2    0    0 -0.38161200263E+02  0.76288809902E+01 -0.16040798708E+02  0.42092567680E+02  0.00000000000E+00 0.  1.
         11    1    1    2    0    0 -0.15528918485E+02 -0.85413570500E+02 -0.11890161040E+03  0.14722166380E+03  0.00000000000E+00 0. -1.
</event>
<event>
 7    1  0.1226955E-005  0.9442190E+02  0.7561462E-02  0.1292483E+00
          2   -1    0    0  501    0  0.00000000000E+00  0.00000000000E+00  0.52790869401E+02  0.52790869401E+02  0.00000000000E+00 0. -1.
         -2   -1    0    0    0  501 -0.00000000000E+00 -0.00000000000E+00 -0.54264274262E+03  0.54264274262E+03  0.00000000000E+00 0.  1.
         23    2    1    2    0    0  0.49397396862E+02  0.28495235120E+02 -0.46498545889E+03  0.48488152615E+03  0.12508611505E+03 0.  0.
          5    1    3    3  502    0  0.50979766247E+02 -0.29517505958E+02 -0.36034517024E+03  0.36515248026E+03  0.41800000000E+01 0. -1.
         -5    1    3    3    0  502 -0.15823693858E+01  0.58012741078E+02 -0.10464028865E+03  0.11972904589E+03  0.41800000000E+01 0. -1.
        -11    1    1    2    0    0 -0.30078260260E+02  0.72776981904E+01  0.29440272708E+02  0.42712952231E+02  0.00000000000E+00 0. -1.
         11    1    1    2    0    0 -0.19319136602E+02 -0.35772933311E+02 -0.54306687041E+02  0.67839133647E+02  0.00000000000E+00 0.  1.
</event>
<event>
 6    1  0.1226955E-005  0.1726663E+03  0.7561462E-02  0.1175095E+00
          4   -1    0    0  501    0  0.00000000000E+00  0.00000000000E+00  0.46303837212E+02  0.46303837212E+02  0.00000000000E+00 0. -1.
         -4   -1    0    0    0  501 -0.00000000000E+00 -0.00000000000E+00 -0.12207211392E+04  0.12207211392E+04  0.00000000000E+00 0.  1.
          5    1    1    2  502    0 -0.13410852333E+03  0.26422992916E+02 -0.18849492730E+03  0.23287567628E+03  0.41800000000E+01 0. -1.
         -5    1    1    2    0  502  0.37363980356E+02  0.44380451220E+02 -0.76208168130E+03  0.76429814395E+03  0.41800000000E+01 0.  1.
        -11    1    1    2    0    0  0.10600841335E+03 -0.83328385275E+02 -0.20549143709E+03  0.24578066281E+03  0.00000000000E+00 0. -1.
         11    1    1    2    0    0 -0.92638703794E+01  0.12524941140E+02 -0.18349256332E+02  0.24070493408E+02  0.00000000000E+00 0.  1.
</event>
<event>
 7    1  0.1226955E-005  0.1272990E+03  0.7561462E-02  0.1231519E+00
          3   -1    0    0  501    0  0.00000000000E+00  0.00000000000E+00  0.27107186290E+03  0.27107186290E+03  0.00000000000E+00 0. -1.
         -3   -1    0    0    0  501 -0.00000000000E+00 -0.00000000000E+00 -0.12616170770E+03  0.12616170770E+03  0.00000000000E+00 0.  1.
         23    2    1    2    0    0 -0.98625374215E+02 -0.49376717396E+02 -0.32813539199E+02  0.16997287794E+03  0.12509606797E+03 0.  0.
          5    1    3    3  502    0 -0.36707465516E+02  0.19678923478E+01  0.44811290033E+02  0.58110538969E+02  0.41800000000E+01 0.  1.
         -5    1    3    3    0  502 -0.61917908699E+02 -0.51344609744E+02 -0.77624829231E+02  0.11186233897E+03  0.41800000000E+01 0.  1.
        -11    1    1    2    0    0  0.64091646322E+02  0.71517353343E+02  0.95835180845E+02  0.13567185723E+03  0.00000000000E+00 0.  1.
         11    1    1    2    0    0  0.34533727893E+02 -0.22140635946E+02  0.81888513559E+02  0.91588835429E+02  0.00000000000E+00 0. -1.
</event>
<event>
 7    1  0.1226955E-005  0.1171241E+03  0.7561462E-02  0.1247918E+00
         -2   -1    0    0    0  501 -0.00000000000E+00  0.00000000000E+00  0.35409353665E+03  0.35409353665E+03  0.00000000000E+00 0.  1.
          2   -1    0    0  501    0  0.00000000000E+00 -0.00000000000E+00 -0.71317797052E+02  0.71317797052E+02  0.00000000000E+00 0. -1.
         23    2    1    2    0    0 -0.99618406270E+02 -0.30395126627E+01  0.22957170430E+03  0.27979213889E+03  0.12508960016E+03 0.  0.
          5    1    3    3  502    0 -0.43480110729E+02 -0.45207797069E+02  0.18767533386E+03  0.19792364256E+03  0.41800000000E+01 0. -1.
         -5    1    3    3    0  502 -0.56138295541E+02  0.42168284406E+02  0.41896370436E+02  0.81868496333E+02  0.41800000000E+01 0. -1.
        -11    1    1    2    0    0  0.51361778504E+02  0.99011087882E+01  0.75637502195E+02  0.91962470522E+02  0.00000000000E+00 0.  1.
         11    1    1    2    0    0  0.48256627765E+02 -0.68615961254E+01 -0.22433466890E+02  0.53656724289E+02  0.00000000000E+00 0. -1.
</event>
<event>
 7    1  0.1226955E-005  0.1114105E+03  0.7561462E-02  0.1257980E+00
          2   -1    0    0  501    0  0.00000000000E+00  0.00000000000E+00  0.12314777049E+03  0.12314777049E+03  0.00000000000E+00 0. -1.
         -2   -1    0    0    0  501 -0.00000000000E+00 -0.00000000000E+00 -0.11816223820E+03  0.11816223820E+03  0.00000000000E+00 0.  1.
         23    2    1    2    0    0  0.28581902643E+01 -0.38058639853E+02 -0.21957618806E+02  0.13261260655E+03  0.12508931638E+03 0.  0.
          5    1    3    3  502    0 -0.37431661493E+02 -0.63402099638E+02 -0.37016645638E+02  0.82514604616E+02  0.41800000000E+01 0.  1.
         -5    1    3    3    0  502  0.40289851758E+02  0.25343459785E+02  0.15059026832E+02  0.50098001932E+02  0.41800000000E+01 0.  1.
        -11    1    1    2    0    0 -0.48225292496E+02  0.23514826622E+02 -0.62154388179E+00  0.53656427613E+02  0.00000000000E+00 0.  1.
         11    1    1    2    0    0  0.45367102231E+02  0.14543813232E+02  0.27564694974E+02  0.55040974530E+02  0.00000000000E+00 0. -1.
</event>
<event>
 7    1  0.1226955E-005  0.8046746E+02  0.7561462E-02  0.1327730E+00
         -1   -1    0    0    0  501 -0.00000000000E+00  0.00000000000E+00  0.55135233224E+03  0.55135233224E+03  0.00000000000E+00 0.  1.
          1   -1    0    0  501    0  0.00000000000E+00 -0.00000000000E+00 -0.21695170102E+02  0.21695170102E+02  0.00000000000E+00 0. -1.
         23    2    1    2    0    0 -0.12202445187E+02  0.11762923771E+01  0.33502388495E+03  0.35782549032E+03  0.12509114557E+03 0.  0.
          5    1    3    3  502    0 -0.38629265805E+02 -0.22837182977E+02  0.31176644265E+03  0.31500721304E+03  0.41800000000E+01 0. -1.
         -5    1    3    3    0  502  0.26426820618E+02  0.24013475355E+02  0.23257442294E+02  0.42818277273E+02  0.41800000000E+01 0. -1.
        -11    1    1    2    0    0 -0.32617907663E+02  0.92364691792E+01  0.13875600732E+03  0.14283721445E+03  0.00000000000E+00 0.  1.
         11    1    1    2    0    0  0.44820352849E+02 -0.10412761556E+02  0.55877269870E+02  0.72384797581E+02  0.00000000000E+00 0. -1.
</event>
<event>
 7    1  0.1226955E-005  0.2150885E+03  0.7561462E-02  0.1137599E+00
         -1   -1    0    0    0  501 -0.00000000000E+00  0.00000000000E+00  0.27944334702E+03  0.27944334702E+03  0.00000000000E+00 0. -1.
          1   -1    0    0  501    0  0.00000000000E+00 -0.00000000000E+00 -0.30088767312E+03  0.30088767312E+03  0.00000000000E+00 0.  1.
         23    2    1    2    0    0 -0.57929221789E+02  0.19436720512E+03  0.16506550486E+03  0.28987620835E+03  0.12508872895E+03 0.  0.
          5    1    3    3  502    0 -0.84742189381E+02  0.11143788760E+03  0.57587795466E+02  0.15143800065E+03  0.41800000000E+01 0.  1.
         -5    1    3    3    0  502  0.26812967592E+02  0.82929317523E+02  0.10747770939E+03  0.13843820770E+03  0.41800000000E+01 0.  1.
        -11    1    1    2    0    0  0.34317745908E+02 -0.12224108306E+03 -0.17101829589E+03  0.21299729482E+03  0.00000000000E+00 0.  1.
         11    1    1    2    0    0  0.23611475881E+02 -0.72126122063E+02 -0.15491535071E+02  0.77457516975E+02  0.00000000000E+00 0. -1.
</event>
<event>
 7    1  0.1226955E-005  0.1005957E+03  0.7561462E-02  0.1279048E+00
          1   -1    0    0  501    0  0.00000000000E+00  0.00000000000E+00  0.58275711629E+03  0.58275711629E+03  0.00000000000E+00 0. -1.
         -1   -1    0    0    0  501 -0.00000000000E+00 -0.00000000000E+00 -0.22413333735E+02  0.22413333735E+02  0.00000000000E+00 0.  1.
         23    2    1    2    0    0 -0.30809770173E+02 -0.21817609132E+02  0.28133756953E+03  0.31019932760E+03  0.12509014672E+03 0.  0.
          5    1    3    3  502    0 -0.73833140504E+02 -0.19858729664E+02  0.11378942135E+03  0.13715395215E+03  0.41800000000E+01 0.  1.
         -5    1    3    3    0  502  0.43023370331E+02 -0.19588794675E+01  0.16754814819E+03  0.17304537545E+03  0.41800000000E+01 0.  1.
        -11    1    1    2    0    0  0.86849463605E+01 -0.26672330117E+02  0.33250588565E+02  0.43502219795E+02  0.00000000000E+00 0.  1.
         11    1    1    2    0    0  0.22124823812E+02  0.48489939249E+02  0.24575562446E+03  0.25146890263E+03  0.00000000000E+00 0. -1.
</event>
<event>
 7    1  0.1226955E-005  0.1077249E+03  0.7561462E-02  0.1264842E+00
         -1   -1    0    0    0  501 -0.00000000000E+00  0.00000000000E+00  0.82792002666E+02  0.82792002666E+02  0.00000000000E+00 0.  1.
          1   -1    0    0  501    0  0.00000000000E+00 -0.00000000000E+00 -0.15056492313E+03  0.15056492313E+03  0.00000000000E+00 0. -1.
         23    2    1    2    0    0 -0.20329034123E+02 -0.32144902134E+02 -0.27243591152E+02  0.13343651084E+03  0.12496609462E+03 0.  0.
          5    1    3    3  502    0  0.48080148750E+02  0.60385036974E+00 -0.31036384620E+02  0.57382879933E+02  0.41800000000E+01 0.  1.
         -5    1    3    3    0  502 -0.68409182873E+02 -0.32748752503E+02  0.37927934687E+01  0.76053630908E+02  0.41800000000E+01 0.  1.
        -11    1    1    2    0    0  0.39582867069E+02  0.50810737826E+02 -0.30789214246E+02  0.71389846321E+02  0.00000000000E+00 0. -1.
         11    1    1    2    0    0 -0.19253832946E+02 -0.18665835692E+02 -0.97401150686E+01  0.28530568637E+02  0.00000000000E+00 0.  1.
</event>
<event>
 7    1  0.1226955E-005  0.1220077E+03  0.7561462E-02  0.1239821E+00
         -1   -1    0    0    0  501 -0.00000000000E+00  0.00000000000E+00  0.35224317391E+03  0.35224317391E+03  0.00000000000E+00 0.  1.
          1   -1    0    0  501    0  0.00000000000E+00 -0.00000000000E+00 -0.56017961324E+02  0.56017961324E+02  0.00000000000E+00 0. -1.
         23    2    1    2    0    0  0.14697233564E+02  0.73815883963E+02  0.91039919320E+02  0.17160635056E+03  0.12448164219E+03 0.  0.
          5    1    3    3  502    0 -0.41207685916E+02  0.53808673858E+02  0.65011383170E+01  0.68214250419E+02  0.41800000000E+01 0. -1.
         -5    1    3    3    0  502  0.55904919479E+02  0.20007210106E+02  0.84538781003E+02  0.10339210014E+03  0.41800000000E+01 0.  1.
        -11    1    1    2    0    0  0.10652451256E+02 -0.87250179053E+02  0.13820126558E+03  0.16378540310E+03  0.00000000000E+00 0.  1.
         11    1    1    2    0    0 -0.25349684819E+02  0.13434295089E+02  0.66984027691E+02  0.72869381572E+02  0.00000000000E+00 0. -1.
</event>
<event>
 7    1  0.1226955E-005  0.1192363E+03  0.7561462E-02  0.1244362E+00
          1   -1    0    0  501    0  0.00000000000E+00  0.00000000000E+00  0.54862584480E+03  0.54862584480E+03  0.00000000000E+00 0. -1.
         -1   -1    0    0    0  501 -0.00000000000E+00 -0.00000000000E+00 -0.39622126625E+02  0.39622126625E+02  0.00000000000E+00 0.  1.
         23    2    1    2    0    0 -0.68222546795E+02  0.13236880413E+02  0.13291902061E+03  0.19531171971E+03  0.12509864476E+03 0.  0.
          5    1    3    3  502    0 -0.36251298549E+02  0.59520212120E+02  0.11776447186E+03  0.13690418376E+03  0.41800000000E+01 0. -1.
         -5    1    3    3    0  502 -0.31971248246E+02 -0.46283331707E+02  0.15154548755E+02  0.58407535955E+02  0.41800000000E+01 0. -1.
        -11    1    1    2    0    0 -0.60530308390E+01  0.27072230588E+02  0.67223433232E+02  0.72722313129E+02  0.00000000000E+00 0.  1.
         11    1    1    2    0    0  0.74275577634E+02 -0.40309111000E+02  0.30886126432E+03  0.32021393858E+03  0.00000000000E+00 0. -1.
</event>
<event>
 6    1  0.1226955E-005  0.1578688E+03  0.7561462E-02  0.1191124E+00
         -2   -1    0    0    0  501 -0.00000000000E+00  0.00000000000E+00  0.43882559296E+02  0.43882559296E+02  0.00000000000E+00 0.  1.
          2   -1    0    0  501    0  0.00000000000E+00 -0.00000000000E+00 -0.99004194757E+03  0.99004194757E+03  0.00000000000E+00 0. -1.
          5    1    1    2  502    0  0.60782842305E+02  0.10017927218E+03 -0.48230308933E+03  0.49635086669E+03  0.41800000000E+01 0. -1.
         -5    1    1    2    0  502 -0.74426344510E+02 -0.77376895252E+02 -0.60877275962E+02  0.12349080858E+03  0.41800000000E+01 0.  1.
        -11    1    1    2    0    0 -0.30289549539E+02 -0.34171255265E+02 -0.14121529788E+03  0.14841459447E+03  0.00000000000E+00 0. -1.
         11    1    1    2    0    0  0.43933051745E+02  0.11368878335E+02 -0.26176372510E+03  0.26566823711E+03  0.00000000000E+00 0.  1.
</event>
<event>
 7    1  0.1226955E-005  0.9566014E+02  0.7561462E-02  0.1289696E+00
          1   -1    0    0  501    0  0.00000000000E+00  0.00000000000E+00  0.19975733542E+03  0.19975733542E+03  0.00000000000E+00 0.  1.
         -1   -1    0    0    0  501 -0.00000000000E+00 -0.00000000000E+00 -0.73020758940E+02  0.73020758940E+02  0.00000000000E+00 0. -1.
         23    2    1    2    0    0 -0.53504927562E+02  0.63532941552E+01  0.86744524078E+02  0.16147900348E+03  0.12509082495E+03 0.  0.
          5    1    3    3  502    0 -0.80897587697E+02 -0.33287659337E+02  0.60588597640E+02  0.10649384266E+03  0.41800000000E+01 0. -1.
         -5    1    3    3    0  502  0.27392660135E+02  0.39640953493E+02  0.26155926438E+02  0.54985160824E+02  0.41800000000E+01 0. -1.
        -11    1    1    2    0    0  0.30737745508E+02 -0.99902206244E+01  0.67839886663E+02  0.75145616835E+02  0.00000000000E+00 0.  1.
         11    1    1    2    0    0  0.22767182054E+02  0.36369264692E+01 -0.27847834258E+02  0.36153474048E+02  0.00000000000E+00 0. -1.
</event>
<event>
 7    1  0.1226955E-005  0.7250406E+02  0.7561462E-02  0.1351779E+00
         -4   -1    0    0    0  501 -0.00000000000E+00  0.00000000000E+00  0.48255179207E+02  0.48255179207E+02  0.00000000000E+00 0. -1.
          4   -1    0    0  501    0  0.00000000000E+00 -0.00000000000E+00 -0.29579059134E+03  0.29579059134E+03  0.00000000000E+00 0.  1.
         23    2    1    2    0    0  0.28531502961E+01  0.31941162717E+02 -0.84121581804E+02  0.15411908636E+03  0.12509146219E+03 0.  0.
          5    1    3    3  502    0  0.19420268950E+02  0.24559260632E+02  0.26935788824E+02  0.41512808246E+02  0.41800000000E+01 0. -1.
         -5    1    3    3    0  502 -0.16567118653E+02  0.73819020848E+01 -0.11105737063E+03  0.11260627811E+03  0.41800000000E+01 0. -1.
        -11    1    1    2    0    0 -0.41066872078E+02  0.53498620993E+01 -0.90768269509E+02  0.99769673531E+02  0.00000000000E+00 0.  1.
         11    1    1    2    0    0  0.38213721782E+02 -0.37291024816E+02 -0.72645560817E+02  0.90157010657E+02  0.00000000000E+00 0. -1.
</event>
<event>
 6    1  0.1226955E-005  0.1356521E+03  0.7561462E-02  0.1219302E+00
         -2   -1    0    0    0  501 -0.00000000000E+00  0.00000000000E+00  0.93240290060E+02  0.93240290060E+02  0.00000000000E+00 0.  1.
          2   -1    0    0  501    0  0.00000000000E+00 -0.00000000000E+00 -0.39416898858E+03  0.39416898858E+03  0.00000000000E+00 0. -1.
          5    1    1    2  502    0 -0.10368685787E+03  0.23830608220E+02 -0.23561250560E+03  0.25855287192E+03  0.41800000000E+01 0. -1.
         -5    1    1    2    0  502  0.10503584203E+03 -0.32564200015E+02  0.33645353008E+02  0.11507578986E+03  0.41800000000E+01 0.  1.
        -11    1    1    2    0    0 -0.14985678208E+02 -0.18810232726E+02 -0.56106900652E+02  0.61044080035E+02  0.00000000000E+00 0. -1.
         11    1    1    2    0    0  0.13636694051E+02  0.27543824521E+02 -0.42854645278E+02  0.52736536820E+02  0.00000000000E+00 0.  1.
</event>
<event>
 7    1  0.1226955E-005  0.1502673E+03  0.7561462E-02  0.1200145E+00
         -1   -1    0    0    0  501 -0.00000000000E+00  0.00000000000E+00  0.35413269635E+03  0.35413269635E+03  0.00000000000E+00 0.  1.
          1   -1    0    0  501    0  0.00000000000E+00 -0.00000000000E+00 -0.67660100010E+02  0.67660100010E+02  0.00000000000E+00 0. -1.
         23    2    1    2    0    0 -0.73759764831E+02  0.81608511629E+02  0.13794507398E+03  0.21626194256E+03  0.12505971488E+03 0.  0.
          5    1    3    3  502    0 -0.53805823138E+02 -0.18572563553E+02  0.20719941048E+02  0.60718984490E+02  0.41800000000E+01 0. -1.
         -5    1    3    3    0  502 -0.19953941693E+02  0.10018107518E+03  0.11722513293E+03  0.15554295807E+03  0.41800000000E+01 0. -1.
        -11    1    1    2    0    0  0.67976304632E+02 -0.92107180001E+01  0.83318214180E+02  0.10792377000E+03  0.00000000000E+00 0.  1.
         11    1    1    2    0    0  0.57834601987E+01 -0.72397793629E+02  0.65209308183E+02  0.97607083800E+02  0.00000000000E+00 0. -1.
</event>
<event>
 7    1  0.2524622E-005  0.1844663E+03  0.7561462E-02  0.1163549E+00
         -3   -1    0    0    0  501 -0.00000000000E+00  0.00000000000E+00  0.24551931671E+03  0.24551931671E+03  0.00000000000E+00 0.  1.
          3   -1    0    0  501    0  0.00000000000E+00 -0.00000000000E+00 -0.16451480096E+03  0.16451480096E+03  0.00000000000E+00 0. -1.
         23    2    1    2    0    0  0.61304489411E+02  0.15315434321E+03  0.77952134835E+02  0.22122024579E+03  0.12508944222E+03 0.  0.
          5    1    3    3  502    0  0.60654636282E+02  0.11091028651E+02  0.64966241008E+01  0.62142371565E+02  0.41800000000E+01 0. -1.
         -5    1    3    3    0  502  0.64985312957E+00  0.14206331456E+03  0.71455510734E+02  0.15907787422E+03  0.41800000000E+01 0. -1.
        -11    1    1    2    0    0 -0.46658182442E+02 -0.12040356515E+03  0.42070813656E+02  0.13580853380E+03  0.00000000000E+00 0.  1.
         11    1    1    2    0    0 -0.14646306970E+02 -0.32750778062E+02 -0.39018432748E+02  0.53005338086E+02  0.00000000000E+00 0. -1.
</event>
<event>
 7    1  0.1226955E-005  0.1056784E+03  0.7561462E-02  0.1268789E+00
         -1   -1    0    0    0  501 -0.00000000000E+00  0.00000000000E+00  0.37739123080E+03  0.37739123080E+03  0.00000000000E+00 0.  1.
          1   -1    0    0  501    0  0.00000000000E+00 -0.00000000000E+00 -0.40419644288E+02  0.40419644288E+02  0.00000000000E+00 0. -1.
         23    2    1    2    0    0  0.11326318677E+02  0.19607999181E+02  0.28072375178E+03  0.30816516252E+03  0.12508870234E+03 0.  0.
          5    1    3    3  502    0  0.66257847072E+02 -0.53926218505E+01  0.14953473357E+03  0.16369878318E+03  0.41800000000E+01 0. -1.
         -5    1    3    3    0  502 -0.54931528395E+02  0.25000621031E+02  0.13118901820E+03  0.14446637934E+03  0.41800000000E+01 0. -1.
        -11    1    1    2    0    0 -0.72321699946E+01 -0.51546330228E+02  0.95459579964E+01  0.52919313647E+02  0.00000000000E+00 0.  1.
         11    1    1    2    0    0 -0.40941486824E+01  0.31938331047E+02  0.46701876741E+02  0.56726398922E+02  0.00000000000E+00 0. -1.
</event>
<event>
 7    1  0.1226955E-005  0.1501520E+03  0.7561462E-02  0.1200286E+00
         -2   -1    0    0    0  501 -0.00000000000E+00  0.00000000000E+00  0.43340204216E+03  0.43340204216E+03  0.00000000000E+00 0.  1.
          2   -1    0    0  501    0  0.00000000000E+00 -0.00000000000E+00 -0.72458707487E+02  0.72458707487E+02  0.00000000000E+00 0. -1.
         23    2    1    2    0    0 -0.12354307378E+03 -0.13598674931E+02  0.28280940614E+03  0.33328035203E+03  0.12508724080E+03 0.  0.
          5    1    3    3  502    0 -0.69564278553E+02  0.53011068235E+02  0.11246775146E+03  0.14253360911E+03  0.41800000000E+01 0. -1.
         -5    1    3    3    0  502 -0.53978795226E+02 -0.66609743166E+02  0.17034165468E+03  0.19074674293E+03  0.41800000000E+01 0. -1.
        -11    1    1    2    0    0  0.11131257706E+03  0.40439084337E+01  0.20964557453E+02  0.11334176493E+03  0.00000000000E+00 0. -1.
         11    1    1    2    0    0  0.12230496714E+02  0.95547664975E+01  0.57169371075E+02  0.59238632680E+02  0.00000000000E+00 0.  1.
</event>
<event>
 7    1  0.1226955E-005  0.1570378E+03  0.7561462E-02  0.1192082E+00
          1   -1    0    0  501    0  0.00000000000E+00  0.00000000000E+00  0.26062131890E+02  0.26062131890E+02  0.00000000000E+00 0. -1.
         -1   -1    0    0    0  501 -0.00000000000E+00 -0.00000000000E+00 -0.10420274854E+04  0.10420274854E+04  0.00000000000E+00 0.  1.
         23    2    1    2    0    0  0.59446824148E+02 -0.10274078949E+03 -0.59868136155E+03  0.62302214120E+03  0.12509045140E+03 0.  0.
          5    1    3    3  502    0 -0.62440163152E+01 -0.10299875193E+03 -0.42271266210E+03  0.43514503069E+03  0.41800000000E+01 0. -1.
         -5    1    3    3    0  502  0.65690840463E+02  0.25796244138E+00 -0.17596869945E+03  0.18787711051E+03  0.41800000000E+01 0. -1.
        -11    1    1    2    0    0  0.19867256928E+02  0.36855458878E+02 -0.20292089757E+03  0.20719537499E+03  0.00000000000E+00 0.  1.
         11    1    1    2    0    0 -0.79314081076E+02  0.65885330610E+02 -0.21436309443E+03  0.23787210113E+03  0.00000000000E+00 0. -1.
</event>
<event>
 7    1  0.1226955E-005  0.6620267E+02  0.7561462E-02  0.1373504E+00
         -2   -1    0    0    0  501 -0.00000000000E+00  0.00000000000E+00  0.10767109358E+03  0.10767109358E+03  0.00000000000E+00 0.  1.
          2   -1    0    0  501    0  0.00000000000E+00 -0.00000000000E+00 -0.15692873301E+03  0.15692873301E+03  0.00000000000E+00 0. -1.
         23    2    1    2    0    0 -0.14207099875E+02 -0.19380324706E+02  0.50722477258E+02  0.12803061311E+03  0.11507227956E+03 0.  0.
          5    1    3    3  502    0 -0.26883980239E+02 -0.11522411615E+02 -0.32183897136E+02  0.43689701278E+02  0.41800000000E+01 0. -1.
         -5    1    3    3    0  502  0.12676880364E+02 -0.78579130916E+01  0.82906374394E+02  0.84340911834E+02  0.41800000000E+01 0.  1.
        -11    1    1    2    0    0 -0.28548654027E+02  0.31908970133E+02 -0.72570041957E+02  0.84259236949E+02  0.00000000000E+00 0. -1.
         11    1    1    2    0    0  0.42755753902E+02 -0.12528645426E+02 -0.27410074724E+02  0.52309976528E+02  0.00000000000E+00 0.  1.
</event>
<event>
 7    1  0.1226955E-005  0.9959682E+02  0.7561462E-02  0.1281146E+00
         -2   -1    0    0    0  501 -0.00000000000E+00  0.00000000000E+00  0.63547239077E+02  0.63547239077E+02  0.00000000000E+00 0.  1.
          2   -1    0    0  501    0  0.00000000000E+00 -0.00000000000E+00 -0.31257477381E+03  0.31257477381E+03  0.00000000000E+00 0. -1.
         23    2    1    2    0    0  0.44185391530E+02 -0.53292602095E+02 -0.58730111608E+02  0.15455636013E+03  0.12508394055E+03 0.  0.
          5    1    3    3  502    0  0.33216534354E+02 -0.24331032088E+01  0.34231741996E+02  0.47943119483E+02  0.41800000000E+01 0. -1.
         -5    1    3    3    0  502  0.10968857176E+02 -0.50859498886E+02 -0.92961853604E+02  0.10661324064E+03  0.41800000000E+01 0. -1.
        -11    1    1    2    0    0  0.15196075808E+01  0.65979627325E+02 -0.10739919577E+03  0.12605636708E+03  0.00000000000E+00 0. -1.
         11    1    1    2    0    0 -0.45704999111E+02 -0.12687025230E+02 -0.82898227351E+02  0.95509285679E+02  0.00000000000E+00 0.  1.
</event>
<event>
 6    1  0.1226955E-005  0.1312759E+03  0.7561462E-02  0.1225575E+00
          1   -1    0    0  501    0  0.00000000000E+00  0.00000000000E+00  0.52817579135E+03  0.52817579135E+03  0.00000000000E+00 0. -1.
         -1   -1    0    0    0  501 -0.00000000000E+00 -0.00000000000E+00 -0.48685854103E+02  0.48685854103E+02  0.00000000000E+00 0.  1.
          5    1    1    2  502    0 -0.13510476557E+02  0.32195193686E+02 -0.85624134525E+01  0.36191860928E+02  0.41800000000E+01 0. -1.
         -5    1    1    2    0  502 -0.61460347154E+02 -0.82018202754E+02  0.18273525451E+03  0.20955668803E+03  0.41800000000E+01 0.  1.
        -11    1    1    2    0    0  0.93768748284E+02  0.32478840447E+02  0.26877605593E+03  0.28651007220E+03  0.00000000000E+00 0. -1.
         11    1    1    2    0    0 -0.18797924573E+02  0.17344168621E+02  0.36541040262E+02  0.44603024302E+02  0.00000000000E+00 0.  1.
</event>
<event>
 7    1  0.1226955E-005  0.1123649E+03  0.7561462E-02  0.1256252E+00
         -2   -1    0    0    0  501 -0.00000000000E+00  0.00000000000E+00  0.72402312142E+02  0.72402312142E+02  0.00000000000E+00 0.  1.
          2   -1    0    0  501    0  0.00000000000E+00 -0.00000000000E+00 -0.21452853510E+03  0.21452853510E+03  0.00000000000E+00 0. -1.
         23    2    1    2    0    0  0.28468098152E+02  0.57228591905E+02 -0.78298146964E+02  0.16071348158E+03  0.12495070629E+03 0.  0.
          5    1    3    3  502    0  0.23309183886E+02  0.87753245734E+02 -0.89468066618E+02  0.12753806308E+03  0.41800000000E+01 0.  1.
         -5    1    3    3    0  502  0.51589142658E+01 -0.30524653829E+02  0.11169919654E+02  0.33175418503E+02  0.41800000000E+01 0.  1.
        -11    1    1    2    0    0  0.28301030725E+02 -0.16895035085E+02 -0.18820188276E+01  0.33014126454E+02  0.00000000000E+00 0.  1.
         11    1    1    2    0    0 -0.56769128877E+02 -0.40333556820E+02 -0.61946057163E+02  0.93203239199E+02  0.00000000000E+00 0. -1.
</event>
<event>
 7    1  0.1226955E-005  0.1069753E+03  0.7561462E-02  0.1266276E+00
          2   -1    0    0  501    0  0.00000000000E+00  0.00000000000E+00  0.54834749546E+02  0.54834749546E+02  0.00000000000E+00 0. -1.
         -2   -1    0    0    0  501 -0.00000000000E+00 -0.00000000000E+00 -0.50880241262E+03  0.50880241262E+03  0.00000000000E+00 0.  1.
         23    2    1    2    0    0  0.87060875437E+02  0.16931755974E+02 -0.39516667900E+03  0.42387537274E+03  0.12508935620E+03 0.  0.
          5    1    3    3  502    0 -0.14626045276E+02 -0.13397817316E+00  0.25075134158E+00  0.15214283644E+02  0.41800000000E+01 0. -1.
         -5    1    3    3    0  502  0.10168692071E+03  0.17065734148E+02 -0.39541743034E+03  0.40866108910E+03  0.41800000000E+01 0. -1.
        -11    1    1    2    0    0 -0.17119188735E+02 -0.18997120907E+02 -0.64671342599E+02  0.69543797562E+02  0.00000000000E+00 0.  1.
         11    1    1    2    0    0 -0.69941686701E+02  0.20653649328E+01  0.58703585313E+01  0.70217991856E+02  0.00000000000E+00 0. -1.
</event>
<event>
 7    1  0.1226955E-005  0.1162366E+03  0.7561462E-02  0.1249438E+00
          2   -1    0    0  501    0  0.00000000000E+00  0.00000000000E+00  0.16428055598E+03  0.16428055598E+03  0.00000000000E+00 0. -1.
         -2   -1    0    0    0  501 -0.00000000000E+00 -0.00000000000E+00 -0.10181035525E+03  0.10181035525E+03  0.00000000000E+00 0.  1.
         23    2    1    2    0    0  0.33891023694E+02 -0.56240373856E+02  0.86924389149E+01  0.14153879028E+03  0.12508432964E+03 0.  0.
          5    1    3    3  502    0  0.74652900213E+02 -0.49549961844E+02  0.30372780926E+02  0.94700752110E+02  0.41800000000E+01 0. -1.
         -5    1    3    3    0  502 -0.40761876519E+02 -0.66904120120E+01 -0.21680342011E+02  0.46838038174E+02  0.41800000000E+01 0. -1.
        -11    1    1    2    0    0 -0.58945566724E+02  0.36203706978E+02  0.94277214054E+01  0.69815257403E+02  0.00000000000E+00 0.  1.
         11    1    1    2    0    0  0.25054543030E+02  0.20036666879E+02  0.44350040407E+02  0.54736863540E+02  0.00000000000E+00 0. -1.
</event>
<event>
 7    1  0.1226955E-005  0.1765266E+03  0.7561462E-02  0.1171208E+00
          2   -1    0    0  501    0  0.00000000000E+00  0.00000000000E+00  0.17065098911E+03  0.17065098911E+03  0.00000000000E+00 0. -1.
         -2   -1    0    0    0  501 -0.00000000000E+00 -0.00000000000E+00 -0.24162418858E+03  0.24162418858E+03  0.00000000000E+00 0.  1.
         23    2    1    2    0    0 -0.16589374653E+03  0.16967476995E+02 -0.90063112736E+02  0.22708349656E+03  0.12508764814E+03 0.  0.
          5    1    3    3  502    0 -0.10604055249E+02 -0.22926370564E+02 -0.58171681302E+02  0.63556914340E+02  0.41800000000E+01 0.  1.
         -5    1    3    3    0  502 -0.15528969128E+03  0.39893847559E+02 -0.31891431434E+02  0.16352658222E+03  0.41800000000E+01 0.  1.
        -11    1    1    2    0    0  0.11284371975E+03 -0.68073751557E+01  0.49268695149E+02  0.12331848915E+03  0.00000000000E+00 0. -1.
         11    1    1    2    0    0  0.53050026779E+02 -0.10160101840E+02 -0.30178781881E+02  0.61873191986E+02  0.00000000000E+00 0.  1.
</event>
<event>
 6    1  0.1226955E-005  0.1501887E+03  0.7561462E-02  0.1200241E+00
          2   -1    0    0  501    0  0.00000000000E+00  0.00000000000E+00  0.36571784525E+03  0.36571784525E+03  0.00000000000E+00 0. -1.
         -2   -1    0    0    0  501 -0.00000000000E+00 -0.00000000000E+00 -0.13631355930E+03  0.13631355930E+03  0.00000000000E+00 0.  1.
          5    1    1    2  502    0  0.11135548977E+03 -0.77251418558E+02  0.26044721375E+03  0.29362910333E+03  0.41800000000E+01 0. -1.
         -5    1    1    2    0  502 -0.11152495377E+03  0.35892132184E+02 -0.77408972888E+02  0.14048374265E+03  0.41800000000E+01 0.  1.
        -11    1    1    2    0    0  0.10692883895E+02  0.30971319110E+02  0.40292104712E+02  0.51932784208E+02  0.00000000000E+00 0.  1.
         11    1    1    2    0    0 -0.10523419894E+02  0.10387967263E+02  0.60739403715E+01  0.15985774356E+02  0.00000000000E+00 0. -1.
</event>
<event>
 7    1  0.1226955E-005  0.7089652E+02  0.7561462E-02  0.1357071E+00
          2   -1    0    0  501    0  0.00000000000E+00  0.00000000000E+00  0.16726614377E+03  0.16726614377E+03  0.00000000000E+00 0. -1.
         -2   -1    0    0    0  501 -0.00000000000E+00 -0.00000000000E+00 -0.75922033208E+02  0.75922033208E+02  0.00000000000E+00 0.  1.
         23    2    1    2    0    0  0.75849756656E+00 -0.32004084707E+01  0.14950978224E+02  0.12602079726E+03  0.12508753599E+03 0.  0.
          5    1    3    3  502    0 -0.44229250465E+02  0.17980592116E+02 -0.31900762337E+02  0.57573078146E+02  0.41800000000E+01 0.  1.
         -5    1    3    3    0  502  0.44987748031E+02 -0.21181000586E+02  0.46851740561E+02  0.68447719118E+02  0.41800000000E+01 0.  1.
        -11    1    1    2    0    0  0.19623482861E+02  0.10574320087E+02 -0.12577406001E+02  0.25594696064E+02  0.00000000000E+00 0.  1.
         11    1    1    2    0    0 -0.20381980428E+02 -0.73739116163E+01  0.88970538336E+02  0.91572683648E+02  0.00000000000E+00 0. -1.
</event>
<event>
 7    1  0.1226955E-005  0.7823377E+02  0.7561462E-02  0.1334140E+00
          4   -1    0    0  501    0  0.00000000000E+00  0.00000000000E+00  0.13029601452E+03  0.13029601452E+03  0.00000000000E+00 0. -1.
         -4   -1    0    0    0  501 -0.00000000000E+00 -0.00000000000E+00 -0.89390486305E+02  0.89390486305E+02  0.00000000000E+00 0.  1.
         23    2    1    2    0    0  0.30582110287E+02  0.34487160122E+02  0.76685232353E+01  0.13353230079E+03  0.12508972549E+03 0.  0.
          5    1    3    3  502    0 -0.16025337522E+02  0.29064513809E+02  0.56513795051E+02  0.65672207491E+02  0.41800000000E+01 0. -1.
         -5    1    3    3    0  502  0.46607447809E+02  0.54226463133E+01 -0.48845271816E+02  0.67860093303E+02  0.41800000000E+01 0. -1.
        -11    1    1    2    0    0 -0.21838258751E+02 -0.51963712546E+02  0.35294319940E+02  0.66504330587E+02  0.00000000000E+00 0. -1.
         11    1    1    2    0    0 -0.87438515363E+01  0.17476552424E+02 -0.20573149612E+01  0.19649869444E+02  0.00000000000E+00 0.  1.
</event>
<event>
 7    1  0.1226955E-005  0.9424891E+02  0.7561462E-02  0.1292877E+00
         -4   -1    0    0    0  501 -0.00000000000E+00  0.00000000000E+00  0.43539229267E+03  0.43539229267E+03  0.00000000000E+00 0.  1.
          4   -1    0    0  501    0  0.00000000000E+00 -0.00000000000E+00 -0.36383362267E+02  0.36383362267E+02  0.00000000000E+00 0. -1.
         23    2    1    2    0    0 -0.25838770040E+02 -0.16289205460E+02  0.32525139375E+03  0.34976825652E+03  0.12496553079E+03 0.  0.
          5    1    3    3  502    0  0.32429741442E+02 -0.51021871465E+02  0.14714836531E+03  0.15913840929E+03  0.41800000000E+01 0. -1.
         -5    1    3    3    0  502 -0.58268511481E+02  0.34732666006E+02  0.17810302844E+03  0.19062984724E+03  0.41800000000E+01 0. -1.
        -11    1    1    2    0    0  0.37685213843E+02 -0.24494402826E+01  0.87928938865E+02  0.95695733396E+02  0.00000000000E+00 0.  1.
         11    1    1    2    0    0 -0.11846443804E+02  0.18738645742E+02 -0.14171402213E+02  0.26311665013E+02  0.00000000000E+00 0. -1.
</event>
<event>
 7    1  0.1226955E-005  0.3211212E+03  0.7561462E-02  0.1075134E+00
         -2   -1    0    0    0  501 -0.00000000000E+00  0.00000000000E+00  0.11996152431E+03  0.11996152431E+03  0.00000000000E+00 0.  1.
          2   -1    0    0  501    0  0.00000000000E+00 -0.00000000000E+00 -0.13527109841E+04  0.13527109841E+04  0.00000000000E+00 0. -1.
         23    2    1    2    0    0 -0.27645035324E+03  0.14477424205E+03 -0.20313221836E+03  0.39280250834E+03  0.12508690361E+03 0.  0.
          5    1    3    3  502    0 -0.18131324185E+03  0.13648514627E+03 -0.19060586296E+03  0.29639627902E+03  0.41800000000E+01 0. -1.
         -5    1    3    3    0  502 -0.95137111387E+02  0.82890957787E+01 -0.12526355400E+02  0.96406229319E+02  0.41800000000E+01 0. -1.
        -11    1    1    2    0    0  0.16534010886E+03 -0.47577492981E+02 -0.65489271571E+03  0.67711552820E+03  0.00000000000E+00 0.  1.
         11    1    1    2    0    0  0.11111024438E+03 -0.97196749067E+02 -0.37472452572E+03  0.40275447187E+03  0.00000000000E+00 0. -1.
</event>
<event>
 7    1  0.1226955E-005  0.8734593E+02  0.7561462E-02  0.1309409E+00
          2   -1    0    0  501    0  0.00000000000E+00  0.00000000000E+00  0.45084210076E+02  0.45084210076E+02  0.00000000000E+00 0. -1.
         -2   -1    0    0    0  501 -0.00000000000E+00 -0.00000000000E+00 -0.32709766216E+03  0.32709766216E+03  0.00000000000E+00 0.  1.
         23    2    1    2    0    0  0.34750655423E+02 -0.10461841498E+02 -0.22219205561E+03  0.25755403967E+03  0.12509082938E+03 0.  0.
          5    1    3    3  502    0  0.75560420697E+02 -0.13622420039E+02 -0.19107904558E+03  0.20596995306E+03  0.41800000000E+01 0. -1.
         -5    1    3    3    0  502 -0.40809765274E+02  0.31605785408E+01 -0.31113010029E+02  0.51584086611E+02  0.41800000000E+01 0. -1.
        -11    1    1    2    0    0  0.16076968533E+01  0.19195049371E+02 -0.72600186861E+02  0.75112061227E+02  0.00000000000E+00 0.  1.
         11    1    1    2    0    0 -0.36358352276E+02 -0.87332078724E+01  0.12778790394E+02  0.39515771331E+02  0.00000000000E+00 0. -1.
</event>
<event>
 7    1  0.1226955E-005  0.2982311E+03  0.7561462E-02  0.1086128E+00
         -2   -1    0    0    0  501 -0.00000000000E+00  0.00000000000E+00  0.89092091184E+02  0.89092091184E+02  0.00000000000E+00 0.  1.
          2   -1    0    0  501    0  0.00000000000E+00 -0.00000000000E+00 -0.12897867814E+04  0.12897867814E+04  0.00000000000E+00 0. -1.
         23    2    1    2    0    0 -0.27516604811E+03  0.77323008120E+02 -0.31234820090E+03  0.44148039543E+03  0.12509332247E+03 0.  0.
          5    1    3    3  502    0 -0.21335712662E+03  0.54912870797E+01 -0.24609092824E+03  0.32577543657E+03  0.41800000000E+01 0.  1.
         -5    1    3    3    0  502 -0.61808921489E+02  0.71831721040E+02 -0.66257272665E+02  0.11570495886E+03  0.41800000000E+01 0.  1.
        -11    1    1    2    0    0  0.33566855915E+02  0.25863697050E+01 -0.43179169156E+02  0.54752751285E+02  0.00000000000E+00 0.  1.
         11    1    1    2    0    0  0.24159919219E+03 -0.79909377825E+02 -0.84516732013E+03  0.88264572584E+03  0.00000000000E+00 0. -1.
</event>
<event>
 7    1  0.1226955E-005  0.2844601E+03  0.7561462E-02  0.1093278E+00
          1   -1    0    0  501    0  0.00000000000E+00  0.00000000000E+00  0.59456863713E+03  0.59456863713E+03  0.00000000000E+00 0. -1.
         -1   -1    0    0    0  501 -0.00000000000E+00 -0.00000000000E+00 -0.16166022344E+03  0.16166022344E+03  0.00000000000E+00 0.  1.
         23    2    1    2    0    0 -0.28172058984E+03 -0.24669571116E+02  0.14149677436E+03  0.34006537666E+03  0.12509214512E+03 0.  0.
          5    1    3    3  502    0 -0.13324953908E+03 -0.32744570005E+02  0.13289766003E+03  0.19106780726E+03  0.41800000000E+01 0. -1.
         -5    1    3    3    0  502 -0.14847105076E+03  0.80749988888E+01  0.85991143290E+01  0.14899756940E+03  0.41800000000E+01 0. -1.
        -11    1    1    2    0    0  0.65612635043E+02  0.26418786229E+01  0.12962182563E+03  0.14530593615E+03  0.00000000000E+00 0.  1.
         11    1    1    2    0    0  0.21610795480E+03  0.22027692493E+02  0.16178981370E+03  0.27085754776E+03  0.00000000000E+00 0. -1.
</event>
<event>
 7    1  0.1226955E-005  0.1766092E+03  0.7561462E-02  0.1171126E+00
          1   -1    0    0  501    0  0.00000000000E+00  0.00000000000E+00  0.24143211666E+03  0.24143211666E+03  0.00000000000E+00 0. -1.
         -1   -1    0    0    0  501 -0.00000000000E+00 -0.00000000000E+00 -0.17909437049E+03  0.17909437049E+03  0.00000000000E+00 0.  1.
         23    2    1    2    0    0  0.79464057675E+02 -0.14136389486E+03 -0.40254160040E+02  0.20872541051E+03  0.12509041674E+03 0.  0.
          5    1    3    3  502    0  0.96492674516E+02 -0.10028485414E+03 -0.69221730931E+02  0.15548957726E+03  0.41800000000E+01 0. -1.
         -5    1    3    3    0  502 -0.17028616841E+02 -0.41079040726E+02  0.28967570891E+02  0.53235833250E+02  0.41800000000E+01 0. -1.
        -11    1    1    2    0    0  0.57847222198E+01  0.21302726628E+02  0.51346617452E+02  0.55890466958E+02  0.00000000000E+00 0. -1.
         11    1    1    2    0    0 -0.85248779895E+02  0.12006116823E+03  0.51245288756E+02  0.15591060968E+03  0.00000000000E+00 0.  1.
</event>
<event>
 7    1  0.1226955E-005  0.5252324E+02  0.7561462E-02  0.1432188E+00
         -1   -1    0    0    0  501 -0.00000000000E+00  0.00000000000E+00  0.81220777810E+02  0.81220777810E+02  0.00000000000E+00 0.  1.
          1   -1    0    0  501    0  0.00000000000E+00 -0.00000000000E+00 -0.14686697726E+03  0.14686697726E+03  0.00000000000E+00 0. -1.
         23    2    1    2    0    0  0.13457641922E+02  0.45642771170E+01 -0.27234467076E+01  0.12592213267E+03  0.12508807130E+03 0.  0.
          5    1    3    3  502    0  0.11475946164E+02  0.27213112956E+02 -0.58433548538E+02  0.65606423861E+02  0.41800000000E+01 0. -1.
         -5    1    3    3    0  502  0.19816957576E+01 -0.22648835839E+02  0.55710101830E+02  0.60315708807E+02  0.41800000000E+01 0. -1.
        -11    1    1    2    0    0  0.89782841791E+01  0.18103928825E+02  0.10019385857E+02  0.22555485334E+02  0.00000000000E+00 0.  1.
         11    1    1    2    0    0 -0.22435926101E+02 -0.22668205942E+02 -0.72942138603E+02  0.79610137072E+02  0.00000000000E+00 0. -1.
</event>
<event>
 7    1  0.1226955E-005  0.2448150E+03  0.7561462E-02  0.1116626E+00
          1   -1    0    0  501    0  0.00000000000E+00  0.00000000000E+00  0.30585392178E+03  0.30585392178E+03  0.00000000000E+00 0. -1.
         -1   -1    0    0    0  501 -0.00000000000E+00 -0.00000000000E+00 -0.21857639387E+03  0.21857639387E+03  0.00000000000E+00 0.  1.
         23    2    1    2    0    0 -0.22715111948E+03  0.26725631994E+02 -0.63837965991E+01  0.26076339307E+03  0.12507958995E+03 0.  0.
          5    1    3    3  502    0 -0.70680000498E+02 -0.37472431227E+02  0.33685565460E+02  0.86902446990E+02  0.41800000000E+01 0. -1.
         -5    1    3    3    0  502 -0.15647111898E+03  0.64198063222E+02 -0.40069362059E+02  0.17386094608E+03  0.41800000000E+01 0. -1.
        -11    1    1    2    0    0  0.11426784538E+03 -0.50585057616E+02  0.19410768927E+02  0.12646251023E+03  0.00000000000E+00 0.  1.
         11    1    1    2    0    0  0.11288327410E+03  0.23859425621E+02  0.74250555589E+02  0.13720441235E+03  0.00000000000E+00 0. -1.
</event>
<event>
 7    1  0.1226955E-005  0.1099604E+03  0.7561462E-02  0.1260643E+00
         -2   -1    0    0    0  501 -0.00000000000E+00  0.00000000000E+00  0.69259144781E+02  0.69259144781E+02  0.00000000000E+00 0. -1.
          2   -1    0    0  501    0  0.00000000000E+00 -0.00000000000E+00 -0.33380213555E+03  0.33380213555E+03  0.00000000000E+00 0.  1.
         23    2    1    2    0    0  0.64748199203E+02  0.53113554250E+02 -0.58067394973E+02  0.16134323640E+03  0.12508572512E+03 0.  0.
          5    1    3    3  502    0  0.76029068915E+02  0.36788749083E+02 -0.90012429450E+02  0.12350522756E+03  0.41800000000E+01 0. -1.
         -5    1    3    3    0  502 -0.11280869712E+02  0.16324805168E+02  0.31945034477E+02  0.37838008840E+02  0.41800000000E+01 0. -1.
        -11    1    1    2    0    0  0.17620210917E+02 -0.10879334770E+01 -0.80787016676E+02  0.82693394509E+02  0.00000000000E+00 0.  1.
         11    1    1    2    0    0 -0.82368410120E+02 -0.52025620773E+02 -0.12568857911E+03  0.15902464942E+03  0.00000000000E+00 0. -1.
</event>
<event>
 7    1  0.1226955E-005  0.1002245E+03  0.7561462E-02  0.1279825E+00
          2   -1    0    0  501    0  0.00000000000E+00  0.00000000000E+00  0.49672587291E+03  0.49672587291E+03  0.00000000000E+00 0. -1.
         -2   -1    0    0    0  501 -0.00000000000E+00 -0.00000000000E+00 -0.24581785235E+02  0.24581785235E+02  0.00000000000E+00 0.  1.
         23    2    1    2    0    0  0.44074080529E+02 -0.42167324046E+02  0.21056629042E+03  0.25233291932E+03  0.12495251786E+03 0.  0.
          5    1    3    3  502    0  0.31886453373E+02  0.42309259942E+02  0.90743126028E+02  0.10515991017E+03  0.41800000000E+01 0. -1.
         -5    1    3    3    0  502  0.12187627156E+02 -0.84476583988E+02  0.11982316439E+03  0.14717300915E+03  0.41800000000E+01 0.  1.
        -11    1    1    2    0    0 -0.30084843106E+02  0.34933269537E+02  0.17468257860E+03  0.18066387124E+03  0.00000000000E+00 0. -1.
         11    1    1    2    0    0 -0.13989237423E+02  0.72340545090E+01  0.86895218662E+02  0.88310867591E+02  0.00000000000E+00 0.  1.
</event>
<event>
 7    1  0.1226955E-005  0.1403545E+03  0.7561462E-02  0.1212853E+00
          3   -1    0    0  501    0  0.00000000000E+00  0.00000000000E+00  0.10854125000E+03  0.10854125000E+03  0.00000000000E+00 0. -1.
         -3   -1    0    0    0  501 -0.00000000000E+00 -0.00000000000E+00 -0.24748478342E+03  0.24748478342E+03  0.00000000000E+00 0.  1.
         23    2    1    2    0    0  0.12107471542E+03  0.15923607938E+02 -0.80495612624E+02  0.19245422957E+03  0.12508572590E+03 0.  0.
          5    1    3    3  502    0  0.10537128520E+03  0.29234281014E+02 -0.11070303649E+03  0.15566112431E+03  0.41800000000E+01 0.  1.
         -5    1    3    3    0  502  0.15703430217E+02 -0.13310673076E+02  0.30207423867E+02  0.36793105264E+02  0.41800000000E+01 0.  1.
        -11    1    1    2    0    0 -0.95511210270E+02  0.27930073543E+02 -0.52364823871E+02  0.11244801054E+03  0.00000000000E+00 0. -1.
         11    1    1    2    0    0 -0.25563505151E+02 -0.43853681481E+02 -0.60830969228E+01  0.51123793318E+02  0.00000000000E+00 0.  1.
</event>
<event>
 7    1  0.1226955E-005  0.1078513E+03  0.7561462E-02  0.1264601E+00
         -1   -1    0    0    0  501 -0.00000000000E+00  0.00000000000E+00  0.23912515191E+03  0.23912515191E+03  0.00000000000E+00 0.  1.
          1   -1    0    0  501    0  0.00000000000E+00 -0.00000000000E+00 -0.56790339842E+02  0.56790339842E+02  0.00000000000E+00 0. -1.
         23    2    1    2    0    0 -0.41376827783E+02 -0.79252650962E+01  0.10305344007E+03  0.16745793822E+03  0.12508915964E+03 0.  0.
          5    1    3    3  502    0 -0.77351473704E+02  0.26557557250E+02  0.60873416649E+02  0.10203724607E+03  0.41800000000E+01 0. -1.
         -5    1    3    3    0  502  0.35974645921E+02 -0.34482822346E+02  0.42180023417E+02  0.65420692152E+02  0.41800000000E+01 0. -1.
        -11    1    1    2    0    0 -0.19601153161E+02 -0.73654756315E+01 -0.66639246818E+01  0.21974151376E+02  0.00000000000E+00 0.  1.
         11    1    1    2    0    0  0.60977980944E+02  0.15290740728E+02  0.85945296685E+02  0.10648340215E+03  0.00000000000E+00 0. -1.
</event>
<event>
 7    1  0.1226955E-005  0.1472133E+03  0.7561462E-02  0.1203940E+00
          2   -1    0    0  501    0  0.00000000000E+00  0.00000000000E+00  0.46847484110E+03  0.46847484110E+03  0.00000000000E+00 0. -1.
         -2   -1    0    0    0  501 -0.00000000000E+00 -0.00000000000E+00 -0.49523305535E+02  0.49523305535E+02  0.00000000000E+00 0.  1.
         23    2    1    2    0    0 -0.95567838842E+02 -0.36264731933E+02  0.17614370012E+03  0.23900207286E+03  0.12508814946E+03 0.  0.
          5    1    3    3  502    0 -0.10533161204E+03  0.16920737764E+02  0.12585675010E+03  0.16504076408E+03  0.41800000000E+01 0. -1.
         -5    1    3    3    0  502  0.97637732027E+01 -0.53185469697E+02  0.50286950021E+02  0.73961308780E+02  0.41800000000E+01 0. -1.
        -11    1    1    2    0    0 -0.16124180174E+02  0.89586597076E+01  0.14846283811E+02  0.23678237118E+02  0.00000000000E+00 0. -1.
         11    1    1    2    0    0  0.11169201902E+03  0.27306072225E+02  0.22796155164E+03  0.25531783666E+03  0.00000000000E+00 0.  1.
</event>
<event>
 7    1  0.1226955E-005  0.1119083E+03  0.7561462E-02  0.1257076E+00
          2   -1    0    0  501    0  0.00000000000E+00  0.00000000000E+00  0.60425441116E+03  0.60425441116E+03  0.00000000000E+00 0. -1.
         -2   -1    0    0    0  501 -0.00000000000E+00 -0.00000000000E+00 -0.30021939171E+02  0.30021939171E+02  0.00000000000E+00 0.  1.
         23    2    1    2    0    0  0.24780310016E+02  0.11902164993E+02  0.14117009185E+03  0.19060881785E+03  0.12508797429E+03 0.  0.
          5    1    3    3  502    0  0.49040354101E+02 -0.44440917889E+02  0.67015984220E+02  0.94279192052E+02  0.41800000000E+01 0. -1.
         -5    1    3    3    0  502 -0.24260044085E+02  0.56343082881E+02  0.74154107629E+02  0.96329625795E+02  0.41800000000E+01 0. -1.
        -11    1    1    2    0    0 -0.20821746096E+02  0.39399481929E+02  0.18078403728E+03  0.18619541461E+03  0.00000000000E+00 0. -1.
         11    1    1    2    0    0 -0.39585639198E+01 -0.51301646921E+02  0.25227834286E+03  0.25747211787E+03  0.00000000000E+00 0.  1.
</event>
<event>
 7    1  0.1226955E-005  0.2209926E+03  0.7561462E-02  0.1133145E+00
          1   -1    0    0  501    0  0.00000000000E+00  0.00000000000E+00  0.51780297758E+03  0.51780297758E+03  0.00000000000E+00 0. -1.
         -1   -1    0    0    0  501 -0.00000000000E+00 -0.00000000000E+00 -0.11160390840E+03  0.11160390840E+03  0.00000000000E+00 0.  1.
         23    2    1    2    0    0 -0.81836503503E+01 -0.19938277027E+03  0.10668618015E+03  0.25855309518E+03  0.12508917130E+03 0.  0.
          5    1    3    3  502    0 -0.39411592073E+02 -0.20010044528E+03  0.93355787506E+02  0.22433510035E+03  0.41800000000E+01 0. -1.
         -5    1    3    3    0  502  0.31227941723E+02  0.71767500497E+00  0.13330392646E+02  0.34217994824E+02  0.41800000000E+01 0. -1.
        -11    1    1    2    0    0  0.27021969977E+02  0.16570985088E+03  0.28262569998E+03  0.32873580248E+03  0.00000000000E+00 0. -1.
         11    1    1    2    0    0 -0.18838319627E+02  0.33672919395E+02  0.16887189038E+02  0.42117988325E+02  0.00000000000E+00 0.  1.
</event>
<event>
 7    1  0.1226955E-005  0.9845935E+02  0.7561462E-02  0.1283569E+00
          2   -1    0    0  501    0  0.00000000000E+00  0.00000000000E+00  0.61323539843E+03  0.61323539843E+03  0.00000000000E+00 0. -1.
         -2   -1    0    0    0  501 -0.00000000000E+00 -0.00000000000E+00 -0.22391885547E+02  0.22391885547E+02  0.00000000000E+00 0.  1.
         23    2    1    2    0    0 -0.41416905653E+02 -0.36006302454E+01  0.30878092362E+03  0.33574269443E+03  0.12509665645E+03 0.  0.
          5    1    3    3  502    0 -0.34592733966E+02 -0.60679419256E+02  0.12645237721E+03  0.14452102015E+03  0.41800000000E+01 0. -1.
         -5    1    3    3    0  502 -0.68241716869E+01  0.57078789011E+02  0.18232854642E+03  0.19122167428E+03  0.41800000000E+01 0. -1.
        -11    1    1    2    0    0 -0.70744031182E+01 -0.15620267385E+02  0.48684614016E+01  0.17825314838E+02  0.00000000000E+00 0.  1.
         11    1    1    2    0    0  0.48491308771E+02  0.19220897631E+02  0.27719412785E+03  0.28205927471E+03  0.00000000000E+00 0. -1.
</event>
<event>
 7    1  0.1226955E-005  0.9524658E+02  0.7561462E-02  0.1290622E+00
         -1   -1    0    0    0  501 -0.00000000000E+00  0.00000000000E+00  0.25362284835E+03  0.25362284835E+03  0.00000000000E+00 0.  1.
          1   -1    0    0  501    0  0.00000000000E+00 -0.00000000000E+00 -0.72300202283E+02  0.72300202283E+02  0.00000000000E+00 0. -1.
         23    2    1    2    0    0 -0.41031193082E+02 -0.65890798925E+02  0.10673803079E+03  0.18183897724E+03  0.12508896930E+03 0.  0.
          5    1    3    3  502    0 -0.62375922873E+02 -0.28249229744E+02  0.22176003403E+01  0.68637926008E+02  0.41800000000E+01 0.  1.
         -5    1    3    3    0  502  0.21344729791E+02 -0.37641569181E+02  0.10452043045E+03  0.11320105124E+03  0.41800000000E+01 0.  1.
        -11    1    1    2    0    0  0.11084105785E+02  0.28047849164E+02  0.88794742911E+02  0.93776572834E+02  0.00000000000E+00 0.  1.
         11    1    1    2    0    0  0.29947087296E+02  0.37842949761E+02 -0.14210127636E+02  0.50307500550E+02  0.00000000000E+00 0. -1.
</event>
<event>
 7    1  0.1226955E-005  0.1010970E+03  0.7561462E-02  0.1278006E+00
         -2   -1    0    0    0  501 -0.00000000000E+00  0.00000000000E+00  0.27863817166E+03  0.27863817166E+03  0.00000000000E+00 0.  1.
          2   -1    0    0  501    0  0.00000000000E+00 -0.00000000000E+00 -0.72003564538E+02  0.72003564538E+02  0.00000000000E+00 0. -1.
         23    2    1    2    0    0 -0.29577368273E+02 -0.78633149160E+02  0.72525931402E+02  0.16725295418E+03  0.12512212872E+03 0.  0.
          5    1    3    3  502    0  0.15841472786E+02 -0.20810999872E+02  0.88085285691E+02  0.91981193355E+02  0.41800000000E+01 0. -1.
         -5    1    3    3    0  502 -0.45418841059E+02 -0.57822149288E+02 -0.15559354290E+02  0.75271760823E+02  0.41800000000E+01 0. -1.
        -11    1    1    2    0    0  0.40468105364E+02  0.25518650165E+02  0.11720817440E+03  0.12659630802E+03  0.00000000000E+00 0.  1.
         11    1    1    2    0    0 -0.10890737092E+02  0.53114498994E+02  0.16900501315E+02  0.56792473995E+02  0.00000000000E+00 0. -1.
</event>
<event>
 7    1  0.1226955E-005  0.1063834E+03  0.7561462E-02  0.1267418E+00
          3   -1    0    0  501    0  0.00000000000E+00  0.00000000000E+00  0.53811822284E+02  0.53811822284E+02  0.00000000000E+00 0. -1.
         -3   -1    0    0    0  501 -0.00000000000E+00 -0.00000000000E+00 -0.24773380675E+03  0.24773380675E+03  0.00000000000E+00 0.  1.
         23    2    1    2    0    0 -0.97847573911E+01  0.33550906544E+02 -0.14011046914E+03  0.19105095198E+03  0.12509243735E+03 0.  0.
          5    1    3    3  502    0 -0.60115820541E+02  0.24139630925E+02 -0.34282649673E+02  0.73412574734E+02  0.41800000000E+01 0.  1.
         -5    1    3    3    0  502  0.50331063150E+02  0.94112756197E+01 -0.10582781947E+03  0.11763837724E+03  0.41800000000E+01 0.  1.
        -11    1    1    2    0    0  0.48041541529E+02 -0.32877054740E+02 -0.33792356154E+02  0.67311319815E+02  0.00000000000E+00 0. -1.
         11    1    1    2    0    0 -0.38256784137E+02 -0.67385180433E+00 -0.20019159171E+02  0.43183357242E+02  0.00000000000E+00 0.  1.
</event>
<event>
 7    1  0.1226955E-005  0.9571857E+02  0.7561462E-02  0.1289566E+00
          1   -1    0    0  501    0  0.00000000000E+00  0.00000000000E+00  0.65834231337E+02  0.65834231337E+02  0.00000000000E+00 0. -1.
         -1   -1    0    0    0  501 -0.00000000000E+00 -0.00000000000E+00 -0.24111602824E+03  0.24111602824E+03  0.00000000000E+00 0.  1.
         23    2    1    2    0    0 -0.34334999459E+02  0.38935360118E+02 -0.19972366971E+03  0.24133495808E+03  0.12513258286E+03 0.  0.
          5    1    3    3  502    0  0.41450157186E+02 -0.12346295752E+02 -0.55590950965E+02  0.70557584842E+02  0.41800000000E+01 0.  1.
         -5    1    3    3    0  502 -0.75785156646E+02  0.51281655870E+02 -0.14413271875E+03  0.17077737324E+03  0.41800000000E+01 0.  1.
        -11    1    1    2    0    0  0.17446088070E+02 -0.34904888895E+02  0.27823853075E+02  0.47925818279E+02  0.00000000000E+00 0. -1.
         11    1    1    2    0    0  0.16888911389E+02 -0.40304712230E+01 -0.33819802716E+01  0.17689483225E+02  0.00000000000E+00 0.  1.
</event>
<event>
 7    1  0.1226955E-005  0.1293236E+03  0.7561462E-02  0.1228463E+00
         -2   -1    0    0    0  501 -0.00000000000E+00  0.00000000000E+00  0.11064847030E+03  0.11064847030E+03  0.00000000000E+00 0. -1.
          2   -1    0    0  501    0  0.00000000000E+00 -0.00000000000E+00 -0.18346923466E+03  0.18346923466E+03  0.00000000000E+00 0.  1.
         23    2    1    2    0    0 -0.73094964038E+02 -0.25690324141E+02  0.13683270101E+02  0.14777354319E+03  0.12508765592E+03 0.  0.
          5    1    3    3  502    0 -0.10257228794E+03 -0.42592908871E+02  0.66053740282E+00  0.11114467531E+03  0.41800000000E+01 0. -1.
         -5    1    3    3    0  502  0.29477323905E+02  0.16902584730E+02  0.13022732698E+02  0.36628867879E+02  0.41800000000E+01 0. -1.
        -11    1    1    2    0    0  0.91563462098E+02  0.18286716071E+02 -0.85204727366E+02  0.12640457722E+03  0.00000000000E+00 0.  1.
         11    1    1    2    0    0 -0.18468498060E+02  0.74036080700E+01 -0.12993070968E+01  0.19939584549E+02  0.00000000000E+00 0. -1.
</event>
<event>
 7    1  0.1226955E-005  0.9929045E+02  0.7561462E-02  0.1281795E+00
         -1   -1    0    0    0  501 -0.00000000000E+00  0.00000000000E+00  0.11586667127E+04  0.11586667127E+04  0.00000000000E+00 0.  1.
          1   -1    0    0  501    0  0.00000000000E+00 -0.00000000000E+00 -0.12272460707E+02  0.12272460707E+02  0.00000000000E+00 0. -1.
         23    2    1    2    0    0 -0.50873998340E+01  0.15162289344E+02  0.94643071238E+03  0.95479490393E+03  0.12508572490E+03 0.  0.
          5    1    3    3  502    0  0.41616273303E+02  0.46967908940E+02  0.34368410650E+03  0.34939109338E+03  0.41800000000E+01 0.  1.
         -5    1    3    3    0  502 -0.46703673137E+02 -0.31805619596E+02  0.60274660588E+03  0.60540381055E+03  0.41800000000E+01 0.  1.
        -11    1    1    2    0    0  0.40166228820E+02  0.15009003346E+01  0.72507792782E+02  0.82903309063E+02  0.00000000000E+00 0. -1.
         11    1    1    2    0    0 -0.35078828986E+02 -0.16663189678E+02  0.12745574686E+03  0.13324096045E+03  0.00000000000E+00 0.  1.
</event>
<event>
 7    1  0.1226955E-005  0.1676978E+03  0.7561462E-02  0.1180270E+00
          2   -1    0    0  501    0  0.00000000000E+00  0.00000000000E+00  0.63733321128E+03  0.63733321128E+03  0.00000000000E+00 0. -1.
         -2   -1    0    0    0  501 -0.00000000000E+00 -0.00000000000E+00 -0.47282214726E+02  0.47282214726E+02  0.00000000000E+00 0.  1.
         23    2    1    2    0    0 -0.87749383406E+02  0.96847041938E+02  0.24520439618E+03  0.30471551706E+03  0.12508815536E+03 0.  0.
          5    1    3    3  502    0 -0.10311380415E+03  0.11482635555E+03  0.22724028972E+03  0.27472380714E+03  0.41800000000E+01 0.  1.
         -5    1    3    3    0  502  0.15364420747E+02 -0.17979313617E+02  0.17964106460E+02  0.29991709920E+02  0.41800000000E+01 0.  1.
        -11    1    1    2    0    0  0.93989608185E+01 -0.75092694485E+02  0.19920711644E+03  0.21309793164E+03  0.00000000000E+00 0.  1.
         11    1    1    2    0    0  0.78350422587E+02 -0.21754347452E+02  0.14563948394E+03  0.16680197731E+03  0.00000000000E+00 0. -1.
</event>
<event>
 7    1  0.1226955E-005  0.1188695E+03  0.7561462E-02  0.1244974E+00
          1   -1    0    0  501    0  0.00000000000E+00  0.00000000000E+00  0.49017011609E+02  0.49017011609E+02  0.00000000000E+00 0. -1.
         -1   -1    0    0    0  501 -0.00000000000E+00 -0.00000000000E+00 -0.65460883077E+03  0.65460883077E+03  0.00000000000E+00 0.  1.
         23    2    1    2    0    0  0.68708600482E+02 -0.78376633447E+02 -0.51052308079E+03  0.53586147652E+03  0.12509971045E+03 0.  0.
          5    1    3    3  502    0  0.76534001241E+02 -0.60207618766E+02 -0.17978202790E+03  0.20450296003E+03  0.41800000000E+01 0. -1.
         -5    1    3    3    0  502 -0.78254007586E+01 -0.18169014681E+02 -0.33074105288E+03  0.33135851650E+03  0.41800000000E+01 0. -1.
        -11    1    1    2    0    0  0.49561318187E+01  0.33350100211E+02  0.66286953633E+01  0.34361781515E+02  0.00000000000E+00 0. -1.
         11    1    1    2    0    0 -0.73664732301E+02  0.45026533237E+02 -0.10169743374E+03  0.13340258435E+03  0.00000000000E+00 0.  1.
</event>
<event>
 7    1  0.1226955E-005  0.1789072E+03  0.7561462E-02  0.1168865E+00
          2   -1    0    0  501    0  0.00000000000E+00  0.00000000000E+00  0.68280455004E+03  0.68280455004E+03  0.00000000000E+00 0. -1.
         -2   -1    0    0    0  501 -0.00000000000E+00 -0.00000000000E+00 -0.69048224045E+02  0.69048224045E+02  0.00000000000E+00 0.  1.
         23    2    1    2    0    0 -0.48533145281E+02  0.14571283659E+03  0.13092387972E+03  0.23743137150E+03  0.12507956249E+03 0.  0.
          5    1    3    3  502    0 -0.61537993304E+01 -0.17094332006E+02 -0.69328592428E+01  0.19890258173E+02  0.41800000000E+01 0.  1.
         -5    1    3    3    0  502 -0.42379345951E+02  0.16280716859E+03  0.13785673896E+03  0.21754111332E+03  0.41800000000E+01 0.  1.
        -11    1    1    2    0    0  0.45490259241E+02 -0.28598137041E+02  0.22326906971E+03  0.22964384298E+03  0.00000000000E+00 0. -1.
         11    1    1    2    0    0  0.30428860404E+01 -0.11711469955E+03  0.25956337656E+03  0.28477755961E+03  0.00000000000E+00 0.  1.
</event>
<event>
 7    1  0.1226955E-005  0.1131949E+03  0.7561462E-02  0.1254765E+00
          2   -1    0    0  501    0  0.00000000000E+00  0.00000000000E+00  0.22591764741E+03  0.22591764741E+03  0.00000000000E+00 0.  1.
         -2   -1    0    0    0  501 -0.00000000000E+00 -0.00000000000E+00 -0.64834354078E+02  0.64834354078E+02  0.00000000000E+00 0. -1.
         23    2    1    2    0    0  0.34523655849E+02 -0.56062119278E+01  0.42732506227E+02  0.13672799909E+03  0.12508063888E+03 0.  0.
          5    1    3    3  502    0  0.81147103161E+02  0.26103619846E+00  0.17090559774E+02  0.83033006237E+02  0.41800000000E+01 0. -1.
         -5    1    3    3    0  502 -0.46623447312E+02 -0.58672481263E+01  0.25641946454E+02  0.53694992856E+02  0.41800000000E+01 0. -1.
        -11    1    1    2    0    0 -0.65270425415E+02 -0.49290431262E+01  0.86926249578E+02  0.10881496572E+03  0.00000000000E+00 0.  1.
         11    1    1    2    0    0  0.30746769566E+02  0.10535255054E+02  0.31424537522E+02  0.45209036666E+02  0.00000000000E+00 0. -1.
</event>
<event>
 7    1  0.1226955E-005  0.1152659E+03  0.7561462E-02  0.1251118E+00
          1   -1    0    0  501    0  0.00000000000E+00  0.00000000000E+00  0.44352786576E+03  0.44352786576E+03  0.00000000000E+00 0. -1.
         -1   -1    0    0    0  501 -0.00000000000E+00 -0.00000000000E+00 -0.35159367450E+02  0.35159367450E+02  0.00000000000E+00 0.  1.
         23    2    1    2    0    0  0.19646036236E+02 -0.60652157556E+02  0.22629930737E+03  0.26631513063E+03  0.12509085231E+03 0.  0.
          5    1    3    3  502    0 -0.41580025035E+02 -0.35782486159E+02  0.38405687675E+02  0.67095111919E+02  0.41800000000E+01 0. -1.
         -5    1    3    3    0  502  0.61226061271E+02 -0.24869671397E+02  0.18789361969E+03  0.19922001871E+03  0.41800000000E+01 0. -1.
        -11    1    1    2    0    0 -0.20495119083E+02 -0.20003691309E+02  0.45575444869E+02  0.53826747507E+02  0.00000000000E+00 0. -1.
         11    1    1    2    0    0  0.84908284663E+00  0.80655848865E+02  0.13649374607E+03  0.15854535507E+03  0.00000000000E+00 0.  1.
</event>
<event>
 7    1  0.1226955E-005  0.9868456E+02  0.7561462E-02  0.1283087E+00
         -2   -1    0    0    0  501 -0.00000000000E+00  0.00000000000E+00  0.83448514901E+02  0.83448514901E+02  0.00000000000E+00 0. -1.
          2   -1    0    0  501    0  0.00000000000E+00 -0.00000000000E+00 -0.23986302284E+03  0.23986302284E+03  0.00000000000E+00 0.  1.
         23    2    1    2    0    0 -0.49322718534E+01 -0.80340710062E+01  0.17947126649E+02  0.12672441544E+03  0.12509238390E+03 0.  0.
          5    1    3    3  502    0  0.36963848639E+02 -0.45551388012E+02 -0.15938900014E+02  0.60932552791E+02  0.41800000000E+01 0.  1.
         -5    1    3    3    0  502 -0.41896120493E+02  0.37517317006E+02  0.33886026663E+02  0.65791862647E+02  0.41800000000E+01 0.  1.
        -11    1    1    2    0    0 -0.21758361143E+02  0.36907600115E+02 -0.13204775930E+03  0.13882437813E+03  0.00000000000E+00 0.  1.
         11    1    1    2    0    0  0.26690632997E+02 -0.28873529109E+02 -0.42313875287E+02  0.57762744176E+02  0.00000000000E+00 0. -1.
</event>
<event>
 7    1  0.1226955E-005  0.1771356E+03  0.7561462E-02  0.1170604E+00
          1   -1    0    0  501    0  0.00000000000E+00  0.00000000000E+00  0.24599969885E+03  0.24599969885E+03  0.00000000000E+00 0. -1.
         -1   -1    0    0    0  501 -0.00000000000E+00 -0.00000000000E+00 -0.17072338474E+03  0.17072338474E+03  0.00000000000E+00 0.  1.
         23    2    1    2    0    0 -0.18580712100E+02  0.17271630905E+03  0.83315214816E+01  0.21422629686E+03  0.12508927108E+03 0.  0.
          5    1    3    3  502    0 -0.34446600360E+02  0.95388190742E+02  0.61758461700E+02  0.11881521452E+03  0.41800000000E+01 0.  1.
         -5    1    3    3    0  502  0.15865888260E+02  0.77328118311E+02 -0.53426940219E+02  0.95411082338E+02  0.41800000000E+01 0.  1.
        -11    1    1    2    0    0  0.12556437035E+02 -0.11058169303E+03  0.82050971721E+02  0.13826907429E+03  0.00000000000E+00 0. -1.
         11    1    1    2    0    0  0.60242750649E+01 -0.62134616024E+02 -0.15106179097E+02  0.64227712441E+02  0.00000000000E+00 0.  1.
</event>
<event>
 7    1  0.1226955E-005  0.2075396E+03  0.7561462E-02  0.1143529E+00
          2   -1    0    0  501    0  0.00000000000E+00  0.00000000000E+00  0.52973034065E+03  0.52973034065E+03  0.00000000000E+00 0. -1.
         -2   -1    0    0    0  501 -0.00000000000E+00 -0.00000000000E+00 -0.10306613057E+03  0.10306613057E+03  0.00000000000E+00 0.  1.
         23    2    1    2    0    0  0.13902540295E+03  0.13347607225E+03  0.11913987059E+03  0.25881509454E+03  0.12508804847E+03 0.  0.
          5    1    3    3  502    0  0.60698967661E+02 -0.64018060978E+01  0.38388880753E+01  0.61298917267E+02  0.41800000000E+01 0. -1.
         -5    1    3    3    0  502  0.78326435285E+02  0.13987787835E+03  0.11530098252E+03  0.19751617728E+03  0.41800000000E+01 0. -1.
        -11    1    1    2    0    0 -0.88339166431E+02 -0.96246534667E+02  0.27201191241E+03  0.30175765815E+03  0.00000000000E+00 0. -1.
         11    1    1    2    0    0 -0.50686236515E+02 -0.37229537587E+02  0.35512427081E+02  0.72223718530E+02  0.00000000000E+00 0.  1.
</event>
<event>
 7    1  0.1226955E-005  0.1002934E+03  0.7561462E-02  0.1279680E+00
          4   -1    0    0  501    0  0.00000000000E+00  0.00000000000E+00  0.43209682995E+03  0.43209682995E+03  0.00000000000E+00 0. -1.
         -4   -1    0    0    0  501 -0.00000000000E+00 -0.00000000000E+00 -0.33013215810E+02  0.33013215810E+02  0.00000000000E+00 0.  1.
         23    2    1    2    0    0  0.41601176333E+02  0.54594716055E+01  0.19761403681E+03  0.23761133857E+03  0.12508947587E+03 0.  0.
          5    1    3    3  502    0 -0.41269908169E+02  0.63526621414E+01  0.33444720047E+02  0.53661749278E+02  0.41800000000E+01 0. -1.
         -5    1    3    3    0  502  0.82871084503E+02 -0.89319053586E+00  0.16416931676E+03  0.18394958930E+03  0.41800000000E+01 0. -1.
        -11    1    1    2    0    0 -0.47611513471E+02 -0.25993658825E+02  0.19864380611E+03  0.20591718777E+03  0.00000000000E+00 0. -1.
         11    1    1    2    0    0  0.60103371376E+01  0.20534187219E+02  0.28257712214E+01  0.21581519415E+02  0.00000000000E+00 0.  1.
</event>
<event>
 7    1  0.1226955E-005  0.1236146E+03  0.7561462E-02  0.1237251E+00
          1   -1    0    0  501    0  0.00000000000E+00  0.00000000000E+00  0.64771228757E+03  0.64771228757E+03  0.00000000000E+00 0. -1.
         -1   -1    0    0    0  501 -0.00000000000E+00 -0.00000000000E+00 -0.29306874627E+02  0.29306874627E+02  0.00000000000E+00 0.  1.
         23    2    1    2    0    0  0.20624764983E+01 -0.75049601453E+02  0.27683153733E+03  0.31292206001E+03  0.12509124307E+03 0.  0.
          5    1    3    3  502    0 -0.49352266963E+01 -0.98321866002E+02  0.26987605942E+03  0.28730141950E+03  0.41800000000E+01 0.  1.
         -5    1    3    3    0  502  0.69977031946E+01  0.23272264549E+02  0.69554779056E+01  0.25620640510E+02  0.41800000000E+01 0.  1.
        -11    1    1    2    0    0  0.33962036484E+02  0.80715029100E+02  0.26867770950E+03  0.28258812329E+03  0.00000000000E+00 0.  1.
         11    1    1    2    0    0 -0.36024512982E+02 -0.56654276472E+01  0.72896166114E+02  0.81508978893E+02  0.00000000000E+00 0. -1.
</event>
<event>
 7    1  0.1226955E-005  0.9615196E+02  0.7561462E-02  0.1288602E+00
          2   -1    0    0  501    0  0.00000000000E+00  0.00000000000E+00  0.74360886139E+03  0.74360886139E+03  0.00000000000E+00 0. -1.
         -2   -1    0    0    0  501 -0.00000000000E+00 -0.00000000000E+00 -0.23650662328E+02  0.23650662328E+02  0.00000000000E+00 0.  1.
         23    2    1    2    0    0 -0.54389515800E+01  0.52175834304E+02  0.23795149953E+03  0.27389794988E+03  0.12508905204E+03 0.  0.
          5    1    3    3  502    0 -0.34879434686E+02  0.11980321101E+02  0.72201921740E+01  0.37811461658E+02  0.41800000000E+01 0. -1.
         -5    1    3    3    0  502  0.29440483106E+02  0.40195513203E+02  0.23073130735E+03  0.23608648822E+03  0.41800000000E+01 0. -1.
        -11    1    1    2    0    0  0.46804029097E+02 -0.41294936005E+02  0.27854435024E+03  0.28545199935E+03  0.00000000000E+00 0. -1.
         11    1    1    2    0    0 -0.41365077517E+02 -0.10880898299E+02  0.20346234929E+03  0.20790957449E+03  0.00000000000E+00 0.  1.
</event>
<event>
 7    1  0.1226955E-005  0.1059992E+03  0.7561462E-02  0.1268163E+00
         -1   -1    0    0    0  501 -0.00000000000E+00  0.00000000000E+00  0.29906252032E+02  0.29906252032E+02  0.00000000000E+00 0.  1.
          1   -1    0    0  501    0  0.00000000000E+00 -0.00000000000E+00 -0.47849678690E+03  0.47849678690E+03  0.00000000000E+00 0. -1.
         23    2    1    2    0    0  0.28831764117E+02  0.40353413728E+02 -0.25727504299E+03  0.29034093454E+03  0.12509093454E+03 0.  0.
          5    1    3    3  502    0  0.74414853792E+01  0.73097729404E+02 -0.79782154975E+02  0.10854178182E+03  0.41800000000E+01 0. -1.
         -5    1    3    3    0  502  0.21390278738E+02 -0.32744315676E+02 -0.17749288802E+03  0.18179915272E+03  0.41800000000E+01 0. -1.
        -11    1    1    2    0    0  0.80702237880E+01 -0.57722649563E+02 -0.76198024026E+02  0.95933162410E+02  0.00000000000E+00 0.  1.
         11    1    1    2    0    0 -0.36901987905E+02  0.17369235835E+02 -0.11511746785E+03  0.12212894198E+03  0.00000000000E+00 0. -1.
</event>
<event>
 7    1  0.1226955E-005  0.8200894E+02  0.7561462E-02  0.1323445E+00
          1   -1    0    0  501    0  0.00000000000E+00  0.00000000000E+00  0.70322391946E+03  0.70322391946E+03  0.00000000000E+00 0. -1.
         -1   -1    0    0    0  501 -0.00000000000E+00 -0.00000000000E+00 -0.17145710319E+02  0.17145710319E+02  0.00000000000E+00 0.  1.
         23    2    1    2    0    0 -0.19150826654E+02 -0.47782356350E+01  0.38188902877E+03  0.40233847132E+03  0.12508968589E+03 0.  0.
          5    1    3    3  502    0  0.18227913591E+02  0.19771601174E+02  0.12017857129E+02  0.29750198938E+02  0.41800000000E+01 0. -1.
         -5    1    3    3    0  502 -0.37378740245E+02 -0.24549836809E+02  0.36987117164E+03  0.37258827239E+03  0.41800000000E+01 0. -1.
        -11    1    1    2    0    0  0.55175054891E+02 -0.20924627201E+01  0.16033578477E+03  0.16957661679E+03  0.00000000000E+00 0. -1.
         11    1    1    2    0    0 -0.36024228237E+02  0.68706983551E+01  0.14385339560E+03  0.14845454167E+03  0.00000000000E+00 0.  1.
</event>
<event>
 7    1  0.1226955E-005  0.4007120E+03  0.7561462E-02  0.1043533E+00
          2   -1    0    0  501    0  0.00000000000E+00  0.00000000000E+00  0.33511624366E+03  0.33511624366E+03  0.00000000000E+00 0.  1.
         -2   -1    0    0    0  501 -0.00000000000E+00 -0.00000000000E+00 -0.55899663662E+03  0.55899663662E+03  0.00000000000E+00 0. -1.
         23    2    1    2    0    0  0.37594883772E+03  0.13752328123E+03 -0.23970628196E+03  0.48306820819E+03  0.12508241560E+03 0.  0.
          5    1    3    3  502    0  0.30498925404E+03  0.10642733616E+03 -0.12894383360E+03  0.34783502927E+03  0.41800000000E+01 0. -1.
         -5    1    3    3    0  502  0.70959583674E+02  0.31095945073E+02 -0.11076244836E+03  0.13523317892E+03  0.41800000000E+01 0. -1.
        -11    1    1    2    0    0 -0.14155212779E+03 -0.41788294064E+02  0.49389622166E+02  0.15563611785E+03  0.00000000000E+00 0.  1.
         11    1    1    2    0    0 -0.23439670993E+03 -0.95734987170E+02 -0.33563733170E+02  0.25540855424E+03  0.00000000000E+00 0. -1.
</event>
<event>
 7    1  0.1226955E-005  0.1597559E+03  0.7561462E-02  0.1188973E+00
          3   -1    0    0  501    0  0.00000000000E+00  0.00000000000E+00  0.87438934424E+02  0.87438934424E+02  0.00000000000E+00 0. -1.
         -3   -1    0    0    0  501 -0.00000000000E+00 -0.00000000000E+00 -0.37384949323E+03  0.37384949323E+03  0.00000000000E+00 0.  1.
         23    2    1    2    0    0 -0.36300389846E+02 -0.13315623751E+03 -0.20440647964E+03  0.27655829090E+03  0.12511665539E+03 0.  0.
          5    1    3    3  502    0 -0.31316568475E+02  0.13731881293E+02 -0.17169969772E+02  0.38491197525E+02  0.41800000000E+01 0. -1.
         -5    1    3    3    0  502 -0.49838213704E+01 -0.14688811880E+03 -0.18723650987E+03  0.23806709338E+03  0.41800000000E+01 0. -1.
        -11    1    1    2    0    0  0.17055873201E+02  0.66381557514E+02 -0.91786929475E+02  0.11455240902E+03  0.00000000000E+00 0.  1.
         11    1    1    2    0    0  0.19244516645E+02  0.66774679995E+02  0.97828503157E+01  0.70177727732E+02  0.00000000000E+00 0. -1.
</event>
<event>
 7    1  0.1226955E-005  0.1201026E+03  0.7561462E-02  0.1242928E+00
          3   -1    0    0  501    0  0.00000000000E+00  0.00000000000E+00  0.31763857611E+03  0.31763857611E+03  0.00000000000E+00 0. -1.
         -3   -1    0    0    0  501 -0.00000000000E+00 -0.00000000000E+00 -0.67257044449E+02  0.67257044449E+02  0.00000000000E+00 0.  1.
         23    2    1    2    0    0 -0.54928151781E+02 -0.82467357280E+02  0.12160888420E+03  0.20063582391E+03  0.12509215101E+03 0.  0.
          5    1    3    3  502    0 -0.27953470063E+02 -0.89266184073E+02  0.20720748714E+02  0.95899269730E+02  0.41800000000E+01 0.  1.
         -5    1    3    3    0  502 -0.26974681718E+02  0.67988267927E+01  0.10088813549E+03  0.10473655418E+03  0.41800000000E+01 0.  1.
        -11    1    1    2    0    0 -0.11919463931E+02  0.33555412624E+02  0.59297416143E+01  0.36099877733E+02  0.00000000000E+00 0.  1.
         11    1    1    2    0    0  0.66847615712E+02  0.48911944656E+02  0.12284290584E+03  0.14815991891E+03  0.00000000000E+00 0. -1.
</event>
<event>
 7    1  0.1226955E-005  0.2335547E+03  0.7561462E-02  0.1124163E+00
          2   -1    0    0  501    0  0.00000000000E+00  0.00000000000E+00  0.38754657648E+03  0.38754657648E+03  0.00000000000E+00 0. -1.
         -2   -1    0    0    0  501 -0.00000000000E+00 -0.00000000000E+00 -0.15964415369E+03  0.15964415369E+03  0.00000000000E+00 0.  1.
         23    2    1    2    0    0  0.10909282564E+03  0.19483156401E+03  0.12941401858E+03  0.28680325181E+03  0.12509010393E+03 0.  0.
          5    1    3    3  502    0  0.57595985232E+02  0.14743401955E+03  0.23922703717E+02  0.16013699070E+03  0.41800000000E+01 0.  1.
         -5    1    3    3    0  502  0.51496840405E+02  0.47397544459E+02  0.10549131486E+03  0.12666626111E+03  0.41800000000E+01 0.  1.
        -11    1    1    2    0    0 -0.95419967312E+02 -0.84428613932E+02  0.34277335482E+02  0.13193974663E+03  0.00000000000E+00 0.  1.
         11    1    1    2    0    0 -0.13672858325E+02 -0.11040295008E+03  0.64211068734E+02  0.12844773174E+03  0.00000000000E+00 0. -1.
</event>
<event>
 7    1  0.1226955E-005  0.1092496E+03  0.7561462E-02  0.1261966E+00
          2   -1    0    0  501    0  0.00000000000E+00  0.00000000000E+00  0.65928221827E+03  0.65928221827E+03  0.00000000000E+00 0. -1.
         -2   -1    0    0    0  501 -0.00000000000E+00 -0.00000000000E+00 -0.20153980467E+02  0.20153980467E+02  0.00000000000E+00 0.  1.
         23    2    1    2    0    0 -0.10151678608E+02 -0.14875390518E+02  0.44273377807E+03  0.46042106304E+03  0.12510005285E+03 0.  0.
          5    1    3    3  502    0 -0.60069054798E+02  0.21821182436E+02  0.21036778720E+03  0.21990119063E+03  0.41800000000E+01 0.  1.
         -5    1    3    3    0  502  0.49917376190E+02 -0.36696572954E+02  0.23236599088E+03  0.24051987242E+03  0.41800000000E+01 0.  1.
        -11    1    1    2    0    0  0.46563417274E+02 -0.10805213342E+02  0.13457139628E+03  0.14280884133E+03  0.00000000000E+00 0. -1.
         11    1    1    2    0    0 -0.36411738666E+02  0.25680603860E+02  0.61823063446E+02  0.76206294367E+02  0.00000000000E+00 0.  1.
</event>
<event>
 7    1  0.1226955E-005  0.1721585E+03  0.7561462E-02  0.1175615E+00
          1   -1    0    0  501    0  0.00000000000E+00  0.00000000000E+00  0.75318104453E+03  0.75318104453E+03  0.00000000000E+00 0. -1.
         -1   -1    0    0    0  501 -0.00000000000E+00 -0.00000000000E+00 -0.53864013527E+02  0.53864013527E+02  0.00000000000E+00 0.  1.
         23    2    1    2    0    0  0.12962372753E+03  0.84452191973E+02  0.22760807583E+03  0.30230268997E+03  0.12508795593E+03 0.  0.
          5    1    3    3  502    0  0.23123338408E+02  0.51987639510E+02  0.10127813739E+02  0.57943493613E+02  0.41800000000E+01 0.  1.
         -5    1    3    3    0  502  0.10650038912E+03  0.32464552463E+02  0.21748026209E+03  0.24435919636E+03  0.41800000000E+01 0.  1.
        -11    1    1    2    0    0  0.94062920872E+01  0.48754153607E+01  0.63072033759E+02  0.63955683472E+02  0.00000000000E+00 0. -1.
         11    1    1    2    0    0 -0.13903001961E+03 -0.89327607334E+02  0.40863692142E+03  0.44078668461E+03  0.00000000000E+00 0.  1.
</event>
<event>
 7    1  0.1226955E-005  0.1445817E+03  0.7561462E-02  0.1207294E+00
         -1   -1    0    0    0  501 -0.00000000000E+00  0.00000000000E+00  0.33455639577E+03  0.33455639577E+03  0.00000000000E+00 0.  1.
          1   -1    0    0  501    0  0.00000000000E+00 -0.00000000000E+00 -0.91075516139E+02  0.91075516139E+02  0.00000000000E+00 0. -1.
         23    2    1    2    0    0 -0.12666945826E+03 -0.10195009955E+01  0.18837760702E+03  0.25919177412E+03  0.12509221362E+03 0.  0.
          5    1    3    3  502    0 -0.78215175707E+02  0.23719534166E+02  0.18754174159E+03  0.20462064229E+03  0.41800000000E+01 0.  1.
         -5    1    3    3    0  502 -0.48454282552E+02 -0.24739035162E+02  0.83586542687E+00  0.54571131831E+02  0.41800000000E+01 0.  1.
        -11    1    1    2    0    0  0.28009472384E+02  0.38163277916E+02 -0.31704742769E+00  0.47339907516E+02  0.00000000000E+00 0. -1.
         11    1    1    2    0    0  0.98659985875E+02 -0.37143776921E+02  0.55420320036E+02  0.11910023027E+03  0.00000000000E+00 0.  1.
</event>
<event>
 7    1  0.1226955E-005  0.1308563E+03  0.7561462E-02  0.1226191E+00
         -4   -1    0    0    0  501 -0.00000000000E+00  0.00000000000E+00  0.67534147450E+02  0.67534147450E+02  0.00000000000E+00 0.  1.
          4   -1    0    0  501    0  0.00000000000E+00 -0.00000000000E+00 -0.37865039372E+03  0.37865039372E+03  0.00000000000E+00 0. -1.
         23    2    1    2    0    0  0.11006537008E+02  0.11606301582E+03 -0.15689930601E+03  0.23206644476E+03  0.12508267289E+03 0.  0.
          5    1    3    3  502    0  0.13006756096E+02  0.38073134980E+02 -0.14800658283E+03  0.15343454719E+03  0.41800000000E+01 0.  1.
         -5    1    3    3    0  502 -0.20002190888E+01  0.77989880836E+02 -0.88927231850E+01  0.78631897566E+02  0.41800000000E+01 0.  1.
        -11    1    1    2    0    0  0.29344654852E+02 -0.91045626961E+02 -0.74143474175E+02  0.12102755769E+03  0.00000000000E+00 0.  1.
         11    1    1    2    0    0 -0.40351191860E+02 -0.25017388855E+02 -0.80073466086E+02  0.93090538728E+02  0.00000000000E+00 0. -1.
</event>
<event>
 7    1  0.1226955E-005  0.9864298E+02  0.7561462E-02  0.1283176E+00
          1   -1    0    0  501    0  0.00000000000E+00  0.00000000000E+00  0.27174793548E+03  0.27174793548E+03  0.00000000000E+00 0. -1.
         -1   -1    0    0    0  501 -0.00000000000E+00 -0.00000000000E+00 -0.44575121367E+02  0.44575121367E+02  0.00000000000E+00 0.  1.
         23    2    1    2    0    0 -0.58902476188E+01  0.81831294906E+01  0.11562050394E+03  0.17063581979E+03  0.12508726330E+03 0.  0.
          5    1    3    3  502    0  0.34910186876E+02 -0.32267506923E+02  0.77496124305E+01  0.48347099639E+02  0.41800000000E+01 0.  1.
         -5    1    3    3    0  502 -0.40800434494E+02  0.40450636413E+02  0.10787089151E+03  0.12228872015E+03  0.41800000000E+01 0.  1.
        -11    1    1    2    0    0  0.48684112010E+02 -0.66591119136E+01  0.45494212875E+02  0.66964243734E+02  0.00000000000E+00 0. -1.
         11    1    1    2    0    0 -0.42793864391E+02 -0.15240175770E+01  0.66058097296E+02  0.78722993321E+02  0.00000000000E+00 0.  1.
</event>
<event>
 7    1  0.1226955E-005  0.1596849E+03  0.7561462E-02  0.1189053E+00
          1   -1    0    0  501    0  0.00000000000E+00  0.00000000000E+00  0.17356708449E+03  0.17356708449E+03  0.00000000000E+00 0. -1.
         -1   -1    0    0    0  501 -0.00000000000E+00 -0.00000000000E+00 -0.29221952005E+03  0.29221952005E+03  0.00000000000E+00 0.  1.
         23    2    1    2    0    0  0.12639004145E+03  0.17605803306E+02 -0.21715032632E+03  0.28122309044E+03  0.12509098884E+03 0.  0.
          5    1    3    3  502    0  0.66669582096E+02 -0.52522293918E+02 -0.85970386450E+02  0.12087929633E+03  0.41800000000E+01 0.  1.
         -5    1    3    3    0  502  0.59720459353E+02  0.70128097224E+02 -0.13117993987E+03  0.16034379411E+03  0.41800000000E+01 0.  1.
        -11    1    1    2    0    0 -0.95880130561E+02  0.15547473659E+02  0.28336951575E+02  0.10118155068E+03  0.00000000000E+00 0.  1.
         11    1    1    2    0    0 -0.30509910887E+02 -0.33153276965E+02  0.70160939189E+02  0.83381963420E+02  0.00000000000E+00 0. -1.
</event>
<event>
 7    1  0.1226955E-005  0.9229073E+02  0.7561462E-02  0.1297397E+00
         -1   -1    0    0    0  501 -0.00000000000E+00  0.00000000000E+00  0.38389098794E+03  0.38389098794E+03  0.00000000000E+00 0.  1.
          1   -1    0    0  501    0  0.00000000000E+00 -0.00000000000E+00 -0.45752005339E+02  0.45752005339E+02  0.00000000000E+00 0. -1.
         23    2    1    2    0    0  0.63010089110E+02  0.46555335679E+02  0.19055098930E+03  0.24102705133E+03  0.12508672728E+03 0.  0.
          5    1    3    3  502    0  0.23595585095E+02 -0.64805651546E+01 -0.12256990510E+02  0.27684934117E+02  0.41800000000E+01 0. -1.
         -5    1    3    3    0  502  0.39414504015E+02  0.53035900834E+02  0.20280797981E+03  0.21334211721E+03  0.41800000000E+01 0. -1.
        -11    1    1    2    0    0 -0.18290413021E+02 -0.45252242871E+02  0.18844175953E+02  0.52320241406E+02  0.00000000000E+00 0.  1.
         11    1    1    2    0    0 -0.44719676089E+02 -0.13030928078E+01  0.12874381735E+03  0.13629570054E+03  0.00000000000E+00 0. -1.
</event>
<event>
 7    1  0.1226955E-005  0.1543071E+03  0.7561462E-02  0.1195278E+00
          2   -1    0    0  501    0  0.00000000000E+00  0.00000000000E+00  0.51345394624E+02  0.51345394624E+02  0.00000000000E+00 0. -1.
         -2   -1    0    0    0  501 -0.00000000000E+00 -0.00000000000E+00 -0.59592255321E+03  0.59592255321E+03  0.00000000000E+00 0.  1.
         23    2    1    2    0    0  0.42762662244E+02 -0.12909329229E+03 -0.30545382512E+03  0.35699208431E+03  0.12509030973E+03 0.  0.
          5    1    3    3  502    0  0.28793781610E+02 -0.21773981870E+02 -0.38651184538E+01  0.36545857311E+02  0.41800000000E+01 0.  1.
         -5    1    3    3    0  502  0.13968880634E+02 -0.10731931042E+03 -0.30158870666E+03  0.32044622700E+03  0.41800000000E+01 0.  1.
        -11    1    1    2    0    0  0.28427937897E+01  0.11666466016E+03 -0.15866995454E+03  0.19696415634E+03  0.00000000000E+00 0.  1.
         11    1    1    2    0    0 -0.45605456034E+02  0.12428632127E+02 -0.80453378929E+02  0.93311707185E+02  0.00000000000E+00 0. -1.
</event>
<event>
 7    1  0.1226955E-005  0.1292061E+03  0.7561462E-02  0.1228639E+00
         -1   -1    0    0    0  501 -0.00000000000E+00  0.00000000000E+00  0.46905887629E+02  0.46905887629E+02  0.00000000000E+00 0.  1.
          1   -1    0    0  501    0  0.00000000000E+00 -0.00000000000E+00 -0.55356677192E+03  0.55356677192E+03  0.00000000000E+00 0. -1.
         23    2    1    2    0    0  0.11931030752E+03 -0.50006014046E+01 -0.27549158684E+03  0.32527053919E+03  0.12508138852E+03 0.  0.
          5    1    3    3  502    0  0.67931172222E+02  0.23426066212E+02 -0.39616405115E+02  0.82160554354E+02  0.41800000000E+01 0. -1.
         -5    1    3    3    0  502  0.51379135294E+02 -0.28426667617E+02 -0.23587518172E+03  0.24310998484E+03  0.41800000000E+01 0. -1.
        -11    1    1    2    0    0 -0.27873555655E+02 -0.18127844150E+02 -0.14046863937E+03  0.14435024241E+03  0.00000000000E+00 0. -1.
         11    1    1    2    0    0 -0.91436751861E+02  0.23128445554E+02 -0.90700658087E+02  0.13085187795E+03  0.00000000000E+00 0.  1.
</event>
<event>
 7    1  0.1226955E-005  0.1678520E+03  0.7561462E-02  0.1180107E+00
         -1   -1    0    0    0  501 -0.00000000000E+00  0.00000000000E+00  0.10911135422E+03  0.10911135422E+03  0.00000000000E+00 0.  1.
          1   -1    0    0  501    0  0.00000000000E+00 -0.00000000000E+00 -0.34226221003E+03  0.34226221003E+03  0.00000000000E+00 0. -1.
         23    2    1    2    0    0  0.15179524139E+03  0.25960334230E+02 -0.58228753603E+02  0.20676998674E+03  0.12508998924E+03 0.  0.
          5    1    3    3  502    0  0.12568972281E+03  0.45401063551E+02 -0.89936973371E+02  0.16113750206E+03  0.41800000000E+01 0. -1.
         -5    1    3    3    0  502  0.26105518586E+02 -0.19440729321E+02  0.31708219768E+02  0.45632484679E+02  0.41800000000E+01 0. -1.
        -11    1    1    2    0    0 -0.71122143744E+02  0.23081924563E+02 -0.95070236695E+02  0.12095240584E+03  0.00000000000E+00 0. -1.
         11    1    1    2    0    0 -0.80673097650E+02 -0.49042258793E+02 -0.79851865509E+02  0.12365117168E+03  0.00000000000E+00 0.  1.
</event>
<event>
 7    1  0.1226955E-005  0.1260865E+03  0.7561462E-02  0.1233381E+00
         -1   -1    0    0    0  501 -0.00000000000E+00  0.00000000000E+00  0.41984829815E+02  0.41984829815E+02  0.00000000000E+00 0.  1.
          1   -1    0    0  501    0  0.00000000000E+00 -0.00000000000E+00 -0.57040043514E+03  0.57040043514E+03  0.00000000000E+00 0. -1.
         23    2    1    2    0    0  0.85772661864E+02  0.46908344978E+02 -0.18557850422E+03  0.24422191751E+03  0.12509045293E+03 0.  0.
          5    1    3    3  502    0  0.87615321100E+02 -0.17615112945E+02 -0.13570556005E+03  0.16254294240E+03  0.41800000000E+01 0.  1.
         -5    1    3    3    0  502 -0.18426592361E+01  0.64523457923E+02 -0.49872944173E+02  0.81678975115E+02  0.41800000000E+01 0.  1.
        -11    1    1    2    0    0 -0.32647440615E+02 -0.13945812711E+02 -0.23063389095E+02  0.42335103489E+02  0.00000000000E+00 0.  1.
         11    1    1    2    0    0 -0.53125221248E+02 -0.32962532267E+02 -0.31977371201E+03  0.32582824395E+03  0.00000000000E+00 0. -1.
</event>
<event>
 7    1  0.1226955E-005  0.1375568E+03  0.7561462E-02  0.1216655E+00
         -3   -1    0    0    0  501 -0.00000000000E+00  0.00000000000E+00  0.21199205798E+02  0.21199205798E+02  0.00000000000E+00 0.  1.
          3   -1    0    0  501    0  0.00000000000E+00 -0.00000000000E+00 -0.11731730739E+04  0.11731730739E+04  0.00000000000E+00 0. -1.
         23    2    1    2    0    0 -0.91431245291E+02  0.48338829763E+02 -0.44819285307E+03  0.47667726937E+03  0.12509224803E+03 0.  0.
          5    1    3    3  502    0 -0.10858428186E+03  0.43231887981E+02 -0.44211250147E+03  0.45731879337E+03  0.41800000000E+01 0. -1.
         -5    1    3    3    0  502  0.17153036568E+02  0.51069417822E+01 -0.60803515958E+01  0.19358476009E+02  0.41800000000E+01 0. -1.
        -11    1    1    2    0    0  0.31483971929E+02 -0.69431525962E+02 -0.34421787093E+03  0.35255910136E+03  0.00000000000E+00 0.  1.
         11    1    1    2    0    0  0.59947273362E+02  0.21092696199E+02 -0.35956314411E+03  0.36513590897E+03  0.00000000000E+00 0. -1.
</event>
<event>
 7    1  0.1226955E-005  0.1097178E+03  0.7561462E-02  0.1261093E+00
          3   -1    0    0  501    0  0.00000000000E+00  0.00000000000E+00  0.20874941274E+03  0.20874941274E+03  0.00000000000E+00 0. -1.
         -3   -1    0    0    0  501 -0.00000000000E+00 -0.00000000000E+00 -0.79666210689E+02  0.79666210689E+02  0.00000000000E+00 0.  1.
         23    2    1    2    0    0  0.25920103798E+02 -0.62572043730E+02  0.54970273506E+02  0.15250723980E+03  0.12509842039E+03 0.  0.
          5    1    3    3  502    0 -0.44217547637E+01 -0.91655418202E+02  0.12663580441E+02  0.92725974088E+02  0.41800000000E+01 0. -1.
         -5    1    3    3    0  502  0.30341858562E+02  0.29083374472E+02  0.42306693066E+02  0.59781265709E+02  0.41800000000E+01 0. -1.
        -11    1    1    2    0    0 -0.34166926696E+02  0.15439970981E+02  0.79362210480E+02  0.87773185176E+02  0.00000000000E+00 0. -1.
         11    1    1    2    0    0  0.82468228975E+01  0.47132072749E+02 -0.52492819345E+01  0.48135198456E+02  0.00000000000E+00 0.  1.
</event>
<event>
 7    1  0.1226955E-005  0.1175057E+03  0.7561462E-02  0.1247269E+00
          2   -1    0    0  501    0  0.00000000000E+00  0.00000000000E+00  0.17997351155E+03  0.17997351155E+03  0.00000000000E+00 0. -1.
         -2   -1    0    0    0  501 -0.00000000000E+00 -0.00000000000E+00 -0.77616853640E+02  0.77616853640E+02  0.00000000000E+00 0.  1.
         23    2    1    2    0    0  0.41921919330E+02 -0.17883119220E+02  0.67507199448E+02  0.14927068553E+03  0.12508901754E+03 0.  0.
          5    1    3    3  502    0  0.32515490699E+02 -0.71423952609E+02  0.38463447827E+02  0.87495984825E+02  0.41800000000E+01 0.  1.
         -5    1    3    3    0  502  0.94064286304E+01  0.53540833389E+02  0.29043751621E+02  0.61774700710E+02  0.41800000000E+01 0.  1.
        -11    1    1    2    0    0  0.28863730288E+02  0.10575255653E+02  0.16233316183E+02  0.34763076857E+02  0.00000000000E+00 0.  1.
         11    1    1    2    0    0 -0.70785649618E+02  0.73078635667E+01  0.18616142278E+02  0.73556602797E+02  0.00000000000E+00 0. -1.
</event>
<event>
 7    1  0.1226955E-005  0.9649907E+02  0.7561462E-02  0.1287835E+00
         -1   -1    0    0    0  501 -0.00000000000E+00  0.00000000000E+00  0.15475434409E+03  0.15475434409E+03  0.00000000000E+00 0.  1.
          1   -1    0    0  501    0  0.00000000000E+00 -0.00000000000E+00 -0.32392011310E+03  0.32392011310E+03  0.00000000000E+00 0. -1.
         23    2    1    2    0    0 -0.41690687472E+02 -0.42150014392E+02  0.11142693112E+03  0.17770165058E+03  0.12508868256E+03 0.  0.
          5    1    3    3  502    0 -0.18516046032E+02 -0.69758755948E+02  0.12029369342E+03  0.14034661759E+03  0.41800000000E+01 0. -1.
         -5    1    3    3    0  502 -0.23174641440E+02  0.27608741556E+02 -0.88667622947E+01  0.37355032991E+02  0.41800000000E+01 0. -1.
        -11    1    1    2    0    0 -0.10104957511E+02 -0.75638716951E+01 -0.14029060253E+01  0.12700018372E+02  0.00000000000E+00 0.  1.
         11    1    1    2    0    0  0.51795644983E+02  0.49713886087E+02 -0.27918979411E+03  0.28827278824E+03  0.00000000000E+00 0. -1.
</event>
<event>
 7    1  0.1226955E-005  0.9990623E+02  0.7561462E-02  0.1280493E+00
         -2   -1    0    0    0  501 -0.00000000000E+00  0.00000000000E+00  0.33156170419E+03  0.33156170419E+03  0.00000000000E+00 0.  1.
          2   -1    0    0  501    0  0.00000000000E+00 -0.00000000000E+00 -0.39721067192E+02  0.39721067192E+02  0.00000000000E+00 0. -1.
         23    2    1    2    0    0 -0.89039627949E+01 -0.25143215566E+02  0.20768064412E+03  0.24390770837E+03  0.12509299909E+03 0.  0.
          5    1    3    3  502    0  0.43473239828E+02  0.11805117776E+02  0.28276274350E+02  0.53350758926E+02  0.41800000000E+01 0.  1.
         -5    1    3    3    0  502 -0.52377202623E+02 -0.36948333342E+02  0.17940436977E+03  0.19055694945E+03  0.41800000000E+01 0.  1.
        -11    1    1    2    0    0 -0.14300190727E+01  0.56912000480E+02  0.72080278074E+02  0.91850896786E+02  0.00000000000E+00 0.  1.
         11    1    1    2    0    0  0.10333981868E+02 -0.31768784914E+02  0.12079714812E+02  0.35524166227E+02  0.00000000000E+00 0. -1.
</event>
<event>
 7    1  0.1226955E-005  0.1367876E+03  0.7561462E-02  0.1217718E+00
         -2   -1    0    0    0  501 -0.00000000000E+00  0.00000000000E+00  0.41574808742E+03  0.41574808742E+03  0.00000000000E+00 0.  1.
          2   -1    0    0  501    0  0.00000000000E+00 -0.00000000000E+00 -0.15871544066E+03  0.15871544066E+03  0.00000000000E+00 0. -1.
         23    2    1    2    0    0  0.94930816901E+02 -0.56339173181E+02  0.36087819850E+03  0.39757589536E+03  0.12509019141E+03 0.  0.
          5    1    3    3  502    0  0.80298426859E+02 -0.62868116845E+01  0.86548219297E+02  0.11830227395E+03  0.41800000000E+01 0. -1.
         -5    1    3    3    0  502  0.14632390042E+02 -0.50052361497E+02  0.27432997920E+03  0.27927362142E+03  0.41800000000E+01 0. -1.
        -11    1    1    2    0    0 -0.50531667593E+02  0.76630681628E+02 -0.51253810585E+02  0.10513165031E+03  0.00000000000E+00 0. -1.
         11    1    1    2    0    0 -0.44399149308E+02 -0.20291508446E+02 -0.52591741160E+02  0.71755982416E+02  0.00000000000E+00 0.  1.
</event>
<event>
 7    1  0.1226955E-005  0.8706980E+02  0.7561462E-02  0.1310107E+00
         -2   -1    0    0    0  501 -0.00000000000E+00  0.00000000000E+00  0.15182425537E+03  0.15182425537E+03  0.00000000000E+00 0.  1.
          2   -1    0    0  501    0  0.00000000000E+00 -0.00000000000E+00 -0.97688100726E+02  0.97688100726E+02  0.00000000000E+00 0. -1.
         23    2    1    2    0    0 -0.32652038647E+02  0.41118448184E+02  0.47730974588E+02  0.14381425979E+03  0.12508961977E+03 0.  0.
          5    1    3    3  502    0  0.15744049059E+02 -0.30696278214E+02  0.45281349678E+02  0.57078976914E+02  0.41800000000E+01 0.  1.
         -5    1    3    3    0  502 -0.48396087706E+02  0.71814726398E+02  0.24496249100E+01  0.86735282873E+02  0.41800000000E+01 0.  1.
        -11    1    1    2    0    0  0.13015461431E+02 -0.13034202052E+02  0.48229814295E+02  0.51627586098E+02  0.00000000000E+00 0.  1.
         11    1    1    2    0    0  0.19636577216E+02 -0.28084246132E+02 -0.41824634238E+02  0.54070510213E+02  0.00000000000E+00 0. -1.
</event>
<event>
 7    1  0.1226955E-005  0.9722621E+02  0.7561462E-02  0.1286239E+00
         -2   -1    0    0    0  501 -0.00000000000E+00  0.00000000000E+00  0.56806871408E+03  0.56806871408E+03  0.00000000000E+00 0.  1.
          2   -1    0    0  501    0  0.00000000000E+00 -0.00000000000E+00 -0.36043736320E+02  0.36043736320E+02  0.00000000000E+00 0. -1.
         23    2    1    2    0    0 -0.60169644321E+02 -0.37766616321E+02  0.41644309590E+03  0.44058828084E+03  0.12508588123E+03 0.  0.
          5    1    3    3  502    0 -0.58909359000E+02 -0.69376791693E+02  0.38556791592E+03  0.39618624660E+03  0.41800000000E+01 0.  1.
         -5    1    3    3    0  502 -0.12602853209E+01  0.31610175372E+02  0.30875179982E+02  0.44402034244E+02  0.41800000000E+01 0.  1.
        -11    1    1    2    0    0  0.39673983801E+02  0.20631167061E+02  0.12687150920E+03  0.13452155921E+03  0.00000000000E+00 0.  1.
         11    1    1    2    0    0  0.20495660520E+02  0.17135449259E+02 -0.11289627346E+02  0.29002610349E+02  0.00000000000E+00 0. -1.
</event>
<event>
 7    1  0.1226955E-005  0.1339425E+03  0.7561462E-02  0.1221720E+00
         -2   -1    0    0    0  501 -0.00000000000E+00  0.00000000000E+00  0.34784804350E+02  0.34784804350E+02  0.00000000000E+00 0.  1.
          2   -1    0    0  501    0  0.00000000000E+00 -0.00000000000E+00 -0.56571104657E+03  0.56571104657E+03  0.00000000000E+00 0. -1.
         23    2    1    2    0    0  0.57211048798E+02  0.63456301788E+02 -0.24172884151E+03  0.28527414056E+03  0.12509474854E+03 0.  0.
          5    1    3    3  502    0  0.94978285601E+02  0.40455253059E+02 -0.19575764660E+03  0.22135047061E+03  0.41800000000E+01 0. -1.
         -5    1    3    3    0  502 -0.37767236803E+02  0.23001048728E+02 -0.45971194911E+02  0.63923669950E+02  0.41800000000E+01 0. -1.
        -11    1    1    2    0    0 -0.72484415842E+02 -0.72400022961E+02 -0.27152751544E+03  0.29021189759E+03  0.00000000000E+00 0. -1.
         11    1    1    2    0    0  0.15273367044E+02  0.89437211737E+01 -0.17669885273E+02  0.25009812772E+02  0.00000000000E+00 0.  1.
</event>
<event>
 7    1  0.1226955E-005  0.1222949E+03  0.7561462E-02  0.1239359E+00
         -2   -1    0    0    0  501 -0.00000000000E+00  0.00000000000E+00  0.91716915769E+02  0.91716915769E+02  0.00000000000E+00 0.  1.
          2   -1    0    0  501    0  0.00000000000E+00 -0.00000000000E+00 -0.19489620446E+03  0.19489620446E+03  0.00000000000E+00 0. -1.
         23    2    1    2    0    0  0.26837626180E+02  0.62483383404E+02 -0.27419764788E+02  0.14499390980E+03  0.12508780515E+03 0.  0.
          5    1    3    3  502    0  0.59307694421E+01  0.99169293988E+02 -0.24807105704E+02  0.10248213400E+03  0.41800000000E+01 0. -1.
         -5    1    3    3    0  502  0.20906856737E+02 -0.36685910583E+02 -0.26126590844E+01  0.42511775798E+02  0.41800000000E+01 0. -1.
        -11    1    1    2    0    0 -0.46905401338E+02 -0.67350502909E+02 -0.23415385911E+02  0.85349207460E+02  0.00000000000E+00 0.  1.
         11    1    1    2    0    0  0.20067775159E+02  0.48671195044E+01 -0.52344137990E+02  0.56270002968E+02  0.00000000000E+00 0. -1.
</event>
<event>
 7    1  0.1226955E-005  0.1124301E+03  0.7561462E-02  0.1256135E+00
         -1   -1    0    0    0  501 -0.00000000000E+00  0.00000000000E+00  0.28921734631E+03  0.28921734631E+03  0.00000000000E+00 0.  1.
          1   -1    0    0  501    0  0.00000000000E+00 -0.00000000000E+00 -0.11233683498E+03  0.11233683498E+03  0.00000000000E+00 0. -1.
         23    2    1    2    0    0 -0.19308694224E+02  0.33452547581E+02  0.24781336900E+03  0.28029940912E+03  0.12515747794E+03 0.  0.
          5    1    3    3  502    0 -0.61387097277E+02 -0.13894514909E+02  0.15965052448E+03  0.17166011658E+03  0.41800000000E+01 0. -1.
         -5    1    3    3    0  502  0.42078403053E+02  0.47347062490E+02  0.88162844520E+02  0.10863929254E+03  0.41800000000E+01 0. -1.
        -11    1    1    2    0    0  0.46256551437E+02  0.98541131378E+01 -0.35889817485E+02  0.59370456421E+02  0.00000000000E+00 0.  1.
         11    1    1    2    0    0 -0.26947857213E+02 -0.43306660719E+02 -0.35043040179E+02  0.61884315751E+02  0.00000000000E+00 0. -1.
</event>
<event>
 7    1  0.1226955E-005  0.1856927E+03  0.7561462E-02  0.1162405E+00
          2   -1    0    0  501    0  0.00000000000E+00  0.00000000000E+00  0.49652032337E+02  0.49652032337E+02  0.00000000000E+00 0. -1.
         -2   -1    0    0    0  501 -0.00000000000E+00 -0.00000000000E+00 -0.85304502768E+03  0.85304502768E+03  0.00000000000E+00 0.  1.
         23    2    1    2    0    0 -0.69075982637E+02 -0.13738892197E+03 -0.59963126559E+03  0.63154780173E+03  0.12509102263E+03 0.  0.
          5    1    3    3  502    0  0.32009849496E+02 -0.64377982904E+02 -0.18392160152E+03  0.19751907010E+03  0.41800000000E+01 0.  1.
         -5    1    3    3    0  502 -0.10108583213E+03 -0.73010939067E+02 -0.41570966406E+03  0.43402873163E+03  0.41800000000E+01 0.  1.
        -11    1    1    2    0    0  0.24032201364E+01  0.96204512917E+02 -0.14118503348E+03  0.17086338827E+03  0.00000000000E+00 0.  1.
         11    1    1    2    0    0  0.66672762501E+02  0.41184409053E+02 -0.62576696285E+02  0.10028587002E+03  0.00000000000E+00 0. -1.
</event>
<event>
 7    1  0.1226955E-005  0.1572042E+03  0.7561462E-02  0.1191890E+00
          1   -1    0    0  501    0  0.00000000000E+00  0.00000000000E+00  0.21833840080E+03  0.21833840080E+03  0.00000000000E+00 0. -1.
         -1   -1    0    0    0  501 -0.00000000000E+00 -0.00000000000E+00 -0.26318507762E+03  0.26318507762E+03  0.00000000000E+00 0.  1.
         23    2    1    2    0    0  0.13113475362E+03  0.57285438223E+02 -0.18110923140E+03  0.26256152100E+03  0.12514013572E+03 0.  0.
          5    1    3    3  502    0  0.35356495937E+02 -0.24469351917E+02 -0.15772411125E+01  0.43229516279E+02  0.41800000000E+01 0.  1.
         -5    1    3    3    0  502  0.95778257685E+02  0.81754790140E+02 -0.17953199029E+03  0.21933200472E+03  0.41800000000E+01 0.  1.
        -11    1    1    2    0    0 -0.77256003102E+02 -0.46791364201E+02  0.23160273601E+02  0.93243337844E+02  0.00000000000E+00 0.  1.
         11    1    1    2    0    0 -0.53878750520E+02 -0.10494074021E+02  0.11310228098E+03  0.12571861958E+03  0.00000000000E+00 0. -1.
</event>
<event>
 7    1  0.1226955E-005  0.9985980E+02  0.7561462E-02  0.1280591E+00
         -1   -1    0    0    0  501 -0.00000000000E+00  0.00000000000E+00  0.48345326153E+02  0.48345326153E+02  0.00000000000E+00 0.  1.
          1   -1    0    0  501    0  0.00000000000E+00 -0.00000000000E+00 -0.48853383841E+03  0.48853383841E+03  0.00000000000E+00 0. -1.
         23    2    1    2    0    0  0.93736022726E+02  0.85711698811E+01 -0.14285603095E+03  0.21193174690E+03  0.12508921957E+03 0.  0.
          5    1    3    3  502    0  0.12848656960E+01  0.80993639792E+01 -0.11488107513E+03  0.11524922732E+03  0.41800000000E+01 0. -1.
         -5    1    3    3    0  502  0.92451157030E+02  0.47180590189E+00 -0.27974955825E+02  0.96682519570E+02  0.41800000000E+01 0. -1.
        -11    1    1    2    0    0 -0.45536262326E+02 -0.17802401867E+02 -0.40557423430E+02  0.63524651075E+02  0.00000000000E+00 0.  1.
         11    1    1    2    0    0 -0.48199760400E+02  0.92312319861E+01 -0.25677505788E+03  0.26142276660E+03  0.00000000000E+00 0. -1.
</event>
<event>
 7    1  0.1226955E-005  0.1025552E+03  0.7561462E-02  0.1275013E+00
          1   -1    0    0  501    0  0.00000000000E+00  0.00000000000E+00  0.11877928972E+03  0.11877928972E+03  0.00000000000E+00 0. -1.
         -1   -1    0    0    0  501 -0.00000000000E+00 -0.00000000000E+00 -0.17971048837E+03  0.17971048837E+03  0.00000000000E+00 0.  1.
         23    2    1    2    0    0  0.55087101529E+02 -0.75273597992E+02 -0.63308166697E+02  0.16839483174E+03  0.12509273391E+03 0.  0.
          5    1    3    3  502    0  0.67941598855E+02 -0.68899112584E+02 -0.93553720435E+02  0.13465852954E+03  0.41800000000E+01 0.  1.
         -5    1    3    3    0  502 -0.12854497326E+02 -0.63744854077E+01  0.30245553738E+02  0.33736302207E+02  0.41800000000E+01 0.  1.
        -11    1    1    2    0    0 -0.13148483568E+02  0.16175432153E+02  0.42445827462E+02  0.47288217290E+02  0.00000000000E+00 0. -1.
         11    1    1    2    0    0 -0.41938617961E+02  0.59098165838E+02 -0.40068859412E+02  0.82806729053E+02  0.00000000000E+00 0.  1.
</event>
<event>
 7    1  0.1226955E-005  0.1115748E+03  0.7561462E-02  0.1257681E+00
         -2   -1    0    0    0  501 -0.00000000000E+00  0.00000000000E+00  0.22363063530E+03  0.22363063530E+03  0.00000000000E+00 0.  1.
          2   -1    0    0  501    0  0.00000000000E+00 -0.00000000000E+00 -0.12405530721E+03  0.12405530721E+03  0.00000000000E+00 0. -1.
         23    2    1    2    0    0  0.32708861479E+02 -0.52367364937E+02  0.16683963308E+03  0.21747477038E+03  0.12509037554E+03 0.  0.
          5    1    3    3  502    0 -0.38243519879E+02 -0.54539400848E+02  0.97492348740E+02  0.11814966576E+03  0.41800000000E+01 0. -1.
         -5    1    3    3    0  502  0.70952381358E+02  0.21720359113E+01  0.69347284344E+02  0.99325104612E+02  0.41800000000E+01 0. -1.
        -11    1    1    2    0    0  0.11381497797E+02  0.36833117899E+02  0.10070910386E+02  0.39845204257E+02  0.00000000000E+00 0.  1.
         11    1    1    2    0    0 -0.44090359276E+02  0.15534247038E+02 -0.77335215385E+02  0.90365967879E+02  0.00000000000E+00 0. -1.
</event>
<event>
 7    1  0.1226955E-005  0.1015634E+03  0.7561462E-02  0.1277042E+00
         -2   -1    0    0    0  501 -0.00000000000E+00  0.00000000000E+00  0.25590740923E+02  0.25590740923E+02  0.00000000000E+00 0.  1.
          2   -1    0    0  501    0  0.00000000000E+00 -0.00000000000E+00 -0.51714356969E+03  0.51714356969E+03  0.00000000000E+00 0. -1.
         23    2    1    2    0    0  0.24094542100E+02 -0.71813773748E+01 -0.27752860326E+03  0.30545372457E+03  0.12509089930E+03 0.  0.
          5    1    3    3  502    0  0.86853274363E+01  0.52014437372E+02 -0.19851607686E+03  0.20544352455E+03  0.41800000000E+01 0.  1.
         -5    1    3    3    0  502  0.15409214664E+02 -0.59195814746E+02 -0.79012526399E+02  0.10001020002E+03  0.41800000000E+01 0.  1.
        -11    1    1    2    0    0 -0.53503848722E+02  0.19614778108E+02 -0.72584754379E+02  0.92281893763E+02  0.00000000000E+00 0.  1.
         11    1    1    2    0    0  0.29409306621E+02 -0.12433400733E+02 -0.14143947113E+03  0.14499869228E+03  0.00000000000E+00 0. -1.
</event>
<event>
 7    1  0.1226955E-005  0.1454058E+03  0.7561462E-02  0.1206235E+00
         -2   -1    0    0    0  501 -0.00000000000E+00  0.00000000000E+00  0.10268229100E+03  0.10268229100E+03  0.00000000000E+00 0. -1.
          2   -1    0    0  501    0  0.00000000000E+00 -0.00000000000E+00 -0.21826155845E+03  0.21826155845E+03  0.00000000000E+00 0.  1.
         23    2    1    2    0    0  0.98267812195E+02  0.19452231687E+02 -0.31662567468E+02  0.16335250252E+03  0.12508624892E+03 0.  0.
          5    1    3    3  502    0  0.10292549090E+03  0.58867972034E+02 -0.33862352759E+02  0.12338243855E+03  0.41800000000E+01 0. -1.
         -5    1    3    3    0  502 -0.46576787049E+01 -0.39415740347E+02  0.21997852906E+01  0.39970063965E+02  0.41800000000E+01 0. -1.
        -11    1    1    2    0    0 -0.53200258735E+02  0.33387120596E+02 -0.29651754517E+02  0.69456417250E+02  0.00000000000E+00 0. -1.
         11    1    1    2    0    0 -0.45067553460E+02 -0.52839352283E+02 -0.54264945462E+02  0.88134929684E+02  0.00000000000E+00 0.  1.
</event>
<event>
 7    1  0.1226955E-005  0.1440777E+03  0.7561462E-02  0.1207945E+00
          2   -1    0    0  501    0  0.00000000000E+00  0.00000000000E+00  0.96094039575E+03  0.96094039575E+03  0.00000000000E+00 0. -1.
         -2   -1    0    0    0  501 -0.00000000000E+00 -0.00000000000E+00 -0.21854852224E+02  0.21854852224E+02  0.00000000000E+00 0.  1.
         23    2    1    2    0    0  0.93150185422E+02 -0.20333177212E+02  0.50146989156E+03  0.52555696007E+03  0.12509065114E+03 0.  0.
          5    1    3    3  502    0  0.43764936313E+02 -0.72676966485E+02  0.25618441774E+03  0.26989857243E+03  0.41800000000E+01 0. -1.
         -5    1    3    3    0  502  0.49385249110E+02  0.52343789273E+02  0.24528547382E+03  0.25565838764E+03  0.41800000000E+01 0. -1.
        -11    1    1    2    0    0 -0.58571370236E+02  0.56296703067E+02  0.30202314176E+03  0.31275853680E+03  0.00000000000E+00 0. -1.
         11    1    1    2    0    0 -0.34578815186E+02 -0.35963525855E+02  0.13559251021E+03  0.14447975110E+03  0.00000000000E+00 0.  1.
</event>
<event>
 7    1  0.1226955E-005  0.9562202E+02  0.7561462E-02  0.1289781E+00
          1   -1    0    0  501    0  0.00000000000E+00  0.00000000000E+00  0.19945764160E+03  0.19945764160E+03  0.00000000000E+00 0. -1.
         -1   -1    0    0    0  501 -0.00000000000E+00 -0.00000000000E+00 -0.76041042371E+02  0.76041042371E+02  0.00000000000E+00 0.  1.
         23    2    1    2    0    0 -0.34615192088E+02 -0.71312889884E+01  0.16021683976E+02  0.13097095835E+03  0.12509049032E+03 0.  0.
          5    1    3    3  502    0 -0.56891178715E+01 -0.48526502535E+02  0.49942686254E+02  0.69992369732E+02  0.41800000000E+01 0. -1.
         -5    1    3    3    0  502 -0.28926074217E+02  0.41395213547E+02 -0.33921002278E+02  0.60978588617E+02  0.41800000000E+01 0. -1.
        -11    1    1    2    0    0  0.41605397012E+02  0.40128609369E+02  0.43737625743E+02  0.72486510856E+02  0.00000000000E+00 0.  1.
         11    1    1    2    0    0 -0.69902049241E+01 -0.32997320381E+02  0.63657289508E+02  0.72041214765E+02  0.00000000000E+00 0. -1.
</event>
<event>
 7    1  0.1226955E-005  0.1078318E+03  0.7561462E-02  0.1264639E+00
         -2   -1    0    0    0  501 -0.00000000000E+00  0.00000000000E+00  0.57156872267E+03  0.57156872267E+03  0.00000000000E+00 0.  1.
          2   -1    0    0  501    0  0.00000000000E+00 -0.00000000000E+00 -0.24737844348E+02  0.24737844348E+02  0.00000000000E+00 0. -1.
         23    2    1    2    0    0  0.32518749129E+02  0.74662332960E+01  0.40516552767E+03  0.42534651948E+03  0.12508934063E+03 0.  0.
          5    1    3    3  502    0  0.79636665258E+02  0.15710471901E+02  0.24411462142E+03  0.25729018281E+03  0.41800000000E+01 0.  1.
         -5    1    3    3    0  502 -0.47117916130E+02 -0.82442386048E+01  0.16105090624E+03  0.16805633666E+03  0.41800000000E+01 0.  1.
        -11    1    1    2    0    0 -0.81260658491E+01 -0.42726949604E+02  0.34430835241E+02  0.55471682722E+02  0.00000000000E+00 0. -1.
         11    1    1    2    0    0 -0.24392683280E+02  0.35260716308E+02  0.10723451542E+03  0.11548836482E+03  0.00000000000E+00 0.  1.
</event>
<event>
 7    1  0.1226955E-005  0.1021404E+03  0.7561462E-02  0.1275858E+00
         -1   -1    0    0    0  501 -0.00000000000E+00  0.00000000000E+00  0.57264316191E+02  0.57264316191E+02  0.00000000000E+00 0.  1.
          1   -1    0    0  501    0  0.00000000000E+00 -0.00000000000E+00 -0.26805257353E+03  0.26805257353E+03  0.00000000000E+00 0. -1.
         23    2    1    2    0    0  0.72088905267E+01  0.87478086035E+01 -0.40406964772E+02  0.13194435983E+03  0.12509236200E+03 0.  0.
          5    1    3    3  502    0 -0.26960565003E+02  0.58788987717E+02 -0.18900204129E+02  0.67510793642E+02  0.41800000000E+01 0.  1.
         -5    1    3    3    0  502  0.34169455530E+02 -0.50041179114E+02 -0.21506760643E+02  0.64433566187E+02  0.41800000000E+01 0.  1.
        -11    1    1    2    0    0 -0.29733567262E+02  0.24530549569E+02 -0.13305741954E+03  0.13852837175E+03  0.00000000000E+00 0. -1.
         11    1    1    2    0    0  0.22524676735E+02 -0.33278358172E+02 -0.37323873019E+02  0.54844158137E+02  0.00000000000E+00 0.  1.
</event>
<event>
 7    1  0.1226955E-005  0.8494687E+02  0.7561462E-02  0.1315572E+00
         -2   -1    0    0    0  501 -0.00000000000E+00  0.00000000000E+00  0.11460274682E+03  0.11460274682E+03  0.00000000000E+00 0. -1.
          2   -1    0    0  501    0  0.00000000000E+00 -0.00000000000E+00 -0.21671505200E+03  0.21671505200E+03  0.00000000000E+00 0.  1.
         23    2    1    2    0    0 -0.48894478316E+02  0.18626608577E+02  0.51710501132E+02  0.14511978856E+03  0.12509259190E+03 0.  0.
          5    1    3    3  502    0 -0.30681723590E+02 -0.21070526637E+02  0.83114527855E+02  0.91163766902E+02  0.41800000000E+01 0. -1.
         -5    1    3    3    0  502 -0.18212754726E+02  0.39697135214E+02 -0.31404026723E+02  0.53956021660E+02  0.41800000000E+01 0. -1.
        -11    1    1    2    0    0 -0.15569565092E+02  0.94918181371E+01 -0.88005329736E+02  0.89874601700E+02  0.00000000000E+00 0.  1.
         11    1    1    2    0    0  0.64464043408E+02 -0.28118426714E+02 -0.65817476572E+02  0.96323408555E+02  0.00000000000E+00 0. -1.
</event>
<event>
 7    1  0.1226955E-005  0.7581486E+02  0.7561462E-02  0.1341366E+00
         -1   -1    0    0    0  501 -0.00000000000E+00  0.00000000000E+00  0.52427362717E+02  0.52427362717E+02  0.00000000000E+00 0.  1.
          1   -1    0    0  501    0  0.00000000000E+00 -0.00000000000E+00 -0.26031419286E+03  0.26031419286E+03  0.00000000000E+00 0. -1.
         23    2    1    2    0    0  0.39318383538E+02  0.32192782428E+02 -0.12823124213E+03  0.18620873150E+03  0.12509248460E+03 0.  0.
          5    1    3    3  502    0  0.33157825862E+02  0.19740268608E+02 -0.15281265701E+03  0.15766515203E+03  0.41800000000E+01 0. -1.
         -5    1    3    3    0  502  0.61605576767E+01  0.12452513821E+02  0.24581414882E+02  0.28543579470E+02  0.41800000000E+01 0. -1.
        -11    1    1    2    0    0 -0.56911778374E+02 -0.48155125923E+02 -0.59762966353E+02  0.95548306200E+02  0.00000000000E+00 0.  1.
         11    1    1    2    0    0  0.17593394835E+02  0.15962343495E+02 -0.19892621658E+02  0.30984517877E+02  0.00000000000E+00 0. -1.
</event>
<event>
 7    1  0.1226955E-005  0.1116426E+03  0.7561462E-02  0.1257558E+00
         -2   -1    0    0    0  501 -0.00000000000E+00  0.00000000000E+00  0.45244681190E+02  0.45244681190E+02  0.00000000000E+00 0.  1.
          2   -1    0    0  501    0  0.00000000000E+00 -0.00000000000E+00 -0.37163287526E+03  0.37163287526E+03  0.00000000000E+00 0. -1.
         23    2    1    2    0    0 -0.45729396603E+02 -0.26930115028E+02 -0.10719342345E+03  0.17307214309E+03  0.12508848018E+03 0.  0.
          5    1    3    3  502    0  0.43274362911E+02 -0.51599397647E+01 -0.40765085922E+02  0.59821067309E+02  0.41800000000E+01 0. -1.
         -5    1    3    3    0  502 -0.89003759514E+02 -0.21770175263E+02 -0.66428337533E+02  0.11325107578E+03  0.41800000000E+01 0. -1.
        -11    1    1    2    0    0 -0.17964031633E+02  0.14032785704E+02 -0.13769028701E+03  0.13956446770E+03  0.00000000000E+00 0.  1.
         11    1    1    2    0    0  0.63693428236E+02  0.12897329323E+02 -0.81504483603E+02  0.10424094566E+03  0.00000000000E+00 0. -1.
</event>
<event>
 7    1  0.1226955E-005  0.1052320E+03  0.7561462E-02  0.1269663E+00
         -2   -1    0    0    0  501 -0.00000000000E+00  0.00000000000E+00  0.11182841112E+04  0.11182841112E+04  0.00000000000E+00 0.  1.
          2   -1    0    0  501    0  0.00000000000E+00 -0.00000000000E+00 -0.11730364031E+02  0.11730364031E+02  0.00000000000E+00 0. -1.
         23    2    1    2    0    0 -0.32578289764E+02  0.97011160310E+01  0.71660492822E+03  0.72823443214E+03  0.12508920173E+03 0.  0.
          5    1    3    3  502    0  0.39831036237E+02  0.25168652227E+02  0.41314672329E+03  0.41584571643E+03  0.41800000000E+01 0.  1.
         -5    1    3    3    0  502 -0.72409326001E+02 -0.15467536196E+02  0.30345820493E+03  0.31238871572E+03  0.41800000000E+01 0.  1.
        -11    1    1    2    0    0  0.60290308849E+02 -0.23734174324E+01  0.32822909550E+03  0.33372877249E+03  0.00000000000E+00 0. -1.
         11    1    1    2    0    0 -0.27712019085E+02 -0.73276985985E+01  0.61719723457E+02  0.68051270613E+02  0.00000000000E+00 0.  1.
</event>
<event>
 7    1  0.1226955E-005  0.1397938E+03  0.7561462E-02  0.1213607E+00
          2   -1    0    0  501    0  0.00000000000E+00  0.00000000000E+00  0.42836604157E+03  0.42836604157E+03  0.00000000000E+00 0.  1.
         -2   -1    0    0    0  501 -0.00000000000E+00 -0.00000000000E+00 -0.49193037245E+02  0.49193037245E+02  0.00000000000E+00 0. -1.
         23    2    1    2    0    0 -0.92182701688E+02 -0.28682632499E+02  0.19925331142E+03  0.25430266979E+03  0.12509045467E+03 0.  0.
          5    1    3    3  502    0  0.28702427311E+01  0.33631619666E+02  0.13702168335E+02  0.36668050832E+02  0.41800000000E+01 0.  1.
         -5    1    3    3    0  502 -0.95052944419E+02 -0.62314252165E+02  0.18555114309E+03  0.21763461895E+03  0.41800000000E+01 0.  1.
        -11    1    1    2    0    0 -0.84227776668E+01  0.30068716528E+02  0.49685898082E+02  0.58683552768E+02  0.00000000000E+00 0.  1.
         11    1    1    2    0    0  0.10060547936E+03 -0.13860840289E+01  0.13023379482E+03  0.16457285626E+03  0.00000000000E+00 0. -1.
</event>
<event>
 7    1  0.1226955E-005  0.9261053E+02  0.7561462E-02  0.1296650E+00
         -4   -1    0    0    0  501 -0.00000000000E+00  0.00000000000E+00  0.54712898949E+02  0.54712898949E+02  0.00000000000E+00 0.  1.
          4   -1    0    0  501    0  0.00000000000E+00 -0.00000000000E+00 -0.28174776913E+03  0.28174776913E+03  0.00000000000E+00 0. -1.
         23    2    1    2    0    0  0.40173801763E+02  0.19894829591E+02 -0.72142879027E+02  0.15119734279E+03  0.12508518249E+03 0.  0.
          5    1    3    3  502    0  0.59925538194E+02  0.37448987564E+02 -0.93281875564E+02  0.11710028824E+03  0.41800000000E+01 0.  1.
         -5    1    3    3    0  502 -0.19751736432E+02 -0.17554157973E+02  0.21138996537E+02  0.34097054547E+02  0.41800000000E+01 0.  1.
        -11    1    1    2    0    0 -0.22770273343E+02  0.28367013883E+02 -0.21286138009E+02  0.42145847910E+02  0.00000000000E+00 0.  1.
         11    1    1    2    0    0 -0.17403528420E+02 -0.48261843474E+02 -0.13360585314E+03  0.14311747738E+03  0.00000000000E+00 0. -1.
</event>
<event>
 7    1  0.1226955E-005  0.8393555E+02  0.7561462E-02  0.1318240E+00
         -3   -1    0    0    0  501 -0.00000000000E+00  0.00000000000E+00  0.23431970352E+02  0.23431970352E+02  0.00000000000E+00 0.  1.
          3   -1    0    0  501    0  0.00000000000E+00 -0.00000000000E+00 -0.63731023073E+03  0.63731023073E+03  0.00000000000E+00 0. -1.
         23    2    1    2    0    0 -0.52514928199E+02 -0.28550748377E+01 -0.30780613784E+03  0.33638833878E+03  0.12508607773E+03 0.  0.
          5    1    3    3  502    0 -0.66308046997E+02  0.17129111349E+02 -0.72587858309E+02  0.99883097299E+02  0.41800000000E+01 0. -1.
         -5    1    3    3    0  502  0.13793118798E+02 -0.19984186187E+02 -0.23521827953E+03  0.23650524148E+03  0.41800000000E+01 0. -1.
        -11    1    1    2    0    0  0.84816796296E+01 -0.22334376317E+02 -0.13550199740E+02  0.27465818171E+02  0.00000000000E+00 0.  1.
         11    1    1    2    0    0  0.44033248569E+02  0.25189451154E+02 -0.29252192280E+03  0.29688804413E+03  0.00000000000E+00 0. -1.
</event>
<event>
 7    1  0.1226955E-005  0.1517852E+03  0.7561462E-02  0.1198296E+00
         -2   -1    0    0    0  501 -0.00000000000E+00  0.00000000000E+00  0.14531203379E+02  0.14531203379E+02  0.00000000000E+00 0.  1.
          2   -1    0    0  501    0  0.00000000000E+00 -0.00000000000E+00 -0.16241743864E+04  0.16241743864E+04  0.00000000000E+00 0. -1.
         23    2    1    2    0    0  0.42113434378E+02 -0.98971258199E+02 -0.79587126326E+03  0.81278963215E+03  0.12508823747E+03 0.  0.
          5    1    3    3  502    0 -0.42877719368E+02 -0.25630319552E+02 -0.31550862010E+03  0.31946607622E+03  0.41800000000E+01 0.  1.
         -5    1    3    3    0  502  0.84991153747E+02 -0.73340938647E+02 -0.48036264315E+03  0.49332355593E+03  0.41800000000E+01 0.  1.
        -11    1    1    2    0    0 -0.38483264478E+02  0.11676505956E+03 -0.70608743732E+03  0.71671089703E+03  0.00000000000E+00 0.  1.
         11    1    1    2    0    0 -0.36301699001E+01 -0.17793801361E+02 -0.10768448240E+03  0.10920506055E+03  0.00000000000E+00 0. -1.
</event>
<event>
 7    1  0.1226955E-005  0.1314467E+03  0.7561462E-02  0.1225325E+00
          2   -1    0    0  501    0  0.00000000000E+00  0.00000000000E+00  0.56317404143E+03  0.56317404143E+03  0.00000000000E+00 0. -1.
         -2   -1    0    0    0  501 -0.00000000000E+00 -0.00000000000E+00 -0.30990194128E+02  0.30990194128E+02  0.00000000000E+00 0.  1.
         23    2    1    2    0    0  0.48576969169E+02  0.50012584488E+02  0.30917909695E+03  0.34073333590E+03  0.12508601705E+03 0.  0.
          5    1    3    3  502    0 -0.73159037173E+01 -0.37664184544E+02  0.70944284376E+02  0.80763092624E+02  0.41800000000E+01 0.  1.
         -5    1    3    3    0  502  0.55892872886E+02  0.87676769032E+02  0.23823481258E+03  0.25997024328E+03  0.41800000000E+01 0.  1.
        -11    1    1    2    0    0 -0.84423598243E+01 -0.73334211274E+02  0.14325408803E+03  0.16115493700E+03  0.00000000000E+00 0.  1.
         11    1    1    2    0    0 -0.40134609344E+02  0.23321626786E+02  0.79750662322E+02  0.92275962655E+02  0.00000000000E+00 0. -1.
</event>
<event>
 7    1  0.1226955E-005  0.1959070E+03  0.7561462E-02  0.1153239E+00
         -1   -1    0    0    0  501 -0.00000000000E+00  0.00000000000E+00  0.32499032959E+02  0.32499032959E+02  0.00000000000E+00 0.  1.
          1   -1    0    0  501    0  0.00000000000E+00 -0.00000000000E+00 -0.14930686802E+04  0.14930686802E+04  0.00000000000E+00 0. -1.
         23    2    1    2    0    0  0.15128218074E+02 -0.18649894562E+03 -0.59188123012E+03  0.63233717322E+03  0.12048315386E+03 0.  0.
          5    1    3    3  502    0  0.38933894435E+01 -0.10768944915E+02 -0.22535780785E+03  0.22568726728E+03  0.41800000000E+01 0. -1.
         -5    1    3    3    0  502  0.11234828631E+02 -0.17573000070E+03 -0.36652342227E+03  0.40664990593E+03  0.41800000000E+01 0.  1.
        -11    1    1    2    0    0 -0.27047568059E+02  0.18931547423E+03 -0.84702042107E+03  0.86834066669E+03  0.00000000000E+00 0. -1.
         11    1    1    2    0    0  0.11919349984E+02 -0.28165286106E+01 -0.21667996027E+02  0.24889873228E+02  0.00000000000E+00 0.  1.
</event>
<event>
 7    1  0.1226955E-005  0.1180941E+03  0.7561462E-02  0.1246275E+00
         -1   -1    0    0    0  501 -0.00000000000E+00  0.00000000000E+00  0.55092658604E+03  0.55092658604E+03  0.00000000000E+00 0.  1.
          1   -1    0    0  501    0  0.00000000000E+00 -0.00000000000E+00 -0.26341138527E+02  0.26341138527E+02  0.00000000000E+00 0. -1.
         23    2    1    2    0    0  0.30773879139E+01  0.50531816069E+02  0.33198674652E+03  0.35836503896E+03  0.12508943414E+03 0.  0.
          5    1    3    3  502    0 -0.43088066694E+02  0.71559099946E+02  0.21968158015E+03  0.23506330069E+03  0.41800000000E+01 0.  1.
         -5    1    3    3    0  502  0.46165454608E+02 -0.21027283877E+02  0.11230516637E+03  0.12330173827E+03  0.41800000000E+01 0.  1.
        -11    1    1    2    0    0  0.11113455347E+01  0.25490827822E+02  0.30155695525E+02  0.39501688123E+02  0.00000000000E+00 0. -1.
         11    1    1    2    0    0 -0.41887334487E+01 -0.76022643891E+02  0.16244300547E+03  0.17940099748E+03  0.00000000000E+00 0.  1.
</event>
<event>
 7    1  0.1226955E-005  0.1548524E+03  0.7561462E-02  0.1194634E+00
          1   -1    0    0  501    0  0.00000000000E+00  0.00000000000E+00  0.48412849309E+03  0.48412849309E+03  0.00000000000E+00 0. -1.
         -1   -1    0    0    0  501 -0.00000000000E+00 -0.00000000000E+00 -0.54574748038E+02  0.54574748038E+02  0.00000000000E+00 0.  1.
         23    2    1    2    0    0 -0.10125531196E+03  0.56639764590E+02  0.15517740408E+03  0.23062683676E+03  0.12509200600E+03 0.  0.
          5    1    3    3  502    0 -0.10659560366E+03 -0.66372992408E+01  0.10085715147E+03  0.14695684354E+03  0.41800000000E+01 0. -1.
         -5    1    3    3    0  502  0.53402916972E+01  0.63277063831E+02  0.54320252605E+02  0.83669993221E+02  0.41800000000E+01 0. -1.
        -11    1    1    2    0    0  0.54935883851E+02  0.12137824021E+02  0.93944001117E+02  0.10950229884E+03  0.00000000000E+00 0.  1.
         11    1    1    2    0    0  0.46319428112E+02 -0.68777588611E+02  0.18043233985E+03  0.19857410551E+03  0.00000000000E+00 0. -1.
</event>
<event>
 6    1  0.1226955E-005  0.1211705E+03  0.7561462E-02  0.1241179E+00
         -3   -1    0    0    0  501 -0.00000000000E+00  0.00000000000E+00  0.27864906671E+02  0.27864906671E+02  0.00000000000E+00 0.  1.
          3   -1    0    0  501    0  0.00000000000E+00 -0.00000000000E+00 -0.58074200374E+03  0.58074200374E+03  0.00000000000E+00 0. -1.
          5    1    1    2  502    0 -0.47464462984E+02  0.83969145759E+01 -0.88848256848E+02  0.10116752723E+03  0.41800000000E+01 0. -1.
         -5    1    1    2    0  502  0.91205064606E+02  0.18817213220E+02 -0.14917109934E+03  0.17590321373E+03  0.41800000000E+01 0.  1.
        -11    1    1    2    0    0  0.47878096658E+01  0.27321486292E+02 -0.12698108756E+03  0.12997531817E+03  0.00000000000E+00 0.  1.
         11    1    1    2    0    0 -0.48528411288E+02 -0.54535614088E+02 -0.18787665332E+03  0.20156085128E+03  0.00000000000E+00 0. -1.
</event>
<event>
 7    1  0.1226955E-005  0.1079697E+03  0.7561462E-02  0.1264377E+00
         -2   -1    0    0    0  501 -0.00000000000E+00  0.00000000000E+00  0.27422018376E+02  0.27422018376E+02  0.00000000000E+00 0.  1.
          2   -1    0    0  501    0  0.00000000000E+00 -0.00000000000E+00 -0.59186059575E+03  0.59186059575E+03  0.00000000000E+00 0. -1.
         23    2    1    2    0    0  0.19628671579E+02 -0.38132376930E+02 -0.29813939016E+03  0.32614886091E+03  0.12508645247E+03 0.  0.
          5    1    3    3  502    0  0.24722004475E+02 -0.73793704107E+02 -0.11161973888E+03  0.13613642708E+03  0.41800000000E+01 0.  1.
         -5    1    3    3    0  502 -0.50933328964E+01  0.35661327177E+02 -0.18651965128E+03  0.19001243383E+03  0.41800000000E+01 0.  1.
        -11    1    1    2    0    0  0.64551728885E+01  0.64397923874E+02 -0.23770700665E+03  0.24636027047E+03  0.00000000000E+00 0. -1.
         11    1    1    2    0    0 -0.26083844467E+02 -0.26265546945E+02 -0.28592180567E+02  0.46773482744E+02  0.00000000000E+00 0.  1.
</event>
<event>
 7    1  0.1226955E-005  0.9686763E+02  0.7561462E-02  0.1287024E+00
          1   -1    0    0  501    0  0.00000000000E+00  0.00000000000E+00  0.50211933641E+03  0.50211933641E+03  0.00000000000E+00 0. -1.
         -1   -1    0    0    0  501 -0.00000000000E+00 -0.00000000000E+00 -0.35070382059E+02  0.35070382059E+02  0.00000000000E+00 0.  1.
         23    2    1    2    0    0 -0.53732142456E+02 -0.48286656579E+02  0.18096356012E+03  0.23155155268E+03  0.12509822989E+03 0.  0.
          5    1    3    3  502    0 -0.61693452054E+02 -0.21463529452E+02  0.19070984667E+03  0.20162956911E+03  0.41800000000E+01 0. -1.
         -5    1    3    3    0  502  0.79613095984E+01 -0.26823127127E+02 -0.97462865506E+01  0.29921983572E+02  0.41800000000E+01 0. -1.
        -11    1    1    2    0    0  0.33872958060E+02  0.65480424455E+02  0.25225357829E+03  0.26280588090E+03  0.00000000000E+00 0. -1.
         11    1    1    2    0    0  0.19859184396E+02 -0.17193767876E+02  0.33831815937E+02  0.42832284882E+02  0.00000000000E+00 0.  1.
</event>
<event>
 7    1  0.1226955E-005  0.1217678E+03  0.7561462E-02  0.1240209E+00
          1   -1    0    0  501    0  0.00000000000E+00  0.00000000000E+00  0.30668499933E+03  0.30668499933E+03  0.00000000000E+00 0. -1.
         -1   -1    0    0    0  501 -0.00000000000E+00 -0.00000000000E+00 -0.80771942466E+02  0.80771942466E+02  0.00000000000E+00 0.  1.
         23    2    1    2    0    0 -0.48577022322E+02 -0.96133216225E+02  0.79990438228E+02  0.18343364762E+03  0.12509240790E+03 0.  0.
          5    1    3    3  502    0 -0.42637706332E+02 -0.58629364789E+02  0.11207770541E+03  0.13354497694E+03  0.41800000000E+01 0.  1.
         -5    1    3    3    0  502 -0.59393159901E+01 -0.37503851436E+02 -0.32087267183E+02  0.49888670680E+02  0.41800000000E+01 0.  1.
        -11    1    1    2    0    0 -0.20677060880E+02  0.33374390058E+02  0.12653929249E+02  0.41249396163E+02  0.00000000000E+00 0.  1.
         11    1    1    2    0    0  0.69254083202E+02  0.62758826167E+02  0.13326868939E+03  0.16277389801E+03  0.00000000000E+00 0. -1.
</event>
<event>
 7    1  0.1226955E-005  0.1912699E+03  0.7561462E-02  0.1157321E+00
          2   -1    0    0  501    0  0.00000000000E+00  0.00000000000E+00  0.12989241580E+04  0.12989241580E+04  0.00000000000E+00 0. -1.
         -2   -1    0    0    0  501 -0.00000000000E+00 -0.00000000000E+00 -0.35711767990E+02  0.35711767990E+02  0.00000000000E+00 0.  1.
         23    2    1    2    0    0 -0.47352470075E+02 -0.15965252673E+03  0.40119082090E+03  0.45203464872E+03  0.12510021243E+03 0.  0.
          5    1    3    3  502    0 -0.80996888499E+02 -0.14573943129E+03  0.28516526672E+03  0.33035916745E+03  0.41800000000E+01 0.  1.
         -5    1    3    3    0  502  0.33644418424E+02 -0.13913095435E+02  0.11602555419E+03  0.12167548126E+03  0.41800000000E+01 0.  1.
        -11    1    1    2    0    0 -0.13435806910E+02  0.66707861992E+02  0.19825507010E+03  0.20960804512E+03  0.00000000000E+00 0.  1.
         11    1    1    2    0    0  0.60788276985E+02  0.92944664736E+02  0.66376649902E+03  0.67299323217E+03  0.00000000000E+00 0. -1.
</event>
<event>
 7    1  0.1226955E-005  0.8848315E+02  0.7561462E-02  0.1306567E+00
          1   -1    0    0  501    0  0.00000000000E+00  0.00000000000E+00  0.34788830114E+02  0.34788830114E+02  0.00000000000E+00 0. -1.
         -1   -1    0    0    0  501 -0.00000000000E+00 -0.00000000000E+00 -0.43892664827E+03  0.43892664827E+03  0.00000000000E+00 0.  1.
         23    2    1    2    0    0 -0.15788899987E+02 -0.28316745823E+02 -0.32709528382E+03  0.35169575285E+03  0.12508976944E+03 0.  0.
          5    1    3    3  502    0  0.18702181567E+02 -0.61736017899E+02 -0.26668903781E+03  0.27441141155E+03  0.41800000000E+01 0.  1.
         -5    1    3    3    0  502 -0.34491081554E+02  0.33419272076E+02 -0.60406246003E+02  0.77284341293E+02  0.41800000000E+01 0.  1.
        -11    1    1    2    0    0  0.24226332992E+02  0.41740573585E+02 -0.53066683427E+01  0.48552563499E+02  0.00000000000E+00 0. -1.
         11    1    1    2    0    0 -0.84374330053E+01 -0.13423827762E+02 -0.71735866000E+02  0.73467162040E+02  0.00000000000E+00 0.  1.
</event>
<event>
 7    1  0.1226955E-005  0.1207283E+03  0.7561462E-02  0.1241900E+00
          1   -1    0    0  501    0  0.00000000000E+00  0.00000000000E+00  0.43345182037E+03  0.43345182037E+03  0.00000000000E+00 0. -1.
         -1   -1    0    0    0  501 -0.00000000000E+00 -0.00000000000E+00 -0.51977557028E+02  0.51977557028E+02  0.00000000000E+00 0.  1.
         23    2    1    2    0    0 -0.18295894147E+02 -0.10573866003E+03  0.15587005397E+03  0.22684703143E+03  0.12509475598E+03 0.  0.
          5    1    3    3  502    0  0.24613768516E+02 -0.21206486214E+02  0.12163508675E+03  0.12596872384E+03  0.41800000000E+01 0. -1.
         -5    1    3    3    0  502 -0.42909662663E+02 -0.84532173821E+02  0.34234967223E+02  0.10087830759E+03  0.41800000000E+01 0. -1.
        -11    1    1    2    0    0  0.27368738409E+02  0.47122824895E+02  0.52783532077E+02  0.75866393922E+02  0.00000000000E+00 0.  1.
         11    1    1    2    0    0 -0.90728442619E+01  0.58615835140E+02  0.17282067729E+03  0.18271595204E+03  0.00000000000E+00 0. -1.
</event>
<event>
 7    1  0.1226955E-005  0.8502465E+02  0.7561462E-02  0.1315368E+00
          4   -1    0    0  501    0  0.00000000000E+00  0.00000000000E+00  0.13986495425E+03  0.13986495425E+03  0.00000000000E+00 0. -1.
         -4   -1    0    0    0  501 -0.00000000000E+00 -0.00000000000E+00 -0.95073987289E+02  0.95073987289E+02  0.00000000000E+00 0.  1.
         23    2    1    2    0    0 -0.28267203484E+02 -0.24511327508E+02  0.21653301171E+02  0.13235276546E+03  0.12509416096E+03 0.  0.
          5    1    3    3  502    0  0.38204086813E+02  0.13861824491E+02  0.35650011447E+02  0.54222671859E+02  0.41800000000E+01 0.  1.
         -5    1    3    3    0  502 -0.66471290297E+02 -0.38373152000E+02 -0.13996710276E+02  0.78130093605E+02  0.41800000000E+01 0.  1.
        -11    1    1    2    0    0  0.33607892158E+02  0.74145069373E+01  0.55669755621E+02  0.65449117789E+02  0.00000000000E+00 0. -1.
         11    1    1    2    0    0 -0.53406886741E+01  0.17096820571E+02 -0.32532089833E+02  0.37137058285E+02  0.00000000000E+00 0.  1.
</event>
<event>
 7    1  0.1226955E-005  0.3999353E+03  0.7561462E-02  0.1043802E+00
          2   -1    0    0  501    0  0.00000000000E+00  0.00000000000E+00  0.17694879288E+04  0.17694879288E+04  0.00000000000E+00 0. -1.
         -2   -1    0    0    0  501 -0.00000000000E+00 -0.00000000000E+00 -0.92016648037E+02  0.92016648037E+02  0.00000000000E+00 0.  1.
         23    2    1    2    0    0  0.29246495597E+03  0.24995682768E+03  0.96877649565E+03  0.10498511154E+04  0.12508117296E+03 0.  0.
          5    1    3    3  502    0  0.29121100821E+03  0.19776406192E+03  0.83400309390E+03  0.90525858655E+03  0.41800000000E+01 0.  1.
         -5    1    3    3    0  502  0.12539477596E+01  0.52192765751E+02  0.13477340175E+03  0.14459252885E+03  0.41800000000E+01 0.  1.
        -11    1    1    2    0    0 -0.10524314460E+03 -0.14995376067E+03  0.34076260461E+03  0.38688680842E+03  0.00000000000E+00 0. -1.
         11    1    1    2    0    0 -0.18722181137E+03 -0.10000306700E+03  0.36793218052E+03  0.42476665303E+03  0.00000000000E+00 0.  1.
</event>
<event>
 7    1  0.1226955E-005  0.8636952E+02  0.7561462E-02  0.1311889E+00
         -3   -1    0    0    0  501 -0.00000000000E+00  0.00000000000E+00  0.15661339639E+03  0.15661339639E+03  0.00000000000E+00 0.  1.
          3   -1    0    0  501    0  0.00000000000E+00 -0.00000000000E+00 -0.86808729424E+02  0.86808729424E+02  0.00000000000E+00 0. -1.
         23    2    1    2    0    0  0.38991665965E+02  0.17494899071E+02  0.52376784346E+02  0.14219496186E+03  0.12509859364E+03 0.  0.
          5    1    3    3  502    0 -0.14026005733E+01  0.43077148893E+02  0.76932617098E+02  0.88281980147E+02  0.41800000000E+01 0.  1.
         -5    1    3    3    0  502  0.40394266538E+02 -0.25582249821E+02 -0.24555832752E+02  0.53912981713E+02  0.41800000000E+01 0.  1.
        -11    1    1    2    0    0 -0.59233989258E+02 -0.11617849360E+02 -0.15325334270E+02  0.62277650707E+02  0.00000000000E+00 0. -1.
         11    1    1    2    0    0  0.20242323293E+02 -0.58770497118E+01  0.32753216890E+02  0.38949513248E+02  0.00000000000E+00 0.  1.
</event>
<event>
 7    1  0.1226955E-005  0.6906985E+02  0.7561462E-02  0.1363285E+00
         -1   -1    0    0    0  501 -0.00000000000E+00  0.00000000000E+00  0.34222238727E+02  0.34222238727E+02  0.00000000000E+00 0.  1.
          1   -1    0    0  501    0  0.00000000000E+00 -0.00000000000E+00 -0.54969087243E+03  0.54969087243E+03  0.00000000000E+00 0. -1.
         23    2    1    2    0    0 -0.94839669939E+01 -0.12116029945E+02 -0.10829666068E+03  0.16616961030E+03  0.12508968328E+03 0.  0.
          5    1    3    3  502    0  0.10647066741E+02  0.95670189847E+01  0.25248019947E+02  0.29322735099E+02  0.41800000000E+01 0.  1.
         -5    1    3    3    0  502 -0.20131033735E+02 -0.21683048929E+02 -0.13354468062E+03  0.13684687520E+03  0.41800000000E+01 0.  1.
        -11    1    1    2    0    0 -0.35236794131E+02 -0.17864342622E+02 -0.17819748290E+03  0.18252427046E+03  0.00000000000E+00 0.  1.
         11    1    1    2    0    0  0.44720761125E+02  0.29980372566E+02 -0.22897449013E+03  0.23521923039E+03  0.00000000000E+00 0. -1.
</event>
<event>
 7    1  0.1226955E-005  0.1013953E+03  0.7561462E-02  0.1277389E+00
          2   -1    0    0  501    0  0.00000000000E+00  0.00000000000E+00  0.34218235953E+02  0.34218235953E+02  0.00000000000E+00 0. -1.
         -2   -1    0    0    0  501 -0.00000000000E+00 -0.00000000000E+00 -0.48549597462E+03  0.48549597462E+03  0.00000000000E+00 0.  1.
         23    2    1    2    0    0  0.16277781523E+02  0.18766752417E+02 -0.38330287290E+03  0.40396233641E+03  0.12508924691E+03 0.  0.
          5    1    3    3  502    0  0.46947762923E+02 -0.27088639696E+02 -0.29344788450E+03  0.29844098271E+03  0.41800000000E+01 0. -1.
         -5    1    3    3    0  502 -0.30669981400E+02  0.45855392113E+02 -0.89854988398E+02  0.10552135369E+03  0.41800000000E+01 0. -1.
        -11    1    1    2    0    0 -0.51964063721E+02  0.16470112148E+01 -0.31478902309E+02  0.60777445282E+02  0.00000000000E+00 0. -1.
         11    1    1    2    0    0  0.35686282199E+02 -0.20413763632E+02 -0.36495963458E+02  0.54974428888E+02  0.00000000000E+00 0.  1.
</event>
<event>
 7    1  0.1226955E-005  0.1583655E+03  0.7561462E-02  0.1190555E+00
          1   -1    0    0  501    0  0.00000000000E+00  0.00000000000E+00  0.11911673781E+04  0.11911673781E+04  0.00000000000E+00 0. -1.
         -1   -1    0    0    0  501 -0.00000000000E+00 -0.00000000000E+00 -0.27575958910E+02  0.27575958910E+02  0.00000000000E+00 0.  1.
         23    2    1    2    0    0  0.34380837652E+02 -0.13555794284E+03  0.48886740031E+03  0.52363860184E+03  0.12509217555E+03 0.  0.
          5    1    3    3  502    0 -0.21311928013E+01 -0.11105584730E+03  0.17946798614E+03  0.21110228244E+03  0.41800000000E+01 0.  1.
         -5    1    3    3    0  502  0.36512030453E+02 -0.24502095540E+02  0.30939941417E+03  0.31253631940E+03  0.41800000000E+01 0.  1.
        -11    1    1    2    0    0 -0.56903767848E+02  0.60560818900E+02  0.43653042188E+03  0.44436973435E+03  0.00000000000E+00 0. -1.
         11    1    1    2    0    0  0.22522930196E+02  0.74997123944E+02  0.23819359701E+03  0.25073500083E+03  0.00000000000E+00 0.  1.
</event>
<event>
 7    1  0.1226955E-005  0.1119583E+03  0.7561462E-02  0.1256986E+00
          1   -1    0    0  501    0  0.00000000000E+00  0.00000000000E+00  0.25119441918E+03  0.25119441918E+03  0.00000000000E+00 0. -1.
         -1   -1    0    0    0  501 -0.00000000000E+00 -0.00000000000E+00 -0.69290245809E+02  0.69290245809E+02  0.00000000000E+00 0.  1.
         23    2    1    2    0    0 -0.63888276841E+02  0.38512869697E+02  0.10597968620E+03  0.18011996259E+03  0.12508618623E+03 0.  0.
          5    1    3    3  502    0 -0.81094017320E+02  0.30889439621E+02  0.12553124370E+03  0.15266290535E+03  0.41800000000E+01 0.  1.
         -5    1    3    3    0  502  0.17205740479E+02  0.76234300767E+01 -0.19551557498E+02  0.27457057238E+02  0.41800000000E+01 0.  1.
        -11    1    1    2    0    0  0.87546914194E+02 -0.32121512443E+02  0.55963306143E+02  0.10875727737E+03  0.00000000000E+00 0.  1.
         11    1    1    2    0    0 -0.23658637353E+02 -0.63913572540E+01  0.19961181021E+02  0.31607425025E+02  0.00000000000E+00 0. -1.
</event>
<event>
 7    1  0.1226955E-005  0.1137353E+03  0.7561462E-02  0.1253805E+00
         -2   -1    0    0    0  501 -0.00000000000E+00  0.00000000000E+00  0.93714505637E+02  0.93714505637E+02  0.00000000000E+00 0. -1.
          2   -1    0    0  501    0  0.00000000000E+00 -0.00000000000E+00 -0.31180010960E+03  0.31180010960E+03  0.00000000000E+00 0.  1.
         23    2    1    2    0    0  0.57629961358E+02  0.14991841917E+02  0.22858189896E+02  0.14041442506E+03  0.12509095151E+03 0.  0.
          5    1    3    3  502    0 -0.22833844738E+02 -0.32301320344E+02  0.24967607463E+02  0.46963960479E+02  0.41800000000E+01 0.  1.
         -5    1    3    3    0  502  0.80463806096E+02  0.47293162261E+02 -0.21094175676E+01  0.93450464582E+02  0.41800000000E+01 0.  1.
        -11    1    1    2    0    0 -0.87859999716E+01  0.27907795501E+02 -0.21715306990E+02  0.36436155161E+02  0.00000000000E+00 0. -1.
         11    1    1    2    0    0 -0.48843961386E+02 -0.42899637418E+02 -0.21922848687E+03  0.22866403502E+03  0.00000000000E+00 0.  1.
</event>
<event>
 7    1  0.1226955E-005  0.1552906E+03  0.7561462E-02  0.1194119E+00
          2   -1    0    0  501    0  0.00000000000E+00  0.00000000000E+00  0.14282565913E+03  0.14282565913E+03  0.00000000000E+00 0. -1.
         -2   -1    0    0    0  501 -0.00000000000E+00 -0.00000000000E+00 -0.18699304791E+03  0.18699304791E+03  0.00000000000E+00 0.  1.
         23    2    1    2    0    0 -0.52670125852E+02  0.10895111757E+03 -0.50944315628E+02  0.18135006457E+03  0.12509210387E+03 0.  0.
          5    1    3    3  502    0  0.19519552314E+02 -0.16514471538E+02 -0.21290027125E+02  0.33533242428E+02  0.41800000000E+01 0.  1.
         -5    1    3    3    0  502 -0.72189678165E+02  0.12546558910E+03 -0.29654288503E+02  0.14781682215E+03  0.41800000000E+01 0.  1.
        -11    1    1    2    0    0 -0.16570883772E+02 -0.33996255749E+02  0.24271061850E+02  0.44938002150E+02  0.00000000000E+00 0. -1.
         11    1    1    2    0    0  0.69241009624E+02 -0.74954861818E+02 -0.17494135006E+02  0.10353064031E+03  0.00000000000E+00 0.  1.
</event>
<event>
 7    1  0.1226955E-005  0.1145269E+03  0.7561462E-02  0.1252409E+00
          3   -1    0    0  501    0  0.00000000000E+00  0.00000000000E+00  0.13874743999E+03  0.13874743999E+03  0.00000000000E+00 0. -1.
         -3   -1    0    0    0  501 -0.00000000000E+00 -0.00000000000E+00 -0.12311192107E+03  0.12311192107E+03  0.00000000000E+00 0.  1.
         23    2    1    2    0    0 -0.55814286833E+02  0.47138976901E+02 -0.17696780284E+01  0.14487291011E+03  0.12509080927E+03 0.  0.
          5    1    3    3  502    0  0.39092018203E+02  0.21231845290E+02 -0.10872677699E+02  0.45985483166E+02  0.41800000000E+01 0. -1.
         -5    1    3    3    0  502 -0.94906305036E+02  0.25907131611E+02  0.91029996703E+01  0.98887426940E+02  0.41800000000E+01 0. -1.
        -11    1    1    2    0    0  0.51710670095E+01 -0.32891402553E+02 -0.31002916529E+02  0.45494671438E+02  0.00000000000E+00 0.  1.
         11    1    1    2    0    0  0.50643219823E+02 -0.14247574348E+02  0.48408113469E+02  0.71491779517E+02  0.00000000000E+00 0. -1.
</event>
<event>
 7    1  0.1226955E-005  0.1816653E+03  0.7561462E-02  0.1166201E+00
          1   -1    0    0  501    0  0.00000000000E+00  0.00000000000E+00  0.19944518863E+03  0.19944518863E+03  0.00000000000E+00 0. -1.
         -1   -1    0    0    0  501 -0.00000000000E+00 -0.00000000000E+00 -0.20884900730E+03  0.20884900730E+03  0.00000000000E+00 0.  1.
         23    2    1    2    0    0 -0.83668068902E+00 -0.17106512410E+03 -0.27355951508E+02  0.21368104253E+03  0.12508902085E+03 0.  0.
          5    1    3    3  502    0 -0.25809120366E+02 -0.84291168289E+02 -0.71033820630E+02  0.11328895718E+03  0.41800000000E+01 0.  1.
         -5    1    3    3    0  502  0.24972439677E+02 -0.86773955811E+02  0.43677869123E+02  0.10039208535E+03  0.41800000000E+01 0.  1.
        -11    1    1    2    0    0 -0.25383383012E+02  0.14673964421E+03 -0.99496938171E+01  0.14925091532E+03  0.00000000000E+00 0.  1.
         11    1    1    2    0    0  0.26220063701E+02  0.24325479885E+02  0.27901826660E+02  0.45362238074E+02  0.00000000000E+00 0. -1.
</event>
<event>
 7    1  0.1226955E-005  0.1157807E+03  0.7561462E-02  0.1250224E+00
         -1   -1    0    0    0  501 -0.00000000000E+00  0.00000000000E+00  0.42493923151E+02  0.42493923151E+02  0.00000000000E+00 0.  1.
          1   -1    0    0  501    0  0.00000000000E+00 -0.00000000000E+00 -0.42488217099E+03  0.42488217099E+03  0.00000000000E+00 0. -1.
         23    2    1    2    0    0 -0.72441371194E+02  0.24461811815E+02 -0.19839924190E+03  0.24668750824E+03  0.12508531105E+03 0.  0.
          5    1    3    3  502    0 -0.60086110773E+02  0.71618296326E+02 -0.10098810365E+03  0.13767930329E+03  0.41800000000E+01 0. -1.
         -5    1    3    3    0  502 -0.12355260421E+02 -0.47156484511E+02 -0.97411138248E+02  0.10900820495E+03  0.41800000000E+01 0. -1.
        -11    1    1    2    0    0  0.11933920437E+02 -0.25914778637E+02 -0.16628415586E+01  0.28579000172E+02  0.00000000000E+00 0.  1.
         11    1    1    2    0    0  0.60507450757E+02  0.14529668225E+01 -0.18232616438E+03  0.19210958573E+03  0.00000000000E+00 0. -1.
</event>
<event>
 7    1  0.1226955E-005  0.9761999E+02  0.7561462E-02  0.1285382E+00
         -3   -1    0    0    0  501 -0.00000000000E+00  0.00000000000E+00  0.22226577726E+03  0.22226577726E+03  0.00000000000E+00 0.  1.
          3   -1    0    0  501    0  0.00000000000E+00 -0.00000000000E+00 -0.53796951586E+02  0.53796951586E+02  0.00000000000E+00 0. -1.
         23    2    1    2    0    0  0.11465295569E+02  0.99250666688E+01  0.10738905881E+03  0.16556408870E+03  0.12509635312E+03 0.  0.
          5    1    3    3  502    0  0.26923381330E+01 -0.46287296808E+02  0.30559470532E+01  0.46653764509E+02  0.41800000000E+01 0. -1.
         -5    1    3    3    0  502  0.87729574360E+01  0.56212363477E+02  0.10433311176E+03  0.11891032419E+03  0.41800000000E+01 0. -1.
        -11    1    1    2    0    0  0.77045846755E+01  0.38654653094E+02  0.31668409255E+02  0.50561160743E+02  0.00000000000E+00 0. -1.
         11    1    1    2    0    0 -0.19169880245E+02 -0.48579719763E+02  0.29411357606E+02  0.59937479402E+02  0.00000000000E+00 0.  1.
</event>
<event>
 7    1  0.1226955E-005  0.1015370E+03  0.7561462E-02  0.1277097E+00
         -1   -1    0    0    0  501 -0.00000000000E+00  0.00000000000E+00  0.36546928151E+02  0.36546928151E+02  0.00000000000E+00 0.  1.
          1   -1    0    0  501    0  0.00000000000E+00 -0.00000000000E+00 -0.44245250079E+03  0.44245250079E+03  0.00000000000E+00 0. -1.
         23    2    1    2    0    0 -0.13308766962E+02 -0.16369813318E+02 -0.10821031139E+03  0.16681763087E+03  0.12519407499E+03 0.  0.
          5    1    3    3  502    0 -0.56306246803E+02 -0.34504546873E+02 -0.98986459143E+02  0.11906615253E+03  0.41800000000E+01 0.  1.
         -5    1    3    3    0  502  0.42997479840E+02  0.18134733555E+02 -0.92238522463E+01  0.47751478344E+02  0.41800000000E+01 0.  1.
        -11    1    1    2    0    0 -0.37042260576E+02  0.14147998950E+02 -0.17698080643E+03  0.18136841177E+03  0.00000000000E+00 0. -1.
         11    1    1    2    0    0  0.50351027538E+02  0.22218143679E+01 -0.12071445481E+03  0.13081338630E+03  0.00000000000E+00 0.  1.
</event>
<event>
 7    1  0.1226955E-005  0.1010014E+03  0.7561462E-02  0.1278204E+00
         -2   -1    0    0    0  501 -0.00000000000E+00  0.00000000000E+00  0.19954063302E+02  0.19954063302E+02  0.00000000000E+00 0.  1.
          2   -1    0    0  501    0  0.00000000000E+00 -0.00000000000E+00 -0.78987764697E+03  0.78987764697E+03  0.00000000000E+00 0. -1.
         23    2    1    2    0    0  0.25802859591E+02 -0.58892115330E+02 -0.43211551573E+03  0.45442842917E+03  0.12508920615E+03 0.  0.
          5    1    3    3  502    0 -0.21821694426E+02 -0.28334151798E+02 -0.36400181319E+03  0.36577835216E+03  0.41800000000E+01 0. -1.
         -5    1    3    3    0  502  0.47624554017E+02 -0.30557963531E+02 -0.68113702544E+02  0.88650077015E+02  0.41800000000E+01 0. -1.
        -11    1    1    2    0    0 -0.18265692883E+02  0.82488055683E+02 -0.23741896353E+03  0.25200333155E+03  0.00000000000E+00 0. -1.
         11    1    1    2    0    0 -0.75371667084E+01 -0.23595940354E+02 -0.10038910440E+03  0.10339994955E+03  0.00000000000E+00 0.  1.
</event>
<event>
 7    1  0.1226955E-005  0.1229697E+03  0.7561462E-02  0.1238277E+00
         -2   -1    0    0    0  501 -0.00000000000E+00  0.00000000000E+00  0.69484883457E+02  0.69484883457E+02  0.00000000000E+00 0.  1.
          2   -1    0    0  501    0  0.00000000000E+00 -0.00000000000E+00 -0.27386747076E+03  0.27386747076E+03  0.00000000000E+00 0. -1.
         23    2    1    2    0    0 -0.52672796987E+02 -0.55546980256E+02 -0.75577261155E+02  0.16498215144E+03  0.12508915754E+03 0.  0.
          5    1    3    3  502    0 -0.36626106004E+02 -0.83277212065E+02 -0.96729844132E+01  0.91583867126E+02  0.41800000000E+01 0. -1.
         -5    1    3    3    0  502 -0.16046690982E+02  0.27730231810E+02 -0.65904276742E+02  0.73398284316E+02  0.41800000000E+01 0. -1.
        -11    1    1    2    0    0 -0.20231605550E+02  0.44418319904E+02 -0.61601297352E+02  0.78594050931E+02  0.00000000000E+00 0. -1.
         11    1    1    2    0    0  0.72904402537E+02  0.11128660351E+02 -0.67204028796E+02  0.99776151845E+02  0.00000000000E+00 0.  1.
</event>
<event>
 7    1  0.1226955E-005  0.1142292E+03  0.7561462E-02  0.1252933E+00
          1   -1    0    0  501    0  0.00000000000E+00  0.00000000000E+00  0.78172551171E+03  0.78172551171E+03  0.00000000000E+00 0. -1.
         -1   -1    0    0    0  501 -0.00000000000E+00 -0.00000000000E+00 -0.30939076669E+02  0.30939076669E+02  0.00000000000E+00 0.  1.
         23    2    1    2    0    0  0.11289447374E+02  0.65994213625E+02  0.17675054229E+03  0.22725641221E+03  0.12618254569E+03 0.  0.
          5    1    3    3  502    0 -0.37721576962E+01 -0.22804856945E+02  0.11642848225E+03  0.11877438509E+03  0.41800000000E+01 0. -1.
         -5    1    3    3    0  502  0.15061605070E+02  0.88799070570E+02  0.60322060036E+02  0.10848202712E+03  0.41800000000E+01 0.  1.
        -11    1    1    2    0    0 -0.51960380559E+02 -0.46388541495E+02  0.35406744022E+03  0.36085389031E+03  0.00000000000E+00 0.  1.
         11    1    1    2    0    0  0.40670933185E+02 -0.19605672129E+02  0.21996845253E+03  0.22455428585E+03  0.00000000000E+00 0. -1.
</event>
<event>
 7    1  0.1226955E-005  0.1046248E+03  0.7561462E-02  0.1270861E+00
          2   -1    0    0  501    0  0.00000000000E+00  0.00000000000E+00  0.76681419360E+03  0.76681419360E+03  0.00000000000E+00 0. -1.
         -2   -1    0    0    0  501 -0.00000000000E+00 -0.00000000000E+00 -0.23234360965E+02  0.23234360965E+02  0.00000000000E+00 0.  1.
         23    2    1    2    0    0  0.19498954818E+02  0.75202024151E+02  0.40011772456E+03  0.42635361029E+03  0.12509058247E+03 0.  0.
          5    1    3    3  502    0 -0.10704641020E+02 -0.19228061175E+01 -0.51125590597E+01  0.12723882382E+02  0.41800000000E+01 0. -1.
         -5    1    3    3    0  502  0.30203595839E+02  0.77124830269E+02  0.40523028362E+03  0.41362972790E+03  0.41800000000E+01 0. -1.
        -11    1    1    2    0    0  0.23019216821E+02 -0.67678174923E+02  0.16038513417E+03  0.17559501977E+03  0.00000000000E+00 0.  1.
         11    1    1    2    0    0 -0.42518171639E+02 -0.75238492282E+01  0.18307697391E+03  0.18809992451E+03  0.00000000000E+00 0. -1.
</event>
<event>
 7    1  0.1226955E-005  0.1311711E+03  0.7561462E-02  0.1225728E+00
         -1   -1    0    0    0  501 -0.00000000000E+00  0.00000000000E+00  0.20180134913E+03  0.20180134913E+03  0.00000000000E+00 0.  1.
          1   -1    0    0  501    0  0.00000000000E+00 -0.00000000000E+00 -0.10660942001E+03  0.10660942001E+03  0.00000000000E+00 0. -1.
         23    2    1    2    0    0 -0.48408483336E+02 -0.84949623168E+02  0.72043488108E+02  0.17435068194E+03  0.12509227145E+03 0.  0.
          5    1    3    3  502    0 -0.87772561456E+02 -0.38087091876E+02  0.31496974555E+02  0.10081756255E+03  0.41800000000E+01 0.  1.
         -5    1    3    3    0  502  0.39364078120E+02 -0.46862531293E+02  0.40546513553E+02  0.73533119387E+02  0.41800000000E+01 0.  1.
        -11    1    1    2    0    0  0.51254718093E+02  0.55143430247E+02  0.52773340503E+02  0.91939488219E+02  0.00000000000E+00 0.  1.
         11    1    1    2    0    0 -0.28462347570E+01  0.29806192922E+02 -0.29624899492E+02  0.42120598983E+02  0.00000000000E+00 0. -1.
</event>
<event>
 7    1  0.1226955E-005  0.1205736E+03  0.7561462E-02  0.1242154E+00
          2   -1    0    0  501    0  0.00000000000E+00  0.00000000000E+00  0.10633260033E+04  0.10633260033E+04  0.00000000000E+00 0. -1.
         -2   -1    0    0    0  501 -0.00000000000E+00 -0.00000000000E+00 -0.16862888113E+02  0.16862888113E+02  0.00000000000E+00 0.  1.
         23    2    1    2    0    0  0.75881504392E+02  0.28738669192E+02  0.66057326044E+03  0.67719154420E+03  0.12508973302E+03 0.  0.
          5    1    3    3  502    0  0.92009894313E+02 -0.79921465812E+01  0.28880060944E+03  0.30323746383E+03  0.41800000000E+01 0.  1.
         -5    1    3    3    0  502 -0.16128389921E+02  0.36730815773E+02  0.37177265100E+03  0.37395408037E+03  0.41800000000E+01 0.  1.
        -11    1    1    2    0    0 -0.17621165050E+02 -0.44623113484E+02  0.10150678433E+03  0.11227357205E+03  0.00000000000E+00 0.  1.
         11    1    1    2    0    0 -0.58260339342E+02  0.15884444292E+02  0.28438307038E+03  0.29072377514E+03  0.00000000000E+00 0. -1.
</event>
<event>
 7    1  0.1226955E-005  0.1581174E+03  0.7561462E-02  0.1190839E+00
         -2   -1    0    0    0  501 -0.00000000000E+00  0.00000000000E+00  0.22664601356E+02  0.22664601356E+02  0.00000000000E+00 0.  1.
          2   -1    0    0  501    0  0.00000000000E+00 -0.00000000000E+00 -0.12344316240E+04  0.12344316240E+04  0.00000000000E+00 0. -1.
         23    2    1    2    0    0  0.59644223166E+02  0.92551410751E+02 -0.44429498114E+03  0.47451872889E+03  0.12508715688E+03 0.  0.
          5    1    3    3  502    0  0.18687664753E+02 -0.29589921075E+02 -0.13308186958E+03  0.13767007174E+03  0.41800000000E+01 0.  1.
         -5    1    3    3    0  502  0.40956558414E+02  0.12214133183E+03 -0.31121311156E+03  0.33684865715E+03  0.41800000000E+01 0.  1.
        -11    1    1    2    0    0  0.27437249218E+02 -0.36986414676E+01 -0.10941297502E+03  0.11286133836E+03  0.00000000000E+00 0.  1.
         11    1    1    2    0    0 -0.87081472384E+02 -0.88852769283E+02 -0.65805906647E+03  0.66971615809E+03  0.00000000000E+00 0. -1.
</event>
<event>
 7    1  0.1226955E-005  0.6527674E+02  0.7561462E-02  0.1376934E+00
         -2   -1    0    0    0  501 -0.00000000000E+00  0.00000000000E+00  0.27253142994E+02  0.27253142994E+02  0.00000000000E+00 0.  1.
          2   -1    0    0  501    0  0.00000000000E+00 -0.00000000000E+00 -0.52001660557E+03  0.52001660557E+03  0.00000000000E+00 0. -1.
         23    2    1    2    0    0 -0.21332991402E+02  0.28464175912E+01 -0.17447443537E+03  0.21575736714E+03  0.12508682689E+03 0.  0.
          5    1    3    3  502    0 -0.28813415096E+02  0.25615685421E+00 -0.19299913592E+03  0.19518303556E+03  0.41800000000E+01 0.  1.
         -5    1    3    3    0  502  0.74804236938E+01  0.25902607369E+01  0.18524700550E+02  0.20574331576E+02  0.41800000000E+01 0.  1.
        -11    1    1    2    0    0 -0.63751392737E+01 -0.43126617348E+02 -0.16122716766E+03  0.16701720605E+03  0.00000000000E+00 0.  1.
         11    1    1    2    0    0  0.27708130676E+02  0.40280199757E+02 -0.15706185955E+03  0.16449517538E+03  0.00000000000E+00 0. -1.
</event>
<event>
 7    1  0.1226955E-005  0.1989709E+03  0.7561462E-02  0.1150610E+00
          2   -1    0    0  501    0  0.00000000000E+00  0.00000000000E+00  0.54730932197E+03  0.54730932197E+03  0.00000000000E+00 0. -1.
         -2   -1    0    0    0  501 -0.00000000000E+00 -0.00000000000E+00 -0.77182439704E+02  0.77182439704E+02  0.00000000000E+00 0.  1.
         23    2    1    2    0    0 -0.42819348179E+02 -0.16336776901E+03  0.18081287902E+03  0.27724640627E+03  0.12509895299E+03 0.  0.
          5    1    3    3  502    0  0.31710685221E+02 -0.25289097337E+01  0.36733275752E+02  0.48772624382E+02  0.41800000000E+01 0.  1.
         -5    1    3    3    0  502 -0.74530033400E+02 -0.16083885927E+03  0.14407960327E+03  0.22847378188E+03  0.41800000000E+01 0.  1.
        -11    1    1    2    0    0 -0.64650920894E+01 -0.79655780275E+01  0.44281754838E+01  0.11173924429E+02  0.00000000000E+00 0.  1.
         11    1    1    2    0    0  0.49284440269E+02  0.17133334704E+03  0.28488582777E+03  0.33607143098E+03  0.00000000000E+00 0. -1.
</event>
<event>
 7    1  0.1226955E-005  0.1728705E+03  0.7561462E-02  0.1174887E+00
         -2   -1    0    0    0  501 -0.00000000000E+00  0.00000000000E+00  0.54243148436E+02  0.54243148436E+02  0.00000000000E+00 0. -1.
          2   -1    0    0  501    0  0.00000000000E+00 -0.00000000000E+00 -0.59901261206E+03  0.59901261206E+03  0.00000000000E+00 0.  1.
         23    2    1    2    0    0  0.21798825665E+02  0.14051792487E+03 -0.29084145976E+03  0.34706767157E+03  0.12508692147E+03 0.  0.
          5    1    3    3  502    0 -0.37372171614E+02  0.10076302500E+03 -0.11590397099E+03  0.15811726442E+03  0.41800000000E+01 0.  1.
         -5    1    3    3    0  502  0.59170997279E+02  0.39754899871E+02 -0.17493748878E+03  0.18895040715E+03  0.41800000000E+01 0.  1.
        -11    1    1    2    0    0 -0.48019894887E+02 -0.38794764584E+02 -0.62600560433E+02  0.87919134610E+02  0.00000000000E+00 0. -1.
         11    1    1    2    0    0  0.26221069222E+02 -0.10172316028E+03 -0.19132744342E+03  0.21826895431E+03  0.00000000000E+00 0.  1.
</event>
<event>
 7    1  0.1226955E-005  0.9785817E+02  0.7561462E-02  0.1284865E+00
          1   -1    0    0  501    0  0.00000000000E+00  0.00000000000E+00  0.14162917080E+03  0.14162917080E+03  0.00000000000E+00 0. -1.
         -1   -1    0    0    0  501 -0.00000000000E+00 -0.00000000000E+00 -0.13452324825E+03  0.13452324825E+03  0.00000000000E+00 0.  1.
         23    2    1    2    0    0 -0.66300215469E+02  0.22755181182E+02 -0.36130065316E+02  0.14786753313E+03  0.12508360761E+03 0.  0.
          5    1    3    3  502    0 -0.46257284326E+01  0.15973392649E+02  0.43543386142E+02  0.46797922101E+02  0.41800000000E+01 0.  1.
         -5    1    3    3    0  502 -0.61674487036E+02  0.67817885332E+01 -0.79673451459E+02  0.10106961103E+03  0.41800000000E+01 0.  1.
        -11    1    1    2    0    0 -0.17558520768E+02 -0.27234725079E+02  0.28230199351E+02  0.42976459337E+02  0.00000000000E+00 0.  1.
         11    1    1    2    0    0  0.83858736237E+02  0.44795438973E+01  0.15005788516E+02  0.85308426582E+02  0.00000000000E+00 0. -1.
</event>
<event>
 7    1  0.1226955E-005  0.1289212E+03  0.7561462E-02  0.1229065E+00
          1   -1    0    0  501    0  0.00000000000E+00  0.00000000000E+00  0.14237352897E+03  0.14237352897E+03  0.00000000000E+00 0. -1.
         -1   -1    0    0    0  501 -0.00000000000E+00 -0.00000000000E+00 -0.22148692557E+03  0.22148692557E+03  0.00000000000E+00 0.  1.
         23    2    1    2    0    0 -0.74340839059E+02  0.44392188377E+02 -0.10462521493E+03  0.18463674465E+03  0.12508822940E+03 0.  0.
          5    1    3    3  502    0 -0.92019380746E+02 -0.91488423720E+01 -0.82255474908E+02  0.12383336910E+03  0.41800000000E+01 0. -1.
         -5    1    3    3    0  502  0.17678541687E+02  0.53541030749E+02 -0.22369740020E+02  0.60803375552E+02  0.41800000000E+01 0. -1.
        -11    1    1    2    0    0  0.24057337971E+01  0.15159606736E+02 -0.54269301952E+02  0.56398212435E+02  0.00000000000E+00 0.  1.
         11    1    1    2    0    0  0.71935105262E+02 -0.59551795114E+02  0.79781120288E+02  0.12282549745E+03  0.00000000000E+00 0. -1.
</event>
<event>
 7    1  0.1226955E-005  0.7670534E+02  0.7561462E-02  0.1338670E+00
         -1   -1    0    0    0  501 -0.00000000000E+00  0.00000000000E+00  0.20547167728E+03  0.20547167728E+03  0.00000000000E+00 0.  1.
          1   -1    0    0  501    0  0.00000000000E+00 -0.00000000000E+00 -0.57880725449E+02  0.57880725449E+02  0.00000000000E+00 0. -1.
         23    2    1    2    0    0  0.17039106361E+02 -0.39983051929E+01  0.10112359004E+03  0.16179873842E+03  0.12508610515E+03 0.  0.
          5    1    3    3  502    0 -0.51415597691E+00 -0.30656396099E+02 -0.19751486156E+02  0.36710660353E+02  0.41800000000E+01 0.  1.
         -5    1    3    3    0  502  0.17553262338E+02  0.26658090906E+02  0.12087507620E+03  0.12508807807E+03  0.41800000000E+01 0.  1.
        -11    1    1    2    0    0 -0.11733831473E+02 -0.42186075599E+02  0.21381296655E+02  0.48728919772E+02  0.00000000000E+00 0. -1.
         11    1    1    2    0    0 -0.53052748874E+01  0.46184380792E+02  0.25086065129E+02  0.52824744528E+02  0.00000000000E+00 0.  1.
</event>
<event>
 7    1  0.1226955E-005  0.1205571E+03  0.7561462E-02  0.1242181E+00
          1   -1    0    0  501    0  0.00000000000E+00  0.00000000000E+00  0.10557706169E+03  0.10557706169E+03  0.00000000000E+00 0. -1.
         -1   -1    0    0    0  501 -0.00000000000E+00 -0.00000000000E+00 -0.17932857768E+03  0.17932857768E+03  0.00000000000E+00 0.  1.
         23    2    1    2    0    0  0.66030697435E+02  0.75723945868E+01 -0.92003366121E+02  0.16890626218E+03  0.12508921561E+03 0.  0.
          5    1    3    3  502    0  0.80508523651E+02  0.43651058485E+02 -0.91898417666E+02  0.12980689064E+03  0.41800000000E+01 0.  1.
         -5    1    3    3    0  502 -0.14477826216E+02 -0.36078663898E+02 -0.10494845462E+00  0.39099371539E+02  0.41800000000E+01 0.  1.
        -11    1    1    2    0    0 -0.24116228017E+02 -0.46979977811E+02  0.24339657242E+02  0.58147482177E+02  0.00000000000E+00 0.  1.
         11    1    1    2    0    0 -0.41914469417E+02  0.39407583224E+02 -0.60878071068E+01  0.57851895021E+02  0.00000000000E+00 0. -1.
</event>
<event>
 7    1  0.1226955E-005  0.2326292E+03  0.7561462E-02  0.1124803E+00
         -2   -1    0    0    0  501 -0.00000000000E+00  0.00000000000E+00  0.10358906522E+03  0.10358906522E+03  0.00000000000E+00 0.  1.
          2   -1    0    0  501    0  0.00000000000E+00 -0.00000000000E+00 -0.68153052464E+03  0.68153052464E+03  0.00000000000E+00 0. -1.
         23    2    1    2    0    0  0.14765485708E+02  0.22267883398E+03 -0.15706442407E+03  0.30020374708E+03  0.12509665776E+03 0.  0.
          5    1    3    3  502    0  0.83434901192E+01  0.22328266603E+03 -0.17293145683E+03  0.28257304178E+03  0.41800000000E+01 0. -1.
         -5    1    3    3    0  502  0.64219955887E+01 -0.60383205333E+00  0.15867032768E+02  0.17630705300E+02  0.41800000000E+01 0. -1.
        -11    1    1    2    0    0  0.22004513636E+02 -0.15937229350E+03 -0.33798418484E+03  0.37432210162E+03  0.00000000000E+00 0.  1.
         11    1    1    2    0    0 -0.36769999344E+02 -0.63306540477E+02 -0.82892850508E+02  0.11059374116E+03  0.00000000000E+00 0. -1.
</event>
<event>
 7    1  0.1226955E-005  0.1372437E+03  0.7561462E-02  0.1217087E+00
          2   -1    0    0  501    0  0.00000000000E+00  0.00000000000E+00  0.15772533836E+03  0.15772533836E+03  0.00000000000E+00 0. -1.
         -2   -1    0    0    0  501 -0.00000000000E+00 -0.00000000000E+00 -0.14956410225E+03  0.14956410225E+03  0.00000000000E+00 0.  1.
         23    2    1    2    0    0 -0.75366601976E+02  0.70116394291E+02 -0.25161957820E+02  0.16394027630E+03  0.12508739597E+03 0.  0.
          5    1    3    3  502    0  0.30040551927E+02  0.35086209906E+02  0.98294353364E+01  0.47408512787E+02  0.41800000000E+01 0.  1.
         -5    1    3    3    0  502 -0.10540715390E+03  0.35030184385E+02 -0.34991393156E+02  0.11653176351E+03  0.41800000000E+01 0.  1.
        -11    1    1    2    0    0  0.44487939534E+02 -0.48489450362E+01 -0.24343146550E+02  0.50943869267E+02  0.00000000000E+00 0.  1.
         11    1    1    2    0    0  0.30878662442E+02 -0.65267449255E+02  0.57666340480E+02  0.92405295036E+02  0.00000000000E+00 0. -1.
</event>
<event>
 7    1  0.1226955E-005  0.6595694E+02  0.7561462E-02  0.1374408E+00
          2   -1    0    0  501    0  0.00000000000E+00  0.00000000000E+00  0.13693326641E+03  0.13693326641E+03  0.00000000000E+00 0.  1.
         -2   -1    0    0    0  501 -0.00000000000E+00 -0.00000000000E+00 -0.78912224859E+02  0.78912224859E+02  0.00000000000E+00 0. -1.
         23    2    1    2    0    0 -0.17233462823E+02 -0.96850849084E+01  0.17971125789E+02  0.12790608075E+03  0.12508481531E+03 0.  0.
          5    1    3    3  502    0 -0.41493007409E+01 -0.48953575099E+02 -0.35062667498E+02  0.60502332713E+02  0.41800000000E+01 0.  1.
         -5    1    3    3    0  502 -0.13084162082E+02  0.39268490191E+02  0.53033793286E+02  0.67403748038E+02  0.41800000000E+01 0.  1.
        -11    1    1    2    0    0  0.24368317652E+02 -0.48204401154E+01  0.58412597659E+02  0.63475058987E+02  0.00000000000E+00 0.  1.
         11    1    1    2    0    0 -0.71348548290E+01  0.14505525024E+02 -0.18362681894E+02  0.24464351534E+02  0.00000000000E+00 0. -1.
</event>
<event>
 7    1  0.1226955E-005  0.2060549E+03  0.7561462E-02  0.1144729E+00
         -2   -1    0    0    0  501 -0.00000000000E+00  0.00000000000E+00  0.34482728339E+02  0.34482728339E+02  0.00000000000E+00 0.  1.
          2   -1    0    0  501    0  0.00000000000E+00 -0.00000000000E+00 -0.15051125641E+04  0.15051125641E+04  0.00000000000E+00 0. -1.
         23    2    1    2    0    0 -0.11118238671E+03 -0.13756951330E+03 -0.44619713334E+03  0.49601086343E+03  0.12509196907E+03 0.  0.
          5    1    3    3  502    0 -0.27747390122E+02 -0.12601752961E+03 -0.22692747445E+03  0.26108214510E+03  0.41800000000E+01 0. -1.
         -5    1    3    3    0  502 -0.83434996592E+02 -0.11551983687E+02 -0.21926965889E+03  0.23492871832E+03  0.41800000000E+01 0. -1.
        -11    1    1    2    0    0 -0.59331354962E+01  0.55134340248E+02 -0.31413294396E+03  0.31898981810E+03  0.00000000000E+00 0. -1.
         11    1    1    2    0    0  0.11711552221E+03  0.82435173054E+02 -0.71029975851E+03  0.72459461096E+03  0.00000000000E+00 0.  1.
</event>
<event>
 7    1  0.1226955E-005  0.1035327E+03  0.7561462E-02  0.1273038E+00
         -1   -1    0    0    0  501 -0.00000000000E+00  0.00000000000E+00  0.95559790412E+02  0.95559790412E+02  0.00000000000E+00 0.  1.
          1   -1    0    0  501    0  0.00000000000E+00 -0.00000000000E+00 -0.14921697458E+03  0.14921697458E+03  0.00000000000E+00 0. -1.
         23    2    1    2    0    0  0.48242326094E+02  0.53306413975E+01 -0.25847731256E+02  0.13663112696E+03  0.12507686389E+03 0.  0.
          5    1    3    3  502    0 -0.36677093756E+02  0.26858133913E+02 -0.16003482500E+02  0.48375121868E+02  0.41800000000E+01 0. -1.
         -5    1    3    3    0  502  0.84919419850E+02 -0.21527492515E+02 -0.98442487551E+01  0.88256005094E+02  0.41800000000E+01 0. -1.
        -11    1    1    2    0    0 -0.23702726180E+02  0.25162100934E+02  0.24821037170E+02  0.42556250281E+02  0.00000000000E+00 0.  1.
         11    1    1    2    0    0 -0.24539599915E+02 -0.30492742332E+02 -0.52630490082E+02  0.65589387748E+02  0.00000000000E+00 0. -1.
</event>
<event>
 7    1  0.1226955E-005  0.1511711E+03  0.7561462E-02  0.1199041E+00
          2   -1    0    0  501    0  0.00000000000E+00  0.00000000000E+00  0.40727103437E+03  0.40727103437E+03  0.00000000000E+00 0. -1.
         -2   -1    0    0    0  501 -0.00000000000E+00 -0.00000000000E+00 -0.92824527957E+02  0.92824527957E+02  0.00000000000E+00 0.  1.
         23    2    1    2    0    0 -0.11965756743E+03 -0.44301738156E+02  0.44061075501E+02  0.18406350457E+03  0.12512960439E+03 0.  0.
          5    1    3    3  502    0 -0.73317135930E+02  0.61059911732E+01  0.78191046630E+02  0.10744299755E+03  0.41800000000E+01 0. -1.
         -5    1    3    3    0  502 -0.46340431496E+02 -0.50407729329E+02 -0.34129971129E+02  0.76620507024E+02  0.41800000000E+01 0. -1.
        -11    1    1    2    0    0  0.20096800459E+02 -0.29799730120E+02  0.36321783427E+02  0.51099679600E+02  0.00000000000E+00 0.  1.
         11    1    1    2    0    0  0.99560766968E+02  0.74101468276E+02  0.23406364748E+03  0.26493237815E+03  0.00000000000E+00 0. -1.
</event>
<event>
 7    1  0.1226955E-005  0.1527243E+03  0.7561462E-02  0.1197165E+00
          1   -1    0    0  501    0  0.00000000000E+00  0.00000000000E+00  0.56887875178E+02  0.56887875178E+02  0.00000000000E+00 0. -1.
         -1   -1    0    0    0  501 -0.00000000000E+00 -0.00000000000E+00 -0.50054261063E+03  0.50054261063E+03  0.00000000000E+00 0.  1.
         23    2    1    2    0    0 -0.12589457966E+03  0.31623731679E+01 -0.27965776570E+03  0.33123315312E+03  0.12508992774E+03 0.  0.
          5    1    3    3  502    0 -0.12383710524E+03 -0.21333684594E+02 -0.27930030608E+03  0.30629542620E+03  0.41800000000E+01 0. -1.
         -5    1    3    3    0  502 -0.20574744236E+01  0.24496057761E+02 -0.35745961503E+00  0.24937726926E+02  0.41800000000E+01 0. -1.
        -11    1    1    2    0    0  0.89486437697E+01 -0.32916345529E+02 -0.47403028242E+02  0.58400437625E+02  0.00000000000E+00 0.  1.
         11    1    1    2    0    0  0.11694593589E+03  0.29753972361E+02 -0.11659394151E+03  0.16779689505E+03  0.00000000000E+00 0. -1.
</event>
<event>
 7    1  0.1226955E-005  0.9087291E+02  0.7561462E-02  0.1300751E+00
         -2   -1    0    0    0  501 -0.00000000000E+00  0.00000000000E+00  0.30232244332E+02  0.30232244332E+02  0.00000000000E+00 0.  1.
          2   -1    0    0  501    0  0.00000000000E+00 -0.00000000000E+00 -0.40680450911E+03  0.40680450911E+03  0.00000000000E+00 0. -1.
         23    2    1    2    0    0 -0.19889354884E+02 -0.29870878475E+01 -0.22405720514E+03  0.25739790408E+03  0.12509013038E+03 0.  0.
          5    1    3    3  502    0  0.14261661980E+02  0.56118944093E+02 -0.94811627947E+02  0.11117305466E+03  0.41800000000E+01 0.  1.
         -5    1    3    3    0  502 -0.34151016864E+02 -0.59106031940E+02 -0.12924557719E+03  0.14622484942E+03  0.41800000000E+01 0.  1.
        -11    1    1    2    0    0  0.36751361274E+02  0.81945553797E+01 -0.15698183320E+03  0.16143453549E+03  0.00000000000E+00 0. -1.
         11    1    1    2    0    0 -0.16862006390E+02 -0.52074675323E+01  0.44667735591E+01  0.18204313874E+02  0.00000000000E+00 0.  1.
</event>
<event>
 7    1  0.1226955E-005  0.1177027E+03  0.7561462E-02  0.1246936E+00
         -2   -1    0    0    0  501 -0.00000000000E+00  0.00000000000E+00  0.83412900162E+02  0.83412900162E+02  0.00000000000E+00 0.  1.
          2   -1    0    0  501    0  0.00000000000E+00 -0.00000000000E+00 -0.22813986378E+03  0.22813986378E+03  0.00000000000E+00 0. -1.
         23    2    1    2    0    0  0.80959357413E+02 -0.11964491633E+01 -0.69742220199E+02  0.16452051819E+03  0.12508866689E+03 0.  0.
          5    1    3    3  502    0 -0.88474657016E+01  0.16735266538E+02  0.25693533487E+02  0.32186594391E+02  0.41800000000E+01 0.  1.
         -5    1    3    3    0  502  0.89806823114E+02 -0.17931715701E+02 -0.95435753686E+02  0.13233392380E+03  0.41800000000E+01 0.  1.
        -11    1    1    2    0    0 -0.10165042764E+02  0.41605553384E+02 -0.39008333926E+02  0.57930995870E+02  0.00000000000E+00 0.  1.
         11    1    1    2    0    0 -0.70794314649E+02 -0.40409104221E+02 -0.35976409489E+02  0.89101249880E+02  0.00000000000E+00 0. -1.
</event>
<event>
 6    1  0.1226955E-005  0.1520621E+03  0.7561462E-02  0.1197962E+00
          1   -1    0    0  501    0  0.00000000000E+00  0.00000000000E+00  0.42533141544E+03  0.42533141544E+03  0.00000000000E+00 0. -1.
         -1   -1    0    0    0  501 -0.00000000000E+00 -0.00000000000E+00 -0.61552471978E+02  0.61552471978E+02  0.00000000000E+00 0.  1.
          5    1    1    2  502    0 -0.77532564620E+02  0.60053086353E+01  0.11559844010E+03  0.13938376542E+03  0.41800000000E+01 0. -1.
         -5    1    1    2    0  502  0.10581119436E+03 -0.59661194978E+02  0.73729175039E+02  0.14215811862E+03  0.41800000000E+01 0.  1.
        -11    1    1    2    0    0  0.23018940854E+01 -0.22510062195E+02  0.18970706187E+02  0.29527771837E+02  0.00000000000E+00 0.  1.
         11    1    1    2    0    0 -0.30580523823E+02  0.76165948538E+02  0.15548062213E+03  0.17581423154E+03  0.00000000000E+00 0. -1.
</event>
<event>
 7    1  0.1226955E-005  0.1004948E+03  0.7561462E-02  0.1279259E+00
         -1   -1    0    0    0  501 -0.00000000000E+00  0.00000000000E+00  0.16974601663E+03  0.16974601663E+03  0.00000000000E+00 0.  1.
          1   -1    0    0  501    0  0.00000000000E+00 -0.00000000000E+00 -0.94197177705E+02  0.94197177705E+02  0.00000000000E+00 0. -1.
         23    2    1    2    0    0 -0.60323927527E+02 -0.14004164694E+02  0.64077447139E+02  0.15358259896E+03  0.12508638059E+03 0.  0.
          5    1    3    3  502    0 -0.38793989501E+02 -0.57851107919E+02  0.75950617803E+02  0.10313919262E+03  0.41800000000E+01 0.  1.
         -5    1    3    3    0  502 -0.21529938026E+02  0.43846943225E+02 -0.11873170664E+02  0.50443406340E+02  0.41800000000E+01 0.  1.
        -11    1    1    2    0    0  0.37921669981E+02 -0.18905500552E+02 -0.30731054851E+02  0.52343755478E+02  0.00000000000E+00 0. -1.
         11    1    1    2    0    0  0.22402257546E+02  0.32909665246E+02  0.42202446633E+02  0.58016839897E+02  0.00000000000E+00 0.  1.
</event>
<event>
 7    1  0.1226955E-005  0.1166832E+03  0.7561462E-02  0.1248671E+00
          1   -1    0    0  501    0  0.00000000000E+00  0.00000000000E+00  0.22416437798E+03  0.22416437798E+03  0.00000000000E+00 0. -1.
         -1   -1    0    0    0  501 -0.00000000000E+00 -0.00000000000E+00 -0.89781454070E+02  0.89781454070E+02  0.00000000000E+00 0.  1.
         23    2    1    2    0    0  0.87560386868E+02 -0.92962216483E+01  0.45957214378E+02  0.15973085887E+03  0.12509452681E+03 0.  0.
          5    1    3    3  502    0  0.34381479817E+02  0.34844495592E+02 -0.29512648644E+02  0.57312248756E+02  0.41800000000E+01 0. -1.
         -5    1    3    3    0  502  0.53178907051E+02 -0.44140717240E+02  0.75469863021E+02  0.10241861012E+03  0.41800000000E+01 0. -1.
        -11    1    1    2    0    0 -0.81382771234E+01 -0.26618058562E+02 -0.28803703401E+01  0.27983015017E+02  0.00000000000E+00 0.  1.
         11    1    1    2    0    0 -0.79422109744E+02  0.35914280211E+02  0.91306079871E+02  0.12623195816E+03  0.00000000000E+00 0. -1.
</event>
<event>
 7    1  0.1226955E-005  0.9863374E+02  0.7561462E-02  0.1283196E+00
         -2   -1    0    0    0  501 -0.00000000000E+00  0.00000000000E+00  0.10077250123E+03  0.10077250123E+03  0.00000000000E+00 0.  1.
          2   -1    0    0  501    0  0.00000000000E+00 -0.00000000000E+00 -0.18582093271E+03  0.18582093271E+03  0.00000000000E+00 0. -1.
         23    2    1    2    0    0 -0.46892236390E+02  0.68256508354E+02 -0.36727450628E+02  0.15444966445E+03  0.12509180810E+03 0.  0.
          5    1    3    3  502    0 -0.33238414684E+02  0.11840908507E+02 -0.76236974559E+02  0.84110332390E+02  0.41800000000E+01 0. -1.
         -5    1    3    3    0  502 -0.13653821706E+02  0.56415599848E+02  0.39509523930E+02  0.70339332059E+02  0.41800000000E+01 0. -1.
        -11    1    1    2    0    0 -0.12956934199E+02 -0.26266464539E+00  0.16336634602E+02  0.20852740028E+02  0.00000000000E+00 0.  1.
         11    1    1    2    0    0  0.59849170589E+02 -0.67993843709E+02 -0.64657615456E+02  0.11129102946E+03  0.00000000000E+00 0. -1.
</event>
<event>
 7    1  0.1226955E-005  0.1492894E+03  0.7561462E-02  0.1201349E+00
         -2   -1    0    0    0  501 -0.00000000000E+00  0.00000000000E+00  0.16236153432E+03  0.16236153432E+03  0.00000000000E+00 0.  1.
          2   -1    0    0  501    0  0.00000000000E+00 -0.00000000000E+00 -0.16281775711E+03  0.16281775711E+03  0.00000000000E+00 0. -1.
         23    2    1    2    0    0 -0.11164021874E+03 -0.52199193099E+02  0.45004525979E+02  0.18128124933E+03  0.12509672178E+03 0.  0.
          5    1    3    3  502    0 -0.69741155499E+02  0.35157246518E+02  0.26315820478E+02  0.82521848989E+02  0.41800000000E+01 0. -1.
         -5    1    3    3    0  502 -0.41899063244E+02 -0.87356439618E+02  0.18688705501E+02  0.98759400346E+02  0.41800000000E+01 0. -1.
        -11    1    1    2    0    0  0.49513123971E+02  0.19828563006E+02  0.10348657550E+02  0.54330618157E+02  0.00000000000E+00 0.  1.
         11    1    1    2    0    0  0.62127094772E+02  0.32370630093E+02 -0.55809406322E+02  0.89567423941E+02  0.00000000000E+00 0. -1.
</event>
<event>
 7    1  0.1226955E-005  0.1806826E+03  0.7561462E-02  0.1167144E+00
         -2   -1    0    0    0  501 -0.00000000000E+00  0.00000000000E+00  0.18484821783E+03  0.18484821783E+03  0.00000000000E+00 0.  1.
          2   -1    0    0  501    0  0.00000000000E+00 -0.00000000000E+00 -0.20257357322E+03  0.20257357322E+03  0.00000000000E+00 0. -1.
         23    2    1    2    0    0  0.10055539947E+03 -0.11985711882E+03  0.29902849598E+02  0.20159736036E+03  0.12357264259E+03 0.  0.
          5    1    3    3  502    0  0.32212114582E+02 -0.12414770915E+03  0.43899884096E+01  0.12840178508E+03  0.41800000000E+01 0. -1.
         -5    1    3    3    0  502  0.68343284886E+02  0.42905903348E+01  0.25512861189E+02  0.73195575279E+02  0.41800000000E+01 0.  1.
        -11    1    1    2    0    0 -0.51786257300E+02  0.24415251354E+02  0.18159863779E+02  0.60064145680E+02  0.00000000000E+00 0. -1.
         11    1    1    2    0    0 -0.48769142168E+02  0.95441867463E+02 -0.65788068769E+02  0.12576028501E+03  0.00000000000E+00 0.  1.
</event>
<event>
 7    1  0.1226955E-005  0.1048839E+03  0.7561462E-02  0.1270349E+00
         -1   -1    0    0    0  501 -0.00000000000E+00  0.00000000000E+00  0.12375080814E+03  0.12375080814E+03  0.00000000000E+00 0.  1.
          1   -1    0    0  501    0  0.00000000000E+00 -0.00000000000E+00 -0.16638202701E+03  0.16638202701E+03  0.00000000000E+00 0. -1.
         23    2    1    2    0    0 -0.17888483430E+02 -0.90765359679E+02 -0.28396262278E+02  0.15815134029E+03  0.12508857009E+03 0.  0.
          5    1    3    3  502    0 -0.36701110878E+02 -0.50156013185E+02 -0.72221273067E+02  0.95372857154E+02  0.41800000000E+01 0.  1.
         -5    1    3    3    0  502  0.18812627448E+02 -0.40609346494E+02  0.43825010789E+02  0.62778483135E+02  0.41800000000E+01 0.  1.
        -11    1    1    2    0    0 -0.13322253228E+02  0.46462898229E+02 -0.48009153708E+02  0.68126075644E+02  0.00000000000E+00 0. -1.
         11    1    1    2    0    0  0.31210736658E+02  0.44302461450E+02  0.33774197115E+02  0.63855419222E+02  0.00000000000E+00 0.  1.
</event>
<event>
 7    1  0.1226955E-005  0.1186128E+03  0.7561462E-02  0.1245403E+00
          1   -1    0    0  501    0  0.00000000000E+00  0.00000000000E+00  0.69608419852E+02  0.69608419852E+02  0.00000000000E+00 0. -1.
         -1   -1    0    0    0  501 -0.00000000000E+00 -0.00000000000E+00 -0.86953944663E+03  0.86953944663E+03  0.00000000000E+00 0.  1.
         23    2    1    2    0    0 -0.74097310494E+02  0.56685307573E+01 -0.81066689799E+03  0.82362062666E+03  0.12509026142E+03 0.  0.
          5    1    3    3  502    0  0.33251644662E+02  0.31278986127E+01 -0.11949994719E+03  0.12414977004E+03  0.41800000000E+01 0.  1.
         -5    1    3    3    0  502 -0.10734895516E+03  0.25406321446E+01 -0.69116695080E+03  0.69947085662E+03  0.41800000000E+01 0.  1.
        -11    1    1    2    0    0  0.98433150790E+01  0.23547427255E+02 -0.25591900389E+02  0.36143015197E+02  0.00000000000E+00 0.  1.
         11    1    1    2    0    0  0.64253995415E+02 -0.29215958012E+02  0.36327771601E+02  0.79384224622E+02  0.00000000000E+00 0. -1.
</event>
<event>
 7    1  0.1226955E-005  0.9616059E+02  0.7561462E-02  0.1288583E+00
          4   -1    0    0  501    0  0.00000000000E+00  0.00000000000E+00  0.10843611173E+03  0.10843611173E+03  0.00000000000E+00 0. -1.
         -4   -1    0    0    0  501 -0.00000000000E+00 -0.00000000000E+00 -0.12187855126E+03  0.12187855126E+03  0.00000000000E+00 0.  1.
         23    2    1    2    0    0  0.24739662435E+02 -0.12665165580E+02 -0.44728895985E+02  0.13117186168E+03  0.12013711268E+03 0.  0.
          5    1    3    3  502    0 -0.31809055425E+02  0.27475740305E+02  0.91924205887E+01  0.43228524247E+02  0.41800000000E+01 0. -1.
         -5    1    3    3    0  502  0.56548717860E+02 -0.40140905885E+02 -0.53921316574E+02  0.87943337428E+02  0.41800000000E+01 0.  1.
        -11    1    1    2    0    0  0.13800710492E+02 -0.23825197867E+02 -0.12594485276E+02  0.30277396237E+02  0.00000000000E+00 0.  1.
         11    1    1    2    0    0 -0.38540372928E+02  0.36490363448E+02  0.43880941734E+02  0.68865405084E+02  0.00000000000E+00 0. -1.
</event>
<event>
 7    1  0.1226955E-005  0.1476940E+03  0.7561462E-02  0.1203336E+00
         -1   -1    0    0    0  501 -0.00000000000E+00  0.00000000000E+00  0.10222631894E+03  0.10222631894E+03  0.00000000000E+00 0.  1.
          1   -1    0    0  501    0  0.00000000000E+00 -0.00000000000E+00 -0.24527747852E+03  0.24527747852E+03  0.00000000000E+00 0. -1.
         23    2    1    2    0    0 -0.21521008130E+02 -0.11178771882E+03 -0.58065322059E+02  0.17882461419E+03  0.12508802158E+03 0.  0.
          5    1    3    3  502    0 -0.67724871245E+02 -0.34153304038E+02 -0.10644392500E+02  0.76706465526E+02  0.41800000000E+01 0. -1.
         -5    1    3    3    0  502  0.46203863115E+02 -0.77634414782E+02 -0.47420929559E+02  0.10211814866E+03  0.41800000000E+01 0. -1.
        -11    1    1    2    0    0  0.29290575709E+02  0.16976185915E+02 -0.62265902452E+02  0.70874334718E+02  0.00000000000E+00 0. -1.
         11    1    1    2    0    0 -0.77695675788E+01  0.94811532906E+02 -0.22719935068E+02  0.97804848559E+02  0.00000000000E+00 0.  1.
</event>
<event>
 7    1  0.1226955E-005  0.1543622E+03  0.7561462E-02  0.1195213E+00
          2   -1    0    0  501    0  0.00000000000E+00  0.00000000000E+00  0.20272112802E+03  0.20272112802E+03  0.00000000000E+00 0. -1.
         -2   -1    0    0    0  501 -0.00000000000E+00 -0.00000000000E+00 -0.15871791027E+03  0.15871791027E+03  0.00000000000E+00 0.  1.
         23    2    1    2    0    0 -0.12210327979E+03 -0.65392025199E+02 -0.19239244428E+02  0.18762589244E+03  0.12509196254E+03 0.  0.
          5    1    3    3  502    0 -0.97689029498E+02 -0.89210404016E+02  0.21753246406E+02  0.13413544945E+03  0.41800000000E+01 0.  1.
         -5    1    3    3    0  502 -0.24414250288E+02  0.23818378817E+02 -0.40992490834E+02  0.53490442991E+02  0.41800000000E+01 0.  1.
        -11    1    1    2    0    0  0.53269995094E+02  0.46275235056E+02  0.73213121086E+02  0.10168210686E+03  0.00000000000E+00 0. -1.
         11    1    1    2    0    0  0.68833284693E+02  0.19116790144E+02 -0.99706588997E+01  0.72131038991E+02  0.00000000000E+00 0.  1.
</event>
<event>
 7    1  0.1226955E-005  0.9415006E+02  0.7561462E-02  0.1293102E+00
          1   -1    0    0  501    0  0.00000000000E+00  0.00000000000E+00  0.63476030516E+03  0.63476030516E+03  0.00000000000E+00 0. -1.
         -1   -1    0    0    0  501 -0.00000000000E+00 -0.00000000000E+00 -0.29355169892E+02  0.29355169892E+02  0.00000000000E+00 0.  1.
         23    2    1    2    0    0  0.22783066411E+02 -0.71025378557E+02  0.24495868437E+03  0.28498208603E+03  0.12508541001E+03 0.  0.
          5    1    3    3  502    0  0.17438925984E+02 -0.48748083486E+02  0.25455093486E+03  0.25979634836E+03  0.41800000000E+01 0.  1.
         -5    1    3    3    0  502  0.53441404270E+01 -0.22277295071E+02 -0.95922504909E+01  0.25185737672E+02  0.41800000000E+01 0.  1.
        -11    1    1    2    0    0 -0.39193151582E+02 -0.99358888970E+00  0.17870220994E+03  0.18295237137E+03  0.00000000000E+00 0.  1.
         11    1    1    2    0    0  0.16410085171E+02  0.72018967447E+02  0.18174424096E+03  0.19618101765E+03  0.00000000000E+00 0. -1.
</event>
<event>
 7    1  0.1226955E-005  0.2022930E+03  0.7561462E-02  0.1147819E+00
         -2   -1    0    0    0  501 -0.00000000000E+00  0.00000000000E+00  0.30597335787E+03  0.30597335787E+03  0.00000000000E+00 0.  1.
          2   -1    0    0  501    0  0.00000000000E+00 -0.00000000000E+00 -0.15416425289E+03  0.15416425289E+03  0.00000000000E+00 0. -1.
         23    2    1    2    0    0  0.11329510992E+03 -0.13666192739E+03  0.14403871030E+03  0.26058427138E+03  0.12507896743E+03 0.  0.
          5    1    3    3  502    0  0.13788100985E+03 -0.12243328814E+03  0.10535881062E+03  0.21241241560E+03  0.41800000000E+01 0.  1.
         -5    1    3    3    0  502 -0.24585899932E+02 -0.14228639249E+02  0.38679899674E+02  0.48171855778E+02  0.41800000000E+01 0.  1.
        -11    1    1    2    0    0 -0.29090546300E+02  0.91225202543E+02  0.31812688628E+02  0.10089769383E+03  0.00000000000E+00 0.  1.
         11    1    1    2    0    0 -0.84204563622E+02  0.45436724849E+02 -0.24042293950E+02  0.98655645546E+02  0.00000000000E+00 0. -1.
</event>
<event>
 7    1  0.1226955E-005  0.1283695E+03  0.7561462E-02  0.1229895E+00
         -1   -1    0    0    0  501 -0.00000000000E+00  0.00000000000E+00  0.32691686019E+02  0.32691686019E+02  0.00000000000E+00 0.  1.
          1   -1    0    0  501    0  0.00000000000E+00 -0.00000000000E+00 -0.59800886731E+03  0.59800886731E+03  0.00000000000E+00 0. -1.
         23    2    1    2    0    0  0.35898871306E+02 -0.77005053420E+02 -0.26325037164E+03  0.30358977099E+03  0.12508990234E+03 0.  0.
          5    1    3    3  502    0 -0.32796624533E+02 -0.48181969888E+02 -0.19095549088E+03  0.19969625109E+03  0.41800000000E+01 0.  1.
         -5    1    3    3    0  502  0.68695495840E+02 -0.28823083531E+02 -0.72294880761E+02  0.10389351990E+03  0.41800000000E+01 0.  1.
        -11    1    1    2    0    0  0.29098083750E+02  0.38094427872E+02 -0.90866185275E+02  0.10273532761E+03  0.00000000000E+00 0.  1.
         11    1    1    2    0    0 -0.64996955056E+02  0.38910625547E+02 -0.21120062437E+03  0.22437545472E+03  0.00000000000E+00 0. -1.
</event>
<event>
 7    1  0.1226955E-005  0.1510578E+03  0.7561462E-02  0.1199179E+00
          1   -1    0    0  501    0  0.00000000000E+00  0.00000000000E+00  0.71251308664E+03  0.71251308664E+03  0.00000000000E+00 0. -1.
         -1   -1    0    0    0  501 -0.00000000000E+00 -0.00000000000E+00 -0.35378120423E+02  0.35378120423E+02  0.00000000000E+00 0.  1.
         23    2    1    2    0    0 -0.11256306884E+02 -0.10906539599E+03  0.27300852733E+03  0.31969157856E+03  0.12508830623E+03 0.  0.
          5    1    3    3  502    0  0.26213655869E+02  0.15597672112E+02  0.89620541118E+02  0.94761579343E+02  0.41800000000E+01 0. -1.
         -5    1    3    3    0  502 -0.37469962754E+02 -0.12466306811E+03  0.18338798621E+03  0.22492999921E+03  0.41800000000E+01 0. -1.
        -11    1    1    2    0    0  0.49979434158E+02  0.52000647238E+02  0.22386896588E+03  0.23520060594E+03  0.00000000000E+00 0.  1.
         11    1    1    2    0    0 -0.38723127274E+02  0.57064748756E+02  0.18025747301E+03  0.19299902257E+03  0.00000000000E+00 0. -1.
</event>
<event>
 7    1  0.1226955E-005  0.8438693E+02  0.7561462E-02  0.1317044E+00
         -2   -1    0    0    0  501 -0.00000000000E+00  0.00000000000E+00  0.15396651964E+03  0.15396651964E+03  0.00000000000E+00 0.  1.
          2   -1    0    0  501    0  0.00000000000E+00 -0.00000000000E+00 -0.91289033962E+02  0.91289033962E+02  0.00000000000E+00 0. -1.
         23    2    1    2    0    0  0.46411843308E+02  0.56850999019E+01  0.43801817901E+02  0.14054275372E+03  0.12508911548E+03 0.  0.
          5    1    3    3  502    0  0.25552262984E+02  0.40974015143E+02 -0.29293118912E+02  0.56633446621E+02  0.41800000000E+01 0.  1.
         -5    1    3    3    0  502  0.20859580324E+02 -0.35288915241E+02  0.73094936814E+02  0.83909307100E+02  0.41800000000E+01 0.  1.
        -11    1    1    2    0    0 -0.56742570945E+02  0.12574933969E+02  0.43328889988E+02  0.72493041248E+02  0.00000000000E+00 0.  1.
         11    1    1    2    0    0  0.10330727637E+02 -0.18260033871E+02 -0.24453222206E+02  0.32219758639E+02  0.00000000000E+00 0. -1.
</event>
<event>
 7    1  0.1226955E-005  0.2022416E+03  0.7561462E-02  0.1147861E+00
          2   -1    0    0  501    0  0.00000000000E+00  0.00000000000E+00  0.60566682105E+03  0.60566682105E+03  0.00000000000E+00 0. -1.
         -2   -1    0    0    0  501 -0.00000000000E+00 -0.00000000000E+00 -0.82030165367E+02  0.82030165367E+02  0.00000000000E+00 0.  1.
         23    2    1    2    0    0 -0.12981214405E+02  0.18746567217E+03  0.19373036131E+03  0.29747407208E+03  0.12508988967E+03 0.  0.
          5    1    3    3  502    0  0.25185802143E+02  0.27801824102E+02 -0.67276842245E+01  0.38340581477E+02  0.41800000000E+01 0.  1.
         -5    1    3    3    0  502 -0.38167016548E+02  0.15966384807E+03  0.20045804554E+03  0.25913349060E+03  0.41800000000E+01 0.  1.
        -11    1    1    2    0    0  0.42896260126E+02 -0.13992191410E+03  0.27583410667E+03  0.31225420026E+03  0.00000000000E+00 0.  1.
         11    1    1    2    0    0 -0.29915045721E+02 -0.47543758070E+02  0.54072187708E+02  0.77968714081E+02  0.00000000000E+00 0. -1.
</event>
<event>
 7    1  0.1226955E-005  0.9517720E+02  0.7561462E-02  0.1290777E+00
          1   -1    0    0  501    0  0.00000000000E+00  0.00000000000E+00  0.23249667646E+03  0.23249667646E+03  0.00000000000E+00 0. -1.
         -1   -1    0    0    0  501 -0.00000000000E+00 -0.00000000000E+00 -0.74703826716E+02  0.74703826716E+02  0.00000000000E+00 0.  1.
         23    2    1    2    0    0 -0.72306314326E+02 -0.70908026321E+01  0.64410446565E+02  0.15838214314E+03  0.12513079183E+03 0.  0.
          5    1    3    3  502    0 -0.16978812463E+02 -0.18061098208E+02  0.92056870131E+02  0.95427580288E+02  0.41800000000E+01 0.  1.
         -5    1    3    3    0  502 -0.55327501863E+02  0.10970295576E+02 -0.27646423567E+02  0.62954562849E+02  0.41800000000E+01 0.  1.
        -11    1    1    2    0    0  0.16724899911E+01  0.33281280492E+02  0.67265763713E+01  0.33995406802E+02  0.00000000000E+00 0.  1.
         11    1    1    2    0    0  0.70633824335E+02 -0.26190477860E+02  0.86655826809E+02  0.11482295324E+03  0.00000000000E+00 0. -1.
</event>
<event>
 7    1  0.1226955E-005  0.9885888E+02  0.7561462E-02  0.1282714E+00
          1   -1    0    0  501    0  0.00000000000E+00  0.00000000000E+00  0.14391333643E+03  0.14391333643E+03  0.00000000000E+00 0. -1.
         -1   -1    0    0    0  501 -0.00000000000E+00 -0.00000000000E+00 -0.12220320995E+03  0.12220320995E+03  0.00000000000E+00 0.  1.
         23    2    1    2    0    0  0.59000191959E+02 -0.46822705313E+02  0.20211949474E+02  0.14740946219E+03  0.12509052025E+03 0.  0.
          5    1    3    3  502    0  0.41174121076E+02  0.72479290150E+01 -0.44442631638E+02  0.61159305329E+02  0.41800000000E+01 0.  1.
         -5    1    3    3    0  502  0.17826070883E+02 -0.54070634328E+02  0.64654581112E+02  0.86250156861E+02  0.41800000000E+01 0.  1.
        -11    1    1    2    0    0 -0.59542404530E+02  0.83337402330E+01  0.33342687920E+02  0.68749429098E+02  0.00000000000E+00 0. -1.
         11    1    1    2    0    0  0.54221257120E+00  0.38488965080E+02 -0.31844510906E+02  0.49957655092E+02  0.00000000000E+00 0.  1.
</event>
<event>
 7    1  0.1226955E-005  0.2182033E+03  0.7561462E-02  0.1135230E+00
         -2   -1    0    0    0  501 -0.00000000000E+00  0.00000000000E+00  0.25110461274E+03  0.25110461274E+03  0.00000000000E+00 0.  1.
          2   -1    0    0  501    0  0.00000000000E+00 -0.00000000000E+00 -0.32324411654E+03  0.32324411654E+03  0.00000000000E+00 0. -1.
         23    2    1    2    0    0  0.19781516042E+03 -0.12578041066E+02  0.13741157257E+03  0.27171160017E+03  0.12512477205E+03 0.  0.
          5    1    3    3  502    0  0.16014234692E+03  0.40544622169E+02  0.11983896991E+03  0.20412811853E+03  0.41800000000E+01 0.  1.
         -5    1    3    3    0  502  0.37672813501E+02 -0.53122663235E+02  0.17572602654E+02  0.67583481638E+02  0.41800000000E+01 0.  1.
        -11    1    1    2    0    0 -0.12059512608E+02 -0.13748064835E+02  0.36437902804E+01  0.18647207262E+02  0.00000000000E+00 0.  1.
         11    1    1    2    0    0 -0.18575564781E+03  0.26326105901E+02 -0.21319486664E+03  0.28398992185E+03  0.00000000000E+00 0. -1.
</event>
<event>
 7    1  0.1226955E-005  0.1333416E+03  0.7561462E-02  0.1222580E+00
         -2   -1    0    0    0  501 -0.00000000000E+00  0.00000000000E+00  0.24892724685E+02  0.24892724685E+02  0.00000000000E+00 0.  1.
          2   -1    0    0  501    0  0.00000000000E+00 -0.00000000000E+00 -0.81722187322E+03  0.81722187322E+03  0.00000000000E+00 0. -1.
         23    2    1    2    0    0  0.74788353677E+02 -0.48530413158E+02 -0.36315945142E+03  0.39430903427E+03  0.12508528492E+03 0.  0.
          5    1    3    3  502    0  0.99000941954E+02 -0.19388353227E+02 -0.32520120158E+03  0.34051488757E+03  0.41800000000E+01 0. -1.
         -5    1    3    3    0  502 -0.24212588277E+02 -0.29142059931E+02 -0.37958249845E+02  0.53794146702E+02  0.41800000000E+01 0. -1.
        -11    1    1    2    0    0  0.18347471160E+02 -0.64448109339E+01 -0.75920041121E+02  0.78371027362E+02  0.00000000000E+00 0.  1.
         11    1    1    2    0    0 -0.93135824837E+02  0.54975224092E+02 -0.35324965599E+03  0.36943453627E+03  0.00000000000E+00 0. -1.
</event>
<event>
 7    1  0.1226955E-005  0.2073808E+03  0.7561462E-02  0.1143657E+00
          2   -1    0    0  501    0  0.00000000000E+00  0.00000000000E+00  0.86006714861E+03  0.86006714861E+03  0.00000000000E+00 0. -1.
         -2   -1    0    0    0  501 -0.00000000000E+00 -0.00000000000E+00 -0.71540465792E+02  0.71540465792E+02  0.00000000000E+00 0.  1.
         23    2    1    2    0    0  0.98386084787E+02 -0.16897178552E+03  0.20488981801E+03  0.30961044781E+03  0.12508999116E+03 0.  0.
          5    1    3    3  502    0 -0.20242916093E+02 -0.20108072184E+02  0.71617214190E+02  0.77204973851E+02  0.41800000000E+01 0. -1.
         -5    1    3    3    0  502  0.11862900088E+03 -0.14886371334E+03  0.13327260382E+03  0.23240547396E+03  0.41800000000E+01 0. -1.
        -11    1    1    2    0    0 -0.54551339797E+02  0.93770527191E+02  0.18942905562E+03  0.21829367273E+03  0.00000000000E+00 0.  1.
         11    1    1    2    0    0 -0.43834744990E+02  0.75201258334E+02  0.39420780920E+03  0.40370349386E+03  0.00000000000E+00 0. -1.
</event>
<event>
 7    1  0.1226955E-005  0.1124270E+03  0.7561462E-02  0.1256140E+00
         -2   -1    0    0    0  501 -0.00000000000E+00  0.00000000000E+00  0.58871091155E+02  0.58871091155E+02  0.00000000000E+00 0. -1.
          2   -1    0    0  501    0  0.00000000000E+00 -0.00000000000E+00 -0.32435629225E+03  0.32435629225E+03  0.00000000000E+00 0.  1.
         23    2    1    2    0    0 -0.72973768544E+02  0.43789659209E+02 -0.15035009084E+03  0.21329654458E+03  0.12509021131E+03 0.  0.
          5    1    3    3  502    0 -0.83416910788E+02  0.23423162969E+02 -0.16456793538E+03  0.18602984525E+03  0.41800000000E+01 0. -1.
         -5    1    3    3    0  502  0.10443142245E+02  0.20366496241E+02  0.14217844540E+02  0.27266699331E+02  0.41800000000E+01 0. -1.
        -11    1    1    2    0    0 -0.13061989217E+02  0.71174864007E+01  0.29994690455E+01  0.15174682518E+02  0.00000000000E+00 0. -1.
         11    1    1    2    0    0  0.86035757761E+02 -0.50907145610E+02 -0.11813457930E+03  0.15475615631E+03  0.00000000000E+00 0.  1.
</event>
<event>
 7    1  0.1226955E-005  0.1413442E+03  0.7561462E-02  0.1211532E+00
         -2   -1    0    0    0  501 -0.00000000000E+00  0.00000000000E+00  0.23383045062E+02  0.23383045062E+02  0.00000000000E+00 0. -1.
          2   -1    0    0  501    0  0.00000000000E+00 -0.00000000000E+00 -0.11769543260E+04  0.11769543260E+04  0.00000000000E+00 0.  1.
         23    2    1    2    0    0  0.40924806053E+02  0.11031226382E+03 -0.45560766879E+03  0.48689794460E+03  0.12509046845E+03 0.  0.
          5    1    3    3  502    0 -0.17477278512E+02  0.16166569165E+02 -0.26719668970E+03  0.26828782419E+03  0.41800000000E+01 0. -1.
         -5    1    3    3    0  502  0.58402084566E+02  0.94145694651E+02 -0.18841097909E+03  0.21861012041E+03  0.41800000000E+01 0. -1.
        -11    1    1    2    0    0 -0.67857051646E+02 -0.59990597885E+02 -0.44333680135E+03  0.45249416651E+03  0.00000000000E+00 0. -1.
         11    1    1    2    0    0  0.26932245593E+02 -0.50321665931E+02 -0.25462681076E+03  0.26094525992E+03  0.00000000000E+00 0.  1.
</event>
<event>
 7    1  0.1226955E-005  0.1166212E+03  0.7561462E-02  0.1248777E+00
          1   -1    0    0  501    0  0.00000000000E+00  0.00000000000E+00  0.24216901812E+02  0.24216901812E+02  0.00000000000E+00 0. -1.
         -1   -1    0    0    0  501 -0.00000000000E+00 -0.00000000000E+00 -0.64976132247E+03  0.64976132247E+03  0.00000000000E+00 0.  1.
         23    2    1    2    0    0  0.25031745796E+02 -0.57118247813E+02 -0.37367232881E+03  0.39895776241E+03  0.12508878584E+03 0.  0.
          5    1    3    3  502    0  0.72639288911E+02 -0.18773921959E+02 -0.24817958623E+03  0.25930581533E+03  0.41800000000E+01 0. -1.
         -5    1    3    3    0  502 -0.47607543115E+02 -0.38344325854E+02 -0.12549274257E+03  0.13965194709E+03  0.41800000000E+01 0. -1.
        -11    1    1    2    0    0  0.16215127963E+01  0.68014286441E+02 -0.22698481620E+03  0.23696134547E+03  0.00000000000E+00 0.  1.
         11    1    1    2    0    0 -0.26653258592E+02 -0.10896038628E+02 -0.24887275655E+02  0.38059116397E+02  0.00000000000E+00 0. -1.
</event>
<event>
 6    1  0.1226955E-005  0.1585002E+03  0.7561462E-02  0.1190400E+00
          2   -1    0    0  501    0  0.00000000000E+00  0.00000000000E+00  0.10616768863E+04  0.10616768863E+04  0.00000000000E+00 0. -1.
         -2   -1    0    0    0  501 -0.00000000000E+00 -0.00000000000E+00 -0.58930080833E+02  0.58930080833E+02  0.00000000000E+00 0.  1.
          5    1    1    2  502    0 -0.11363082390E+03 -0.67382223165E+02  0.63020017043E+03  0.64391152758E+03  0.41800000000E+01 0. -1.
         -5    1    1    2    0  502  0.67489448257E+02 -0.15180737228E+02 -0.12237217077E+02  0.70374017156E+02  0.41800000000E+01 0.  1.
        -11    1    1    2    0    0  0.15234620538E+01  0.68822617467E+02  0.31449439356E+03  0.32194036278E+03  0.00000000000E+00 0.  1.
         11    1    1    2    0    0  0.44617913585E+02  0.13740342926E+02  0.70289458524E+02  0.84381059581E+02  0.00000000000E+00 0. -1.
</event>
<event>
 7    1  0.1226955E-005  0.1022677E+03  0.7561462E-02  0.1275598E+00
         -3   -1    0    0    0  501 -0.00000000000E+00  0.00000000000E+00  0.36337818271E+03  0.36337818271E+03  0.00000000000E+00 0.  1.
          3   -1    0    0  501    0  0.00000000000E+00 -0.00000000000E+00 -0.63053599536E+02  0.63053599536E+02  0.00000000000E+00 0. -1.
         23    2    1    2    0    0 -0.53042259000E+02  0.35931899118E+02  0.27973201327E+03  0.31305295099E+03  0.12509024048E+03 0.  0.
          5    1    3    3  502    0 -0.22412131174E+02  0.81475649599E+02  0.18631503859E+03  0.20462490343E+03  0.41800000000E+01 0. -1.
         -5    1    3    3    0  502 -0.30630127825E+02 -0.45543750480E+02  0.93416974679E+02  0.10842804756E+03  0.41800000000E+01 0. -1.
        -11    1    1    2    0    0  0.22556650110E+02 -0.92749328122E+01 -0.36186200115E+02  0.43637918393E+02  0.00000000000E+00 0. -1.
         11    1    1    2    0    0  0.30485608890E+02 -0.26656966306E+02  0.56778770019E+02  0.69740912862E+02  0.00000000000E+00 0.  1.
</event>
<event>
 7    1  0.1226955E-005  0.7691266E+02  0.7561462E-02  0.1338048E+00
         -2   -1    0    0    0  501 -0.00000000000E+00  0.00000000000E+00  0.12481899174E+03  0.12481899174E+03  0.00000000000E+00 0.  1.
          2   -1    0    0  501    0  0.00000000000E+00 -0.00000000000E+00 -0.10093121620E+03  0.10093121620E+03  0.00000000000E+00 0. -1.
         23    2    1    2    0    0 -0.32084607053E+01 -0.12043502092E+01  0.54130216402E+02  0.13634320475E+03  0.12509054511E+03 0.  0.
          5    1    3    3  502    0  0.30749430279E+02  0.13615788722E+02  0.82697524437E+02  0.89371528537E+02  0.41800000000E+01 0. -1.
         -5    1    3    3    0  502 -0.33957890984E+02 -0.14820138931E+02 -0.28567308035E+02  0.46971676215E+02  0.41800000000E+01 0. -1.
        -11    1    1    2    0    0  0.42521672039E+02 -0.51340751359E+01 -0.24010270578E+02  0.49101368756E+02  0.00000000000E+00 0. -1.
         11    1    1    2    0    0 -0.39313211333E+02  0.63384253451E+01 -0.62321702815E+01  0.40305634440E+02  0.00000000000E+00 0.  1.
</event>
<event>
 7    1  0.1226955E-005  0.1349678E+03  0.7561462E-02  0.1220265E+00
         -1   -1    0    0    0  501 -0.00000000000E+00  0.00000000000E+00  0.56004531739E+03  0.56004531739E+03  0.00000000000E+00 0.  1.
          1   -1    0    0  501    0  0.00000000000E+00 -0.00000000000E+00 -0.36275737216E+02  0.36275737216E+02  0.00000000000E+00 0. -1.
         23    2    1    2    0    0  0.78525766012E+02  0.45016466130E+02  0.25296345078E+03  0.29636474589E+03  0.12509507195E+03 0.  0.
          5    1    3    3  502    0 -0.10005826386E+02 -0.33408855936E+02  0.72448238132E+02  0.80513898335E+02  0.41800000000E+01 0. -1.
         -5    1    3    3    0  502  0.88531592398E+02  0.78425322066E+02  0.18051521265E+03  0.21585084756E+03  0.41800000000E+01 0. -1.
        -11    1    1    2    0    0  0.10770918995E+02 -0.21619045859E+02  0.12553159818E+03  0.12783418158E+03  0.00000000000E+00 0.  1.
         11    1    1    2    0    0 -0.89296685007E+02 -0.23397420271E+02  0.14527453122E+03  0.17212212713E+03  0.00000000000E+00 0. -1.
</event>
<event>
 7    1  0.1226955E-005  0.1221799E+03  0.7561462E-02  0.1239544E+00
         -1   -1    0    0    0  501 -0.00000000000E+00  0.00000000000E+00  0.41086521708E+02  0.41086521708E+02  0.00000000000E+00 0.  1.
          1   -1    0    0  501    0  0.00000000000E+00 -0.00000000000E+00 -0.43584745486E+03  0.43584745486E+03  0.00000000000E+00 0. -1.
         23    2    1    2    0    0 -0.49693464389E+02 -0.27702143449E+02 -0.12335215666E+03  0.18466326796E+03  0.12509164171E+03 0.  0.
          5    1    3    3  502    0  0.42237453587E+02 -0.60034332193E+01 -0.39290292489E+02  0.58148458103E+02  0.41800000000E+01 0. -1.
         -5    1    3    3    0  502 -0.91930917976E+02 -0.21698710229E+02 -0.84061864171E+02  0.12651480986E+03  0.41800000000E+01 0. -1.
        -11    1    1    2    0    0  0.55404045582E+02  0.55585786341E+02 -0.17596660711E+03  0.19267494577E+03  0.00000000000E+00 0.  1.
         11    1    1    2    0    0 -0.57105811925E+01 -0.27883642892E+02 -0.95442169383E+02  0.99595762836E+02  0.00000000000E+00 0. -1.
</event>
<event>
 7    1  0.1226955E-005  0.1074308E+03  0.7561462E-02  0.1265403E+00
          1   -1    0    0  501    0  0.00000000000E+00  0.00000000000E+00  0.56115585671E+02  0.56115585671E+02  0.00000000000E+00 0. -1.
         -1   -1    0    0    0  501 -0.00000000000E+00 -0.00000000000E+00 -0.23147386082E+03  0.23147386082E+03  0.00000000000E+00 0.  1.
         23    2    1    2    0    0 -0.13729755956E+02 -0.99525230797E+01 -0.91562513303E+02  0.15594059167E+03  0.12508483271E+03 0.  0.
          5    1    3    3  502    0 -0.55316716632E+02 -0.44327362811E+02 -0.41660354569E+02  0.82328074042E+02  0.41800000000E+01 0.  1.
         -5    1    3    3    0  502  0.41586960675E+02  0.34374839732E+02 -0.49902158735E+02  0.73612517626E+02  0.41800000000E+01 0.  1.
        -11    1    1    2    0    0  0.26392636093E+02  0.45167661033E+02 -0.16861775848E+02  0.54963700092E+02  0.00000000000E+00 0.  1.
         11    1    1    2    0    0 -0.12662880137E+02 -0.35215137953E+02 -0.66933985993E+02  0.76685154726E+02  0.00000000000E+00 0. -1.
</event>
<event>
 7    1  0.1226955E-005  0.9341077E+02  0.7561462E-02  0.1294796E+00
         -1   -1    0    0    0  501 -0.00000000000E+00  0.00000000000E+00  0.15175261730E+03  0.15175261730E+03  0.00000000000E+00 0.  1.
          1   -1    0    0  501    0  0.00000000000E+00 -0.00000000000E+00 -0.93608655975E+02  0.93608655975E+02  0.00000000000E+00 0. -1.
         23    2    1    2    0    0 -0.39202495371E+02  0.18224621484E+02  0.68099027962E+01  0.13252964652E+03  0.12509500373E+03 0.  0.
          5    1    3    3  502    0 -0.45084920532E+02  0.53002289598E+02 -0.34724597106E+02  0.77879155146E+02  0.41800000000E+01 0.  1.
         -5    1    3    3    0  502  0.58824251612E+01 -0.34777668115E+02  0.41534499902E+02  0.54650491374E+02  0.41800000000E+01 0.  1.
        -11    1    1    2    0    0  0.51526187006E+02  0.84459193104E+01  0.62465139173E+02  0.81413605203E+02  0.00000000000E+00 0.  1.
         11    1    1    2    0    0 -0.12323691635E+02 -0.26670540794E+02 -0.11131080646E+02  0.31418021550E+02  0.00000000000E+00 0. -1.
</event>
<event>
 7    1  0.1226955E-005  0.1025026E+03  0.7561462E-02  0.1275120E+00
          2   -1    0    0  501    0  0.00000000000E+00  0.00000000000E+00  0.21207235479E+03  0.21207235479E+03  0.00000000000E+00 0. -1.
         -2   -1    0    0    0  501 -0.00000000000E+00 -0.00000000000E+00 -0.74953513298E+02  0.74953513298E+02  0.00000000000E+00 0.  1.
         23    2    1    2    0    0  0.47079819498E+02 -0.33790341257E+02  0.96713191088E+02  0.16840125543E+03  0.12508894808E+03 0.  0.
          5    1    3    3  502    0 -0.44991277512E+01 -0.72570787796E+02  0.45110988462E+02  0.85669335656E+02  0.41800000000E+01 0. -1.
         -5    1    3    3    0  502  0.51578947249E+02  0.38780446538E+02  0.51602202627E+02  0.82731919771E+02  0.41800000000E+01 0. -1.
        -11    1    1    2    0    0 -0.19118647555E+02  0.34605157280E+02 -0.25488096317E+02  0.47039160798E+02  0.00000000000E+00 0.  1.
         11    1    1    2    0    0 -0.27961171943E+02 -0.81481602228E+00  0.65893746719E+02  0.71585451861E+02  0.00000000000E+00 0. -1.
</event>
<event>
 7    1  0.1226955E-005  0.1459622E+03  0.7561462E-02  0.1205524E+00
         -2   -1    0    0    0  501 -0.00000000000E+00  0.00000000000E+00  0.55865882066E+02  0.55865882066E+02  0.00000000000E+00 0.  1.
          2   -1    0    0  501    0  0.00000000000E+00 -0.00000000000E+00 -0.56085007548E+03  0.56085007548E+03  0.00000000000E+00 0. -1.
         23    2    1    2    0    0 -0.11772326568E+02  0.13845653333E+03 -0.26802248755E+03  0.32679019830E+03  0.12508789139E+03 0.  0.
          5    1    3    3  502    0 -0.26359199705E+02  0.77899504513E+02 -0.42260879443E+02  0.92555899562E+02  0.41800000000E+01 0.  1.
         -5    1    3    3    0  502  0.14586873137E+02  0.60557028820E+02 -0.22576160811E+03  0.23423429873E+03  0.41800000000E+01 0.  1.
        -11    1    1    2    0    0 -0.17184312053E+02 -0.27085389196E+02 -0.70773267359E+01  0.32848248695E+02  0.00000000000E+00 0.  1.
         11    1    1    2    0    0  0.28956638621E+02 -0.11137114414E+03 -0.22988437913E+03  0.25707751056E+03  0.00000000000E+00 0. -1.
</event>
<event>
 7    1  0.1226955E-005  0.1221152E+03  0.7561462E-02  0.1239648E+00
         -1   -1    0    0    0  501 -0.00000000000E+00  0.00000000000E+00  0.18749923644E+03  0.18749923644E+03  0.00000000000E+00 0.  1.
          1   -1    0    0  501    0  0.00000000000E+00 -0.00000000000E+00 -0.83901854216E+02  0.83901854216E+02  0.00000000000E+00 0. -1.
         23    2    1    2    0    0  0.36933125108E+02 -0.48922972100E+02  0.72904356679E+02  0.15722199029E+03  0.12508475558E+03 0.  0.
          5    1    3    3  502    0 -0.39060133637E+02  0.70007073183E+01  0.35748467757E+01  0.40061900506E+02  0.41800000000E+01 0.  1.
         -5    1    3    3    0  502  0.75993258745E+02 -0.55923679418E+02  0.69329509903E+02  0.11716008978E+03  0.41800000000E+01 0.  1.
        -11    1    1    2    0    0 -0.38698436361E+02 -0.18180557894E+02  0.14241703824E+02  0.45065816202E+02  0.00000000000E+00 0.  1.
         11    1    1    2    0    0  0.17653112536E+01  0.67103529994E+02  0.16451321717E+02  0.69113284162E+02  0.00000000000E+00 0. -1.
</event>
<event>
 7    1  0.1226955E-005  0.1234792E+03  0.7561462E-02  0.1237465E+00
          1   -1    0    0  501    0  0.00000000000E+00  0.00000000000E+00  0.63703828154E+02  0.63703828154E+02  0.00000000000E+00 0. -1.
         -1   -1    0    0    0  501 -0.00000000000E+00 -0.00000000000E+00 -0.59160479037E+03  0.59160479037E+03  0.00000000000E+00 0.  1.
         23    2    1    2    0    0 -0.10782996812E+03 -0.38750870643E+02 -0.46675275985E+03  0.49662312576E+03  0.12508980059E+03 0.  0.
          5    1    3    3  502    0 -0.13083589113E+02 -0.97236787520E+00 -0.30525439403E+03  0.30556479391E+03  0.41800000000E+01 0.  1.
         -5    1    3    3    0  502 -0.94746379007E+02 -0.37778502768E+02 -0.16149836582E+03  0.19105833185E+03  0.41800000000E+01 0.  1.
        -11    1    1    2    0    0  0.87019927315E+02 -0.11096957636E+00 -0.48135499706E+01  0.87153028217E+02  0.00000000000E+00 0.  1.
         11    1    1    2    0    0  0.20810040805E+02  0.38861840220E+02 -0.56334652397E+02  0.71532464547E+02  0.00000000000E+00 0. -1.
</event>
<event>
 7    1  0.1226955E-005  0.1168923E+03  0.7561462E-02  0.1248314E+00
         -1   -1    0    0    0  501 -0.00000000000E+00  0.00000000000E+00  0.22828056385E+02  0.22828056385E+02  0.00000000000E+00 0.  1.
          1   -1    0    0  501    0  0.00000000000E+00 -0.00000000000E+00 -0.81771948417E+03  0.81771948417E+03  0.00000000000E+00 0. -1.
         23    2    1    2    0    0 -0.25848428745E+01 -0.66450698719E+02 -0.28351150842E+03  0.31693649197E+03  0.12509031842E+03 0.  0.
          5    1    3    3  502    0  0.19208672972E+02 -0.89026251721E+02 -0.26504703671E+03  0.28028922684E+03  0.41800000000E+01 0. -1.
         -5    1    3    3    0  502 -0.21793515846E+02  0.22575553002E+02 -0.18464471715E+02  0.36647265137E+02  0.41800000000E+01 0. -1.
        -11    1    1    2    0    0  0.44378344265E+02  0.47698219001E+02 -0.34176508507E+03  0.34791943164E+03  0.00000000000E+00 0. -1.
         11    1    1    2    0    0 -0.41793501390E+02  0.18752479717E+02 -0.16961483429E+03  0.17569161694E+03  0.00000000000E+00 0.  1.
</event>
<event>
 7    1  0.1226955E-005  0.1035692E+03  0.7561462E-02  0.1272964E+00
          1   -1    0    0  501    0  0.00000000000E+00  0.00000000000E+00  0.19665231386E+02  0.19665231386E+02  0.00000000000E+00 0. -1.
         -1   -1    0    0    0  501 -0.00000000000E+00 -0.00000000000E+00 -0.13070067200E+04  0.13070067200E+04  0.00000000000E+00 0.  1.
         23    2    1    2    0    0  0.46036152847E+01  0.12859527707E+02 -0.11758164561E+04  0.11825304337E+04  0.12508927829E+03 0.  0.
          5    1    3    3  502    0  0.56544718983E+01 -0.52218876817E+02 -0.32760214434E+03  0.33181232877E+03  0.41800000000E+01 0. -1.
         -5    1    3    3    0  502 -0.10508566136E+01  0.65078404524E+02 -0.84821431175E+03  0.85071810495E+03  0.41800000000E+01 0. -1.
        -11    1    1    2    0    0  0.33922553640E+02 -0.31621791097E+02 -0.73186187113E+02  0.86642341276E+02  0.00000000000E+00 0.  1.
         11    1    1    2    0    0 -0.38526168925E+02  0.18762263391E+02 -0.38338845458E+02  0.57499176434E+02  0.00000000000E+00 0. -1.
</event>
<event>
 7    1  0.1226955E-005  0.1481726E+03  0.7561462E-02  0.1202737E+00
          1   -1    0    0  501    0  0.00000000000E+00  0.00000000000E+00  0.79945921714E+03  0.79945921714E+03  0.00000000000E+00 0. -1.
         -1   -1    0    0    0  501 -0.00000000000E+00 -0.00000000000E+00 -0.32112871941E+02  0.32112871941E+02  0.00000000000E+00 0.  1.
         23    2    1    2    0    0 -0.22552440319E+01  0.11063877313E+03  0.53070041754E+03  0.55636013651E+03  0.12509054354E+03 0.  0.
          5    1    3    3  502    0 -0.29111525907E+02  0.12914842526E+03  0.39040530225E+03  0.41226274282E+03  0.41800000000E+01 0.  1.
         -5    1    3    3    0  502  0.26856281876E+02 -0.18509652129E+02  0.14029511528E+03  0.14409739370E+03  0.41800000000E+01 0.  1.
        -11    1    1    2    0    0  0.33083725934E+02 -0.83938811535E+02  0.11060215040E+03  0.14273434302E+03  0.00000000000E+00 0.  1.
         11    1    1    2    0    0 -0.30828481902E+02 -0.26699961593E+02  0.12604377726E+03  0.13247760955E+03  0.00000000000E+00 0. -1.
</event>
<event>
 7    1  0.1226955E-005  0.2206736E+03  0.7561462E-02  0.1133382E+00
          1   -1    0    0  501    0  0.00000000000E+00  0.00000000000E+00  0.47618585419E+03  0.47618585419E+03  0.00000000000E+00 0. -1.
         -1   -1    0    0    0  501 -0.00000000000E+00 -0.00000000000E+00 -0.10944851314E+03  0.10944851314E+03  0.00000000000E+00 0.  1.
         23    2    1    2    0    0  0.73655460955E+02 -0.18158568137E+03  0.13638126209E+03  0.26952729686E+03  0.12508648406E+03 0.  0.
          5    1    3    3  502    0  0.10915083186E+03 -0.13876060197E+03  0.10700758014E+03  0.20648608516E+03  0.41800000000E+01 0. -1.
         -5    1    3    3    0  502 -0.35495370909E+02 -0.42825079399E+02  0.29373681946E+02  0.63041211699E+02  0.41800000000E+01 0. -1.
        -11    1    1    2    0    0 -0.42344751327E+02  0.17062111214E+03  0.15741008955E+03  0.23597156220E+03  0.00000000000E+00 0.  1.
         11    1    1    2    0    0 -0.31310709628E+02  0.10964569226E+02  0.72945989407E+02  0.80135508274E+02  0.00000000000E+00 0. -1.
</event>
<event>
 7    1  0.1226955E-005  0.2216298E+03  0.7561462E-02  0.1132674E+00
         -2   -1    0    0    0  501 -0.00000000000E+00  0.00000000000E+00  0.65967143057E+02  0.65967143057E+02  0.00000000000E+00 0.  1.
          2   -1    0    0  501    0  0.00000000000E+00 -0.00000000000E+00 -0.90746826941E+03  0.90746826941E+03  0.00000000000E+00 0. -1.
         23    2    1    2    0    0 -0.17971784314E+03 -0.12453612438E+03 -0.40065165508E+03  0.47326257109E+03  0.12509181854E+03 0.  0.
          5    1    3    3  502    0 -0.10421046683E+03 -0.89562181692E+02 -0.34932827350E+03  0.37540500909E+03  0.41800000000E+01 0.  1.
         -5    1    3    3    0  502 -0.75507376311E+02 -0.34973942689E+02 -0.51323381581E+02  0.97857562004E+02  0.41800000000E+01 0.  1.
        -11    1    1    2    0    0  0.17348452743E+03  0.10693001664E+03 -0.43537480081E+03  0.48071002371E+03  0.00000000000E+00 0. -1.
         11    1    1    2    0    0  0.62333157041E+01  0.17606107743E+02 -0.54746704613E+01  0.19462817658E+02  0.00000000000E+00 0.  1.
</event>
<event>
 7    1  0.1226955E-005  0.1082377E+03  0.7561462E-02  0.1263869E+00
         -1   -1    0    0    0  501 -0.00000000000E+00  0.00000000000E+00  0.10374267585E+03  0.10374267585E+03  0.00000000000E+00 0.  1.
          1   -1    0    0  501    0  0.00000000000E+00 -0.00000000000E+00 -0.15310935843E+03  0.15310935843E+03  0.00000000000E+00 0. -1.
         23    2    1    2    0    0 -0.23440523040E+02  0.58932440300E+02 -0.16870929886E+02  0.14126227369E+03  0.12509161064E+03 0.  0.
          5    1    3    3  502    0 -0.59986427961E+02  0.61501655940E+02  0.20858507768E+02  0.88506355530E+02  0.41800000000E+01 0.  1.
         -5    1    3    3    0  502  0.36545904921E+02 -0.25692156401E+01 -0.37729437654E+02  0.52755918163E+02  0.41800000000E+01 0.  1.
        -11    1    1    2    0    0  0.34043725283E+02 -0.34131487158E+00 -0.43292794621E+02  0.55075927528E+02  0.00000000000E+00 0.  1.
         11    1    1    2    0    0 -0.10603202243E+02 -0.58591125428E+02  0.10797041932E+02  0.60513833057E+02  0.00000000000E+00 0. -1.
</event>
<event>
 7    1  0.1226955E-005  0.6897060E+02  0.7561462E-02  0.1363629E+00
         -4   -1    0    0    0  501 -0.00000000000E+00  0.00000000000E+00  0.10380525161E+04  0.10380525161E+04  0.00000000000E+00 0.  1.
          4   -1    0    0  501    0  0.00000000000E+00 -0.00000000000E+00 -0.15756242287E+02  0.15756242287E+02  0.00000000000E+00 0. -1.
         23    2    1    2    0    0 -0.75413832583E+01 -0.93433793550E+01  0.85380066219E+03  0.86299843380E+03  0.12508618941E+03 0.  0.
          5    1    3    3  502    0  0.16836994813E+02 -0.27147620165E+02  0.55926194431E+02  0.64542151331E+02  0.41800000000E+01 0. -1.
         -5    1    3    3    0  502 -0.24378378071E+02  0.17804240810E+02  0.79787446776E+03  0.79845628247E+03  0.41800000000E+01 0. -1.
        -11    1    1    2    0    0  0.48332444649E+01 -0.32731443361E+02  0.25626876243E+02  0.41850261917E+02  0.00000000000E+00 0.  1.
         11    1    1    2    0    0  0.27081387934E+01  0.42074822716E+02  0.14286873537E+03  0.14896006266E+03  0.00000000000E+00 0. -1.
</event>
<event>
 7    1  0.1226955E-005  0.1015837E+03  0.7561462E-02  0.1277000E+00
         -3   -1    0    0    0  501 -0.00000000000E+00  0.00000000000E+00  0.83262349054E+02  0.83262349054E+02  0.00000000000E+00 0.  1.
          3   -1    0    0  501    0  0.00000000000E+00 -0.00000000000E+00 -0.20885533986E+03  0.20885533986E+03  0.00000000000E+00 0. -1.
         23    2    1    2    0    0  0.17074221357E+02  0.37347552636E+02 -0.47591221201E+00  0.13165826973E+03  0.12508918727E+03 0.  0.
          5    1    3    3  502    0 -0.35316070104E+02  0.40597524302E+02 -0.38852106296E+02  0.66500694362E+02  0.41800000000E+01 0. -1.
         -5    1    3    3    0  502  0.52390291461E+02 -0.32499716660E+01  0.38376194084E+02  0.65157575366E+02  0.41800000000E+01 0. -1.
        -11    1    1    2    0    0  0.19201504933E+02  0.20607919227E+02 -0.58849788754E+02  0.65243250708E+02  0.00000000000E+00 0.  1.
         11    1    1    2    0    0 -0.36275726290E+02 -0.57955471863E+02 -0.66267289837E+02  0.95216168475E+02  0.00000000000E+00 0. -1.
</event>
<event>
 7    1  0.1226955E-005  0.1277037E+03  0.7561462E-02  0.1230903E+00
         -2   -1    0    0    0  501 -0.00000000000E+00  0.00000000000E+00  0.22494222177E+03  0.22494222177E+03  0.00000000000E+00 0. -1.
          2   -1    0    0  501    0  0.00000000000E+00 -0.00000000000E+00 -0.93113249604E+02  0.93113249604E+02  0.00000000000E+00 0.  1.
         23    2    1    2    0    0 -0.76629998965E+02 -0.56886506530E+02  0.77665780390E+02  0.17546489087E+03  0.12509085944E+03 0.  0.
          5    1    3    3  502    0 -0.36657987696E+02 -0.91901496231E+02  0.28754338792E+02  0.10312117858E+03  0.41800000000E+01 0.  1.
         -5    1    3    3    0  502 -0.39972011269E+02  0.35014989701E+02  0.48911441598E+02  0.72343712290E+02  0.41800000000E+01 0.  1.
        -11    1    1    2    0    0  0.79869716184E+02  0.47007958671E+02  0.55111150671E+01  0.92840142886E+02  0.00000000000E+00 0.  1.
         11    1    1    2    0    0 -0.32397172192E+01  0.98785478589E+01  0.48652076706E+02  0.49750437619E+02  0.00000000000E+00 0. -1.
</event>
<event>
 7    1  0.1226955E-005  0.2234557E+03  0.7561462E-02  0.1131333E+00
         -2   -1    0    0    0  501 -0.00000000000E+00  0.00000000000E+00  0.66834604060E+02  0.66834604060E+02  0.00000000000E+00 0.  1.
          2   -1    0    0  501    0  0.00000000000E+00 -0.00000000000E+00 -0.10006814523E+04  0.10006814523E+04  0.00000000000E+00 0. -1.
         23    2    1    2    0    0 -0.16226315985E+03 -0.14961410619E+03 -0.31662174520E+03  0.40572123419E+03  0.12508667602E+03 0.  0.
          5    1    3    3  502    0 -0.14435378251E+03 -0.13678376349E+03 -0.18317663939E+03  0.27040518874E+03  0.41800000000E+01 0.  1.
         -5    1    3    3    0  502 -0.17909377344E+02 -0.12830342703E+02 -0.13344510581E+03  0.13531604544E+03  0.41800000000E+01 0.  1.
        -11    1    1    2    0    0  0.10131209964E+03  0.61767857835E+02 -0.21465141915E+03  0.24526443187E+03  0.00000000000E+00 0.  1.
         11    1    1    2    0    0  0.60951060210E+02  0.87846248356E+02 -0.40257368393E+03  0.41653039035E+03  0.00000000000E+00 0. -1.
</event>
<event>
 7    1  0.1226955E-005  0.2226880E+03  0.7561462E-02  0.1131895E+00
         -2   -1    0    0    0  501 -0.00000000000E+00  0.00000000000E+00  0.47007566028E+02  0.47007566028E+02  0.00000000000E+00 0.  1.
          2   -1    0    0  501    0  0.00000000000E+00 -0.00000000000E+00 -0.11729117311E+04  0.11729117311E+04  0.00000000000E+00 0. -1.
         23    2    1    2    0    0 -0.20402293383E+03  0.11461724898E+01 -0.47769811743E+03  0.53429363086E+03  0.12509005294E+03 0.  0.
          5    1    3    3  502    0 -0.16844848439E+03 -0.36423564972E+02 -0.27106472977E+03  0.32123998522E+03  0.41800000000E+01 0. -1.
         -5    1    3    3    0  502 -0.35574449436E+02  0.37569737462E+02 -0.20663338766E+03  0.21305364565E+03  0.41800000000E+01 0. -1.
        -11    1    1    2    0    0  0.10185979668E+03 -0.43139262925E+02 -0.37375354858E+03  0.38977959062E+03  0.00000000000E+00 0. -1.
         11    1    1    2    0    0  0.10216313714E+03  0.41993090435E+02 -0.27445249907E+03  0.29584607565E+03  0.00000000000E+00 0.  1.
</event>
<event>
 7    1  0.1226955E-005  0.1576276E+03  0.7561462E-02  0.1191402E+00
          2   -1    0    0  501    0  0.00000000000E+00  0.00000000000E+00  0.12480311896E+04  0.12480311896E+04  0.00000000000E+00 0. -1.
         -2   -1    0    0    0  501 -0.00000000000E+00 -0.00000000000E+00 -0.29094734409E+02  0.29094734409E+02  0.00000000000E+00 0.  1.
         23    2    1    2    0    0  0.13936484171E+03 -0.72572795554E+02  0.64609185961E+03  0.67658869469E+03  0.12509276941E+03 0.  0.
          5    1    3    3  502    0  0.39740070526E+02 -0.15027589470E+02  0.42665198185E+03  0.42878256456E+03  0.41800000000E+01 0. -1.
         -5    1    3    3    0  502  0.99624771188E+02 -0.57545206084E+02  0.21943987776E+03  0.24780613013E+03  0.41800000000E+01 0. -1.
        -11    1    1    2    0    0 -0.63206796710E+02  0.38461278665E+02  0.12725694691E+03  0.14720291995E+03  0.00000000000E+00 0.  1.
         11    1    1    2    0    0 -0.76158045004E+02  0.34111516889E+02  0.44558764868E+03  0.45333430938E+03  0.00000000000E+00 0. -1.
</event>
<event>
 7    1  0.1226955E-005  0.1220236E+03  0.7561462E-02  0.1239796E+00
         -2   -1    0    0    0  501 -0.00000000000E+00  0.00000000000E+00  0.13946725003E+03  0.13946725003E+03  0.00000000000E+00 0.  1.
          2   -1    0    0  501    0  0.00000000000E+00 -0.00000000000E+00 -0.43567240314E+03  0.43567240314E+03  0.00000000000E+00 0. -1.
         23    2    1    2    0    0 -0.55355707673E+02 -0.77585537071E+02  0.79859007101E+02  0.17637823454E+03  0.12509216870E+03 0.  0.
          5    1    3    3  502    0  0.25166578583E+02  0.10561235656E+02 -0.72296536440E+01  0.28541840655E+02  0.41800000000E+01 0. -1.
         -5    1    3    3    0  502 -0.80522286256E+02 -0.88146772728E+02  0.87088660745E+02  0.14783639388E+03  0.41800000000E+01 0. -1.
        -11    1    1    2    0    0  0.40134120123E+02  0.41121847124E+02 -0.34138857953E+03  0.34619057778E+03  0.00000000000E+00 0.  1.
         11    1    1    2    0    0  0.15221587551E+02  0.36463689947E+02 -0.34675580688E+02  0.52570840855E+02  0.00000000000E+00 0. -1.
</event>
<event>
 7    1  0.1226955E-005  0.1434137E+03  0.7561462E-02  0.1208808E+00
          2   -1    0    0  501    0  0.00000000000E+00  0.00000000000E+00  0.36730423026E+03  0.36730423026E+03  0.00000000000E+00 0. -1.
         -2   -1    0    0    0  501 -0.00000000000E+00 -0.00000000000E+00 -0.60075536050E+02  0.60075536050E+02  0.00000000000E+00 0.  1.
         23    2    1    2    0    0 -0.13227479728E+01  0.95995576418E+02  0.12225171867E+03  0.19952376902E+03  0.12508937337E+03 0.  0.
          5    1    3    3  502    0  0.57026701752E+02  0.20684599756E+02  0.61325008983E+02  0.86360445266E+02  0.41800000000E+01 0.  1.
         -5    1    3    3    0  502 -0.58349449725E+02  0.75310976663E+02  0.60926709689E+02  0.11316332375E+03  0.41800000000E+01 0.  1.
        -11    1    1    2    0    0  0.44458861993E+02 -0.58700100224E+02  0.12515262201E+03  0.14520837087E+03  0.00000000000E+00 0. -1.
         11    1    1    2    0    0 -0.43136114021E+02 -0.37295476195E+02  0.59824353533E+02  0.82647626421E+02  0.00000000000E+00 0.  1.
</event>
<event>
 7    1  0.1226955E-005  0.1125139E+03  0.7561462E-02  0.1255984E+00
         -1   -1    0    0    0  501 -0.00000000000E+00  0.00000000000E+00  0.23958652042E+03  0.23958652042E+03  0.00000000000E+00 0.  1.
          1   -1    0    0  501    0  0.00000000000E+00 -0.00000000000E+00 -0.63215389011E+02  0.63215389011E+02  0.00000000000E+00 0. -1.
         23    2    1    2    0    0  0.39535529039E+02  0.26283299622E+02  0.13881351922E+03  0.19279591431E+03  0.12508877471E+03 0.  0.
          5    1    3    3  502    0  0.29373353670E+02 -0.47180883338E+02  0.37526909422E+02  0.67190557291E+02  0.41800000000E+01 0.  1.
         -5    1    3    3    0  502  0.10162175369E+02  0.73464182960E+02  0.10128660980E+03  0.12560535702E+03  0.41800000000E+01 0.  1.
        -11    1    1    2    0    0  0.13498229074E+02  0.20331284226E+02  0.30477131868E+02  0.39043807106E+02  0.00000000000E+00 0. -1.
         11    1    1    2    0    0 -0.53033758113E+02 -0.46614583848E+02  0.70804803207E+01  0.70962188019E+02  0.00000000000E+00 0.  1.
</event>
<event>
 7    1  0.1226955E-005  0.1247552E+03  0.7561462E-02  0.1235452E+00
          1   -1    0    0  501    0  0.00000000000E+00  0.00000000000E+00  0.26998584285E+03  0.26998584285E+03  0.00000000000E+00 0. -1.
         -1   -1    0    0    0  501 -0.00000000000E+00 -0.00000000000E+00 -0.86755393060E+02  0.86755393060E+02  0.00000000000E+00 0.  1.
         23    2    1    2    0    0  0.30803723516E+02  0.95675013665E+02  0.56159968007E+02  0.17001245619E+03  0.12509082953E+03 0.  0.
          5    1    3    3  502    0  0.84049371841E+01 -0.24056639230E+02 -0.14006857394E+02  0.29377360572E+02  0.41800000000E+01 0. -1.
         -5    1    3    3    0  502  0.22398786332E+02  0.11973165289E+03  0.70166825402E+02  0.14063509562E+03  0.41800000000E+01 0. -1.
        -11    1    1    2    0    0 -0.30346845412E+02 -0.72086030597E+02  0.25216393564E+02  0.82177815364E+02  0.00000000000E+00 0.  1.
         11    1    1    2    0    0 -0.45687810439E+00 -0.23588983068E+02  0.10185408822E+03  0.10455096435E+03  0.00000000000E+00 0. -1.
</event>
<event>
 6    1  0.1226955E-005  0.1063592E+03  0.7561462E-02  0.1267465E+00
         -2   -1    0    0    0  501 -0.00000000000E+00  0.00000000000E+00  0.24424235807E+03  0.24424235807E+03  0.00000000000E+00 0.  1.
          2   -1    0    0  501    0  0.00000000000E+00 -0.00000000000E+00 -0.12467767537E+03  0.12467767537E+03  0.00000000000E+00 0. -1.
          5    1    1    2  502    0  0.62639170090E+02 -0.52148945292E+02  0.84340732872E+02  0.11736272724E+03  0.41800000000E+01 0. -1.
         -5    1    1    2    0  502 -0.57748569360E+02  0.53708919972E+02  0.10855947473E+03  0.13424670313E+03  0.41800000000E+01 0.  1.
        -11    1    1    2    0    0  0.23467674190E+02  0.19868013495E+01  0.12626152100E+02  0.26722627647E+02  0.00000000000E+00 0.  1.
         11    1    1    2    0    0 -0.28358274920E+02 -0.35467760303E+01 -0.85961677009E+02  0.90587975421E+02  0.00000000000E+00 0. -1.
</event>
<event>
 7    1  0.1226955E-005  0.1050659E+03  0.7561462E-02  0.1269990E+00
         -2   -1    0    0    0  501 -0.00000000000E+00  0.00000000000E+00  0.24462347326E+02  0.24462347326E+02  0.00000000000E+00 0.  1.
          2   -1    0    0  501    0  0.00000000000E+00 -0.00000000000E+00 -0.74789691883E+03  0.74789691883E+03  0.00000000000E+00 0. -1.
         23    2    1    2    0    0 -0.19964628620E+02 -0.74557332323E+02 -0.32375579290E+03  0.35555767016E+03  0.12508421633E+03 0.  0.
          5    1    3    3  502    0  0.27000639753E+02 -0.76212909406E+02 -0.27906211857E+03  0.29056940742E+03  0.41800000000E+01 0. -1.
         -5    1    3    3    0  502 -0.46965268373E+02  0.16555770830E+01 -0.44693674324E+02  0.64988262736E+02  0.41800000000E+01 0. -1.
        -11    1    1    2    0    0  0.11637006517E+02  0.63136058195E+01 -0.21999676482E+01  0.13420931293E+02  0.00000000000E+00 0.  1.
         11    1    1    2    0    0  0.83276221026E+01  0.68243726504E+02 -0.39747881096E+03  0.40338066471E+03  0.00000000000E+00 0. -1.
</event>
<event>
 7    1  0.1226955E-005  0.1131255E+03  0.7561462E-02  0.1254889E+00
          1   -1    0    0  501    0  0.00000000000E+00  0.00000000000E+00  0.24247069200E+03  0.24247069200E+03  0.00000000000E+00 0. -1.
         -1   -1    0    0    0  501 -0.00000000000E+00 -0.00000000000E+00 -0.96547079322E+02  0.96547079322E+02  0.00000000000E+00 0.  1.
         23    2    1    2    0    0  0.54719258370E+02  0.57008906399E+02 -0.72471427665E+00  0.14794578198E+03  0.12507284497E+03 0.  0.
          5    1    3    3  502    0  0.62719013049E+02 -0.80548922701E+01 -0.36516928806E+02  0.73140374464E+02  0.41800000000E+01 0. -1.
         -5    1    3    3    0  502 -0.79997546786E+01  0.65063798669E+02  0.35792214529E+02  0.74805407512E+02  0.41800000000E+01 0. -1.
        -11    1    1    2    0    0 -0.38493314719E+02 -0.67616983338E+02  0.15217618133E+03  0.17091337536E+03  0.00000000000E+00 0. -1.
         11    1    1    2    0    0 -0.16225943651E+02  0.10608076939E+02 -0.55278543755E+01  0.20158613983E+02  0.00000000000E+00 0.  1.
</event>
<event>
 7    1  0.1226955E-005  0.1199721E+03  0.7561462E-02  0.1243143E+00
          2   -1    0    0  501    0  0.00000000000E+00  0.00000000000E+00  0.47259106780E+03  0.47259106780E+03  0.00000000000E+00 0.  1.
         -2   -1    0    0    0  501 -0.00000000000E+00 -0.00000000000E+00 -0.44393955018E+02  0.44393955018E+02  0.00000000000E+00 0. -1.
         23    2    1    2    0    0 -0.27094019414E+02 -0.85290998415E+02  0.17367832373E+03  0.23199145081E+03  0.12508889966E+03 0.  0.
          5    1    3    3  502    0 -0.68759799636E+02 -0.29089887372E+02  0.12828912992E+03  0.14849143022E+03  0.41800000000E+01 0. -1.
         -5    1    3    3    0  502  0.41665780221E+02 -0.56201111044E+02  0.45389193809E+02  0.83500020591E+02  0.41800000000E+01 0. -1.
        -11    1    1    2    0    0  0.24225378402E+02  0.25323661441E+02  0.15095531868E+02  0.38157985663E+02  0.00000000000E+00 0. -1.
         11    1    1    2    0    0  0.28686410123E+01  0.59967336974E+02  0.23942325718E+03  0.24683558634E+03  0.00000000000E+00 0.  1.
</event>
<event>
 7    1  0.1226955E-005  0.8538677E+02  0.7561462E-02  0.1314424E+00
         -1   -1    0    0    0  501 -0.00000000000E+00  0.00000000000E+00  0.15161377630E+03  0.15161377630E+03  0.00000000000E+00 0.  1.
          1   -1    0    0  501    0  0.00000000000E+00 -0.00000000000E+00 -0.80883266134E+02  0.80883266134E+02  0.00000000000E+00 0. -1.
         23    2    1    2    0    0  0.14631724180E+02  0.20240362987E+01  0.57869378024E+02  0.13860908487E+03  0.12508169099E+03 0.  0.
          5    1    3    3  502    0  0.29143106570E+02  0.47256158616E+02 -0.90802599507E+01  0.56412664433E+02  0.41800000000E+01 0.  1.
         -5    1    3    3    0  502 -0.14511382390E+02 -0.45232122317E+02  0.66949637974E+02  0.82196420439E+02  0.41800000000E+01 0.  1.
        -11    1    1    2    0    0  0.90605214916E+01 -0.29657363250E+02  0.38447840124E+02  0.49395229070E+02  0.00000000000E+00 0.  1.
         11    1    1    2    0    0 -0.23692245672E+02  0.27633326951E+02 -0.25586707981E+02  0.44492728492E+02  0.00000000000E+00 0. -1.
</event>
<event>
 7    1  0.1226955E-005  0.2186557E+03  0.7561462E-02  0.1134889E+00
         -1   -1    0    0    0  501 -0.00000000000E+00  0.00000000000E+00  0.11881889109E+04  0.11881889109E+04  0.00000000000E+00 0.  1.
          1   -1    0    0  501    0  0.00000000000E+00 -0.00000000000E+00 -0.49765267474E+02  0.49765267474E+02  0.00000000000E+00 0. -1.
         23    2    1    2    0    0  0.18926349248E+03  0.90496512598E+02  0.72171565979E+03  0.76192595611E+03  0.12508949047E+03 0.  0.
          5    1    3    3  502    0  0.10791936915E+03  0.63651015847E+02  0.60046057759E+03  0.61340722175E+03  0.41800000000E+01 0. -1.
         -5    1    3    3    0  502  0.81344123325E+02  0.26845496752E+02  0.12125508220E+03  0.14851873436E+03  0.41800000000E+01 0. -1.
        -11    1    1    2    0    0 -0.17416282421E+03 -0.47362940780E+02  0.29277553382E+03  0.34393814952E+03  0.00000000000E+00 0. -1.
         11    1    1    2    0    0 -0.15100668268E+02 -0.43133571818E+02  0.12393244985E+03  0.13209007278E+03  0.00000000000E+00 0.  1.
</event>
<event>
 7    1  0.1226955E-005  0.1077261E+03  0.7561462E-02  0.1264840E+00
          1   -1    0    0  501    0  0.00000000000E+00  0.00000000000E+00  0.15329074642E+03  0.15329074642E+03  0.00000000000E+00 0. -1.
         -1   -1    0    0    0  501 -0.00000000000E+00 -0.00000000000E+00 -0.11676672660E+03  0.11676672660E+03  0.00000000000E+00 0.  1.
         23    2    1    2    0    0 -0.73260310098E+02  0.32975121176E+00 -0.77010906352E+01  0.14515967693E+03  0.12507934777E+03 0.  0.
          5    1    3    3  502    0 -0.44268693370E+02  0.32911505912E+02 -0.56845737207E+02  0.79320833787E+02  0.41800000000E+01 0. -1.
         -5    1    3    3    0  502 -0.28991616728E+02 -0.32581754700E+02  0.49144646572E+02  0.65838843144E+02  0.41800000000E+01 0. -1.
        -11    1    1    2    0    0  0.89344967089E+02 -0.19342979894E+02  0.39333094688E+02  0.99517668548E+02  0.00000000000E+00 0. -1.
         11    1    1    2    0    0 -0.16084656991E+02  0.19013228683E+02  0.48920157676E+01  0.25380127536E+02  0.00000000000E+00 0.  1.
</event>
<event>
 6    1  0.1226955E-005  0.1364480E+03  0.7561462E-02  0.1218190E+00
          1   -1    0    0  501    0  0.00000000000E+00  0.00000000000E+00  0.24242986923E+03  0.24242986923E+03  0.00000000000E+00 0. -1.
         -1   -1    0    0    0  501 -0.00000000000E+00 -0.00000000000E+00 -0.14095857918E+03  0.14095857918E+03  0.00000000000E+00 0.  1.
          5    1    1    2  502    0 -0.95486038551E+02  0.67045220061E+02 -0.43198301551E+02  0.12448377705E+03  0.41800000000E+01 0. -1.
         -5    1    1    2    0  502  0.39496111799E+02 -0.13677283607E+02 -0.26332036167E+02  0.49576803677E+02  0.41800000000E+01 0.  1.
        -11    1    1    2    0    0  0.31299061493E+02  0.19721983823E+02  0.90785550500E+02  0.98033688474E+02  0.00000000000E+00 0.  1.
         11    1    1    2    0    0  0.24690865259E+02 -0.73089920276E+02  0.80216077265E+02  0.11129417921E+03  0.00000000000E+00 0. -1.
</event>
<event>
 7    1  0.1226955E-005  0.1245984E+03  0.7561462E-02  0.1235698E+00
          2   -1    0    0  501    0  0.00000000000E+00  0.00000000000E+00  0.50594202834E+03  0.50594202834E+03  0.00000000000E+00 0.  1.
         -2   -1    0    0    0  501 -0.00000000000E+00 -0.00000000000E+00 -0.52822967225E+02  0.52822967225E+02  0.00000000000E+00 0. -1.
         23    2    1    2    0    0  0.66905102737E+02  0.72701730929E+02  0.12010128765E+03  0.19958231909E+03  0.12508776257E+03 0.  0.
          5    1    3    3  502    0  0.30625735617E+01  0.56619810677E+02  0.12090669455E+03  0.13360794701E+03  0.41800000000E+01 0.  1.
         -5    1    3    3    0  502  0.63842529175E+02  0.16081920252E+02 -0.80540690171E+00  0.65974372075E+02  0.41800000000E+01 0.  1.
        -11    1    1    2    0    0 -0.83993814424E+02 -0.69423760297E+02  0.31815333769E+03  0.33629773362E+03  0.00000000000E+00 0.  1.
         11    1    1    2    0    0  0.17088711688E+02 -0.32779706328E+01  0.14864435777E+02  0.22884942858E+02  0.00000000000E+00 0. -1.
</event>
<event>
 7    1  0.1226955E-005  0.2152549E+03  0.7561462E-02  0.1137471E+00
         -1   -1    0    0    0  501 -0.00000000000E+00  0.00000000000E+00  0.10209729103E+03  0.10209729103E+03  0.00000000000E+00 0.  1.
          1   -1    0    0  501    0  0.00000000000E+00 -0.00000000000E+00 -0.54715801947E+03  0.54715801947E+03  0.00000000000E+00 0. -1.
         23    2    1    2    0    0  0.11404899345E+03 -0.15555231384E+03 -0.11612827453E+03  0.25756223546E+03  0.12509529863E+03 0.  0.
          5    1    3    3  502    0  0.25558980572E+02  0.19521009053E+02 -0.26353573706E+02  0.41788928311E+02  0.41800000000E+01 0. -1.
         -5    1    3    3    0  502  0.88490012880E+02 -0.17507332289E+03 -0.89774700827E+02  0.21577330714E+03  0.41800000000E+01 0. -1.
        -11    1    1    2    0    0 -0.54037675648E+02  0.12124511463E+03 -0.15237323300E+03  0.20208426546E+03  0.00000000000E+00 0. -1.
         11    1    1    2    0    0 -0.60011317804E+02  0.34307199203E+02 -0.17655922091E+03  0.18960880957E+03  0.00000000000E+00 0.  1.
</event>
<event>
 7    1  0.1226955E-005  0.1830546E+03  0.7561462E-02  0.1164879E+00
         -2   -1    0    0    0  501 -0.00000000000E+00  0.00000000000E+00  0.11027845871E+03  0.11027845871E+03  0.00000000000E+00 0. -1.
          2   -1    0    0  501    0  0.00000000000E+00 -0.00000000000E+00 -0.35386949104E+03  0.35386949104E+03  0.00000000000E+00 0.  1.
         23    2    1    2    0    0 -0.64712866857E+00 -0.15950391213E+03 -0.75727894753E+02  0.21638828215E+03  0.12508899971E+03 0.  0.
          5    1    3    3  502    0  0.34413299636E+02 -0.14375500964E+03 -0.92307647572E+02  0.17432140485E+03  0.41800000000E+01 0. -1.
         -5    1    3    3    0  502 -0.35060428304E+02 -0.15748902496E+02  0.16579752818E+02  0.42066877305E+02  0.41800000000E+01 0. -1.
        -11    1    1    2    0    0  0.35937227366E+02  0.35006618553E+02 -0.66946268524E+02  0.83658535264E+02  0.00000000000E+00 0.  1.
         11    1    1    2    0    0 -0.35290098697E+02  0.12449729358E+03 -0.10091686905E+03  0.16410113234E+03  0.00000000000E+00 0. -1.
</event>
<event>
 7    1  0.1226955E-005  0.5671028E+02  0.7561462E-02  0.1412180E+00
          1   -1    0    0  501    0  0.00000000000E+00  0.00000000000E+00  0.79711265488E+02  0.79711265488E+02  0.00000000000E+00 0. -1.
         -1   -1    0    0    0  501 -0.00000000000E+00 -0.00000000000E+00 -0.16496886023E+03  0.16496886023E+03  0.00000000000E+00 0.  1.
         23    2    1    2    0    0  0.18508879898E+02 -0.21355006477E+02 -0.34271250214E+02  0.13271419065E+03  0.12505967725E+03 0.  0.
          5    1    3    3  502    0 -0.32244382202E+00  0.63295671164E+01 -0.77502688831E+02  0.77873657715E+02  0.41800000000E+01 0.  1.
         -5    1    3    3    0  502  0.18831323720E+02 -0.27684573593E+02  0.43231438617E+02  0.54840532939E+02  0.41800000000E+01 0.  1.
        -11    1    1    2    0    0  0.13635470481E+02 -0.17161422626E+02 -0.57350489310E+02  0.61396409552E+02  0.00000000000E+00 0.  1.
         11    1    1    2    0    0 -0.32144350379E+02  0.38516429103E+02  0.63641447783E+01  0.50569525516E+02  0.00000000000E+00 0. -1.
</event>
<event>
 7    1  0.1226955E-005  0.5579690E+02  0.7561462E-02  0.1416367E+00
          2   -1    0    0  501    0  0.00000000000E+00  0.00000000000E+00  0.13564510850E+03  0.13564510850E+03  0.00000000000E+00 0.  1.
         -2   -1    0    0    0  501 -0.00000000000E+00 -0.00000000000E+00 -0.98689747738E+02  0.98689747738E+02  0.00000000000E+00 0. -1.
         23    2    1    2    0    0  0.16372779962E+02  0.17996072523E+02 -0.13263472061E+02  0.12812376807E+03  0.12509138141E+03 0.  0.
          5    1    3    3  502    0  0.89068898609E+01  0.38509305138E+01  0.55962521764E+02  0.56951194851E+02  0.41800000000E+01 0. -1.
         -5    1    3    3    0  502  0.74658901009E+01  0.14145142009E+02 -0.69225993824E+02  0.71172573218E+02  0.41800000000E+01 0. -1.
        -11    1    1    2    0    0 -0.38991800356E+02 -0.37893138486E+02  0.53036390136E+02  0.75954651721E+02  0.00000000000E+00 0.  1.
         11    1    1    2    0    0  0.22619020394E+02  0.19897065963E+02 -0.28175573102E+01  0.30256436451E+02  0.00000000000E+00 0. -1.
</event>
<event>
 7    1  0.1226955E-005  0.1272042E+03  0.7561462E-02  0.1231664E+00
         -2   -1    0    0    0  501 -0.00000000000E+00  0.00000000000E+00  0.79694437334E+03  0.79694437334E+03  0.00000000000E+00 0. -1.
          2   -1    0    0  501    0  0.00000000000E+00 -0.00000000000E+00 -0.27597515990E+02  0.27597515990E+02  0.00000000000E+00 0.  1.
         23    2    1    2    0    0 -0.21476770536E+02 -0.76743431283E+02  0.58804224535E+03  0.60645825635E+03  0.12508848252E+03 0.  0.
          5    1    3    3  502    0 -0.59867522900E+02 -0.13248028518E+02  0.14910774711E+03  0.16127685267E+03  0.41800000000E+01 0. -1.
         -5    1    3    3    0  502  0.38390752364E+02 -0.63495402765E+02  0.43893449824E+03  0.44518140368E+03  0.41800000000E+01 0. -1.
        -11    1    1    2    0    0 -0.24813278551E+02 -0.44138379989E+01  0.59144537959E+02  0.64290412417E+02  0.00000000000E+00 0. -1.
         11    1    1    2    0    0  0.46290049088E+02  0.81157269282E+02  0.12216007404E+03  0.15379322057E+03  0.00000000000E+00 0.  1.
</event>
<event>
 7    1  0.1226955E-005  0.1101170E+03  0.7561462E-02  0.1260353E+00
         -1   -1    0    0    0  501 -0.00000000000E+00  0.00000000000E+00  0.39747738544E+02  0.39747738544E+02  0.00000000000E+00 0.  1.
          1   -1    0    0  501    0  0.00000000000E+00 -0.00000000000E+00 -0.38848797068E+03  0.38848797068E+03  0.00000000000E+00 0. -1.
         23    2    1    2    0    0 -0.30262956817E+02  0.39412976635E+02 -0.13248408220E+03  0.18886271141E+03  0.12509141634E+03 0.  0.
          5    1    3    3  502    0  0.12202648672E+02 -0.37153519924E+02 -0.73032985481E+02  0.82949249819E+02  0.41800000000E+01 0.  1.
         -5    1    3    3    0  502 -0.42465605489E+02  0.76566496559E+02 -0.59451096716E+02  0.10591346159E+03  0.41800000000E+01 0.  1.
        -11    1    1    2    0    0  0.56439113354E+02 -0.35777284596E+02 -0.19274810031E+03  0.20400298474E+03  0.00000000000E+00 0. -1.
         11    1    1    2    0    0 -0.26176156537E+02 -0.36356920395E+01 -0.23508049626E+02  0.35370013075E+02  0.00000000000E+00 0.  1.
</event>
<event>
 7    1  0.1226955E-005  0.9055015E+02  0.7561462E-02  0.1301525E+00
         -3   -1    0    0    0  501 -0.00000000000E+00  0.00000000000E+00  0.11329892442E+03  0.11329892442E+03  0.00000000000E+00 0. -1.
          3   -1    0    0  501    0  0.00000000000E+00 -0.00000000000E+00 -0.14494717557E+03  0.14494717557E+03  0.00000000000E+00 0.  1.
         23    2    1    2    0    0 -0.12956373891E+01  0.45212802046E+02  0.33652708232E+02  0.13720903145E+03  0.12509171593E+03 0.  0.
          5    1    3    3  502    0 -0.33470810852E+02  0.17703971050E+02 -0.38047213639E+02  0.53840399662E+02  0.41800000000E+01 0. -1.
         -5    1    3    3    0  502  0.32175173463E+02  0.27508830996E+02  0.71699921871E+02  0.83368631790E+02  0.41800000000E+01 0. -1.
        -11    1    1    2    0    0 -0.42741186141E+02 -0.35047348182E+02 -0.25737270087E+02  0.60971572711E+02  0.00000000000E+00 0.  1.
         11    1    1    2    0    0  0.44036823530E+02 -0.10165453864E+02 -0.39563689292E+02  0.60065495829E+02  0.00000000000E+00 0. -1.
</event>
<event>
 7    1  0.1226955E-005  0.1537894E+03  0.7561462E-02  0.1195892E+00
          1   -1    0    0  501    0  0.00000000000E+00  0.00000000000E+00  0.49870540410E+03  0.49870540410E+03  0.00000000000E+00 0. -1.
         -1   -1    0    0    0  501 -0.00000000000E+00 -0.00000000000E+00 -0.57909404123E+02  0.57909404123E+02  0.00000000000E+00 0.  1.
         23    2    1    2    0    0 -0.53514032745E+02 -0.11379744232E+03  0.17757599048E+03  0.25098505462E+03  0.12508659269E+03 0.  0.
          5    1    3    3  502    0 -0.62969547934E+02 -0.78657569141E+01  0.33563839361E+02  0.71909928463E+02  0.41800000000E+01 0. -1.
         -5    1    3    3    0  502  0.94555151888E+01 -0.10593168540E+03  0.14401215112E+03  0.17907512616E+03  0.41800000000E+01 0. -1.
        -11    1    1    2    0    0  0.18264677395E+02  0.96627846026E+02  0.11034049412E+03  0.14780244826E+03  0.00000000000E+00 0.  1.
         11    1    1    2    0    0  0.35249355351E+02  0.17169596292E+02  0.15287951538E+03  0.15782730534E+03  0.00000000000E+00 0. -1.
</event>
<event>
 6    1  0.1226955E-005  0.1522709E+03  0.7561462E-02  0.1197710E+00
         -1   -1    0    0    0  501 -0.00000000000E+00  0.00000000000E+00  0.36496776757E+03  0.36496776757E+03  0.00000000000E+00 0.  1.
          1   -1    0    0  501    0  0.00000000000E+00 -0.00000000000E+00 -0.37796388276E+03  0.37796388276E+03  0.00000000000E+00 0. -1.
          5    1    1    2  502    0 -0.88936603381E+02  0.41092256204E+02  0.25474861994E+03  0.27297000697E+03  0.41800000000E+01 0. -1.
         -5    1    1    2    0  502  0.71617697338E+02  0.27602145996E+02  0.72455251613E+02  0.10563242363E+03  0.41800000000E+01 0.  1.
        -11    1    1    2    0    0  0.63474421358E+02 -0.44349293435E+02 -0.18348406786E+03  0.19915387305E+03  0.00000000000E+00 0.  1.
         11    1    1    2    0    0 -0.46155515315E+02 -0.24345108765E+02 -0.15671591889E+03  0.16517534667E+03  0.00000000000E+00 0. -1.
</event>
<event>
 7    1  0.1226955E-005  0.1177892E+03  0.7561462E-02  0.1246789E+00
         -1   -1    0    0    0  501 -0.00000000000E+00  0.00000000000E+00  0.78104814843E+02  0.78104814843E+02  0.00000000000E+00 0.  1.
          1   -1    0    0  501    0  0.00000000000E+00 -0.00000000000E+00 -0.20666969839E+03  0.20666969839E+03  0.00000000000E+00 0. -1.
         23    2    1    2    0    0 -0.32159099674E+02  0.51913647264E+02 -0.47601631753E+02  0.14711393678E+03  0.12508941037E+03 0.  0.
          5    1    3    3  502    0 -0.77815342366E+02  0.13140188607E+02 -0.30164068357E+02  0.84588625028E+02  0.41800000000E+01 0.  1.
         -5    1    3    3    0  502  0.45656242693E+02  0.38773458657E+02 -0.17437563396E+02  0.62525311756E+02  0.41800000000E+01 0.  1.
        -11    1    1    2    0    0  0.37720410448E+02  0.61139338546E+01 -0.39434082759E+00  0.38214723030E+02  0.00000000000E+00 0.  1.
         11    1    1    2    0    0 -0.55613107743E+01 -0.58027581118E+02 -0.80568910964E+02  0.99445853417E+02  0.00000000000E+00 0. -1.
</event>
<event>
 7    1  0.1226955E-005  0.2245830E+03  0.7561462E-02  0.1130512E+00
         -1   -1    0    0    0  501 -0.00000000000E+00  0.00000000000E+00  0.10695695634E+03  0.10695695634E+03  0.00000000000E+00 0.  1.
          1   -1    0    0  501    0  0.00000000000E+00 -0.00000000000E+00 -0.58759070665E+03  0.58759070665E+03  0.00000000000E+00 0. -1.
         23    2    1    2    0    0  0.12112959022E+03  0.16368282331E+03 -0.11361466226E+03  0.26460886756E+03  0.12508044228E+03 0.  0.
          5    1    3    3  502    0  0.10658743771E+03  0.18455471939E+03 -0.99984550385E+02  0.23544789029E+03  0.41800000000E+01 0. -1.
         -5    1    3    3    0  502  0.14542152511E+02 -0.20871896083E+02 -0.13630111874E+02  0.29160977272E+02  0.41800000000E+01 0. -1.
        -11    1    1    2    0    0 -0.88632996792E+02 -0.76152107841E+02 -0.12793220719E+03  0.17326742708E+03  0.00000000000E+00 0.  1.
         11    1    1    2    0    0 -0.32496593427E+02 -0.87530715465E+02 -0.23908688086E+03  0.25667136835E+03  0.00000000000E+00 0. -1.
</event>
<event>
 7    1  0.1226955E-005  0.1154395E+03  0.7561462E-02  0.1250816E+00
         -2   -1    0    0    0  501 -0.00000000000E+00  0.00000000000E+00  0.13816248677E+04  0.13816248677E+04  0.00000000000E+00 0.  1.
          2   -1    0    0  501    0  0.00000000000E+00 -0.00000000000E+00 -0.12275779398E+02  0.12275779398E+02  0.00000000000E+00 0. -1.
         23    2    1    2    0    0  0.13190720045E+02 -0.50080300310E+02  0.10279765934E+04  0.10368538069E+04  0.12509160148E+03 0.  0.
          5    1    3    3  502    0 -0.45362898220E+02 -0.50326786280E+02  0.73002871532E+03  0.73317799718E+03  0.41800000000E+01 0. -1.
         -5    1    3    3    0  502  0.58553618266E+02  0.24648597012E+00  0.29794787807E+03  0.30367580972E+03  0.41800000000E+01 0. -1.
        -11    1    1    2    0    0  0.45497312000E+01 -0.25886044629E+02  0.74144913990E+02  0.78665466573E+02  0.00000000000E+00 0.  1.
         11    1    1    2    0    0 -0.17740451245E+02  0.75966344939E+02  0.26722758091E+03  0.27838137361E+03  0.00000000000E+00 0. -1.
</event>
<event>
 7    1  0.1226955E-005  0.1685392E+03  0.7561462E-02  0.1179380E+00
         -2   -1    0    0    0  501 -0.00000000000E+00  0.00000000000E+00  0.63710566663E+02  0.63710566663E+02  0.00000000000E+00 0.  1.
          2   -1    0    0  501    0  0.00000000000E+00 -0.00000000000E+00 -0.58163111636E+03  0.58163111636E+03  0.00000000000E+00 0. -1.
         23    2    1    2    0    0  0.11172536806E+03  0.11459329453E+03 -0.22252545293E+03  0.30129638127E+03  0.12509097147E+03 0.  0.
          5    1    3    3  502    0  0.37886594317E+02  0.63392232682E+02 -0.15502841073E+02  0.75576316890E+02  0.41800000000E+01 0.  1.
         -5    1    3    3    0  502  0.73838773746E+02  0.51201061844E+02 -0.20702261186E+03  0.22572006438E+03  0.41800000000E+01 0.  1.
        -11    1    1    2    0    0 -0.13871348894E+02  0.82230451550E+01 -0.51532936867E+02  0.53997003379E+02  0.00000000000E+00 0. -1.
         11    1    1    2    0    0 -0.97854019169E+02 -0.12281633968E+03 -0.24386215989E+03  0.29004829837E+03  0.00000000000E+00 0.  1.
</event>
<event>
 7    1  0.1226955E-005  0.1811182E+03  0.7561462E-02  0.1166725E+00
          1   -1    0    0  501    0  0.00000000000E+00  0.00000000000E+00  0.16266222738E+04  0.16266222738E+04  0.00000000000E+00 0. -1.
         -1   -1    0    0    0  501 -0.00000000000E+00 -0.00000000000E+00 -0.23556505738E+02  0.23556505738E+02  0.00000000000E+00 0.  1.
         23    2    1    2    0    0  0.21746443308E+02 -0.16130951224E+03  0.87339499158E+03  0.89719528738E+03  0.12508759271E+03 0.  0.
          5    1    3    3  502    0  0.52286484338E+02 -0.12486085322E+03  0.78628695238E+03  0.79786512206E+03  0.41800000000E+01 0. -1.
         -5    1    3    3    0  502 -0.30540041031E+02 -0.36448659018E+02  0.87108039196E+02  0.99330165322E+02  0.41800000000E+01 0. -1.
        -11    1    1    2    0    0 -0.49743799588E+02  0.10182766279E+03  0.55263432804E+03  0.56413475255E+03  0.00000000000E+00 0. -1.
         11    1    1    2    0    0  0.27997356281E+02  0.59481849454E+02  0.17703644845E+03  0.18884873961E+03  0.00000000000E+00 0.  1.
</event>
<event>
 7    1  0.1226955E-005  0.1811147E+03  0.7561462E-02  0.1166729E+00
         -3   -1    0    0    0  501 -0.00000000000E+00  0.00000000000E+00  0.23094833502E+03  0.23094833502E+03  0.00000000000E+00 0.  1.
          3   -1    0    0  501    0  0.00000000000E+00 -0.00000000000E+00 -0.20744909297E+03  0.20744909297E+03  0.00000000000E+00 0. -1.
         23    2    1    2    0    0 -0.33638391772E+02  0.14597195795E+03  0.31878399258E+02  0.19774477186E+03  0.12508960209E+03 0.  0.
          5    1    3    3  502    0 -0.64605486118E+02  0.13109449800E+03  0.54901990044E+02  0.15617726196E+03  0.41800000000E+01 0.  1.
         -5    1    3    3    0  502  0.30967094346E+02  0.14877459948E+02 -0.23023590786E+02  0.41567509902E+02  0.41800000000E+01 0.  1.
        -11    1    1    2    0    0  0.70641011237E+02 -0.92650712934E+02 -0.82027042036E+02  0.14248769316E+03  0.00000000000E+00 0. -1.
         11    1    1    2    0    0 -0.37002619465E+02 -0.53321245014E+02  0.73647884828E+02  0.98164962980E+02  0.00000000000E+00 0.  1.
</event>
<event>
 7    1  0.1226955E-005  0.1692609E+03  0.7561462E-02  0.1178621E+00
         -1   -1    0    0    0  501 -0.00000000000E+00  0.00000000000E+00  0.56758228623E+02  0.56758228623E+02  0.00000000000E+00 0.  1.
          1   -1    0    0  501    0  0.00000000000E+00 -0.00000000000E+00 -0.86970268711E+03  0.86970268711E+03  0.00000000000E+00 0. -1.
         23    2    1    2    0    0 -0.12550678583E+02  0.13401565317E+03 -0.13161658817E+03  0.22602634015E+03  0.12508902962E+03 0.  0.
          5    1    3    3  502    0 -0.63220506384E+02  0.72164013011E+02 -0.39128666166E+02  0.10369668325E+03  0.41800000000E+01 0.  1.
         -5    1    3    3    0  502  0.50669827801E+02  0.61851640160E+02 -0.92487922004E+02  0.12232965690E+03  0.41800000000E+01 0.  1.
        -11    1    1    2    0    0  0.49635308483E+02 -0.10198645129E+03 -0.46704459539E+03  0.48061996856E+03  0.00000000000E+00 0.  1.
         11    1    1    2    0    0 -0.37084629899E+02 -0.32029201878E+02 -0.21428327492E+03  0.21981460702E+03  0.00000000000E+00 0. -1.
</event>
<event>
 7    1  0.1226955E-005  0.1788601E+03  0.7561462E-02  0.1168911E+00
          1   -1    0    0  501    0  0.00000000000E+00  0.00000000000E+00  0.68452382643E+03  0.68452382643E+03  0.00000000000E+00 0. -1.
         -1   -1    0    0    0  501 -0.00000000000E+00 -0.00000000000E+00 -0.46965305132E+02  0.46965305132E+02  0.00000000000E+00 0.  1.
         23    2    1    2    0    0 -0.95640300866E+02  0.10543458694E+03  0.32506579751E+03  0.37626962750E+03  0.12509012990E+03 0.  0.
          5    1    3    3  502    0 -0.23783043256E+01 -0.26670935460E+02  0.36568273012E+02  0.45515998516E+02  0.41800000000E+01 0. -1.
         -5    1    3    3    0  502 -0.93261996541E+02  0.13210552240E+03  0.28849752450E+03  0.33075362898E+03  0.41800000000E+01 0. -1.
        -11    1    1    2    0    0 -0.16026224875E+02 -0.30265576642E+02  0.59982586097E+02  0.69070656925E+02  0.00000000000E+00 0.  1.
         11    1    1    2    0    0  0.11166652574E+03 -0.75169010295E+02  0.25251013769E+03  0.28614884714E+03  0.00000000000E+00 0. -1.
</event>
<event>
 7    1  0.1226955E-005  0.1234069E+03  0.7561462E-02  0.1237580E+00
          1   -1    0    0  501    0  0.00000000000E+00  0.00000000000E+00  0.91087374258E+02  0.91087374258E+02  0.00000000000E+00 0. -1.
         -1   -1    0    0    0  501 -0.00000000000E+00 -0.00000000000E+00 -0.24575678401E+03  0.24575678401E+03  0.00000000000E+00 0.  1.
         23    2    1    2    0    0 -0.65977996261E+02 -0.25842650174E+02 -0.16721765382E+03  0.22052345308E+03  0.12509161063E+03 0.  0.
          5    1    3    3  502    0  0.15125557084E+02 -0.54844355077E+02 -0.57811179525E+02  0.81217551299E+02  0.41800000000E+01 0.  1.
         -5    1    3    3    0  502 -0.81103553345E+02  0.29001704903E+02 -0.10940647429E+03  0.13930590178E+03  0.41800000000E+01 0.  1.
        -11    1    1    2    0    0  0.44664972308E+02 -0.23003564199E+02 -0.19773490912E+02  0.53991801785E+02  0.00000000000E+00 0.  1.
         11    1    1    2    0    0  0.21313023953E+02  0.48846214373E+02  0.32321734976E+02  0.62328903411E+02  0.00000000000E+00 0. -1.
</event>
<event>
 7    1  0.1226955E-005  0.1052449E+03  0.7561462E-02  0.1269638E+00
         -2   -1    0    0    0  501 -0.00000000000E+00  0.00000000000E+00  0.10965823645E+03  0.10965823645E+03  0.00000000000E+00 0. -1.
          2   -1    0    0  501    0  0.00000000000E+00 -0.00000000000E+00 -0.21936322360E+03  0.21936322360E+03  0.00000000000E+00 0.  1.
         23    2    1    2    0    0 -0.13476551034E+02 -0.31826623449E+02  0.59764049820E+02  0.13720789206E+03  0.11857365899E+03 0.  0.
          5    1    3    3  502    0 -0.59348364133E+02  0.76581503204E+01  0.15061007221E+02  0.61848055185E+02  0.41800000000E+01 0. -1.
         -5    1    3    3    0  502  0.45871813099E+02 -0.39484773769E+02  0.44703042599E+02  0.75359836878E+02  0.41800000000E+01 0.  1.
        -11    1    1    2    0    0  0.48506120835E+02  0.13758098873E+02 -0.96768448235E+02  0.10911581745E+03  0.00000000000E+00 0.  1.
         11    1    1    2    0    0 -0.35029569801E+02  0.18068524576E+02 -0.72700588737E+02  0.82697750535E+02  0.00000000000E+00 0. -1.
</event>
<event>
 7    1  0.1226955E-005  0.1114013E+03  0.7561462E-02  0.1257997E+00
          2   -1    0    0  501    0  0.00000000000E+00  0.00000000000E+00  0.39880628830E+03  0.39880628830E+03  0.00000000000E+00 0.  1.
         -2   -1    0    0    0  501 -0.00000000000E+00 -0.00000000000E+00 -0.34945920169E+02  0.34945920169E+02  0.00000000000E+00 0. -1.
         23    2    1    2    0    0  0.46014104808E+02 -0.77489535751E+01  0.19655387664E+03  0.23760863201E+03  0.12508833463E+03 0.  0.
          5    1    3    3  502    0 -0.39711305948E+02 -0.15472579196E+02  0.96405179482E+02  0.10548848069E+03  0.41800000000E+01 0.  1.
         -5    1    3    3    0  502  0.85725410756E+02  0.77236256213E+01  0.10014869716E+03  0.13212015132E+03  0.41800000000E+01 0.  1.
        -11    1    1    2    0    0 -0.44944179692E+02 -0.31282187776E+02  0.13423436050E+03  0.14497385315E+03  0.00000000000E+00 0.  1.
         11    1    1    2    0    0 -0.10699251163E+01  0.39031141351E+02  0.33072130993E+02  0.51169723307E+02  0.00000000000E+00 0. -1.
</event>
<event>
 7    1  0.1226955E-005  0.1160687E+03  0.7561462E-02  0.1249727E+00
          2   -1    0    0  501    0  0.00000000000E+00  0.00000000000E+00  0.58656235871E+03  0.58656235871E+03  0.00000000000E+00 0. -1.
         -2   -1    0    0    0  501 -0.00000000000E+00 -0.00000000000E+00 -0.25554200036E+02  0.25554200036E+02  0.00000000000E+00 0.  1.
         23    2    1    2    0    0  0.37022862246E+02 -0.34508807934E+02  0.25424143269E+03  0.28782993194E+03  0.12508322618E+03 0.  0.
          5    1    3    3  502    0  0.51517759473E+02 -0.71486618843E+02  0.12824448453E+03  0.15565518439E+03  0.41800000000E+01 0. -1.
         -5    1    3    3    0  502 -0.14494897226E+02  0.36977810909E+02  0.12599694816E+03  0.13217474756E+03  0.41800000000E+01 0. -1.
        -11    1    1    2    0    0  0.24129124120E+02 -0.12197961774E+02  0.60223710241E+02  0.66014393714E+02  0.00000000000E+00 0.  1.
         11    1    1    2    0    0 -0.61151986366E+02  0.46706769708E+02  0.24654301574E+03  0.25827223309E+03  0.00000000000E+00 0. -1.
</event>
<event>
 7    1  0.1226955E-005  0.1570024E+03  0.7561462E-02  0.1192123E+00
         -2   -1    0    0    0  501 -0.00000000000E+00  0.00000000000E+00  0.77479430156E+02  0.77479430156E+02  0.00000000000E+00 0.  1.
          2   -1    0    0  501    0  0.00000000000E+00 -0.00000000000E+00 -0.38757944106E+03  0.38757944106E+03  0.00000000000E+00 0. -1.
         23    2    1    2    0    0  0.13011357230E+03  0.18887441025E+02 -0.12566447532E+03  0.22073766265E+03  0.12508908117E+03 0.  0.
          5    1    3    3  502    0  0.17511618285E+02  0.36500694158E+02 -0.93912589364E+02  0.10235235361E+03  0.41800000000E+01 0. -1.
         -5    1    3    3    0  502  0.11260195401E+03 -0.17613253133E+02 -0.31751885961E+02  0.11838530903E+03  0.41800000000E+01 0. -1.
        -11    1    1    2    0    0 -0.34622883510E+02  0.35315244841E+02 -0.70202719459E+02  0.85873933182E+02  0.00000000000E+00 0.  1.
         11    1    1    2    0    0 -0.95490688785E+02 -0.54202685866E+02 -0.11423281612E+03  0.15844727539E+03  0.00000000000E+00 0. -1.
</event>
<event>
 7    1  0.1226955E-005  0.1194411E+03  0.7561462E-02  0.1244022E+00
         -2   -1    0    0    0  501 -0.00000000000E+00  0.00000000000E+00  0.13992066934E+02  0.13992066934E+02  0.00000000000E+00 0.  1.
          2   -1    0    0  501    0  0.00000000000E+00 -0.00000000000E+00 -0.11522928907E+04  0.11522928907E+04  0.00000000000E+00 0. -1.
         23    2    1    2    0    0  0.26082631274E+02  0.54876090265E+02 -0.51618434790E+03  0.53458886976E+03  0.12508912711E+03 0.  0.
          5    1    3    3  502    0  0.53805705366E+02  0.76698035837E+02 -0.44792239461E+03  0.45763477427E+03  0.41800000000E+01 0. -1.
         -5    1    3    3    0  502 -0.27723074092E+02 -0.21821945573E+02 -0.68261953291E+02  0.76954095490E+02  0.41800000000E+01 0. -1.
        -11    1    1    2    0    0 -0.60411922880E+02 -0.37379963622E+02 -0.39714480213E+03  0.40344870302E+03  0.00000000000E+00 0. -1.
         11    1    1    2    0    0  0.34329291605E+02 -0.17496126643E+02 -0.22497167375E+03  0.22824738487E+03  0.00000000000E+00 0.  1.
</event>
<event>
 7    1  0.1226955E-005  0.9319999E+02  0.7561462E-02  0.1295282E+00
          1   -1    0    0  501    0  0.00000000000E+00  0.00000000000E+00  0.26170466759E+03  0.26170466759E+03  0.00000000000E+00 0. -1.
         -1   -1    0    0    0  501 -0.00000000000E+00 -0.00000000000E+00 -0.56624863825E+02  0.56624863825E+02  0.00000000000E+00 0.  1.
         23    2    1    2    0    0  0.16599184304E+02  0.62335491915E+01  0.44751957932E+02  0.13402740161E+03  0.12508483757E+03 0.  0.
          5    1    3    3  502    0  0.43262574962E+01  0.55330952063E+02 -0.12969503092E+02  0.57148151069E+02  0.41800000000E+01 0. -1.
         -5    1    3    3    0  502  0.12272926808E+02 -0.49097402872E+02  0.57721461023E+02  0.76879250542E+02  0.41800000000E+01 0. -1.
        -11    1    1    2    0    0  0.30039668891E+02 -0.13189728019E+02  0.11230342752E+03  0.11699748059E+03  0.00000000000E+00 0. -1.
         11    1    1    2    0    0 -0.46638853195E+02  0.69561788274E+01  0.48024418313E+02  0.67304649212E+02  0.00000000000E+00 0.  1.
</event>
<event>
 7    1  0.1226955E-005  0.1079464E+03  0.7561462E-02  0.1264421E+00
          1   -1    0    0  501    0  0.00000000000E+00  0.00000000000E+00  0.64764875010E+03  0.64764875010E+03  0.00000000000E+00 0. -1.
         -1   -1    0    0    0  501 -0.00000000000E+00 -0.00000000000E+00 -0.21191319546E+02  0.21191319546E+02  0.00000000000E+00 0.  1.
         23    2    1    2    0    0 -0.11978885290E+02  0.36410613783E+01  0.23514030516E+03  0.26663620625E+03  0.12508857802E+03 0.  0.
          5    1    3    3  502    0  0.45388206051E+02  0.37167579384E+02  0.11986783814E+03  0.13351887217E+03  0.41800000000E+01 0. -1.
         -5    1    3    3    0  502 -0.57367091341E+02 -0.33526518006E+02  0.11527246703E+03  0.13311733408E+03  0.41800000000E+01 0. -1.
        -11    1    1    2    0    0 -0.76452659373E+01 -0.44512479847E+02  0.14950025651E+03  0.15617342172E+03  0.00000000000E+00 0.  1.
         11    1    1    2    0    0  0.19624151227E+02  0.40871418469E+02  0.24181686888E+03  0.24603044168E+03  0.00000000000E+00 0. -1.
</event>
<event>
 7    1  0.1226955E-005  0.1702395E+03  0.7561462E-02  0.1177598E+00
         -3   -1    0    0    0  501 -0.00000000000E+00  0.00000000000E+00  0.18645563501E+03  0.18645563501E+03  0.00000000000E+00 0.  1.
          3   -1    0    0  501    0  0.00000000000E+00 -0.00000000000E+00 -0.17694203343E+03  0.17694203343E+03  0.00000000000E+00 0. -1.
         23    2    1    2    0    0 -0.39329843274E+02  0.13679986158E+03  0.34485957893E+02  0.19260930477E+03  0.12509206326E+03 0.  0.
          5    1    3    3  502    0  0.33068214040E+02  0.56259434011E+02 -0.23756048062E+02  0.69573363542E+02  0.41800000000E+01 0. -1.
         -5    1    3    3    0  502 -0.72398057314E+02  0.80540427567E+02  0.58242005955E+02  0.12303594123E+03  0.41800000000E+01 0. -1.
        -11    1    1    2    0    0 -0.14893071653E+02 -0.10017537821E+03 -0.15459808652E+01  0.10128820286E+03  0.00000000000E+00 0. -1.
         11    1    1    2    0    0  0.54222914927E+02 -0.36624483368E+02 -0.23426375447E+02  0.69500160803E+02  0.00000000000E+00 0.  1.
</event>
<event>
 7    1  0.1226955E-005  0.9038569E+02  0.7561462E-02  0.1301920E+00
         -1   -1    0    0    0  501 -0.00000000000E+00  0.00000000000E+00  0.71400466115E+02  0.71400466115E+02  0.00000000000E+00 0.  1.
          1   -1    0    0  501    0  0.00000000000E+00 -0.00000000000E+00 -0.18738227416E+03  0.18738227416E+03  0.00000000000E+00 0. -1.
         23    2    1    2    0    0 -0.54143209401E-01 -0.35453258633E+02 -0.52861451412E+02  0.14035116315E+03  0.12508868643E+03 0.  0.
          5    1    3    3  502    0  0.43815478139E+02 -0.21010186860E+02  0.21029939899E+02  0.53112661848E+02  0.41800000000E+01 0.  1.
         -5    1    3    3    0  502 -0.43869621349E+02 -0.14443071773E+02 -0.73891391311E+02  0.87238501302E+02  0.41800000000E+01 0.  1.
        -11    1    1    2    0    0 -0.27835677703E+02 -0.12214287561E+02  0.49258544996E+01  0.30794119834E+02  0.00000000000E+00 0.  1.
         11    1    1    2    0    0  0.27889820912E+02  0.47667546195E+02 -0.68046211132E+02  0.87637457289E+02  0.00000000000E+00 0. -1.
</event>
<event>
 7    1  0.1226955E-005  0.1093568E+03  0.7561462E-02  0.1261766E+00
          3   -1    0    0  501    0  0.00000000000E+00  0.00000000000E+00  0.57906024112E+02  0.57906024112E+02  0.00000000000E+00 0. -1.
         -3   -1    0    0    0  501 -0.00000000000E+00 -0.00000000000E+00 -0.31268566243E+03  0.31268566243E+03  0.00000000000E+00 0.  1.
         23    2    1    2    0    0  0.20959866671E+02  0.65762797134E+02 -0.19907633349E+03  0.24503943039E+03  0.12509546113E+03 0.  0.
          5    1    3    3  502    0  0.53874615867E+02  0.62781896177E+02 -0.19451218525E+03  0.21141547563E+03  0.41800000000E+01 0.  1.
         -5    1    3    3    0  502 -0.32914749196E+02  0.29809009564E+01 -0.45641482316E+01  0.33623954768E+02  0.41800000000E+01 0.  1.
        -11    1    1    2    0    0  0.27607326217E+02 -0.36850989507E+02 -0.51188702632E+02  0.68850876289E+02  0.00000000000E+00 0.  1.
         11    1    1    2    0    0 -0.48567192888E+02 -0.28911807626E+02 -0.45146022035E+01  0.56701379862E+02  0.00000000000E+00 0. -1.
</event>
<event>
 7    1  0.1226955E-005  0.7148171E+02  0.7561462E-02  0.1355126E+00
          3   -1    0    0  501    0  0.00000000000E+00  0.00000000000E+00  0.42572403561E+03  0.42572403561E+03  0.00000000000E+00 0. -1.
         -3   -1    0    0    0  501 -0.00000000000E+00 -0.00000000000E+00 -0.51579446383E+02  0.51579446383E+02  0.00000000000E+00 0.  1.
         23    2    1    2    0    0  0.42149470519E+02 -0.40611608767E+02  0.69713333096E+02  0.15471297458E+03  0.12510105939E+03 0.  0.
          5    1    3    3  502    0  0.55393107950E+01 -0.28568401620E+02 -0.33434073558E+02  0.44521311862E+02  0.41800000000E+01 0.  1.
         -5    1    3    3    0  502  0.36610159724E+02 -0.12043207147E+02  0.10314740665E+03  0.11019166272E+03  0.41800000000E+01 0.  1.
        -11    1    1    2    0    0  0.70811472599E+01  0.20375218402E+02  0.10705888850E+02  0.24081283759E+02  0.00000000000E+00 0.  1.
         11    1    1    2    0    0 -0.49230617778E+02  0.20236390366E+02  0.29372536728E+03  0.29850922366E+03  0.00000000000E+00 0. -1.
</event>
<event>
 7    1  0.1226955E-005  0.1071391E+03  0.7561462E-02  0.1265961E+00
          1   -1    0    0  501    0  0.00000000000E+00  0.00000000000E+00  0.27940875665E+03  0.27940875665E+03  0.00000000000E+00 0. -1.
         -1   -1    0    0    0  501 -0.00000000000E+00 -0.00000000000E+00 -0.96057112429E+02  0.96057112429E+02  0.00000000000E+00 0.  1.
         23    2    1    2    0    0  0.36669083316E+02  0.39150570506E+02 -0.28491257062E+02  0.13907124460E+03  0.12510663653E+03 0.  0.
          5    1    3    3  502    0  0.78213600894E+02  0.11786505551E+01 -0.26152769726E+02  0.82584480057E+02  0.41800000000E+01 0.  1.
         -5    1    3    3    0  502 -0.41544517578E+02  0.37971919951E+02 -0.23384873365E+01  0.56486764543E+02  0.41800000000E+01 0.  1.
        -11    1    1    2    0    0 -0.47102895568E+02 -0.94709817389E+01  0.19475377541E+03  0.20059266014E+03  0.00000000000E+00 0. -1.
         11    1    1    2    0    0  0.10433812252E+02 -0.29679588767E+02  0.17089125875E+02  0.35801964341E+02  0.00000000000E+00 0.  1.
</event>
<event>
 7    1  0.1226955E-005  0.1092492E+03  0.7561462E-02  0.1261967E+00
         -1   -1    0    0    0  501 -0.00000000000E+00  0.00000000000E+00  0.49364567583E+02  0.49364567583E+02  0.00000000000E+00 0.  1.
          1   -1    0    0  501    0  0.00000000000E+00 -0.00000000000E+00 -0.31128033975E+03  0.31128033975E+03  0.00000000000E+00 0. -1.
         23    2    1    2    0    0 -0.35115979854E+02 -0.10370959272E+02 -0.73233274509E+02  0.14769041145E+03  0.12291727422E+03 0.  0.
          5    1    3    3  502    0 -0.65960818818E+02 -0.43265120471E+02 -0.28344751393E+02  0.83926143722E+02  0.41800000000E+01 0. -1.
         -5    1    3    3    0  502  0.30844838964E+02  0.32894161199E+02 -0.44888523116E+02  0.63764267731E+02  0.41800000000E+01 0.  1.
        -11    1    1    2    0    0  0.51131339344E+02 -0.23860082192E+02 -0.14259823437E+03  0.15335571014E+03  0.00000000000E+00 0.  1.
         11    1    1    2    0    0 -0.16015359490E+02  0.34231041464E+02 -0.46084263283E+02  0.59598785740E+02  0.00000000000E+00 0. -1.
</event>
<event>
 7    1  0.1226955E-005  0.2093000E+03  0.7561462E-02  0.1142122E+00
         -3   -1    0    0    0  501 -0.00000000000E+00  0.00000000000E+00  0.11726591764E+04  0.11726591764E+04  0.00000000000E+00 0.  1.
          3   -1    0    0  501    0  0.00000000000E+00 -0.00000000000E+00 -0.57012553642E+02  0.57012553642E+02  0.00000000000E+00 0. -1.
         23    2    1    2    0    0  0.13949186939E+03  0.12354639197E+03  0.91094463492E+03  0.93818461393E+03  0.12509416183E+03 0.  0.
          5    1    3    3  502    0  0.43527584253E+02 -0.11662806048E+02  0.35951710672E+03  0.36235437635E+03  0.41800000000E+01 0. -1.
         -5    1    3    3    0  502  0.95964285135E+02  0.13520919802E+03  0.55142752821E+03  0.57583023758E+03  0.41800000000E+01 0. -1.
        -11    1    1    2    0    0 -0.39940876694E+02  0.97558409875E+01  0.38751616972E+02  0.56499007800E+02  0.00000000000E+00 0.  1.
         11    1    1    2    0    0 -0.99550992693E+02 -0.13330223296E+03  0.16595037087E+03  0.23498810832E+03  0.00000000000E+00 0. -1.
</event>
<event>
 7    1  0.1226955E-005  0.8912539E+02  0.7561462E-02  0.1304984E+00
         -2   -1    0    0    0  501 -0.00000000000E+00  0.00000000000E+00  0.71926138156E+03  0.71926138156E+03  0.00000000000E+00 0.  1.
          2   -1    0    0  501    0  0.00000000000E+00 -0.00000000000E+00 -0.18601167375E+02  0.18601167375E+02  0.00000000000E+00 0. -1.
         23    2    1    2    0    0 -0.80184930416E+01 -0.42626649596E+01  0.53296763611E+03  0.54752711045E+03  0.12509583925E+03 0.  0.
          5    1    3    3  502    0 -0.68743431647E+01 -0.54985278987E+02  0.13031354729E+03  0.14166767629E+03  0.41800000000E+01 0. -1.
         -5    1    3    3    0  502 -0.11441498769E+01  0.50722614028E+02  0.40265408882E+03  0.40585943416E+03  0.41800000000E+01 0. -1.
        -11    1    1    2    0    0 -0.31065488125E+02 -0.53525757807E+01  0.13455995059E+03  0.13820309303E+03  0.00000000000E+00 0.  1.
         11    1    1    2    0    0  0.39083981166E+02  0.96152407403E+01  0.33132627482E+02  0.52132345450E+02  0.00000000000E+00 0. -1.
</event>
<event>
 7    1  0.1226955E-005  0.8442999E+02  0.7561462E-02  0.1316930E+00
          3   -1    0    0  501    0  0.00000000000E+00  0.00000000000E+00  0.70435805490E+02  0.70435805490E+02  0.00000000000E+00 0. -1.
         -3   -1    0    0    0  501 -0.00000000000E+00 -0.00000000000E+00 -0.16799642330E+03  0.16799642330E+03  0.00000000000E+00 0.  1.
         23    2    1    2    0    0  0.84656954280E+01  0.10353965224E+02 -0.65556272311E+02  0.14186191746E+03  0.12509319003E+03 0.  0.
          5    1    3    3  502    0 -0.40707957084E+02 -0.15437876923E+02 -0.73584876623E+02  0.85601824054E+02  0.41800000000E+01 0.  1.
         -5    1    3    3    0  502  0.49173652512E+02  0.25791842147E+02  0.80286043120E+01  0.56260093404E+02  0.41800000000E+01 0.  1.
        -11    1    1    2    0    0 -0.38478067507E+02 -0.33776679192E+01  0.14098579876E+02  0.41118612260E+02  0.00000000000E+00 0. -1.
         11    1    1    2    0    0  0.30012372079E+02 -0.69762973045E+01 -0.46102925379E+02  0.55451699075E+02  0.00000000000E+00 0.  1.
</event>
<event>
 7    1  0.1226955E-005  0.7880058E+02  0.7561462E-02  0.1332490E+00
         -2   -1    0    0    0  501 -0.00000000000E+00  0.00000000000E+00  0.71994435178E+02  0.71994435178E+02  0.00000000000E+00 0.  1.
          2   -1    0    0  501    0  0.00000000000E+00 -0.00000000000E+00 -0.22935971241E+03  0.22935971241E+03  0.00000000000E+00 0. -1.
         23    2    1    2    0    0 -0.22812618795E+01  0.20998829426E+02 -0.10453654046E+02  0.12729025417E+03  0.12508946771E+03 0.  0.
          5    1    3    3  502    0  0.33564127831E+02  0.42808998606E+02  0.35367882328E+02  0.65019385871E+02  0.41800000000E+01 0.  1.
         -5    1    3    3    0  502 -0.35845389711E+02 -0.21810169180E+02 -0.45821536374E+02  0.62270868300E+02  0.41800000000E+01 0.  1.
        -11    1    1    2    0    0 -0.27090893596E+02 -0.54197585872E+01 -0.13643521262E+03  0.13920437328E+03  0.00000000000E+00 0. -1.
         11    1    1    2    0    0  0.29372155475E+02 -0.15579070839E+02 -0.10476410565E+02  0.34859520131E+02  0.00000000000E+00 0.  1.
</event>
<event>
 7    1  0.1226955E-005  0.1103169E+03  0.7561462E-02  0.1259984E+00
         -3   -1    0    0    0  501 -0.00000000000E+00  0.00000000000E+00  0.12739279640E+03  0.12739279640E+03  0.00000000000E+00 0.  1.
          3   -1    0    0  501    0  0.00000000000E+00 -0.00000000000E+00 -0.16521548136E+03  0.16521548136E+03  0.00000000000E+00 0. -1.
         23    2    1    2    0    0 -0.65041832773E+02 -0.18000949011E+02  0.56120831902E+02  0.15281275099E+03  0.12509082667E+03 0.  0.
          5    1    3    3  502    0  0.64569226308E+01  0.32393788464E+02 -0.18207824995E+02  0.37947946875E+02  0.41800000000E+01 0.  1.
         -5    1    3    3    0  502 -0.71498755403E+02 -0.50394737475E+02  0.74328656897E+02  0.11486480412E+03  0.41800000000E+01 0.  1.
        -11    1    1    2    0    0  0.34779339119E+02 -0.28036289475E+02 -0.60985697495E+02  0.75596899778E+02  0.00000000000E+00 0. -1.
         11    1    1    2    0    0  0.30262493653E+02  0.46037238486E+02 -0.32957819363E+02  0.64198626984E+02  0.00000000000E+00 0.  1.
</event>
<event>
 7    1  0.1226955E-005  0.1318724E+03  0.7561462E-02  0.1224704E+00
         -1   -1    0    0    0  501 -0.00000000000E+00  0.00000000000E+00  0.81286716671E+02  0.81286716671E+02  0.00000000000E+00 0.  1.
          1   -1    0    0  501    0  0.00000000000E+00 -0.00000000000E+00 -0.28204268856E+03  0.28204268856E+03  0.00000000000E+00 0. -1.
         23    2    1    2    0    0 -0.10118601747E+03 -0.29518517778E+02 -0.10785970519E+03  0.19591252087E+03  0.12505217634E+03 0.  0.
          5    1    3    3  502    0 -0.99387713329E+02  0.35863889819E+01 -0.12382874068E+03  0.15887671058E+03  0.41800000000E+01 0.  1.
         -5    1    3    3    0  502 -0.17983041371E+01 -0.33104906760E+02  0.15969035489E+02  0.37035810289E+02  0.41800000000E+01 0.  1.
        -11    1    1    2    0    0  0.55435946143E+02 -0.23975927248E+02 -0.72025350694E+02  0.93998086974E+02  0.00000000000E+00 0. -1.
         11    1    1    2    0    0  0.45750071323E+02  0.53494445026E+02 -0.20870916005E+02  0.73418797386E+02  0.00000000000E+00 0.  1.
</event>
<event>
 7    1  0.1226955E-005  0.1540430E+03  0.7561462E-02  0.1195591E+00
         -4   -1    0    0    0  501 -0.00000000000E+00  0.00000000000E+00  0.42140922482E+03  0.42140922482E+03  0.00000000000E+00 0.  1.
          4   -1    0    0  501    0  0.00000000000E+00 -0.00000000000E+00 -0.92423227582E+02  0.92423227582E+02  0.00000000000E+00 0. -1.
         23    2    1    2    0    0  0.11065857298E+03 -0.86183964207E+02  0.28635229585E+03  0.34251582568E+03  0.12508580272E+03 0.  0.
          5    1    3    3  502    0  0.68594157409E+02 -0.82672981649E+02  0.85855692626E+02  0.13758144018E+03  0.41800000000E+01 0.  1.
         -5    1    3    3    0  502  0.42064415568E+02 -0.35109825579E+01  0.20049660323E+03  0.20493438550E+03  0.41800000000E+01 0.  1.
        -11    1    1    2    0    0 -0.27398371481E+01  0.41123970705E+02 -0.10998064064E+02  0.42657298172E+02  0.00000000000E+00 0. -1.
         11    1    1    2    0    0 -0.10791873583E+03  0.45059993502E+02  0.53631765447E+02  0.12865932855E+03  0.00000000000E+00 0.  1.
</event>
<event>
 7    1  0.1226955E-005  0.1147390E+03  0.7561462E-02  0.1252037E+00
         -3   -1    0    0    0  501 -0.00000000000E+00  0.00000000000E+00  0.28215926107E+03  0.28215926107E+03  0.00000000000E+00 0.  1.
          3   -1    0    0  501    0  0.00000000000E+00 -0.00000000000E+00 -0.61398505277E+02  0.61398505277E+02  0.00000000000E+00 0. -1.
         23    2    1    2    0    0 -0.57332884149E+02 -0.42413632892E+01  0.18579524560E+03  0.23126960708E+03  0.12514275491E+03 0.  0.
          5    1    3    3  502    0  0.14089304879E+02  0.43500594731E+02  0.98725661992E+02  0.10888084767E+03  0.41800000000E+01 0. -1.
         -5    1    3    3    0  502 -0.71422189028E+02 -0.47741958020E+02  0.87069583605E+02  0.12238875941E+03  0.41800000000E+01 0. -1.
        -11    1    1    2    0    0 -0.20059603058E+02  0.41096792572E+00  0.28058105497E+02  0.34493678458E+02  0.00000000000E+00 0.  1.
         11    1    1    2    0    0  0.77392487207E+02  0.38303953634E+01  0.69074047024E+01  0.77794480810E+02  0.00000000000E+00 0. -1.
</event>
<event>
 7    1  0.1226955E-005  0.2026486E+03  0.7561462E-02  0.1147523E+00
          2   -1    0    0  501    0  0.00000000000E+00  0.00000000000E+00  0.36931531592E+02  0.36931531592E+02  0.00000000000E+00 0. -1.
         -2   -1    0    0    0  501 -0.00000000000E+00 -0.00000000000E+00 -0.11838198924E+04  0.11838198924E+04  0.00000000000E+00 0.  1.
         23    2    1    2    0    0  0.15334658177E+03 -0.98717765130E+02 -0.60804558704E+03  0.64701281783E+03  0.12508308928E+03 0.  0.
          5    1    3    3  502    0  0.56221830819E+02  0.26635508193E+02 -0.16058240976E+03  0.17226295969E+03  0.41800000000E+01 0.  1.
         -5    1    3    3    0  502  0.97124750951E+02 -0.12535327332E+03 -0.44746317728E+03  0.47474985814E+03  0.41800000000E+01 0.  1.
        -11    1    1    2    0    0 -0.90770495936E+02  0.42643067450E+02 -0.39130255374E+03  0.40394975269E+03  0.00000000000E+00 0.  1.
         11    1    1    2    0    0 -0.62576085835E+02  0.56074697680E+02 -0.14754022004E+03  0.16978885348E+03  0.00000000000E+00 0. -1.
</event>
<event>
 7    1  0.1226955E-005  0.8829289E+02  0.7561462E-02  0.1307039E+00
          1   -1    0    0  501    0  0.00000000000E+00  0.00000000000E+00  0.28488148472E+03  0.28488148472E+03  0.00000000000E+00 0. -1.
         -1   -1    0    0    0  501 -0.00000000000E+00 -0.00000000000E+00 -0.43519762366E+02  0.43519762366E+02  0.00000000000E+00 0.  1.
         23    2    1    2    0    0  0.80531376892E+01 -0.18571803604E+01  0.10487408698E+03  0.16344846499E+03  0.12509406238E+03 0.  0.
          5    1    3    3  502    0  0.45277326342E+02 -0.92913655066E+01  0.11493965522E+03  0.12395548595E+03  0.41800000000E+01 0. -1.
         -5    1    3    3    0  502 -0.37224188653E+02  0.74341851462E+01 -0.10065568242E+02  0.39492979043E+02  0.41800000000E+01 0. -1.
        -11    1    1    2    0    0 -0.25240876457E+02 -0.39683992827E+02  0.79465128933E+02  0.92339741430E+02  0.00000000000E+00 0. -1.
         11    1    1    2    0    0  0.17187738768E+02  0.41541173187E+02  0.57022506438E+02  0.72613040662E+02  0.00000000000E+00 0.  1.
</event>
<event>
 7    1  0.1226955E-005  0.4122647E+03  0.7561462E-02  0.1039614E+00
          1   -1    0    0  501    0  0.00000000000E+00  0.00000000000E+00  0.86721869564E+03  0.86721869564E+03  0.00000000000E+00 0. -1.
         -1   -1    0    0    0  501 -0.00000000000E+00 -0.00000000000E+00 -0.20260528481E+03  0.20260528481E+03  0.00000000000E+00 0.  1.
         23    2    1    2    0    0  0.39505537923E+02  0.40262234189E+03  0.32905709834E+03  0.53627627964E+03  0.12509291116E+03 0.  0.
          5    1    3    3  502    0 -0.15740925441E+02  0.23315736034E+02  0.64566143241E+02  0.70552530312E+02  0.41800000000E+01 0.  1.
         -5    1    3    3    0  502  0.55246463363E+02  0.37930660586E+03  0.26449095510E+03  0.46572374933E+03  0.41800000000E+01 0.  1.
        -11    1    1    2    0    0 -0.32220361441E+02 -0.46566846281E+02  0.65625424451E+02  0.86679404695E+02  0.00000000000E+00 0. -1.
         11    1    1    2    0    0 -0.72851764818E+01 -0.35605549561E+03  0.26993088805E+03  0.44686829611E+03  0.00000000000E+00 0.  1.
</event>
<event>
 7    1  0.1226955E-005  0.1250426E+03  0.7561462E-02  0.1235003E+00
         -2   -1    0    0    0  501 -0.00000000000E+00  0.00000000000E+00  0.31542804534E+02  0.31542804534E+02  0.00000000000E+00 0. -1.
          2   -1    0    0  501    0  0.00000000000E+00 -0.00000000000E+00 -0.66600444671E+03  0.66600444671E+03  0.00000000000E+00 0.  1.
         23    2    1    2    0    0  0.90485217268E+02  0.27106478991E+02 -0.29137989863E+03  0.33086591274E+03  0.12509065170E+03 0.  0.
          5    1    3    3  502    0 -0.21902646430E+02 -0.23002875229E+02 -0.42770032148E+02  0.53437872707E+02  0.41800000000E+01 0. -1.
         -5    1    3    3    0  502  0.11238786370E+03  0.50109354220E+02 -0.24860986648E+03  0.27742804003E+03  0.41800000000E+01 0. -1.
        -11    1    1    2    0    0 -0.59784138617E+02 -0.13213687344E+02 -0.32007503801E+03  0.32587846618E+03  0.00000000000E+00 0.  1.
         11    1    1    2    0    0 -0.30701078651E+02 -0.13892791647E+02 -0.23006705543E+02  0.40802872326E+02  0.00000000000E+00 0. -1.
</event>
<event>
 7    1  0.1226955E-005  0.1089087E+03  0.7561462E-02  0.1262604E+00
         -2   -1    0    0    0  501 -0.00000000000E+00  0.00000000000E+00  0.29872035940E+02  0.29872035940E+02  0.00000000000E+00 0.  1.
          2   -1    0    0  501    0  0.00000000000E+00 -0.00000000000E+00 -0.45882944881E+03  0.45882944881E+03  0.00000000000E+00 0. -1.
         23    2    1    2    0    0 -0.27651285936E+02  0.88156543984E+01 -0.17735621339E+03  0.21896546470E+03  0.12509332088E+03 0.  0.
          5    1    3    3  502    0 -0.64464432982E+02 -0.32957502776E+02 -0.96918443767E+02  0.12104758259E+03  0.41800000000E+01 0.  1.
         -5    1    3    3    0  502  0.36813147046E+02  0.41773157174E+02 -0.80437769619E+02  0.97917882110E+02  0.41800000000E+01 0.  1.
        -11    1    1    2    0    0  0.23660093390E+02  0.36756668440E+02 -0.70551369783E+02  0.82996075042E+02  0.00000000000E+00 0. -1.
         11    1    1    2    0    0  0.39911925463E+01 -0.45572322839E+02 -0.18104982970E+03  0.18673994501E+03  0.00000000000E+00 0.  1.
</event>
<event>
 7    1  0.1226955E-005  0.9016956E+02  0.7561462E-02  0.1302442E+00
          1   -1    0    0  501    0  0.00000000000E+00  0.00000000000E+00  0.20894370233E+03  0.20894370233E+03  0.00000000000E+00 0. -1.
         -1   -1    0    0    0  501 -0.00000000000E+00 -0.00000000000E+00 -0.90827895196E+02  0.90827895196E+02  0.00000000000E+00 0.  1.
         23    2    1    2    0    0 -0.22417628082E+02 -0.72645612633E+02  0.12855244476E+02  0.14694443509E+03  0.12508986614E+03 0.  0.
          5    1    3    3  502    0  0.59593936209E+01 -0.72238857460E+02  0.58360192989E+02  0.93152302307E+02  0.41800000000E+01 0. -1.
         -5    1    3    3    0  502 -0.28377021703E+02 -0.40675517383E+00 -0.45504948513E+02  0.53792132786E+02  0.41800000000E+01 0. -1.
        -11    1    1    2    0    0  0.38948041104E+01  0.48303157807E+02  0.58436995849E+01  0.48810996487E+02  0.00000000000E+00 0.  1.
         11    1    1    2    0    0  0.18522823972E+02  0.24342454826E+02  0.99416863076E+02  0.10401616595E+03  0.00000000000E+00 0. -1.
</event>
<event>
 7    1  0.1226955E-005  0.1477769E+03  0.7561462E-02  0.1203232E+00
          3   -1    0    0  501    0  0.00000000000E+00  0.00000000000E+00  0.83481158151E+02  0.83481158151E+02  0.00000000000E+00 0. -1.
         -3   -1    0    0    0  501 -0.00000000000E+00 -0.00000000000E+00 -0.63121634540E+03  0.63121634540E+03  0.00000000000E+00 0.  1.
         23    2    1    2    0    0  0.13947209262E+03  0.23531261481E+02 -0.50696532178E+03  0.54098738919E+03  0.12508929964E+03 0.  0.
          5    1    3    3  502    0  0.43871961775E+02  0.78458681394E+01 -0.37263727266E+03  0.37531628802E+03  0.41800000000E+01 0.  1.
         -5    1    3    3    0  502  0.95600130845E+02  0.15685393342E+02 -0.13432804912E+03  0.16567110117E+03  0.41800000000E+01 0.  1.
        -11    1    1    2    0    0 -0.10203696565E+03  0.11335126081E+02 -0.60170293577E+02  0.11899786415E+03  0.00000000000E+00 0.  1.
         11    1    1    2    0    0 -0.37435126967E+02 -0.34866387562E+02  0.19400428109E+02  0.54712250214E+02  0.00000000000E+00 0. -1.
</event>
<event>
 7    1  0.1226955E-005  0.1061749E+03  0.7561462E-02  0.1267822E+00
          2   -1    0    0  501    0  0.00000000000E+00  0.00000000000E+00  0.14851455852E+03  0.14851455852E+03  0.00000000000E+00 0. -1.
         -2   -1    0    0    0  501 -0.00000000000E+00 -0.00000000000E+00 -0.90057261814E+02  0.90057261814E+02  0.00000000000E+00 0.  1.
         23    2    1    2    0    0  0.24191073539E+02 -0.42596450673E+02  0.21105885305E+02  0.12846067160E+03  0.11686325387E+03 0.  0.
          5    1    3    3  502    0  0.16010995200E+02 -0.74876523267E+02  0.43453656178E+02  0.88139312110E+02  0.41800000000E+01 0. -1.
         -5    1    3    3    0  502  0.81800783385E+01  0.32280072594E+02 -0.22347770873E+02  0.40321359492E+02  0.41800000000E+01 0.  1.
        -11    1    1    2    0    0  0.21414827839E+02  0.51377058630E+02  0.29543250507E+02  0.63015876217E+02  0.00000000000E+00 0.  1.
         11    1    1    2    0    0 -0.45605901377E+02 -0.87806079569E+01  0.78081608916E+01  0.47095272513E+02  0.00000000000E+00 0. -1.
</event>
<event>
 7    1  0.1226955E-005  0.1741970E+03  0.7561462E-02  0.1173540E+00
         -1   -1    0    0    0  501 -0.00000000000E+00  0.00000000000E+00  0.50899793742E+03  0.50899793742E+03  0.00000000000E+00 0.  1.
          1   -1    0    0  501    0  0.00000000000E+00 -0.00000000000E+00 -0.91243328479E+02  0.91243328479E+02  0.00000000000E+00 0. -1.
         23    2    1    2    0    0 -0.59395191212E+02 -0.12602316068E+03  0.38709984763E+03  0.43000260179E+03  0.12508524991E+03 0.  0.
          5    1    3    3  502    0 -0.89477541537E+02 -0.50740508852E+02  0.25441643386E+03  0.27445586876E+03  0.41800000000E+01 0.  1.
         -5    1    3    3    0  502  0.30082350326E+02 -0.75282651831E+02  0.13268341377E+03  0.15554673304E+03  0.41800000000E+01 0.  1.
        -11    1    1    2    0    0  0.65837029861E+02  0.38014944729E+02  0.30716880495E+02  0.81994983207E+02  0.00000000000E+00 0.  1.
         11    1    1    2    0    0 -0.64418386498E+01  0.88008215954E+02 -0.62119180928E-01  0.88243680903E+02  0.00000000000E+00 0. -1.
</event>
<event>
 7    1  0.1226955E-005  0.1034199E+03  0.7561462E-02  0.1273264E+00
          2   -1    0    0  501    0  0.00000000000E+00  0.00000000000E+00  0.61400344959E+03  0.61400344959E+03  0.00000000000E+00 0. -1.
         -2   -1    0    0    0  501 -0.00000000000E+00 -0.00000000000E+00 -0.26739762772E+02  0.26739762772E+02  0.00000000000E+00 0.  1.
         23    2    1    2    0    0 -0.57155662452E+02  0.26562328966E+02  0.26836846081E+03  0.30272291154E+03  0.12508878185E+03 0.  0.
          5    1    3    3  502    0 -0.81869092879E+01  0.52042178068E+02  0.22842298684E+03  0.23445670623E+03  0.41800000000E+01 0.  1.
         -5    1    3    3    0  502 -0.48968753164E+02 -0.25479849101E+02  0.39945473970E+02  0.68266205309E+02  0.41800000000E+01 0.  1.
        -11    1    1    2    0    0 -0.64200727676E+01 -0.34020753620E+02  0.20013417220E+03  0.20310666137E+03  0.00000000000E+00 0. -1.
         11    1    1    2    0    0  0.63575735219E+02  0.74584246536E+01  0.11876105381E+03  0.13491363944E+03  0.00000000000E+00 0.  1.
</event>
<event>
 7    1  0.1226955E-005  0.1300507E+03  0.7561462E-02  0.1227381E+00
         -2   -1    0    0    0  501 -0.00000000000E+00  0.00000000000E+00  0.39196631080E+03  0.39196631080E+03  0.00000000000E+00 0.  1.
          2   -1    0    0  501    0  0.00000000000E+00 -0.00000000000E+00 -0.54045181921E+02  0.54045181921E+02  0.00000000000E+00 0. -1.
         23    2    1    2    0    0  0.83834372612E+02  0.46253383648E+02  0.20463571095E+03  0.25824411739E+03  0.12508665971E+03 0.  0.
          5    1    3    3  502    0  0.89571002417E+01 -0.35382878529E+02  0.17392046947E+02  0.40646444306E+02  0.41800000000E+01 0. -1.
         -5    1    3    3    0  502  0.74877272370E+02  0.81636262177E+02  0.18724366401E+03  0.21759767308E+03  0.41800000000E+01 0. -1.
        -11    1    1    2    0    0 -0.47959150227E+02  0.68276268086E+01  0.10940626616E+02  0.49662801865E+02  0.00000000000E+00 0. -1.
         11    1    1    2    0    0 -0.35875222385E+02 -0.53081010457E+02  0.12234479131E+03  0.13810457347E+03  0.00000000000E+00 0.  1.
</event>
<event>
 7    1  0.1226955E-005  0.1621889E+03  0.7561462E-02  0.1186247E+00
          2   -1    0    0  501    0  0.00000000000E+00  0.00000000000E+00  0.43318014564E+03  0.43318014564E+03  0.00000000000E+00 0. -1.
         -2   -1    0    0    0  501 -0.00000000000E+00 -0.00000000000E+00 -0.12057941188E+03  0.12057941188E+03  0.00000000000E+00 0.  1.
         23    2    1    2    0    0 -0.12389880538E+03  0.33153465354E+02 -0.25082699954E+02  0.18090550777E+03  0.12509034601E+03 0.  0.
          5    1    3    3  502    0 -0.13806810050E+03  0.22551534229E+01  0.51076622118E+00  0.13815071254E+03  0.41800000000E+01 0.  1.
         -5    1    3    3    0  502  0.14169295121E+02  0.30898311932E+02 -0.25593466175E+02  0.42754795231E+02  0.41800000000E+01 0.  1.
        -11    1    1    2    0    0  0.90832436587E+02  0.16504686368E+02  0.15218554631E+03  0.17799824919E+03  0.00000000000E+00 0.  1.
         11    1    1    2    0    0  0.33066368795E+02 -0.49658151723E+02  0.18549788741E+03  0.19485580056E+03  0.00000000000E+00 0. -1.
</event>
<event>
 7    1  0.1562948E-005  0.3128131E+03  0.7561462E-02  0.1079005E+00
         -2   -1    0    0    0  501 -0.00000000000E+00  0.00000000000E+00  0.22531313426E+03  0.22531313426E+03  0.00000000000E+00 0.  1.
          2   -1    0    0  501    0  0.00000000000E+00 -0.00000000000E+00 -0.46228901094E+03  0.46228901094E+03  0.00000000000E+00 0. -1.
         23    2    1    2    0    0 -0.13365661095E+03 -0.27253545026E+03 -0.10799962295E+03  0.34561682388E+03  0.12508960425E+03 0.  0.
          5    1    3    3  502    0 -0.14781877597E+03 -0.23663363868E+03 -0.12173534598E+03  0.30443855923E+03  0.41800000000E+01 0.  1.
         -5    1    3    3    0  502  0.14162165015E+02 -0.35901811576E+02  0.13735723030E+02  0.41178264649E+02  0.41800000000E+01 0.  1.
        -11    1    1    2    0    0  0.60369218023E+02  0.17920612409E+03 -0.39038737376E+02  0.19308884072E+03  0.00000000000E+00 0. -1.
         11    1    1    2    0    0  0.73287392931E+02  0.93329326170E+02 -0.89937516348E+02  0.14889648059E+03  0.00000000000E+00 0.  1.
</event>
<event>
 7    1  0.1226955E-005  0.1173141E+03  0.7561462E-02  0.1247595E+00
         -4   -1    0    0    0  501 -0.00000000000E+00  0.00000000000E+00  0.17275999411E+03  0.17275999411E+03  0.00000000000E+00 0.  1.
          4   -1    0    0  501    0  0.00000000000E+00 -0.00000000000E+00 -0.95975263315E+02  0.95975263315E+02  0.00000000000E+00 0. -1.
         23    2    1    2    0    0  0.57071610377E+02 -0.38488611516E+02  0.45781608592E+02  0.14993808706E+03  0.12508769860E+03 0.  0.
          5    1    3    3  502    0  0.81532889077E+02 -0.66528537933E+02  0.32691073462E+02  0.11027165114E+03  0.41800000000E+01 0. -1.
         -5    1    3    3    0  502 -0.24461278700E+02  0.28039926417E+02  0.13090535130E+02  0.39666435926E+02  0.41800000000E+01 0. -1.
        -11    1    1    2    0    0 -0.30604116657E+02 -0.13563255777E+02  0.47506100142E+02  0.58115431808E+02  0.00000000000E+00 0.  1.
         11    1    1    2    0    0 -0.26467493721E+02  0.52051867293E+02 -0.16502977940E+02  0.60681738550E+02  0.00000000000E+00 0. -1.
</event>
<event>
 7    1  0.1226955E-005  0.1271725E+03  0.7561462E-02  0.1231713E+00
          2   -1    0    0  501    0  0.00000000000E+00  0.00000000000E+00  0.15337477568E+03  0.15337477568E+03  0.00000000000E+00 0. -1.
         -2   -1    0    0    0  501 -0.00000000000E+00 -0.00000000000E+00 -0.15490370147E+03  0.15490370147E+03  0.00000000000E+00 0.  1.
         23    2    1    2    0    0  0.53858786816E+02  0.91017129448E+02 -0.27419624227E+02  0.16608824403E+03  0.12509429341E+03 0.  0.
          5    1    3    3  502    0  0.50340667287E+02  0.14884625574E+02 -0.62800939077E+02  0.81958313857E+02  0.41800000000E+01 0. -1.
         -5    1    3    3    0  502  0.35181195292E+01  0.76132503874E+02  0.35381314849E+02  0.84129930177E+02  0.41800000000E+01 0. -1.
        -11    1    1    2    0    0 -0.60264364662E+01  0.11077827397E+02  0.26606080559E+02  0.29443500455E+02  0.00000000000E+00 0.  1.
         11    1    1    2    0    0 -0.47832350350E+02 -0.10209495685E+03 -0.71538211927E+00  0.11274673266E+03  0.00000000000E+00 0. -1.
</event>
<event>
 7    1  0.1226955E-005  0.8270966E+02  0.7561462E-02  0.1321533E+00
         -1   -1    0    0    0  501 -0.00000000000E+00  0.00000000000E+00  0.19148672088E+03  0.19148672088E+03  0.00000000000E+00 0.  1.
          1   -1    0    0  501    0  0.00000000000E+00 -0.00000000000E+00 -0.75379385421E+02  0.75379385421E+02  0.00000000000E+00 0. -1.
         23    2    1    2    0    0 -0.47511215119E+02 -0.23287439206E+02  0.67824690875E+02  0.15181784003E+03  0.12509535352E+03 0.  0.
          5    1    3    3  502    0 -0.44118120181E+02  0.25974476281E+02  0.85046604998E+02  0.99355318771E+02  0.41800000000E+01 0. -1.
         -5    1    3    3    0  502 -0.33930949384E+01 -0.49261915487E+02 -0.17221914124E+02  0.52462521259E+02  0.41800000000E+01 0. -1.
        -11    1    1    2    0    0  0.36571977980E+02 -0.23256836515E+01  0.70477124132E+02  0.79435152192E+02  0.00000000000E+00 0.  1.
         11    1    1    2    0    0  0.10939237140E+02  0.25613122858E+02 -0.22194479551E+02  0.35613114077E+02  0.00000000000E+00 0. -1.
</event>
<event>
 7    1  0.1226955E-005  0.1090126E+03  0.7561462E-02  0.1262409E+00
          1   -1    0    0  501    0  0.00000000000E+00  0.00000000000E+00  0.51095860231E+03  0.51095860231E+03  0.00000000000E+00 0. -1.
         -1   -1    0    0    0  501 -0.00000000000E+00 -0.00000000000E+00 -0.48902560407E+02  0.48902560407E+02  0.00000000000E+00 0.  1.
         23    2    1    2    0    0  0.45479258235E+02 -0.36501885803E+02  0.73787635014E+02  0.15650205356E+03  0.12509007591E+03 0.  0.
          5    1    3    3  502    0  0.20211284577E+02  0.40551015871E+02  0.58109806105E+02  0.73804490907E+02  0.41800000000E+01 0.  1.
         -5    1    3    3    0  502  0.25267973658E+02 -0.77052901674E+02  0.15677828909E+02  0.82697562652E+02  0.41800000000E+01 0.  1.
        -11    1    1    2    0    0 -0.64072630100E+02  0.21993806776E+02  0.36102587679E+03  0.36732643953E+03  0.00000000000E+00 0. -1.
         11    1    1    2    0    0  0.18593371865E+02  0.14508079027E+02  0.27242530094E+02  0.36032669625E+02  0.00000000000E+00 0.  1.
</event>
<event>
 7    1  0.1226955E-005  0.1491359E+03  0.7561462E-02  0.1201539E+00
         -4   -1    0    0    0  501 -0.00000000000E+00  0.00000000000E+00  0.96965102689E+03  0.96965102689E+03  0.00000000000E+00 0.  1.
          4   -1    0    0  501    0  0.00000000000E+00 -0.00000000000E+00 -0.29542207185E+02  0.29542207185E+02  0.00000000000E+00 0. -1.
         23    2    1    2    0    0 -0.12479967338E+03 -0.34135607858E+02  0.51710889512E+03  0.54752999387E+03  0.12508911450E+03 0.  0.
          5    1    3    3  502    0 -0.95946928183E+02 -0.55921316460E+02  0.20394669592E+03  0.23226005649E+03  0.41800000000E+01 0.  1.
         -5    1    3    3    0  502 -0.28852745193E+02  0.21785708602E+02  0.31316219920E+03  0.31526993738E+03  0.41800000000E+01 0.  1.
        -11    1    1    2    0    0  0.55731291175E+02  0.55294469366E+02  0.28851560220E+03  0.29900620039E+03  0.00000000000E+00 0.  1.
         11    1    1    2    0    0  0.69068382201E+02 -0.21158861508E+02  0.13448432238E+03  0.15265703982E+03  0.00000000000E+00 0. -1.
</event>
<event>
 7    1  0.1226955E-005  0.1449204E+03  0.7561462E-02  0.1206857E+00
         -2   -1    0    0    0  501 -0.00000000000E+00  0.00000000000E+00  0.10121624033E+03  0.10121624033E+03  0.00000000000E+00 0.  1.
          2   -1    0    0  501    0  0.00000000000E+00 -0.00000000000E+00 -0.31452739859E+03  0.31452739859E+03  0.00000000000E+00 0. -1.
         23    2    1    2    0    0  0.63255438760E+02  0.97265902778E+02 -0.18500423953E+02  0.17161858303E+03  0.12509502779E+03 0.  0.
          5    1    3    3  502    0  0.72291612137E+02  0.12269316234E+03 -0.91751999476E+01  0.14276325145E+03  0.41800000000E+01 0. -1.
         -5    1    3    3    0  502 -0.90361733775E+01 -0.25427259559E+02 -0.93252240058E+01  0.28855331583E+02  0.41800000000E+01 0. -1.
        -11    1    1    2    0    0 -0.11992876652E+02 -0.46113346909E+02 -0.15355947829E+03  0.16078178761E+03  0.00000000000E+00 0. -1.
         11    1    1    2    0    0 -0.51262562108E+02 -0.51152555868E+02 -0.41251256020E+02  0.83343268288E+02  0.00000000000E+00 0.  1.
</event>
<event>
 7    1  0.1226955E-005  0.9306268E+02  0.7561462E-02  0.1295600E+00
         -2   -1    0    0    0  501 -0.00000000000E+00  0.00000000000E+00  0.15863179153E+03  0.15863179153E+03  0.00000000000E+00 0.  1.
          2   -1    0    0  501    0  0.00000000000E+00 -0.00000000000E+00 -0.35384859601E+03  0.35384859601E+03  0.00000000000E+00 0. -1.
         23    2    1    2    0    0 -0.12706161977E+02 -0.41893012453E+01  0.12676842300E+03  0.17737677308E+03  0.12334216538E+03 0.  0.
          5    1    3    3  502    0 -0.30611141347E+02  0.37081763269E+02  0.62512581379E+01  0.48668776130E+02  0.41800000000E+01 0. -1.
         -5    1    3    3    0  502  0.17904979370E+02 -0.41271064515E+02  0.12051716487E+03  0.12870799695E+03  0.41800000000E+01 0.  1.
        -11    1    1    2    0    0 -0.35004350251E+02  0.22458555315E+02 -0.15449376315E+03  0.15999379392E+03  0.00000000000E+00 0.  1.
         11    1    1    2    0    0  0.47710512228E+02 -0.18269254069E+02 -0.16749146434E+03  0.17510982054E+03  0.00000000000E+00 0. -1.
</event>
<event>
 7    1  0.1226955E-005  0.1745910E+03  0.7561462E-02  0.1173143E+00
          1   -1    0    0  501    0  0.00000000000E+00  0.00000000000E+00  0.87007387863E+02  0.87007387863E+02  0.00000000000E+00 0. -1.
         -1   -1    0    0    0  501 -0.00000000000E+00 -0.00000000000E+00 -0.53790804683E+03  0.53790804683E+03  0.00000000000E+00 0.  1.
         23    2    1    2    0    0  0.95202302167E+02  0.11476408127E+03 -0.39745247055E+03  0.44293958875E+03  0.12646240647E+03 0.  0.
          5    1    3    3  502    0 -0.79008205727E+01 -0.20654846224E+02 -0.74953279201E+02  0.78259262079E+02  0.41800000000E+01 0. -1.
         -5    1    3    3    0  502  0.10310312274E+03  0.13541892749E+03 -0.32249919135E+03  0.36468032667E+03  0.41800000000E+01 0.  1.
        -11    1    1    2    0    0 -0.38268416407E+02 -0.14117587040E+02 -0.52313919471E+02  0.66336446457E+02  0.00000000000E+00 0.  1.
         11    1    1    2    0    0 -0.56933885759E+02 -0.10064649423E+03 -0.11342689515E+01  0.11563939949E+03  0.00000000000E+00 0. -1.
</event>
<event>
 7    1  0.1226955E-005  0.9719391E+02  0.7561462E-02  0.1286310E+00
          1   -1    0    0  501    0  0.00000000000E+00  0.00000000000E+00  0.67918487358E+03  0.67918487358E+03  0.00000000000E+00 0. -1.
         -1   -1    0    0    0  501 -0.00000000000E+00 -0.00000000000E+00 -0.19264752198E+02  0.19264752198E+02  0.00000000000E+00 0.  1.
         23    2    1    2    0    0 -0.36435782164E+02 -0.47259891497E+02  0.44339064116E+03  0.46455045368E+03  0.12510315656E+03 0.  0.
          5    1    3    3  502    0  0.37894082277E+02 -0.33055904705E+02  0.90534972333E+02  0.10364703528E+03  0.41800000000E+01 0.  1.
         -5    1    3    3    0  502 -0.74329864441E+02 -0.14203986792E+02  0.35285566883E+03  0.36090341840E+03  0.41800000000E+01 0.  1.
        -11    1    1    2    0    0  0.34624013339E+02  0.18376784446E+02  0.43870043785E+02  0.58831192815E+02  0.00000000000E+00 0.  1.
         11    1    1    2    0    0  0.18117688245E+01  0.28883107051E+02  0.17265943643E+03  0.17506797928E+03  0.00000000000E+00 0. -1.
</event>
<event>
 7    1  0.1226955E-005  0.8611084E+02  0.7561462E-02  0.1312553E+00
         -4   -1    0    0    0  501 -0.00000000000E+00  0.00000000000E+00  0.27330931531E+03  0.27330931531E+03  0.00000000000E+00 0.  1.
          4   -1    0    0  501    0  0.00000000000E+00 -0.00000000000E+00 -0.43536971110E+02  0.43536971110E+02  0.00000000000E+00 0. -1.
         23    2    1    2    0    0  0.15278757768E+01  0.13462941714E+02  0.12497270290E+03  0.17733256010E+03  0.12508027502E+03 0.  0.
          5    1    3    3  502    0  0.15349200849E+02 -0.33231334348E+02  0.12301905271E+03  0.12841759723E+03  0.41800000000E+01 0.  1.
         -5    1    3    3    0  502 -0.13821325072E+02  0.46694276062E+02  0.19536501920E+01  0.48914962872E+02  0.41800000000E+01 0.  1.
        -11    1    1    2    0    0  0.35738071794E+02  0.15844826996E+02  0.71790427308E+02  0.81744319504E+02  0.00000000000E+00 0.  1.
         11    1    1    2    0    0 -0.37265947571E+02 -0.29307768710E+02  0.33009213987E+02  0.57769406810E+02  0.00000000000E+00 0. -1.
</event>
<event>
 6    1  0.1226955E-005  0.1256363E+03  0.7561462E-02  0.1234078E+00
         -2   -1    0    0    0  501 -0.00000000000E+00  0.00000000000E+00  0.11925074332E+04  0.11925074332E+04  0.00000000000E+00 0.  1.
          2   -1    0    0  501    0  0.00000000000E+00 -0.00000000000E+00 -0.31293176174E+02  0.31293176174E+02  0.00000000000E+00 0. -1.
          5    1    1    2  502    0 -0.28815009651E+02  0.75022723967E+02  0.17313878502E+03  0.19092727718E+03  0.41800000000E+01 0. -1.
         -5    1    1    2    0  502  0.55572328076E+02 -0.46006964662E+02  0.89096081927E+03  0.89388678160E+03  0.41800000000E+01 0.  1.
        -11    1    1    2    0    0 -0.17086095054E+02 -0.61920792560E+02  0.54166410221E+02  0.84024515421E+02  0.00000000000E+00 0. -1.
         11    1    1    2    0    0 -0.96712233710E+01  0.32905033255E+02  0.42948242502E+02  0.54962035160E+02  0.00000000000E+00 0.  1.
</event>
<event>
 7    1  0.1226955E-005  0.6595802E+02  0.7561462E-02  0.1374404E+00
          2   -1    0    0  501    0  0.00000000000E+00  0.00000000000E+00  0.17969747004E+03  0.17969747004E+03  0.00000000000E+00 0. -1.
         -2   -1    0    0    0  501 -0.00000000000E+00 -0.00000000000E+00 -0.73711770280E+02  0.73711770280E+02  0.00000000000E+00 0.  1.
         23    2    1    2    0    0 -0.33112446770E+02  0.66423647702E+01  0.45583449443E+02  0.13735341348E+03  0.12509018422E+03 0.  0.
          5    1    3    3  502    0  0.76368818726E+01 -0.27644546687E+02 -0.31989659025E+02  0.43166579791E+02  0.41800000000E+01 0. -1.
         -5    1    3    3    0  502 -0.40749328642E+02  0.34286911457E+02  0.77573108469E+02  0.94186833685E+02  0.41800000000E+01 0. -1.
        -11    1    1    2    0    0  0.33652620728E+02  0.82200207868E+01  0.82466593279E+02  0.89447228189E+02  0.00000000000E+00 0. -1.
         11    1    1    2    0    0 -0.54017395855E+00 -0.14862385557E+02 -0.22064342959E+02  0.26608598659E+02  0.00000000000E+00 0.  1.
</event>
<event>
 7    1  0.2435788E-005  0.4225437E+03  0.7561462E-02  0.1036242E+00
         -2   -1    0    0    0  501 -0.00000000000E+00  0.00000000000E+00  0.77813209338E+02  0.77813209338E+02  0.00000000000E+00 0.  1.
          2   -1    0    0  501    0  0.00000000000E+00 -0.00000000000E+00 -0.25257105594E+04  0.25257105594E+04  0.00000000000E+00 0. -1.
         23    2    1    2    0    0 -0.31867270501E+03 -0.25668483408E+03 -0.85372045969E+03  0.95494779671E+03  0.12508906498E+03 0.  0.
          5    1    3    3  502    0 -0.13852279376E+03 -0.41563083231E+02 -0.24242525304E+03  0.28231813613E+03  0.41800000000E+01 0.  1.
         -5    1    3    3    0  502 -0.18014991126E+03 -0.21512175085E+03 -0.61129520665E+03  0.67262966058E+03  0.41800000000E+01 0.  1.
        -11    1    1    2    0    0  0.22075666608E+03  0.22888134772E+03 -0.11841996249E+04  0.12261520821E+04  0.00000000000E+00 0.  1.
         11    1    1    2    0    0  0.97916038931E+02  0.27803486354E+02 -0.40997726549E+03  0.42242388989E+03  0.00000000000E+00 0. -1.
</event>
<event>
 7    1  0.1226955E-005  0.1059869E+03  0.7561462E-02  0.1268187E+00
          1   -1    0    0  501    0  0.00000000000E+00  0.00000000000E+00  0.47302415090E+02  0.47302415090E+02  0.00000000000E+00 0. -1.
         -1   -1    0    0    0  501 -0.00000000000E+00 -0.00000000000E+00 -0.50214496399E+03  0.50214496399E+03  0.00000000000E+00 0.  1.
         23    2    1    2    0    0  0.80999027828E+01 -0.71527646304E+02 -0.38727432813E+03  0.41329189425E+03  0.12508785717E+03 0.  0.
          5    1    3    3  502    0  0.34566872512E+02  0.82055596963E+01 -0.24815588953E+03  0.25072099592E+03  0.41800000000E+01 0. -1.
         -5    1    3    3    0  502 -0.26466969730E+02 -0.79733206000E+02 -0.13911843860E+03  0.16257089833E+03  0.41800000000E+01 0. -1.
        -11    1    1    2    0    0 -0.31676287881E+02  0.26663696779E+02 -0.74271148365E+02  0.85032602096E+02  0.00000000000E+00 0.  1.
         11    1    1    2    0    0  0.23576385098E+02  0.44863949525E+02  0.67029275906E+01  0.51122882739E+02  0.00000000000E+00 0. -1.
</event>
<event>
 7    1  0.1226955E-005  0.8799838E+02  0.7561462E-02  0.1307773E+00
         -2   -1    0    0    0  501 -0.00000000000E+00  0.00000000000E+00  0.32395805018E+03  0.32395805018E+03  0.00000000000E+00 0.  1.
          2   -1    0    0  501    0  0.00000000000E+00 -0.00000000000E+00 -0.63372539302E+02  0.63372539302E+02  0.00000000000E+00 0. -1.
         23    2    1    2    0    0 -0.49195800799E+02 -0.65540729205E+02  0.84331325968E+02  0.17169942130E+03  0.12511236843E+03 0.  0.
          5    1    3    3  502    0 -0.22412090572E+02 -0.58668603119E+02  0.11443966993E+03  0.13060711026E+03  0.41800000000E+01 0. -1.
         -5    1    3    3    0  502 -0.26783710227E+02 -0.68721260863E+01 -0.30108343966E+02  0.41092311043E+02  0.41800000000E+01 0. -1.
        -11    1    1    2    0    0  0.20548233965E+02  0.46086677965E+02  0.17373104901E+03  0.18091072161E+03  0.00000000000E+00 0.  1.
         11    1    1    2    0    0  0.28647566834E+02  0.19454051240E+02  0.25231359029E+01  0.34720446569E+02  0.00000000000E+00 0. -1.
</event>
<event>
 7    1  0.1226955E-005  0.7565968E+02  0.7561462E-02  0.1341840E+00
          4   -1    0    0  501    0  0.00000000000E+00  0.00000000000E+00  0.28720433565E+02  0.28720433565E+02  0.00000000000E+00 0. -1.
         -4   -1    0    0    0  501 -0.00000000000E+00 -0.00000000000E+00 -0.51862795101E+03  0.51862795101E+03  0.00000000000E+00 0.  1.
         23    2    1    2    0    0  0.18778051818E+02  0.40419130672E+02 -0.38540029702E+03  0.40760984348E+03  0.12500429675E+03 0.  0.
          5    1    3    3  502    0  0.22999992995E+02  0.64767460081E+01 -0.39147961512E+01  0.24571242247E+02  0.41800000000E+01 0. -1.
         -5    1    3    3    0  502 -0.42219411771E+01  0.33942384664E+02 -0.38148550087E+03  0.38303860124E+03  0.41800000000E+01 0. -1.
        -11    1    1    2    0    0  0.26837268421E+02  0.60247891087E+01 -0.27362720807E+02  0.38797622995E+02  0.00000000000E+00 0. -1.
         11    1    1    2    0    0 -0.45615320239E+02 -0.46443919780E+02 -0.77144499618E+02  0.10094091810E+03  0.00000000000E+00 0.  1.
</event>
<event>
 7    1  0.1226955E-005  0.1148164E+03  0.7561462E-02  0.1251902E+00
         -1   -1    0    0    0  501 -0.00000000000E+00  0.00000000000E+00  0.10257206799E+03  0.10257206799E+03  0.00000000000E+00 0.  1.
          1   -1    0    0  501    0  0.00000000000E+00 -0.00000000000E+00 -0.16403416563E+03  0.16403416563E+03  0.00000000000E+00 0. -1.
         23    2    1    2    0    0  0.55558884862E+02 -0.42415088777E+02 -0.36675443823E+02  0.14792202662E+03  0.12509999335E+03 0.  0.
          5    1    3    3  502    0  0.79700074006E+02 -0.69435825038E+02 -0.34933971253E+02  0.11140597086E+03  0.41800000000E+01 0.  1.
         -5    1    3    3    0  502 -0.24141189144E+02  0.27020736262E+02 -0.17414725694E+01  0.36516055758E+02  0.41800000000E+01 0.  1.
        -11    1    1    2    0    0 -0.32492804464E+01  0.34279013073E+02 -0.49470398271E+02  0.60273782574E+02  0.00000000000E+00 0. -1.
         11    1    1    2    0    0 -0.52309604416E+02  0.81360757036E+01  0.24683744454E+02  0.58410424431E+02  0.00000000000E+00 0.  1.
</event>
<event>
 7    1  0.1226955E-005  0.1253110E+03  0.7561462E-02  0.1234584E+00
          1   -1    0    0  501    0  0.00000000000E+00  0.00000000000E+00  0.27079262328E+03  0.27079262328E+03  0.00000000000E+00 0. -1.
         -1   -1    0    0    0  501 -0.00000000000E+00 -0.00000000000E+00 -0.11848238051E+03  0.11848238051E+03  0.00000000000E+00 0.  1.
         23    2    1    2    0    0  0.55597289627E+02 -0.61179518334E+02 -0.48223832199E+02  0.15429126410E+03  0.12102175056E+03 0.  0.
          5    1    3    3  502    0 -0.13636485105E+02  0.25546410544E+02 -0.29728549120E+02  0.41711291643E+02  0.41800000000E+01 0. -1.
         -5    1    3    3    0  502  0.69233774732E+02 -0.86725928878E+02 -0.18495283079E+02  0.11257997246E+03  0.41800000000E+01 0.  1.
        -11    1    1    2    0    0 -0.54067921819E+02  0.77183174351E+02  0.11856885862E+03  0.15145678198E+03  0.00000000000E+00 0. -1.
         11    1    1    2    0    0 -0.15293678083E+01 -0.16003656017E+02  0.81965216352E+02  0.83526957705E+02  0.00000000000E+00 0.  1.
</event>
<event>
 7    1  0.1226955E-005  0.1547653E+03  0.7561462E-02  0.1194737E+00
          2   -1    0    0  501    0  0.00000000000E+00  0.00000000000E+00  0.52253469025E+03  0.52253469025E+03  0.00000000000E+00 0. -1.
         -2   -1    0    0    0  501 -0.00000000000E+00 -0.00000000000E+00 -0.86019081526E+02  0.86019081526E+02  0.00000000000E+00 0.  1.
         23    2    1    2    0    0 -0.51487478757E+02  0.14311295168E+03  0.84299614788E+02  0.21421008723E+03  0.12508900436E+03 0.  0.
          5    1    3    3  502    0 -0.45578360011E+02  0.10414180223E+03  0.11673333691E+03  0.16299400670E+03  0.41800000000E+01 0.  1.
         -5    1    3    3    0  502 -0.59091187465E+01  0.38971149457E+02 -0.32433722127E+02  0.51216080535E+02  0.41800000000E+01 0.  1.
        -11    1    1    2    0    0  0.49725518502E+02 -0.88634523006E+02  0.30744372262E+03  0.32380603521E+03  0.00000000000E+00 0. -1.
         11    1    1    2    0    0  0.17619602551E+01 -0.54478428678E+02  0.44772271320E+02  0.70537649339E+02  0.00000000000E+00 0.  1.
</event>
<event>
 7    1  0.1226955E-005  0.9107791E+02  0.7561462E-02  0.1300262E+00
          1   -1    0    0  501    0  0.00000000000E+00  0.00000000000E+00  0.14998609316E+03  0.14998609316E+03  0.00000000000E+00 0. -1.
         -1   -1    0    0    0  501 -0.00000000000E+00 -0.00000000000E+00 -0.94435921876E+02  0.94435921876E+02  0.00000000000E+00 0.  1.
         23    2    1    2    0    0 -0.34415479767E+02  0.45680087732E+02  0.63112833482E+02  0.15133419440E+03  0.12509081893E+03 0.  0.
          5    1    3    3  502    0 -0.21076402989E+02 -0.34562379315E+02 -0.99719728089E+01  0.41900900570E+02  0.41800000000E+01 0. -1.
         -5    1    3    3    0  502 -0.13339076778E+02  0.80242467047E+02  0.73084806291E+02  0.10943329383E+03  0.41800000000E+01 0. -1.
        -11    1    1    2    0    0  0.50040199068E+01 -0.21076756180E+02  0.31577999025E+02  0.38294123423E+02  0.00000000000E+00 0. -1.
         11    1    1    2    0    0  0.29411459860E+02 -0.24603331552E+02 -0.39140661219E+02  0.54793697221E+02  0.00000000000E+00 0.  1.
</event>
<event>
 7    1  0.1226955E-005  0.4695511E+02  0.7561462E-02  0.1462493E+00
         -3   -1    0    0    0  501 -0.00000000000E+00  0.00000000000E+00  0.14175812481E+03  0.14175812481E+03  0.00000000000E+00 0.  1.
          3   -1    0    0  501    0  0.00000000000E+00 -0.00000000000E+00 -0.93470390213E+02  0.93470390213E+02  0.00000000000E+00 0. -1.
         23    2    1    2    0    0  0.14276988012E+02  0.72341396766E+01  0.61811075341E+02  0.14044393344E+03  0.12509086394E+03 0.  0.
          5    1    3    3  502    0  0.39339653213E+02  0.73357329091E+01 -0.26745820413E+02  0.48313896570E+02  0.41800000000E+01 0. -1.
         -5    1    3    3    0  502 -0.25062665201E+02 -0.10159323246E+00  0.88556895754E+02  0.92130036871E+02  0.41800000000E+01 0. -1.
        -11    1    1    2    0    0 -0.15221917093E+02  0.49793914365E+01 -0.51997086562E+02  0.54407702672E+02  0.00000000000E+00 0. -1.
         11    1    1    2    0    0  0.94492908081E+00 -0.12213531113E+02  0.38473745821E+02  0.40376878912E+02  0.00000000000E+00 0.  1.
</event>
<event>
 7    1  0.1226955E-005  0.9766895E+02  0.7561462E-02  0.1285276E+00
         -1   -1    0    0    0  501 -0.00000000000E+00  0.00000000000E+00  0.20652239252E+03  0.20652239252E+03  0.00000000000E+00 0.  1.
          1   -1    0    0  501    0  0.00000000000E+00 -0.00000000000E+00 -0.79410335842E+02  0.79410335842E+02  0.00000000000E+00 0. -1.
         23    2    1    2    0    0  0.65308035063E+02 -0.55166675070E+01  0.93603872547E+02  0.16942151398E+03  0.12508553625E+03 0.  0.
          5    1    3    3  502    0  0.45478057662E+02  0.40902638095E+02 -0.18776534939E+01  0.61337407138E+02  0.41800000000E+01 0.  1.
         -5    1    3    3    0  502  0.19829977401E+02 -0.46419305602E+02  0.95481526041E+02  0.10808410684E+03  0.41800000000E+01 0.  1.
        -11    1    1    2    0    0 -0.31773638972E+02 -0.23108799485E+02  0.54896268180E+02  0.67506895998E+02  0.00000000000E+00 0.  1.
         11    1    1    2    0    0 -0.33534396092E+02  0.28625466992E+02 -0.21388084045E+02  0.49004318390E+02  0.00000000000E+00 0. -1.
</event>
<event>
 7    1  0.1226955E-005  0.7337857E+02  0.7561462E-02  0.1348967E+00
          4   -1    0    0  501    0  0.00000000000E+00  0.00000000000E+00  0.29567979318E+02  0.29567979318E+02  0.00000000000E+00 0. -1.
         -4   -1    0    0    0  501 -0.00000000000E+00 -0.00000000000E+00 -0.42928887611E+03  0.42928887611E+03  0.00000000000E+00 0.  1.
         23    2    1    2    0    0 -0.27045612838E+02  0.46377024379E+01 -0.25649892199E+03  0.28669265782E+03  0.12509200458E+03 0.  0.
          5    1    3    3  502    0 -0.44777923224E+02 -0.16036510211E+01 -0.19720727197E+02  0.49132612245E+02  0.41800000000E+01 0. -1.
         -5    1    3    3    0  502  0.17732310385E+02  0.62413534590E+01 -0.23677819480E+03  0.23756004558E+03  0.41800000000E+01 0. -1.
        -11    1    1    2    0    0 -0.11457498028E+02  0.29119416615E+02 -0.16259340001E+02  0.35264441330E+02  0.00000000000E+00 0. -1.
         11    1    1    2    0    0  0.38503110866E+02 -0.33757119053E+02 -0.12696263480E+03  0.13689975627E+03  0.00000000000E+00 0.  1.
</event>
<event>
 7    1  0.1226955E-005  0.9595906E+02  0.7561462E-02  0.1289031E+00
         -1   -1    0    0    0  501 -0.00000000000E+00  0.00000000000E+00  0.65461651386E+02  0.65461651386E+02  0.00000000000E+00 0.  1.
          1   -1    0    0  501    0  0.00000000000E+00 -0.00000000000E+00 -0.30201148491E+03  0.30201148491E+03  0.00000000000E+00 0. -1.
         23    2    1    2    0    0 -0.72027015296E+01  0.80454498508E+02 -0.78446413672E+02  0.16830711738E+03  0.12509452707E+03 0.  0.
          5    1    3    3  502    0  0.74937960868E+01  0.76281190814E+02  0.10931366583E+02  0.77536728246E+02  0.41800000000E+01 0.  1.
         -5    1    3    3    0  502 -0.14696497616E+02  0.41733076945E+01 -0.89377780256E+02  0.90770389130E+02  0.41800000000E+01 0.  1.
        -11    1    1    2    0    0 -0.13043834193E+02 -0.77812945443E+02 -0.16026545925E+03  0.17863374126E+03  0.00000000000E+00 0. -1.
         11    1    1    2    0    0  0.20246535723E+02 -0.26415530651E+01  0.21620393993E+01  0.20532277656E+02  0.00000000000E+00 0.  1.
</event>
<event>
 7    1  0.1226955E-005  0.9302250E+02  0.7561462E-02  0.1295693E+00
         -1   -1    0    0    0  501 -0.00000000000E+00  0.00000000000E+00  0.10035296347E+03  0.10035296347E+03  0.00000000000E+00 0.  1.
          1   -1    0    0  501    0  0.00000000000E+00 -0.00000000000E+00 -0.25788852218E+03  0.25788852218E+03  0.00000000000E+00 0. -1.
         23    2    1    2    0    0 -0.37983006783E+02 -0.19427599605E+02  0.39042731442E+02  0.13781149832E+03  0.12509010256E+03 0.  0.
          5    1    3    3  502    0 -0.71541083561E+02 -0.14826346487E+02 -0.14222857636E+02  0.74550045383E+02  0.41800000000E+01 0.  1.
         -5    1    3    3    0  502  0.33558076778E+02 -0.46012531186E+01  0.53265589079E+02  0.63261452933E+02  0.41800000000E+01 0.  1.
        -11    1    1    2    0    0  0.23190334367E+02  0.44181677279E+02 -0.48552865590E+02  0.69621785184E+02  0.00000000000E+00 0.  1.
         11    1    1    2    0    0  0.14792672416E+02 -0.24754077674E+02 -0.14802542456E+03  0.15080820215E+03  0.00000000000E+00 0. -1.
</event>
<event>
 7    1  0.1226955E-005  0.8227562E+02  0.7561462E-02  0.1322715E+00
          1   -1    0    0  501    0  0.00000000000E+00  0.00000000000E+00  0.94098845038E+02  0.94098845038E+02  0.00000000000E+00 0. -1.
         -1   -1    0    0    0  501 -0.00000000000E+00 -0.00000000000E+00 -0.18764599255E+03  0.18764599255E+03  0.00000000000E+00 0.  1.
         23    2    1    2    0    0 -0.27088731613E+02  0.49482745699E+02 -0.10629904134E+03  0.17356880383E+03  0.12507718406E+03 0.  0.
          5    1    3    3  502    0 -0.16323300699E+02  0.37419358278E+02  0.20361678399E+02  0.45811885650E+02  0.41800000000E+01 0.  1.
         -5    1    3    3    0  502 -0.10765430913E+02  0.12063387421E+02 -0.12666071974E+03  0.12775691818E+03  0.41800000000E+01 0.  1.
        -11    1    1    2    0    0  0.58943029542E+02 -0.17063992945E+02  0.16283273998E+01  0.61384949596E+02  0.00000000000E+00 0.  1.
         11    1    1    2    0    0 -0.31854297929E+02 -0.32418752754E+02  0.11123566427E+02  0.46791084159E+02  0.00000000000E+00 0. -1.
</event>
<event>
 7    1  0.1226955E-005  0.7042746E+02  0.7561462E-02  0.1358645E+00
          1   -1    0    0  501    0  0.00000000000E+00  0.00000000000E+00  0.41997828881E+02  0.41997828881E+02  0.00000000000E+00 0. -1.
         -1   -1    0    0    0  501 -0.00000000000E+00 -0.00000000000E+00 -0.28885183231E+03  0.28885183231E+03  0.00000000000E+00 0.  1.
         23    2    1    2    0    0  0.19129655969E+02  0.79180726309E+01 -0.13956489299E+03  0.18853357804E+03  0.12505163366E+03 0.  0.
          5    1    3    3  502    0  0.18266432750E+02 -0.33674812964E+02 -0.14152330664E+03  0.14667642727E+03  0.41800000000E+01 0.  1.
         -5    1    3    3    0  502  0.86322321900E+00  0.41592885595E+02  0.19584136514E+01  0.41857150768E+02  0.41800000000E+01 0.  1.
        -11    1    1    2    0    0  0.18707412320E+02 -0.12341334681E+02 -0.10130474123E+03  0.10375416335E+03  0.00000000000E+00 0.  1.
         11    1    1    2    0    0 -0.37837068289E+02  0.44232620496E+01 -0.59843692095E+01  0.38561919801E+02  0.00000000000E+00 0. -1.
</event>
<event>
 7    1  0.1226955E-005  0.9438913E+02  0.7561462E-02  0.1292558E+00
          1   -1    0    0  501    0  0.00000000000E+00  0.00000000000E+00  0.24179254608E+03  0.24179254608E+03  0.00000000000E+00 0. -1.
         -1   -1    0    0    0  501 -0.00000000000E+00 -0.00000000000E+00 -0.59098626586E+02  0.59098626586E+02  0.00000000000E+00 0.  1.
         23    2    1    2    0    0 -0.32838542469E+02 -0.24588614560E+02  0.66852185364E+02  0.14764497089E+03  0.12508738108E+03 0.  0.
          5    1    3    3  502    0 -0.24661977272E+02  0.35265083597E+02 -0.15057355890E+02  0.45782481480E+02  0.41800000000E+01 0. -1.
         -5    1    3    3    0  502 -0.81765651971E+01 -0.59853698157E+02  0.81909541253E+02  0.10186248941E+03  0.41800000000E+01 0. -1.
        -11    1    1    2    0    0  0.57027478914E+02  0.19508683491E+02  0.37237113844E+02  0.70847192819E+02  0.00000000000E+00 0.  1.
         11    1    1    2    0    0 -0.24188936444E+02  0.50799310689E+01  0.78604620286E+02  0.82399008952E+02  0.00000000000E+00 0. -1.
</event>
<event>
 7    1  0.1226955E-005  0.1182853E+03  0.7561462E-02  0.1245953E+00
         -1   -1    0    0    0  501 -0.00000000000E+00  0.00000000000E+00  0.12061160737E+03  0.12061160737E+03  0.00000000000E+00 0.  1.
          1   -1    0    0  501    0  0.00000000000E+00 -0.00000000000E+00 -0.17142504858E+03  0.17142504858E+03  0.00000000000E+00 0. -1.
         23    2    1    2    0    0  0.69026850241E+02 -0.53753678623E+00  0.38712113581E+02  0.14802461765E+03  0.12509062592E+03 0.  0.
          5    1    3    3  502    0  0.10068781365E+03  0.21803678723E+02  0.21042179226E+02  0.10523156337E+03  0.41800000000E+01 0.  1.
         -5    1    3    3    0  502 -0.31660963409E+02 -0.22341215509E+02  0.17669934355E+02  0.42793054279E+02  0.41800000000E+01 0.  1.
        -11    1    1    2    0    0 -0.79193208014E+02 -0.10030042705E+02 -0.34317814520E+02  0.86890035940E+02  0.00000000000E+00 0.  1.
         11    1    1    2    0    0  0.10166357773E+02  0.10567579491E+02 -0.55207740277E+02  0.57122002356E+02  0.00000000000E+00 0. -1.
</event>
<event>
 7    1  0.1226955E-005  0.1518329E+03  0.7561462E-02  0.1198239E+00
          4   -1    0    0  501    0  0.00000000000E+00  0.00000000000E+00  0.72989788876E+03  0.72989788876E+03  0.00000000000E+00 0. -1.
         -4   -1    0    0    0  501 -0.00000000000E+00 -0.00000000000E+00 -0.35648452024E+02  0.35648452024E+02  0.00000000000E+00 0.  1.
         23    2    1    2    0    0  0.60316127933E+02  0.97756769177E+02  0.29657950147E+03  0.34176229017E+03  0.12509053152E+03 0.  0.
          5    1    3    3  502    0 -0.21074442111E+02 -0.14348306735E+02  0.84910277437E+02  0.88753780938E+02  0.41800000000E+01 0.  1.
         -5    1    3    3    0  502  0.81390570044E+02  0.11210507591E+03  0.21166922404E+03  0.25300850923E+03  0.41800000000E+01 0.  1.
        -11    1    1    2    0    0 -0.49636331040E+02 -0.97565316178E+01  0.21321605114E+03  0.21913475245E+03  0.00000000000E+00 0. -1.
         11    1    1    2    0    0 -0.10679796893E+02 -0.88000237559E+02  0.18445388412E+03  0.20464929816E+03  0.00000000000E+00 0.  1.
</event>
<event>
 7    1  0.1226955E-005  0.1247684E+03  0.7561462E-02  0.1235432E+00
          2   -1    0    0  501    0  0.00000000000E+00  0.00000000000E+00  0.25305903044E+02  0.25305903044E+02  0.00000000000E+00 0. -1.
         -2   -1    0    0    0  501 -0.00000000000E+00 -0.00000000000E+00 -0.77089128238E+03  0.77089128238E+03  0.00000000000E+00 0.  1.
         23    2    1    2    0    0 -0.72124639201E+02  0.18092781098E+02 -0.51790638051E+03  0.53796229521E+03  0.12508836789E+03 0.  0.
          5    1    3    3  502    0 -0.59720787603E+02  0.61000941248E+02 -0.20877536805E+03  0.22559324904E+03  0.41800000000E+01 0.  1.
         -5    1    3    3    0  502 -0.12403851597E+02 -0.42908160149E+02 -0.30913101246E+03  0.31236904617E+03  0.41800000000E+01 0.  1.
        -11    1    1    2    0    0  0.14984056847E+02 -0.51076682660E+02 -0.12879324174E+03  0.13935942232E+03  0.00000000000E+00 0.  1.
         11    1    1    2    0    0  0.57140582354E+02  0.32983901562E+02 -0.98885757082E+02  0.11887546790E+03  0.00000000000E+00 0. -1.
</event>
<event>
 7    1  0.1226955E-005  0.1008749E+03  0.7561462E-02  0.1278467E+00
          1   -1    0    0  501    0  0.00000000000E+00  0.00000000000E+00  0.29610352734E+02  0.29610352734E+02  0.00000000000E+00 0. -1.
         -1   -1    0    0    0  501 -0.00000000000E+00 -0.00000000000E+00 -0.55644102423E+03  0.55644102423E+03  0.00000000000E+00 0.  1.
         23    2    1    2    0    0  0.28263572888E+02  0.11616170146E+02 -0.43322145671E+03  0.45195337457E+03  0.12508899742E+03 0.  0.
          5    1    3    3  502    0  0.35792656402E+02  0.53625437001E+02 -0.12448125017E+03  0.14024926306E+03  0.41800000000E+01 0. -1.
         -5    1    3    3    0  502 -0.75290835142E+01 -0.42009266855E+02 -0.30874020654E+03  0.31170411151E+03  0.41800000000E+01 0. -1.
        -11    1    1    2    0    0 -0.48697548594E+02 -0.37369277250E+02 -0.72649756580E+02  0.95109942974E+02  0.00000000000E+00 0. -1.
         11    1    1    2    0    0  0.20433975706E+02  0.25753107104E+02 -0.20959458208E+02  0.38988059416E+02  0.00000000000E+00 0.  1.
</event>
<event>
 7    1  0.1226955E-005  0.1358331E+03  0.7561462E-02  0.1219048E+00
          1   -1    0    0  501    0  0.00000000000E+00  0.00000000000E+00  0.31363934097E+02  0.31363934097E+02  0.00000000000E+00 0. -1.
         -1   -1    0    0    0  501 -0.00000000000E+00 -0.00000000000E+00 -0.90327810246E+03  0.90327810246E+03  0.00000000000E+00 0.  1.
         23    2    1    2    0    0 -0.15555643031E+02  0.11874874192E+03 -0.59005616091E+03  0.61493469441E+03  0.12504064788E+03 0.  0.
          5    1    3    3  502    0  0.35465150790E+02  0.44036801480E+02 -0.87361128945E+02  0.10414632041E+03  0.41800000000E+01 0.  1.
         -5    1    3    3    0  502 -0.51020793821E+02  0.74711940439E+02 -0.50269503197E+03  0.51078837400E+03  0.41800000000E+01 0.  1.
        -11    1    1    2    0    0 -0.10722500077E+02 -0.38120941630E+02 -0.19808821762E+02  0.44278297373E+02  0.00000000000E+00 0. -1.
         11    1    1    2    0    0  0.26278143108E+02 -0.80627800289E+02 -0.26204918569E+03  0.27542904477E+03  0.00000000000E+00 0.  1.
</event>
<event>
 7    1  0.1226955E-005  0.2053495E+03  0.7561462E-02  0.1145303E+00
         -2   -1    0    0    0  501 -0.00000000000E+00  0.00000000000E+00  0.73500617847E+02  0.73500617847E+02  0.00000000000E+00 0.  1.
          2   -1    0    0  501    0  0.00000000000E+00 -0.00000000000E+00 -0.83953858409E+03  0.83953858409E+03  0.00000000000E+00 0. -1.
         23    2    1    2    0    0  0.18270738200E+03  0.51695750415E+02 -0.17099310103E+03  0.28381051070E+03  0.12351245822E+03 0.  0.
          5    1    3    3  502    0  0.33544319946E+02  0.58260870940E+02 -0.94355795651E+02  0.11593118242E+03  0.41800000000E+01 0. -1.
         -5    1    3    3    0  502  0.14916306206E+03 -0.65651205248E+01 -0.76637305374E+02  0.16787932828E+03  0.41800000000E+01 0.  1.
        -11    1    1    2    0    0 -0.15913738358E+03 -0.29999896474E+02 -0.55387502845E+03  0.57706346946E+03  0.00000000000E+00 0. -1.
         11    1    1    2    0    0 -0.23569998425E+02 -0.21695853942E+02 -0.41169836767E+02  0.52165221781E+02  0.00000000000E+00 0.  1.
</event>
<event>
 7    1  0.1226955E-005  0.1429404E+03  0.7561462E-02  0.1209426E+00
          2   -1    0    0  501    0  0.00000000000E+00  0.00000000000E+00  0.62260145067E+03  0.62260145067E+03  0.00000000000E+00 0. -1.
         -2   -1    0    0    0  501 -0.00000000000E+00 -0.00000000000E+00 -0.40147250597E+02  0.40147250597E+02  0.00000000000E+00 0.  1.
         23    2    1    2    0    0 -0.76268632518E+02  0.62165971943E+02  0.18737957408E+03  0.24584495961E+03  0.12508847673E+03 0.  0.
          5    1    3    3  502    0  0.65979920986E+01  0.69269849863E+02  0.11977183528E+03  0.13858070041E+03  0.41800000000E+01 0. -1.
         -5    1    3    3    0  502 -0.82866624616E+02 -0.71038779202E+01  0.67607738806E+02  0.10726425921E+03  0.41800000000E+01 0. -1.
        -11    1    1    2    0    0  0.23836729583E+02 -0.75184373549E+02  0.22210233780E+03  0.23569117116E+03  0.00000000000E+00 0.  1.
         11    1    1    2    0    0  0.52431902934E+02  0.13018401607E+02  0.17297228819E+03  0.18121257050E+03  0.00000000000E+00 0. -1.
</event>
<event>
 7    1  0.1226955E-005  0.1468488E+03  0.7561462E-02  0.1204399E+00
         -3   -1    0    0    0  501 -0.00000000000E+00  0.00000000000E+00  0.42785712532E+03  0.42785712532E+03  0.00000000000E+00 0.  1.
          3   -1    0    0  501    0  0.00000000000E+00 -0.00000000000E+00 -0.79411946164E+02  0.79411946164E+02  0.00000000000E+00 0. -1.
         23    2    1    2    0    0 -0.55655653077E+02  0.12819229876E+03  0.25347469660E+03  0.31531926091E+03  0.12508396102E+03 0.  0.
          5    1    3    3  502    0 -0.69649945269E+02  0.11119987883E+03  0.11343347179E+03  0.17349683816E+03  0.41800000000E+01 0. -1.
         -5    1    3    3    0  502  0.13994292192E+02  0.16992419924E+02  0.14004122480E+03  0.14182242275E+03  0.41800000000E+01 0. -1.
        -11    1    1    2    0    0  0.19283863009E+02 -0.34763901815E+02  0.81645590550E+02  0.90809683946E+02  0.00000000000E+00 0.  1.
         11    1    1    2    0    0  0.36371790068E+02 -0.93428396943E+02  0.13324892007E+02  0.10114012663E+03  0.00000000000E+00 0. -1.
</event>
<event>
 7    1  0.1226955E-005  0.1163038E+03  0.7561462E-02  0.1249322E+00
          2   -1    0    0  501    0  0.00000000000E+00  0.00000000000E+00  0.72335994567E+03  0.72335994567E+03  0.00000000000E+00 0. -1.
         -2   -1    0    0    0  501 -0.00000000000E+00 -0.00000000000E+00 -0.26780802915E+02  0.26780802915E+02  0.00000000000E+00 0.  1.
         23    2    1    2    0    0 -0.93949548387E+01 -0.61241853638E+02  0.21708448187E+03  0.25809604425E+03  0.12509622687E+03 0.  0.
          5    1    3    3  502    0  0.23686154733E+02  0.31712042638E+02  0.77327693216E+02  0.86969719515E+02  0.41800000000E+01 0. -1.
         -5    1    3    3    0  502 -0.33081109572E+02 -0.92953896276E+02  0.13975678865E+03  0.17112632473E+03  0.41800000000E+01 0. -1.
        -11    1    1    2    0    0  0.20314729484E+02  0.74301854060E+02  0.45892316113E+03  0.46534280007E+03  0.00000000000E+00 0. -1.
         11    1    1    2    0    0 -0.10919774645E+02 -0.13060000422E+02  0.20571499754E+02  0.26701904266E+02  0.00000000000E+00 0.  1.
</event>
<event>
 7    1  0.1226955E-005  0.9243699E+02  0.7561462E-02  0.1297055E+00
          1   -1    0    0  501    0  0.00000000000E+00  0.00000000000E+00  0.31715838608E+02  0.31715838608E+02  0.00000000000E+00 0. -1.
         -1   -1    0    0    0  501 -0.00000000000E+00 -0.00000000000E+00 -0.40894051310E+03  0.40894051310E+03  0.00000000000E+00 0.  1.
         23    2    1    2    0    0 -0.30345854315E+01 -0.37534714881E+01 -0.27463245391E+03  0.30182303781E+03  0.12510341385E+03 0.  0.
          5    1    3    3  502    0  0.10210834343E+02  0.43286312311E+02 -0.33720151369E+02  0.55968624959E+02  0.41800000000E+01 0. -1.
         -5    1    3    3    0  502 -0.13245419774E+02 -0.47039783799E+02 -0.24091230254E+03  0.24585441285E+03  0.41800000000E+01 0. -1.
        -11    1    1    2    0    0  0.43113131519E+02 -0.16608726813E+02 -0.36395847548E+02  0.58815386034E+02  0.00000000000E+00 0.  1.
         11    1    1    2    0    0 -0.40078546087E+02  0.20362198301E+02 -0.66196373041E+02  0.80017927865E+02  0.00000000000E+00 0. -1.
</event>
<event>
 7    1  0.1226955E-005  0.1269112E+03  0.7561462E-02  0.1232112E+00
          4   -1    0    0  501    0  0.00000000000E+00  0.00000000000E+00  0.29331118609E+02  0.29331118609E+02  0.00000000000E+00 0.  1.
         -4   -1    0    0    0  501 -0.00000000000E+00 -0.00000000000E+00 -0.79514813511E+03  0.79514813511E+03  0.00000000000E+00 0. -1.
         23    2    1    2    0    0 -0.26663952908E+01 -0.96603684293E+02 -0.54453954031E+03  0.56701928592E+03  0.12509267831E+03 0.  0.
          5    1    3    3  502    0 -0.56251925737E+02 -0.13458484263E+02 -0.17016990347E+03  0.17977952719E+03  0.41800000000E+01 0. -1.
         -5    1    3    3    0  502  0.53585530446E+02 -0.83145200030E+02 -0.37436963683E+03  0.38723975873E+03  0.41800000000E+01 0. -1.
        -11    1    1    2    0    0  0.45235868890E+01  0.77889796038E+02 -0.22512769324E+03  0.23826405820E+03  0.00000000000E+00 0. -1.
         11    1    1    2    0    0 -0.18571915982E+01  0.18713888255E+02  0.38502170414E+01  0.19195909604E+02  0.00000000000E+00 0.  1.
</event>
<event>
 7    1  0.1226955E-005  0.9919136E+02  0.7561462E-02  0.1282006E+00
         -1   -1    0    0    0  501 -0.00000000000E+00  0.00000000000E+00  0.22404514757E+03  0.22404514757E+03  0.00000000000E+00 0.  1.
          1   -1    0    0  501    0  0.00000000000E+00 -0.00000000000E+00 -0.95233965390E+02  0.95233965390E+02  0.00000000000E+00 0. -1.
         23    2    1    2    0    0  0.98002831853E+01 -0.84303193413E+02  0.12248078757E+03  0.19455561781E+03  0.12508905280E+03 0.  0.
          5    1    3    3  502    0  0.63482898342E+01 -0.13785137976E+02 -0.25827304102E+02  0.30246534512E+02  0.41800000000E+01 0. -1.
         -5    1    3    3    0  502  0.34519933511E+01 -0.70518055438E+02  0.14830809167E+03  0.16430908330E+03  0.41800000000E+01 0. -1.
        -11    1    1    2    0    0 -0.41665129635E+02  0.45231391778E+02  0.30689676671E+02  0.68729310224E+02  0.00000000000E+00 0.  1.
         11    1    1    2    0    0  0.31864846450E+02  0.39071801635E+02 -0.24359282061E+02  0.55994184920E+02  0.00000000000E+00 0. -1.
</event>
<event>
 7    1  0.1226955E-005  0.8970600E+02  0.7561462E-02  0.1303565E+00
         -1   -1    0    0    0  501 -0.00000000000E+00  0.00000000000E+00  0.24666627073E+02  0.24666627073E+02  0.00000000000E+00 0.  1.
          1   -1    0    0  501    0  0.00000000000E+00 -0.00000000000E+00 -0.62825572987E+03  0.62825572987E+03  0.00000000000E+00 0. -1.
         23    2    1    2    0    0 -0.63897310536E+02 -0.13914082405E+02 -0.33193774081E+03  0.36070327745E+03  0.12509085740E+03 0.  0.
          5    1    3    3  502    0  0.51645021032E+01  0.16172477350E+01  0.96532811538E+01  0.11829869367E+02  0.41800000000E+01 0. -1.
         -5    1    3    3    0  502 -0.69061812640E+02 -0.15531330140E+02 -0.34159102196E+03  0.34887340808E+03  0.41800000000E+01 0. -1.
        -11    1    1    2    0    0  0.42132831686E+02 -0.30627947834E+02 -0.18700288913E+03  0.19412193910E+03  0.00000000000E+00 0. -1.
         11    1    1    2    0    0  0.21764478851E+02  0.44542030240E+02 -0.84648472860E+02  0.98097140402E+02  0.00000000000E+00 0.  1.
</event>
<event>
 7    1  0.1226955E-005  0.1456142E+03  0.7561462E-02  0.1205968E+00
          2   -1    0    0  501    0  0.00000000000E+00  0.00000000000E+00  0.28066767387E+03  0.28066767387E+03  0.00000000000E+00 0. -1.
         -2   -1    0    0    0  501 -0.00000000000E+00 -0.00000000000E+00 -0.90224257329E+02  0.90224257329E+02  0.00000000000E+00 0.  1.
         23    2    1    2    0    0  0.59868776659E+02 -0.85710187820E+02  0.41989461871E+02  0.16835178377E+03  0.12509476998E+03 0.  0.
          5    1    3    3  502    0  0.45852297843E+02  0.24177120508E+02  0.17014420489E+02  0.54716809832E+02  0.41800000000E+01 0.  1.
         -5    1    3    3    0  502  0.14016478816E+02 -0.10988730833E+03  0.24975041382E+02  0.11363497394E+03  0.41800000000E+01 0.  1.
        -11    1    1    2    0    0 -0.71698310376E+02  0.42019764840E+02  0.12859662308E+03  0.15311237643E+03  0.00000000000E+00 0. -1.
         11    1    1    2    0    0  0.11829533717E+02  0.43690422980E+02  0.19857331591E+02  0.49427771000E+02  0.00000000000E+00 0.  1.
</event>
<event>
 7    1  0.1226955E-005  0.1123512E+03  0.7561462E-02  0.1256277E+00
          1   -1    0    0  501    0  0.00000000000E+00  0.00000000000E+00  0.13845985853E+02  0.13845985853E+02  0.00000000000E+00 0. -1.
         -1   -1    0    0    0  501 -0.00000000000E+00 -0.00000000000E+00 -0.12522564421E+04  0.12522564421E+04  0.00000000000E+00 0.  1.
         23    2    1    2    0    0  0.30918295444E+02 -0.44328127850E+02 -0.92858729915E+03  0.93853240805E+03  0.12509110637E+03 0.  0.
          5    1    3    3  502    0  0.62903969824E+02  0.13678793892E+01 -0.25711971784E+03  0.26473912105E+03  0.41800000000E+01 0. -1.
         -5    1    3    3    0  502 -0.31985674380E+02 -0.45696007239E+02 -0.67146758131E+03  0.67379328699E+03  0.41800000000E+01 0. -1.
        -11    1    1    2    0    0 -0.64260018637E+01 -0.28322423757E+02 -0.10208620644E+03  0.10613692445E+03  0.00000000000E+00 0. -1.
         11    1    1    2    0    0 -0.24492293580E+02  0.72650551607E+02 -0.20773695064E+03  0.22143309543E+03  0.00000000000E+00 0.  1.
</event>
<event>
 7    1  0.1226955E-005  0.8976038E+02  0.7561462E-02  0.1303433E+00
          2   -1    0    0  501    0  0.00000000000E+00  0.00000000000E+00  0.90668592252E+03  0.90668592252E+03  0.00000000000E+00 0. -1.
         -2   -1    0    0    0  501 -0.00000000000E+00 -0.00000000000E+00 -0.18036923005E+02  0.18036923005E+02  0.00000000000E+00 0.  1.
         23    2    1    2    0    0 -0.58077629413E+02  0.35238124437E+02  0.49706148178E+03  0.51703928322E+03  0.12507904407E+03 0.  0.
          5    1    3    3  502    0 -0.48342265370E+02  0.34010241490E+02  0.78556987548E+02  0.98398901619E+02  0.41800000000E+01 0. -1.
         -5    1    3    3    0  502 -0.97353640433E+01  0.12278829469E+01  0.41850449424E+03  0.41864038160E+03  0.41800000000E+01 0. -1.
        -11    1    1    2    0    0 -0.22541729102E+02 -0.12773913683E+02  0.54250141601E+02  0.60119716278E+02  0.00000000000E+00 0.  1.
         11    1    1    2    0    0  0.80619358515E+02 -0.22464210753E+02  0.33733737613E+03  0.34756384603E+03  0.00000000000E+00 0. -1.
</event>
<event>
 7    1  0.1226955E-005  0.1744486E+03  0.7561462E-02  0.1173287E+00
         -1   -1    0    0    0  501 -0.00000000000E+00  0.00000000000E+00  0.29990524434E+03  0.29990524434E+03  0.00000000000E+00 0.  1.
          1   -1    0    0  501    0  0.00000000000E+00 -0.00000000000E+00 -0.17761499815E+03  0.17761499815E+03  0.00000000000E+00 0. -1.
         23    2    1    2    0    0 -0.89091857477E+02  0.11046002496E+03  0.21791365419E+03  0.28305427322E+03  0.11177917839E+03 0.  0.
          5    1    3    3  502    0  0.23870853526E+02  0.41878015049E+02  0.61197628783E+02  0.78014152313E+02  0.41800000000E+01 0. -1.
         -5    1    3    3    0  502 -0.11296271100E+03  0.68582009909E+02  0.15671602541E+03  0.20504012090E+03  0.41800000000E+01 0.  1.
        -11    1    1    2    0    0  0.41518342800E+01 -0.76826024164E+02 -0.54469273227E+02  0.94267584262E+02  0.00000000000E+00 0.  1.
         11    1    1    2    0    0  0.84940023197E+02 -0.33634000794E+02 -0.41154134773E+02  0.10019838501E+03  0.00000000000E+00 0. -1.
</event>
<event>
 7    1  0.1226955E-005  0.9953597E+02  0.7561462E-02  0.1281275E+00
          2   -1    0    0  501    0  0.00000000000E+00  0.00000000000E+00  0.94381045859E+02  0.94381045859E+02  0.00000000000E+00 0. -1.
         -2   -1    0    0    0  501 -0.00000000000E+00 -0.00000000000E+00 -0.19008088637E+03  0.19008088637E+03  0.00000000000E+00 0.  1.
         23    2    1    2    0    0  0.19333986860E+02  0.76181997730E+02 -0.49160843320E+02  0.15569709486E+03  0.12508915623E+03 0.  0.
          5    1    3    3  502    0  0.42989540637E+02  0.50526926982E+02 -0.83386996828E+02  0.10663927323E+03  0.41800000000E+01 0.  1.
         -5    1    3    3    0  502 -0.23655553776E+02  0.25655070748E+02  0.34226153509E+02  0.49057821635E+02  0.41800000000E+01 0.  1.
        -11    1    1    2    0    0 -0.22514114645E+02 -0.13502694996E+01 -0.48876017425E+02  0.53829115405E+02  0.00000000000E+00 0.  1.
         11    1    1    2    0    0  0.31801277843E+01 -0.74831728230E+02  0.23370202316E+01  0.74935721964E+02  0.00000000000E+00 0. -1.
</event>
<event>
 7    1  0.1226955E-005  0.1341178E+03  0.7561462E-02  0.1221470E+00
         -1   -1    0    0    0  501 -0.00000000000E+00  0.00000000000E+00  0.22481143181E+03  0.22481143181E+03  0.00000000000E+00 0.  1.
          1   -1    0    0  501    0  0.00000000000E+00 -0.00000000000E+00 -0.97977595155E+02  0.97977595155E+02  0.00000000000E+00 0. -1.
         23    2    1    2    0    0  0.92337421222E+02  0.12284595977E+02  0.11845877537E+03  0.19584236792E+03  0.12507853915E+03 0.  0.
          5    1    3    3  502    0  0.12292813226E+03  0.18166739284E+02  0.98355874458E+02  0.15853298255E+03  0.41800000000E+01 0. -1.
         -5    1    3    3    0  502 -0.30590711037E+02 -0.58821433068E+01  0.20102900912E+02  0.37309385370E+02  0.41800000000E+01 0. -1.
        -11    1    1    2    0    0 -0.71485230335E+02  0.19826955438E+02  0.33242927575E+02  0.81291688085E+02  0.00000000000E+00 0.  1.
         11    1    1    2    0    0 -0.20852190887E+02 -0.32111551415E+02 -0.24867866291E+02  0.45654970955E+02  0.00000000000E+00 0. -1.
</event>
<event>
 7    1  0.1226955E-005  0.1148901E+03  0.7561462E-02  0.1251773E+00
          1   -1    0    0  501    0  0.00000000000E+00  0.00000000000E+00  0.12853051733E+03  0.12853051733E+03  0.00000000000E+00 0.  1.
         -1   -1    0    0    0  501 -0.00000000000E+00 -0.00000000000E+00 -0.19243475238E+03  0.19243475238E+03  0.00000000000E+00 0. -1.
         23    2    1    2    0    0 -0.67115469879E+02 -0.37059007181E+02 -0.12074858400E+03  0.19001449383E+03  0.12508969189E+03 0.  0.
          5    1    3    3  502    0  0.22270404377E+02  0.27229188027E+02 -0.39870033300E+02  0.53333774918E+02  0.41800000000E+01 0.  1.
         -5    1    3    3    0  502 -0.89385874256E+02 -0.64288195207E+02 -0.80878550700E+02  0.13668071891E+03  0.41800000000E+01 0.  1.
        -11    1    1    2    0    0  0.61470019020E+02  0.17641447743E+02  0.78546068795E+02  0.10128804885E+03  0.00000000000E+00 0.  1.
         11    1    1    2    0    0  0.56454508590E+01  0.19417559437E+02 -0.21701719846E+02  0.29662727019E+02  0.00000000000E+00 0. -1.
</event>
<event>
 7    1  0.1226955E-005  0.1353941E+03  0.7561462E-02  0.1219664E+00
         -1   -1    0    0    0  501 -0.00000000000E+00  0.00000000000E+00  0.19690427628E+02  0.19690427628E+02  0.00000000000E+00 0.  1.
          1   -1    0    0  501    0  0.00000000000E+00 -0.00000000000E+00 -0.12792013507E+04  0.12792013507E+04  0.00000000000E+00 0. -1.
         23    2    1    2    0    0  0.11185388533E+03 -0.10007394813E+02 -0.56879992117E+03  0.59312085729E+03  0.12509021310E+03 0.  0.
          5    1    3    3  502    0  0.10629462972E+03  0.94731392860E+01 -0.22886114819E+03  0.25255333343E+03  0.41800000000E+01 0. -1.
         -5    1    3    3    0  502  0.55592556091E+01 -0.19480534099E+02 -0.33993877298E+03  0.34056752386E+03  0.41800000000E+01 0. -1.
        -11    1    1    2    0    0  0.63883034224E+01  0.23447249838E+02 -0.81519095849E+02  0.85064369354E+02  0.00000000000E+00 0. -1.
         11    1    1    2    0    0 -0.11824218876E+03 -0.13439855026E+02 -0.60919190608E+03  0.62070655171E+03  0.00000000000E+00 0.  1.
</event>
<event>
 7    1  0.1226955E-005  0.1208386E+03  0.7561462E-02  0.1241720E+00
          2   -1    0    0  501    0  0.00000000000E+00  0.00000000000E+00  0.35283934755E+03  0.35283934755E+03  0.00000000000E+00 0. -1.
         -2   -1    0    0    0  501 -0.00000000000E+00 -0.00000000000E+00 -0.60047902683E+02  0.60047902683E+02  0.00000000000E+00 0.  1.
         23    2    1    2    0    0  0.87800261415E+02  0.30175682837E+02  0.12122739822E+03  0.19739807480E+03  0.12510179902E+03 0.  0.
          5    1    3    3  502    0  0.67225124458E+02 -0.11924114781E+02  0.11261170378E+01  0.68411566356E+02  0.41800000000E+01 0. -1.
         -5    1    3    3    0  502  0.20575136957E+02  0.42099797618E+02  0.12010128118E+03  0.12898650845E+03  0.41800000000E+01 0. -1.
        -11    1    1    2    0    0 -0.93567587711E+02  0.19531263589E+01  0.14846379416E+03  0.17549987564E+03  0.00000000000E+00 0. -1.
         11    1    1    2    0    0  0.57673262966E+01 -0.32128809196E+02  0.23100252498E+02  0.39989299799E+02  0.00000000000E+00 0.  1.
</event>
<event>
 7    1  0.1226955E-005  0.9832870E+02  0.7561462E-02  0.1283850E+00
         -2   -1    0    0    0  501 -0.00000000000E+00  0.00000000000E+00  0.62808270419E+02  0.62808270419E+02  0.00000000000E+00 0.  1.
          2   -1    0    0  501    0  0.00000000000E+00 -0.00000000000E+00 -0.25331068621E+03  0.25331068621E+03  0.00000000000E+00 0. -1.
         23    2    1    2    0    0 -0.29169673586E+02 -0.54260040988E+02 -0.75902766290E+02  0.15876407088E+03  0.12509907420E+03 0.  0.
          5    1    3    3  502    0 -0.60652759198E+02 -0.35367708109E+02  0.42901631950E+01  0.70466374077E+02  0.41800000000E+01 0. -1.
         -5    1    3    3    0  502  0.31483085613E+02 -0.18892332878E+02 -0.80192929485E+02  0.88297696803E+02  0.41800000000E+01 0. -1.
        -11    1    1    2    0    0  0.15409103660E+02  0.68117720986E+02 -0.40515927146E+02  0.80740353854E+02  0.00000000000E+00 0.  1.
         11    1    1    2    0    0  0.13760569925E+02 -0.13857679998E+02 -0.74083722355E+02  0.76614531895E+02  0.00000000000E+00 0. -1.
</event>
<event>
 7    1  0.1226955E-005  0.1040378E+03  0.7561462E-02  0.1272027E+00
          2   -1    0    0  501    0  0.00000000000E+00  0.00000000000E+00  0.56011640930E+03  0.56011640930E+03  0.00000000000E+00 0. -1.
         -2   -1    0    0    0  501 -0.00000000000E+00 -0.00000000000E+00 -0.39108946326E+02  0.39108946326E+02  0.00000000000E+00 0.  1.
         23    2    1    2    0    0  0.89497077182E+02  0.22809763174E+02  0.20329250107E+03  0.25593960031E+03  0.12508887199E+03 0.  0.
          5    1    3    3  502    0  0.66077794120E+02  0.10283601489E+02  0.21603497384E+03  0.22618711205E+03  0.41800000000E+01 0.  1.
         -5    1    3    3    0  502  0.23419283062E+02  0.12526161685E+02 -0.12742472767E+02  0.29752488264E+02  0.41800000000E+01 0.  1.
        -11    1    1    2    0    0 -0.69986167381E+01 -0.30535084781E+02  0.28210065145E+02  0.42156610565E+02  0.00000000000E+00 0.  1.
         11    1    1    2    0    0 -0.82498460444E+02  0.77253216076E+01  0.28950489675E+03  0.30112914474E+03  0.00000000000E+00 0. -1.
</event>
<event>
 7    1  0.1226955E-005  0.1032735E+03  0.7561462E-02  0.1273559E+00
         -2   -1    0    0    0  501 -0.00000000000E+00  0.00000000000E+00  0.10114999209E+03  0.10114999209E+03  0.00000000000E+00 0.  1.
          2   -1    0    0  501    0  0.00000000000E+00 -0.00000000000E+00 -0.16682598797E+03  0.16682598797E+03  0.00000000000E+00 0. -1.
         23    2    1    2    0    0 -0.27914513240E+02 -0.49860012669E+02 -0.72042277842E+00  0.13750991003E+03  0.12507284052E+03 0.  0.
          5    1    3    3  502    0 -0.60014188807E+02 -0.33682819673E+02  0.42613297045E+02  0.81053073257E+02  0.41800000000E+01 0.  1.
         -5    1    3    3    0  502  0.32099675566E+02 -0.16177192995E+02 -0.43333719824E+02  0.56456836773E+02  0.41800000000E+01 0.  1.
        -11    1    1    2    0    0  0.56935136294E+02  0.21570482261E+02 -0.92579243253E+01  0.61584126304E+02  0.00000000000E+00 0. -1.
         11    1    1    2    0    0 -0.29020623054E+02  0.28289530408E+02 -0.55697648771E+02  0.68881943728E+02  0.00000000000E+00 0.  1.
</event>
<event>
 7    1  0.1226955E-005  0.1735241E+03  0.7561462E-02  0.1174222E+00
          2   -1    0    0  501    0  0.00000000000E+00  0.00000000000E+00  0.20738179897E+03  0.20738179897E+03  0.00000000000E+00 0. -1.
         -2   -1    0    0    0  501 -0.00000000000E+00 -0.00000000000E+00 -0.34242954973E+03  0.34242954973E+03  0.00000000000E+00 0.  1.
         23    2    1    2    0    0 -0.81379949891E+02 -0.11064033240E+03 -0.27610798721E+03  0.33278658685E+03  0.12508921772E+03 0.  0.
          5    1    3    3  502    0 -0.34112775069E+01  0.25028997226E+02 -0.19423038736E+02  0.32137429115E+02  0.41800000000E+01 0. -1.
         -5    1    3    3    0  502 -0.77968672384E+02 -0.13566932963E+03 -0.25668494847E+03  0.30064915773E+03  0.41800000000E+01 0. -1.
        -11    1    1    2    0    0 -0.12921359181E+02 -0.65529520469E+01  0.13333348414E+02  0.19689613595E+02  0.00000000000E+00 0. -1.
         11    1    1    2    0    0  0.94301309071E+02  0.11719328445E+03  0.12772688803E+03  0.19733514826E+03  0.00000000000E+00 0.  1.
</event>
<event>
 7    1  0.1226955E-005  0.1621241E+03  0.7561462E-02  0.1186319E+00
         -1   -1    0    0    0  501 -0.00000000000E+00  0.00000000000E+00  0.16988068184E+03  0.16988068184E+03  0.00000000000E+00 0.  1.
          1   -1    0    0  501    0  0.00000000000E+00 -0.00000000000E+00 -0.33158290291E+03  0.33158290291E+03  0.00000000000E+00 0. -1.
         23    2    1    2    0    0 -0.13778477501E+03  0.19130273672E+00  0.83284979268E+02  0.20388169652E+03  0.12508668028E+03 0.  0.
          5    1    3    3  502    0 -0.73960003952E+02 -0.35943671142E+02 -0.12380944568E+02  0.83263376512E+02  0.41800000000E+01 0.  1.
         -5    1    3    3    0  502 -0.63824771053E+02  0.36134973879E+02  0.95665923836E+02  0.12061832000E+03  0.41800000000E+01 0.  1.
        -11    1    1    2    0    0  0.40386163887E+01 -0.30948081309E+02 -0.37110062869E+02  0.48489699166E+02  0.00000000000E+00 0.  1.
         11    1    1    2    0    0  0.13374615862E+03  0.30756778573E+02 -0.20787713747E+03  0.24909218907E+03  0.00000000000E+00 0. -1.
</event>
<event>
 7    1  0.1226955E-005  0.8693021E+02  0.7561462E-02  0.1310461E+00
          1   -1    0    0  501    0  0.00000000000E+00  0.00000000000E+00  0.41822664177E+03  0.41822664177E+03  0.00000000000E+00 0. -1.
         -1   -1    0    0    0  501 -0.00000000000E+00 -0.00000000000E+00 -0.36032093151E+02  0.36032093151E+02  0.00000000000E+00 0.  1.
         23    2    1    2    0    0  0.35227279948E+02 -0.11104537843E+02  0.13571375721E+03  0.18822935354E+03  0.12509114127E+03 0.  0.
          5    1    3    3  502    0 -0.20487939769E+02 -0.27636678996E+02 -0.58478044254E+01  0.35145567551E+02  0.41800000000E+01 0.  1.
         -5    1    3    3    0  502  0.55715219717E+02  0.16532141153E+02  0.14156156164E+03  0.15308378599E+03  0.41800000000E+01 0.  1.
        -11    1    1    2    0    0 -0.18179507841E+02 -0.30762995193E+02  0.19171492888E+03  0.19501658990E+03  0.00000000000E+00 0. -1.
         11    1    1    2    0    0 -0.17047772107E+02  0.41867533036E+02  0.54765862526E+02  0.71012791485E+02  0.00000000000E+00 0.  1.
</event>
<event>
 7    1  0.1226955E-005  0.7093848E+02  0.7561462E-02  0.1356930E+00
          2   -1    0    0  501    0  0.00000000000E+00  0.00000000000E+00  0.25570507443E+02  0.25570507443E+02  0.00000000000E+00 0. -1.
         -2   -1    0    0    0  501 -0.00000000000E+00 -0.00000000000E+00 -0.59916000249E+03  0.59916000249E+03  0.00000000000E+00 0.  1.
         23    2    1    2    0    0 -0.53310995572E+02  0.13091169313E+02 -0.39527140074E+03  0.41820927430E+03  0.12508427521E+03 0.  0.
          5    1    3    3  502    0  0.10061949292E+00  0.29551546629E+02 -0.14223879170E+02  0.33061989824E+02  0.41800000000E+01 0. -1.
         -5    1    3    3    0  502 -0.53411615065E+02 -0.16460377316E+02 -0.38104752157E+03  0.38514728447E+03  0.41800000000E+01 0. -1.
        -11    1    1    2    0    0  0.19089549871E+02  0.66648927881E+00  0.48249273778E+01  0.19701143277E+02  0.00000000000E+00 0. -1.
         11    1    1    2    0    0  0.34221445701E+02 -0.13757658592E+02 -0.18314302169E+03  0.18682009236E+03  0.00000000000E+00 0.  1.
</event>
<event>
 7    1  0.1226955E-005  0.1111516E+03  0.7561462E-02  0.1258452E+00
          2   -1    0    0  501    0  0.00000000000E+00  0.00000000000E+00  0.46744578138E+02  0.46744578138E+02  0.00000000000E+00 0. -1.
         -2   -1    0    0    0  501 -0.00000000000E+00 -0.00000000000E+00 -0.34066923803E+03  0.34066923803E+03  0.00000000000E+00 0.  1.
         23    2    1    2    0    0 -0.34721652109E+02 -0.32038283804E+02 -0.23100317207E+03  0.26691161333E+03  0.12508916449E+03 0.  0.
          5    1    3    3  502    0  0.20688022912E+02 -0.65489769701E+02 -0.12247431034E+03  0.14047894262E+03  0.41800000000E+01 0. -1.
         -5    1    3    3    0  502 -0.55409675021E+02  0.33451485897E+02 -0.10852886173E+03  0.12643267071E+03  0.41800000000E+01 0. -1.
        -11    1    1    2    0    0  0.24652605024E+02 -0.22379583116E+02  0.41426080501E+01  0.33552315514E+02  0.00000000000E+00 0. -1.
         11    1    1    2    0    0  0.10069047085E+02  0.54417866921E+02 -0.67064095870E+02  0.86949887316E+02  0.00000000000E+00 0.  1.
</event>
<event>
 7    1  0.1226955E-005  0.8675293E+02  0.7561462E-02  0.1310911E+00
          2   -1    0    0  501    0  0.00000000000E+00  0.00000000000E+00  0.23276711651E+03  0.23276711651E+03  0.00000000000E+00 0. -1.
         -2   -1    0    0    0  501 -0.00000000000E+00 -0.00000000000E+00 -0.63821360385E+02  0.63821360385E+02  0.00000000000E+00 0.  1.
         23    2    1    2    0    0  0.11337361461E+02  0.34403937198E+02  0.46344390346E+02  0.13824559953E+03  0.12510746026E+03 0.  0.
          5    1    3    3  502    0  0.11177740980E+02  0.75125089839E+02  0.58030083325E+02  0.95674886922E+02  0.41800000000E+01 0. -1.
         -5    1    3    3    0  502  0.15962048120E+00 -0.40721152641E+02 -0.11685692979E+02  0.42570712603E+02  0.41800000000E+01 0. -1.
        -11    1    1    2    0    0 -0.69485859224E+01  0.98379086009E+01 -0.11750009278E+02  0.16826467544E+02  0.00000000000E+00 0.  1.
         11    1    1    2    0    0 -0.43887755385E+01 -0.44241845799E+02  0.13435137506E+03  0.14151640983E+03  0.00000000000E+00 0. -1.
</event>
<event>
 7    1  0.1226955E-005  0.2171806E+03  0.7561462E-02  0.1136003E+00
         -2   -1    0    0    0  501 -0.00000000000E+00  0.00000000000E+00  0.17928425874E+03  0.17928425874E+03  0.00000000000E+00 0. -1.
          2   -1    0    0  501    0  0.00000000000E+00 -0.00000000000E+00 -0.27879789785E+03  0.27879789785E+03  0.00000000000E+00 0.  1.
         23    2    1    2    0    0 -0.94349238294E+02  0.16724344746E+03 -0.15384154618E+02  0.22968964486E+03  0.12509400968E+03 0.  0.
          5    1    3    3  502    0 -0.36379657486E+02 -0.13092823703E+02  0.46344522761E+01  0.39164423387E+02  0.41800000000E+01 0.  1.
         -5    1    3    3    0  502 -0.57969580808E+02  0.18033627117E+03 -0.20018606895E+02  0.19052522148E+03  0.41800000000E+01 0.  1.
        -11    1    1    2    0    0  0.70562303016E+02 -0.16798463161E+03 -0.90942602453E+02  0.20363799254E+03  0.00000000000E+00 0.  1.
         11    1    1    2    0    0  0.23786935278E+02  0.74118414952E+00  0.68131179563E+01  0.24754519187E+02  0.00000000000E+00 0. -1.
</event>
<event>
 7    1  0.1226955E-005  0.1203031E+03  0.7561462E-02  0.1242598E+00
         -2   -1    0    0    0  501 -0.00000000000E+00  0.00000000000E+00  0.28620907701E+02  0.28620907701E+02  0.00000000000E+00 0.  1.
          2   -1    0    0  501    0  0.00000000000E+00 -0.00000000000E+00 -0.67862595111E+03  0.67862595111E+03  0.00000000000E+00 0. -1.
         23    2    1    2    0    0  0.63729370001E+02  0.47887598596E+02 -0.26388039308E+03  0.30271390727E+03  0.12509273801E+03 0.  0.
          5    1    3    3  502    0  0.34242579965E+02  0.74722416797E+02 -0.80940532843E+02  0.11543325392E+03  0.41800000000E+01 0. -1.
         -5    1    3    3    0  502  0.29486790036E+02 -0.26834818200E+02 -0.18293986024E+03  0.18728065335E+03  0.41800000000E+01 0. -1.
        -11    1    1    2    0    0 -0.29031057233E+02  0.24471164340E+02 -0.88967436210E+02  0.96730785555E+02  0.00000000000E+00 0. -1.
         11    1    1    2    0    0 -0.34698312768E+02 -0.72358762936E+02 -0.29715721411E+03  0.30780216598E+03  0.00000000000E+00 0.  1.
</event>
<event>
 7    1  0.1226955E-005  0.1252942E+03  0.7561462E-02  0.1234610E+00
          2   -1    0    0  501    0  0.00000000000E+00  0.00000000000E+00  0.13403922322E+03  0.13403922322E+03  0.00000000000E+00 0. -1.
         -2   -1    0    0    0  501 -0.00000000000E+00 -0.00000000000E+00 -0.16126248906E+03  0.16126248906E+03  0.00000000000E+00 0.  1.
         23    2    1    2    0    0 -0.98053884742E+01  0.71336137968E+02 -0.81418281088E+02  0.16571245444E+03  0.12508673326E+03 0.  0.
          5    1    3    3  502    0 -0.57721974046E+02  0.61234102311E+02 -0.80539010897E+02  0.11655662251E+03  0.41800000000E+01 0. -1.
         -5    1    3    3    0  502  0.47916585571E+02  0.10102035657E+02 -0.87927019141E+00  0.49155831936E+02  0.41800000000E+01 0. -1.
        -11    1    1    2    0    0 -0.40916370404E+02 -0.22130150443E+02  0.15567232973E+02  0.49053355319E+02  0.00000000000E+00 0.  1.
         11    1    1    2    0    0  0.50721758878E+02 -0.49205987525E+02  0.38627782273E+02  0.80535902524E+02  0.00000000000E+00 0. -1.
</event>
<event>
 7    1  0.1226955E-005  0.7007703E+02  0.7561462E-02  0.1359831E+00
         -2   -1    0    0    0  501 -0.00000000000E+00  0.00000000000E+00  0.17610104415E+03  0.17610104415E+03  0.00000000000E+00 0.  1.
          2   -1    0    0  501    0  0.00000000000E+00 -0.00000000000E+00 -0.75481556974E+02  0.75481556974E+02  0.00000000000E+00 0. -1.
         23    2    1    2    0    0 -0.24589250890E+02 -0.12304047079E+02  0.78256854481E+02  0.15009180509E+03  0.12508954332E+03 0.  0.
          5    1    3    3  502    0 -0.66479600351E+02  0.26495880501E+01  0.84275101249E+01  0.67194143395E+02  0.41800000000E+01 0.  1.
         -5    1    3    3    0  502  0.41890349461E+02 -0.14953635129E+02  0.69829344356E+02  0.82897661696E+02  0.41800000000E+01 0.  1.
        -11    1    1    2    0    0  0.11603140769E+02  0.10845903461E+01  0.59473220303E+02  0.60604233722E+02  0.00000000000E+00 0.  1.
         11    1    1    2    0    0  0.12986110121E+02  0.11219456732E+02 -0.37110587604E+02  0.40886562313E+02  0.00000000000E+00 0. -1.
</event>
<event>
 7    1  0.1226955E-005  0.1448933E+03  0.7561462E-02  0.1206892E+00
         -3   -1    0    0    0  501 -0.00000000000E+00  0.00000000000E+00  0.47951906719E+02  0.47951906719E+02  0.00000000000E+00 0.  1.
          3   -1    0    0  501    0  0.00000000000E+00 -0.00000000000E+00 -0.64846743222E+03  0.64846743222E+03  0.00000000000E+00 0. -1.
         23    2    1    2    0    0 -0.58745075687E+02  0.94572276873E+02 -0.15524070072E+03  0.22834617419E+03  0.12508957046E+03 0.  0.
          5    1    3    3  502    0 -0.30361767954E+00 -0.27857869954E+02 -0.46771810688E+02  0.54600620666E+02  0.41800000000E+01 0.  1.
         -5    1    3    3    0  502 -0.58441458007E+02  0.12243014683E+03 -0.10846889003E+03  0.17374555353E+03  0.41800000000E+01 0.  1.
        -11    1    1    2    0    0  0.11798436335E+02  0.71909749233E+01 -0.66064601628E+01  0.15315303986E+02  0.00000000000E+00 0.  1.
         11    1    1    2    0    0  0.46946639351E+02 -0.10176325180E+03 -0.43866836462E+03  0.45275786076E+03  0.00000000000E+00 0. -1.
</event>
<event>
 7    1  0.1226955E-005  0.9886622E+02  0.7561462E-02  0.1282698E+00
          2   -1    0    0  501    0  0.00000000000E+00  0.00000000000E+00  0.30192877107E+03  0.30192877107E+03  0.00000000000E+00 0. -1.
         -2   -1    0    0    0  501 -0.00000000000E+00 -0.00000000000E+00 -0.47780255022E+02  0.47780255022E+02  0.00000000000E+00 0.  1.
         23    2    1    2    0    0  0.25268445143E+02 -0.19855516963E+02  0.82010752069E+02  0.15299053408E+03  0.12509038408E+03 0.  0.
          5    1    3    3  502    0 -0.55457230216E+01 -0.57956266548E+02  0.85680478763E+02  0.10367401177E+03  0.41800000000E+01 0. -1.
         -5    1    3    3    0  502  0.30814168165E+02  0.38100749585E+02 -0.36697266940E+01  0.49316522309E+02  0.41800000000E+01 0. -1.
        -11    1    1    2    0    0 -0.49841212957E+02 -0.10694452401E+02  0.64817483923E+02  0.82461045612E+02  0.00000000000E+00 0.  1.
         11    1    1    2    0    0  0.24572767814E+02  0.30549969364E+02  0.10732028005E+03  0.11425744640E+03  0.00000000000E+00 0. -1.
</event>
<event>
 7    1  0.1226955E-005  0.1552748E+03  0.7561462E-02  0.1194137E+00
          2   -1    0    0  501    0  0.00000000000E+00  0.00000000000E+00  0.57389095804E+03  0.57389095804E+03  0.00000000000E+00 0. -1.
         -2   -1    0    0    0  501 -0.00000000000E+00 -0.00000000000E+00 -0.57273284462E+02  0.57273284462E+02  0.00000000000E+00 0.  1.
         23    2    1    2    0    0 -0.42716424055E+02 -0.13780225737E+03  0.24524310866E+03  0.31081210946E+03  0.12508329234E+03 0.  0.
          5    1    3    3  502    0 -0.39148941364E+02 -0.87815503637E+02  0.24198391881E+03  0.26041868529E+03  0.41800000000E+01 0.  1.
         -5    1    3    3    0  502 -0.35674826908E+01 -0.49986753729E+02  0.32591898596E+01  0.50393424171E+02  0.41800000000E+01 0.  1.
        -11    1    1    2    0    0  0.52273183171E+02  0.14361910743E+03  0.26825279233E+03  0.30873693379E+03  0.00000000000E+00 0. -1.
         11    1    1    2    0    0 -0.95567591158E+01 -0.58168500635E+01  0.31217725884E+01  0.11615199247E+02  0.00000000000E+00 0.  1.
</event>
<event>
 7    1  0.1226955E-005  0.9834225E+02  0.7561462E-02  0.1283821E+00
          3   -1    0    0  501    0  0.00000000000E+00  0.00000000000E+00  0.20921757911E+02  0.20921757911E+02  0.00000000000E+00 0. -1.
         -3   -1    0    0    0  501 -0.00000000000E+00 -0.00000000000E+00 -0.60183694922E+03  0.60183694922E+03  0.00000000000E+00 0.  1.
         23    2    1    2    0    0 -0.98876756399E+01 -0.27355571548E+02 -0.31531289729E+03  0.34046490904E+03  0.12509211671E+03 0.  0.
          5    1    3    3  502    0 -0.21682139477E+02  0.33560679458E+02 -0.34827783499E+02  0.53168423725E+02  0.41800000000E+01 0.  1.
         -5    1    3    3    0  502  0.11794463837E+02 -0.60916251006E+02 -0.28048511379E+03  0.28729648531E+03  0.41800000000E+01 0.  1.
        -11    1    1    2    0    0 -0.22773457064E+02  0.49754700617E+02 -0.17647441842E+03  0.18476303997E+03  0.00000000000E+00 0.  1.
         11    1    1    2    0    0  0.32661132704E+02 -0.22399129070E+02 -0.89127875595E+02  0.97530758127E+02  0.00000000000E+00 0. -1.
</event>
<event>
 7    1  0.1226955E-005  0.2412813E+03  0.7561462E-02  0.1118942E+00
         -2   -1    0    0    0  501 -0.00000000000E+00  0.00000000000E+00  0.52469311122E+02  0.52469311122E+02  0.00000000000E+00 0. -1.
          2   -1    0    0  501    0  0.00000000000E+00 -0.00000000000E+00 -0.13204701056E+04  0.13204701056E+04  0.00000000000E+00 0.  1.
         23    2    1    2    0    0  0.11163541909E+03  0.20925123533E+03 -0.56717433834E+03  0.62736193222E+03  0.12509083758E+03 0.  0.
          5    1    3    3  502    0  0.79481422950E+02  0.86232419293E+02 -0.40256746010E+03  0.41932250007E+03  0.41800000000E+01 0.  1.
         -5    1    3    3    0  502  0.32153996143E+02  0.12301881603E+03 -0.16460687824E+03  0.20803943215E+03  0.41800000000E+01 0.  1.
        -11    1    1    2    0    0 -0.48740036362E+02 -0.71138669722E+02 -0.39331447454E+03  0.40265689781E+03  0.00000000000E+00 0.  1.
         11    1    1    2    0    0 -0.62895382731E+02 -0.13811256561E+03 -0.30751198159E+03  0.34292058668E+03  0.00000000000E+00 0. -1.
</event>
<event>
 7    1  0.1226955E-005  0.1273701E+03  0.7561462E-02  0.1231411E+00
         -1   -1    0    0    0  501 -0.00000000000E+00  0.00000000000E+00  0.48885907434E+02  0.48885907434E+02  0.00000000000E+00 0.  1.
          1   -1    0    0  501    0  0.00000000000E+00 -0.00000000000E+00 -0.38242402093E+03  0.38242402093E+03  0.00000000000E+00 0. -1.
         23    2    1    2    0    0  0.27276384753E+02 -0.79572802324E+02 -0.18718830322E+03  0.24034007830E+03  0.12509220736E+03 0.  0.
          5    1    3    3  502    0  0.71013245092E+01 -0.11199250912E+03 -0.13715295255E+03  0.17726013568E+03  0.41800000000E+01 0. -1.
         -5    1    3    3    0  502  0.20175060244E+02  0.32419706797E+02 -0.50035350668E+02  0.63079942622E+02  0.41800000000E+01 0. -1.
        -11    1    1    2    0    0 -0.34546720428E+02  0.12764455038E+02 -0.10684799081E+03  0.11301725684E+03  0.00000000000E+00 0. -1.
         11    1    1    2    0    0  0.72703356747E+01  0.66808347286E+02 -0.39501819472E+02  0.77952593219E+02  0.00000000000E+00 0.  1.
</event>
<event>
 7    1  0.1226955E-005  0.9597400E+02  0.7561462E-02  0.1288997E+00
          1   -1    0    0  501    0  0.00000000000E+00  0.00000000000E+00  0.39163285203E+03  0.39163285203E+03  0.00000000000E+00 0. -1.
         -1   -1    0    0    0  501 -0.00000000000E+00 -0.00000000000E+00 -0.29526776283E+02  0.29526776283E+02  0.00000000000E+00 0.  1.
         23    2    1    2    0    0 -0.10201819937E+02  0.77593624759E+00  0.14929078288E+03  0.18879366957E+03  0.11511139218E+03 0.  0.
          5    1    3    3  502    0 -0.22958397738E+01 -0.48420733300E+02  0.12305750292E+03  0.13232709367E+03  0.41800000000E+01 0. -1.
         -5    1    3    3    0  502 -0.79059801636E+01  0.49196669547E+02  0.26233279962E+02  0.56466575905E+02  0.41800000000E+01 0.  1.
        -11    1    1    2    0    0 -0.51102825747E+01 -0.45619262439E+02  0.10379519156E+03  0.11349305655E+03  0.00000000000E+00 0. -1.
         11    1    1    2    0    0  0.15312102512E+02  0.44843326191E+02  0.10902010131E+03  0.11887290220E+03  0.00000000000E+00 0.  1.
</event>
<event>
 7    1  0.1226955E-005  0.1614468E+03  0.7561462E-02  0.1187073E+00
          2   -1    0    0  501    0  0.00000000000E+00  0.00000000000E+00  0.61489531874E+03  0.61489531874E+03  0.00000000000E+00 0. -1.
         -2   -1    0    0    0  501 -0.00000000000E+00 -0.00000000000E+00 -0.52015613584E+02  0.52015613584E+02  0.00000000000E+00 0.  1.
         23    2    1    2    0    0  0.13034130189E+03  0.56169367008E+02  0.27444310126E+03  0.33333429434E+03  0.12509549625E+03 0.  0.
          5    1    3    3  502    0  0.11134225231E+03 -0.79294670909E+01  0.11465073134E+03  0.16006947303E+03  0.41800000000E+01 0.  1.
         -5    1    3    3    0  502  0.18999049573E+02  0.64098834099E+02  0.15979236992E+03  0.17326482131E+03  0.41800000000E+01 0.  1.
        -11    1    1    2    0    0 -0.27667765911E+02 -0.23953672641E+02  0.14681814602E+02  0.39431451705E+02  0.00000000000E+00 0.  1.
         11    1    1    2    0    0 -0.10267353598E+03 -0.32215694367E+02  0.27375478929E+03  0.29414518628E+03  0.00000000000E+00 0. -1.
</event>
<event>
 7    1  0.1226955E-005  0.1674826E+03  0.7561462E-02  0.1180499E+00
          1   -1    0    0  501    0  0.00000000000E+00  0.00000000000E+00  0.15723994728E+03  0.15723994728E+03  0.00000000000E+00 0. -1.
         -1   -1    0    0    0  501 -0.00000000000E+00 -0.00000000000E+00 -0.41155828151E+03  0.41155828151E+03  0.00000000000E+00 0.  1.
         23    2    1    2    0    0  0.13174309444E+03  0.66366162833E+02 -0.32745583711E+03  0.38031096792E+03  0.12509355124E+03 0.  0.
          5    1    3    3  502    0 -0.16839092922E+02  0.10469784895E+02 -0.49999972861E+01  0.20872082288E+02  0.41800000000E+01 0.  1.
         -5    1    3    3    0  502  0.14858218737E+03  0.55896377938E+02 -0.32245583982E+03  0.35943888563E+03  0.41800000000E+01 0.  1.
        -11    1    1    2    0    0 -0.77662943250E+02 -0.10889439814E+02 -0.48315819914E+01  0.78571348711E+02  0.00000000000E+00 0.  1.
         11    1    1    2    0    0 -0.54080151193E+02 -0.55476723020E+02  0.77969084869E+02  0.10991591216E+03  0.00000000000E+00 0. -1.
</event>
<event>
 7    1  0.1226955E-005  0.1029202E+03  0.7561462E-02  0.1274272E+00
          2   -1    0    0  501    0  0.00000000000E+00  0.00000000000E+00  0.48078043374E+03  0.48078043374E+03  0.00000000000E+00 0.  1.
         -2   -1    0    0    0  501 -0.00000000000E+00 -0.00000000000E+00 -0.27509348861E+02  0.27509348861E+02  0.00000000000E+00 0. -1.
         23    2    1    2    0    0 -0.13171115460E+02  0.35586479398E+02  0.25185538334E+03  0.28375869717E+03  0.12509191941E+03 0.  0.
          5    1    3    3  502    0  0.43514267626E+02  0.20351967798E+02  0.19867580102E+03  0.20444373404E+03  0.41800000000E+01 0.  1.
         -5    1    3    3    0  502 -0.56685383085E+02  0.15234511600E+02  0.53179582329E+02  0.79314963127E+02  0.41800000000E+01 0.  1.
        -11    1    1    2    0    0  0.29551421505E+02  0.23313017690E+02  0.87365854360E+02  0.95129258458E+02  0.00000000000E+00 0. -1.
         11    1    1    2    0    0 -0.16380306045E+02 -0.58899497088E+02  0.11404984717E+03  0.12940182697E+03  0.00000000000E+00 0.  1.
</event>
<event>
 7    1  0.1226955E-005  0.9673718E+02  0.7561462E-02  0.1287311E+00
          2   -1    0    0  501    0  0.00000000000E+00  0.00000000000E+00  0.79714907926E+02  0.79714907926E+02  0.00000000000E+00 0.  1.
         -2   -1    0    0    0  501 -0.00000000000E+00 -0.00000000000E+00 -0.16161302038E+03  0.16161302038E+03  0.00000000000E+00 0. -1.
         23    2    1    2    0    0 -0.29173285656E+02 -0.29589360331E+01 -0.70995297134E+02  0.14679046864E+03  0.12508906255E+03 0.  0.
          5    1    3    3  502    0 -0.49139209269E+02  0.34291638443E+02  0.44299436149E+01  0.60230184751E+02  0.41800000000E+01 0. -1.
         -5    1    3    3    0  502  0.19965923613E+02 -0.37250574476E+02 -0.75425240749E+02  0.86560283887E+02  0.41800000000E+01 0. -1.
        -11    1    1    2    0    0  0.47390896757E+02  0.31623628988E+02 -0.18178367729E+02  0.59803043894E+02  0.00000000000E+00 0. -1.
         11    1    1    2    0    0 -0.18217611101E+02 -0.28664692954E+02  0.72755524088E+01  0.34734415775E+02  0.00000000000E+00 0.  1.
</event>
<event>
 7    1  0.1226955E-005  0.1421684E+03  0.7561462E-02  0.1210441E+00
         -2   -1    0    0    0  501 -0.00000000000E+00  0.00000000000E+00  0.54261857523E+02  0.54261857523E+02  0.00000000000E+00 0.  1.
          2   -1    0    0  501    0  0.00000000000E+00 -0.00000000000E+00 -0.45888001511E+03  0.45888001511E+03  0.00000000000E+00 0. -1.
         23    2    1    2    0    0  0.10675906578E+03  0.24222500108E+02 -0.16393221833E+03  0.23346402919E+03  0.12508978008E+03 0.  0.
          5    1    3    3  502    0 -0.16115358037E+02 -0.85683102959E+01 -0.77284449929E+02  0.79520307512E+02  0.41800000000E+01 0.  1.
         -5    1    3    3    0  502  0.12287442382E+03  0.32790810404E+02 -0.86647768403E+02  0.15394372168E+03  0.41800000000E+01 0.  1.
        -11    1    1    2    0    0 -0.31404921089E+02  0.31630326143E+02 -0.11110304174E+03  0.11971061976E+03  0.00000000000E+00 0. -1.
         11    1    1    2    0    0 -0.75354144691E+02 -0.55852826251E+02 -0.12958289752E+03  0.15996722368E+03  0.00000000000E+00 0.  1.
</event>
<event>
 7    1  0.1226955E-005  0.1025293E+03  0.7561462E-02  0.1275065E+00
          2   -1    0    0  501    0  0.00000000000E+00  0.00000000000E+00  0.74577588237E+03  0.74577588237E+03  0.00000000000E+00 0. -1.
         -2   -1    0    0    0  501 -0.00000000000E+00 -0.00000000000E+00 -0.26265160408E+02  0.26265160408E+02  0.00000000000E+00 0.  1.
         23    2    1    2    0    0 -0.85531336469E+02 -0.10139586128E+02  0.34047155373E+03  0.37280998324E+03  0.12509190213E+03 0.  0.
          5    1    3    3  502    0 -0.39189225462E+02 -0.32321715742E+01  0.31840520013E+03  0.32085134595E+03  0.41800000000E+01 0. -1.
         -5    1    3    3    0  502 -0.46342111007E+02 -0.69074145538E+01  0.22066353603E+02  0.51958637296E+02  0.41800000000E+01 0. -1.
        -11    1    1    2    0    0  0.22516810722E+02 -0.34537454715E+02  0.75571683340E+02  0.86086711321E+02  0.00000000000E+00 0.  1.
         11    1    1    2    0    0  0.63014525747E+02  0.44677040843E+02  0.30346748489E+03  0.31314434822E+03  0.00000000000E+00 0. -1.
</event>
<event>
 7    1  0.1373400E-005  0.1499622E+03  0.7561462E-02  0.1200519E+00
         -3   -1    0    0    0  501 -0.00000000000E+00  0.00000000000E+00  0.83130308598E+03  0.83130308598E+03  0.00000000000E+00 0.  1.
          3   -1    0    0  501    0  0.00000000000E+00 -0.00000000000E+00 -0.40853745792E+02  0.40853745792E+02  0.00000000000E+00 0. -1.
         23    2    1    2    0    0 -0.14785878191E+03 -0.16710948389E+02  0.40652805337E+03  0.45061548375E+03  0.12509109014E+03 0.  0.
          5    1    3    3  502    0 -0.63452509678E+02  0.52126255809E+01  0.32485727714E+03  0.33106361225E+03  0.41800000000E+01 0.  1.
         -5    1    3    3    0  502 -0.84406272229E+02 -0.21923573970E+02  0.81670776239E+02  0.11955187150E+03  0.41800000000E+01 0.  1.
        -11    1    1    2    0    0  0.13190994167E+03  0.15539999235E+02  0.38316338470E+03  0.40553163090E+03  0.00000000000E+00 0.  1.
         11    1    1    2    0    0  0.15948840232E+02  0.11709491537E+01  0.75790211616E+00  0.16009717121E+02  0.00000000000E+00 0. -1.
</event>
<event>
 7    1  0.1226955E-005  0.1127041E+03  0.7561462E-02  0.1255643E+00
          2   -1    0    0  501    0  0.00000000000E+00  0.00000000000E+00  0.35865202942E+03  0.35865202942E+03  0.00000000000E+00 0. -1.
         -2   -1    0    0    0  501 -0.00000000000E+00 -0.00000000000E+00 -0.67333533987E+02  0.67333533987E+02  0.00000000000E+00 0.  1.
         23    2    1    2    0    0  0.10022192487E+03  0.31327235730E+02  0.10143068027E+03  0.19225434447E+03  0.12509084756E+03 0.  0.
          5    1    3    3  502    0  0.54909965396E+02  0.97700136842E+01 -0.21103632059E+02  0.59777865078E+02  0.41800000000E+01 0.  1.
         -5    1    3    3    0  502  0.45311959471E+02  0.21557222045E+02  0.12253431233E+03  0.13247647939E+03  0.41800000000E+01 0.  1.
        -11    1    1    2    0    0 -0.21790904264E+02 -0.34303498389E+02  0.12642573892E+03  0.13279699158E+03  0.00000000000E+00 0.  1.
         11    1    1    2    0    0 -0.78431020603E+02  0.29762626590E+01  0.63462076244E+02  0.10093422736E+03  0.00000000000E+00 0. -1.
</event>
<event>
 7    1  0.1226955E-005  0.1003567E+03  0.7561462E-02  0.1279548E+00
          2   -1    0    0  501    0  0.00000000000E+00  0.00000000000E+00  0.34083679692E+03  0.34083679692E+03  0.00000000000E+00 0. -1.
         -2   -1    0    0    0  501 -0.00000000000E+00 -0.00000000000E+00 -0.78236755234E+02  0.78236755234E+02  0.00000000000E+00 0.  1.
         23    2    1    2    0    0 -0.80993399744E+02 -0.18778389581E+02  0.26809090935E+02  0.15257316512E+03  0.12508910680E+03 0.  0.
          5    1    3    3  502    0 -0.42889722875E+02 -0.45596588704E+02  0.66353207565E+02  0.91317018041E+02  0.41800000000E+01 0. -1.
         -5    1    3    3    0  502 -0.38103676869E+02  0.26818199123E+02 -0.39544116630E+02  0.61256147081E+02  0.41800000000E+01 0. -1.
        -11    1    1    2    0    0  0.30343263850E+02 -0.11190656015E+02  0.18779190199E+03  0.19055640345E+03  0.00000000000E+00 0. -1.
         11    1    1    2    0    0  0.50650135894E+02  0.29969045596E+02  0.47999048758E+02  0.75943983578E+02  0.00000000000E+00 0.  1.
</event>
<event>
 7    1  0.1226955E-005  0.1021953E+03  0.7561462E-02  0.1275746E+00
          2   -1    0    0  501    0  0.00000000000E+00  0.00000000000E+00  0.42826640509E+02  0.42826640509E+02  0.00000000000E+00 0. -1.
         -2   -1    0    0    0  501 -0.00000000000E+00 -0.00000000000E+00 -0.26951660700E+03  0.26951660700E+03  0.00000000000E+00 0.  1.
         23    2    1    2    0    0 -0.72796428689E+01  0.24824037745E+01 -0.16294934483E+03  0.20556597866E+03  0.12508288082E+03 0.  0.
          5    1    3    3  502    0 -0.49988317067E+02  0.39701934235E+02 -0.58592539311E+02  0.86750409152E+02  0.41800000000E+01 0.  1.
         -5    1    3    3    0  502  0.42708674198E+02 -0.37219530460E+02 -0.10435680551E+03  0.11881556950E+03  0.41800000000E+01 0.  1.
        -11    1    1    2    0    0 -0.27218541773E+02  0.26921807158E+02 -0.17734726746E+02  0.42191862363E+02  0.00000000000E+00 0. -1.
         11    1    1    2    0    0  0.34498184642E+02 -0.29404210933E+02 -0.46005894920E+02  0.64585406491E+02  0.00000000000E+00 0.  1.
</event>
<event>
 6    1  0.1226955E-005  0.1157788E+03  0.7561462E-02  0.1250228E+00
         -2   -1    0    0    0  501 -0.00000000000E+00  0.00000000000E+00  0.61414080969E+02  0.61414080969E+02  0.00000000000E+00 0.  1.
          2   -1    0    0  501    0  0.00000000000E+00 -0.00000000000E+00 -0.24615468917E+03  0.24615468917E+03  0.00000000000E+00 0. -1.
          5    1    1    2  502    0 -0.34759335432E+02  0.70189476499E+02 -0.81680499562E+02  0.11324288242E+03  0.41800000000E+01 0. -1.
         -5    1    1    2    0  502  0.44802100072E+02 -0.27950415100E+02 -0.53829976247E+01  0.53243806575E+02  0.41800000000E+01 0.  1.
        -11    1    1    2    0    0  0.38300574353E+02 -0.39944116843E+01 -0.25601287092E+02  0.46241920605E+02  0.00000000000E+00 0. -1.
         11    1    1    2    0    0 -0.48343338993E+02 -0.38244649714E+02 -0.72075823926E+02  0.94840160541E+02  0.00000000000E+00 0.  1.
</event>
<event>
 7    1  0.1226955E-005  0.1464505E+03  0.7561462E-02  0.1204904E+00
          1   -1    0    0  501    0  0.00000000000E+00  0.00000000000E+00  0.71670054558E+03  0.71670054558E+03  0.00000000000E+00 0. -1.
         -1   -1    0    0    0  501 -0.00000000000E+00 -0.00000000000E+00 -0.52188143823E+02  0.52188143823E+02  0.00000000000E+00 0.  1.
         23    2    1    2    0    0 -0.12466863895E+03  0.52841708115E+01  0.12797056919E+03  0.21047277219E+03  0.11114013342E+03 0.  0.
          5    1    3    3  502    0  0.93413756975E+01  0.28992427064E+02  0.19687358041E+02  0.36508719419E+02  0.41800000000E+01 0. -1.
         -5    1    3    3    0  502 -0.13401001465E+03 -0.23708256252E+02  0.10828321114E+03  0.17396405277E+03  0.41800000000E+01 0.  1.
        -11    1    1    2    0    0  0.11530933261E+03 -0.11721238120E+00  0.53538609699E+03  0.54766278747E+03  0.00000000000E+00 0. -1.
         11    1    1    2    0    0  0.93593063402E+01 -0.51669584303E+01  0.11557355791E+01  0.10753129745E+02  0.00000000000E+00 0.  1.
</event>
<event>
 7    1  0.1226955E-005  0.2802819E+03  0.7561462E-02  0.1095535E+00
          2   -1    0    0  501    0  0.00000000000E+00  0.00000000000E+00  0.15204353658E+04  0.15204353658E+04  0.00000000000E+00 0. -1.
         -2   -1    0    0    0  501 -0.00000000000E+00 -0.00000000000E+00 -0.57356929551E+02  0.57356929551E+02  0.00000000000E+00 0.  1.
         23    2    1    2    0    0 -0.25584355544E+03 -0.96473981363E+02  0.68609229028E+03  0.74908866329E+03  0.12509212906E+03 0.  0.
          5    1    3    3  502    0 -0.37903413488E+02  0.92716218518E+00  0.24104693108E+03  0.24404635578E+03  0.41800000000E+01 0.  1.
         -5    1    3    3    0  502 -0.21794014195E+03 -0.97401143548E+02  0.44504535919E+03  0.50504230751E+03  0.41800000000E+01 0.  1.
        -11    1    1    2    0    0  0.80002164261E+02  0.69091502936E+02  0.22197601871E+03  0.24586039727E+03  0.00000000000E+00 0.  1.
         11    1    1    2    0    0  0.17584139118E+03  0.27382478427E+02  0.55501012730E+03  0.58284323483E+03  0.00000000000E+00 0. -1.
</event>
<event>
 7    1  0.1226955E-005  0.1678823E+03  0.7561462E-02  0.1180074E+00
          1   -1    0    0  501    0  0.00000000000E+00  0.00000000000E+00  0.69563273460E+03  0.69563273460E+03  0.00000000000E+00 0.  1.
         -1   -1    0    0    0  501 -0.00000000000E+00 -0.00000000000E+00 -0.51848911229E+02  0.51848911229E+02  0.00000000000E+00 0. -1.
         23    2    1    2    0    0 -0.14711923467E+03  0.18468042600E+02  0.28566404712E+03  0.34530757465E+03  0.12509290743E+03 0.  0.
          5    1    3    3  502    0 -0.31067986496E+02 -0.31568985762E+02  0.15666448341E+02  0.47167050476E+02  0.41800000000E+01 0.  1.
         -5    1    3    3    0  502 -0.11605124817E+03  0.50037028361E+02  0.26999759878E+03  0.29814052418E+03  0.41800000000E+01 0.  1.
        -11    1    1    2    0    0  0.14506842039E+03 -0.34132054003E+02  0.35637420538E+03  0.38628023242E+03  0.00000000000E+00 0.  1.
         11    1    1    2    0    0  0.20508142755E+01  0.15664011403E+02  0.17455708686E+01  0.15893838746E+02  0.00000000000E+00 0. -1.
</event>
<event>
 7    1  0.1226955E-005  0.8805066E+02  0.7561462E-02  0.1307642E+00
         -2   -1    0    0    0  501 -0.00000000000E+00  0.00000000000E+00  0.39144962595E+02  0.39144962595E+02  0.00000000000E+00 0. -1.
          2   -1    0    0  501    0  0.00000000000E+00 -0.00000000000E+00 -0.44025600446E+03  0.44025600446E+03  0.00000000000E+00 0.  1.
         23    2    1    2    0    0  0.62790356933E+02  0.71733192271E+01 -0.28607701281E+03  0.31856178824E+03  0.12508984864E+03 0.  0.
          5    1    3    3  502    0  0.72971548341E+01  0.88439431210E+01  0.10929122419E+02  0.16382365991E+02  0.41800000000E+01 0. -1.
         -5    1    3    3    0  502  0.55493202098E+02 -0.16706238939E+01 -0.29700613523E+03  0.30217942225E+03  0.41800000000E+01 0. -1.
        -11    1    1    2    0    0 -0.66816593441E+02  0.28269716183E+02 -0.55136263996E+02  0.91124319584E+02  0.00000000000E+00 0.  1.
         11    1    1    2    0    0  0.40262365089E+01 -0.35443035410E+02 -0.59897765057E+02  0.69714859236E+02  0.00000000000E+00 0. -1.
</event>
<event>
 7    1  0.1226955E-005  0.1274072E+03  0.7561462E-02  0.1231354E+00
         -1   -1    0    0    0  501 -0.00000000000E+00  0.00000000000E+00  0.49129267927E+03  0.49129267927E+03  0.00000000000E+00 0.  1.
          1   -1    0    0  501    0  0.00000000000E+00 -0.00000000000E+00 -0.34743722599E+02  0.34743722599E+02  0.00000000000E+00 0. -1.
         23    2    1    2    0    0 -0.61871356598E+02  0.30973398923E+02  0.29346277350E+03  0.32643160335E+03  0.12509906485E+03 0.  0.
          5    1    3    3  502    0  0.12603486755E+02  0.61086604257E+02  0.12705981093E+03  0.14160539909E+03  0.41800000000E+01 0. -1.
         -5    1    3    3    0  502 -0.74474843353E+02 -0.30113205335E+02  0.16640296257E+03  0.18482620426E+03  0.41800000000E+01 0. -1.
        -11    1    1    2    0    0 -0.92973812458E+01 -0.39135629688E+02  0.82487648104E+02  0.91772822223E+02  0.00000000000E+00 0.  1.
         11    1    1    2    0    0  0.71168737844E+02  0.81622307652E+01  0.80598535061E+02  0.10783197629E+03  0.00000000000E+00 0. -1.
</event>
<event>
 7    1  0.1226955E-005  0.1582317E+03  0.7561462E-02  0.1190708E+00
          4   -1    0    0  501    0  0.00000000000E+00  0.00000000000E+00  0.43605837626E+03  0.43605837626E+03  0.00000000000E+00 0. -1.
         -4   -1    0    0    0  501 -0.00000000000E+00 -0.00000000000E+00 -0.79409954452E+02  0.79409954452E+02  0.00000000000E+00 0.  1.
         23    2    1    2    0    0  0.81530378610E+02  0.86023931338E+02  0.58528445614E+02  0.18199042463E+03  0.12509043253E+03 0.  0.
          5    1    3    3  502    0  0.24836514095E+02  0.10485102856E+03  0.17120298046E+02  0.10918409970E+03  0.41800000000E+01 0. -1.
         -5    1    3    3    0  502  0.56693864515E+02 -0.18827097225E+02  0.41408147567E+02  0.72806324922E+02  0.41800000000E+01 0. -1.
        -11    1    1    2    0    0 -0.93620737363E+02 -0.41138956368E+02  0.18955198609E+03  0.21537690597E+03  0.00000000000E+00 0.  1.
         11    1    1    2    0    0  0.12090358752E+02 -0.44884974970E+02  0.10856799011E+03  0.11810100012E+03  0.00000000000E+00 0. -1.
</event>
<event>
 7    1  0.1226955E-005  0.2106674E+03  0.7561462E-02  0.1141039E+00
         -2   -1    0    0    0  501 -0.00000000000E+00  0.00000000000E+00  0.67773544934E+02  0.67773544934E+02  0.00000000000E+00 0.  1.
          2   -1    0    0  501    0  0.00000000000E+00 -0.00000000000E+00 -0.73037622316E+03  0.73037622316E+03  0.00000000000E+00 0. -1.
         23    2    1    2    0    0 -0.36463664876E+02 -0.18943571892E+03 -0.37384596916E+03  0.43888939136E+03  0.12509036225E+03 0.  0.
          5    1    3    3  502    0  0.44728272643E+02 -0.52024232628E+02 -0.90328586660E+02  0.11350711485E+03  0.41800000000E+01 0. -1.
         -5    1    3    3    0  502 -0.81191937519E+02 -0.13741148629E+03 -0.28351738250E+03  0.32538227650E+03  0.41800000000E+01 0. -1.
        -11    1    1    2    0    0  0.13312877566E+02  0.77249876638E+02 -0.46136537318E+02  0.90957991542E+02  0.00000000000E+00 0.  1.
         11    1    1    2    0    0  0.23150787311E+02  0.11218584228E+03 -0.24262017175E+03  0.26830238519E+03  0.00000000000E+00 0. -1.
</event>
<event>
 7    1  0.1226955E-005  0.1575114E+03  0.7561462E-02  0.1191535E+00
         -2   -1    0    0    0  501 -0.00000000000E+00  0.00000000000E+00  0.86546396516E+02  0.86546396516E+02  0.00000000000E+00 0.  1.
          2   -1    0    0  501    0  0.00000000000E+00 -0.00000000000E+00 -0.38117532424E+03  0.38117532424E+03  0.00000000000E+00 0. -1.
         23    2    1    2    0    0  0.13377045871E+03 -0.25557970273E+02 -0.91458334547E+02  0.20630214718E+03  0.12509277958E+03 0.  0.
          5    1    3    3  502    0  0.29250483751E+02  0.21697861737E+02  0.23745245542E+02  0.43677191867E+02  0.41800000000E+01 0. -1.
         -5    1    3    3    0  502  0.10451997496E+03 -0.47255832010E+02 -0.11520358009E+03  0.16262495531E+03  0.41800000000E+01 0. -1.
        -11    1    1    2    0    0 -0.11158002267E+03 -0.19579090871E+02 -0.15303945110E+03  0.19040618648E+03  0.00000000000E+00 0. -1.
         11    1    1    2    0    0 -0.22190436041E+02  0.45137061144E+02 -0.50131142086E+02  0.71013387099E+02  0.00000000000E+00 0.  1.
</event>
<event>
 7    1  0.1226955E-005  0.1172149E+03  0.7561462E-02  0.1247764E+00
         -2   -1    0    0    0  501 -0.00000000000E+00  0.00000000000E+00  0.54537513573E+02  0.54537513573E+02  0.00000000000E+00 0.  1.
          2   -1    0    0  501    0  0.00000000000E+00 -0.00000000000E+00 -0.43669097369E+03  0.43669097369E+03  0.00000000000E+00 0. -1.
         23    2    1    2    0    0 -0.81290377348E+02  0.33984271487E+02 -0.10129994099E+03  0.18349892582E+03  0.12508845499E+03 0.  0.
          5    1    3    3  502    0  0.29052233944E+02  0.18492890186E+02 -0.29454400940E+01  0.34816193099E+02  0.41800000000E+01 0. -1.
         -5    1    3    3    0  502 -0.11034261129E+03  0.15491381301E+02 -0.98354500901E+02  0.14868273272E+03  0.41800000000E+01 0. -1.
        -11    1    1    2    0    0  0.41793476583E+02 -0.14906992542E+02 -0.31178941966E+02  0.54231351943E+02  0.00000000000E+00 0.  1.
         11    1    1    2    0    0  0.39496900766E+02 -0.19077278946E+02 -0.24967457716E+03  0.25349820950E+03  0.00000000000E+00 0. -1.
</event>
<event>
 7    1  0.1226955E-005  0.8420088E+02  0.7561462E-02  0.1317536E+00
         -1   -1    0    0    0  501 -0.00000000000E+00  0.00000000000E+00  0.14803990478E+03  0.14803990478E+03  0.00000000000E+00 0.  1.
          1   -1    0    0  501    0  0.00000000000E+00 -0.00000000000E+00 -0.10674642704E+03  0.10674642704E+03  0.00000000000E+00 0. -1.
         23    2    1    2    0    0 -0.16143999438E+02  0.30954953176E+01  0.83150642990E+02  0.15110158702E+03  0.12508976522E+03 0.  0.
          5    1    3    3  502    0  0.36588967731E+02  0.22212134579E+02 -0.82399839265E+01  0.43789281992E+02  0.41800000000E+01 0. -1.
         -5    1    3    3    0  502 -0.52732967170E+02 -0.19116639262E+02  0.91390626917E+02  0.10731230503E+03  0.41800000000E+01 0. -1.
        -11    1    1    2    0    0 -0.15102832988E+02  0.23621206855E+02 -0.53976961107E+02  0.60824084932E+02  0.00000000000E+00 0.  1.
         11    1    1    2    0    0  0.31246832426E+02 -0.26716702172E+02  0.12119795858E+02  0.42860659856E+02  0.00000000000E+00 0. -1.
</event>
<event>
 7    1  0.1226955E-005  0.8130322E+02  0.7561462E-02  0.1325393E+00
         -2   -1    0    0    0  501 -0.00000000000E+00  0.00000000000E+00  0.87072376703E+02  0.87072376703E+02  0.00000000000E+00 0.  1.
          2   -1    0    0  501    0  0.00000000000E+00 -0.00000000000E+00 -0.14372087599E+03  0.14372087599E+03  0.00000000000E+00 0. -1.
         23    2    1    2    0    0 -0.20838903869E+02 -0.19683270141E+02  0.57641362350E+01  0.12845226056E+03  0.12508024200E+03 0.  0.
          5    1    3    3  502    0  0.26271779529E+02  0.29301019793E+02 -0.31726362957E+02  0.50722683949E+02  0.41800000000E+01 0. -1.
         -5    1    3    3    0  502 -0.47110683398E+02 -0.48984289933E+02  0.37490499192E+02  0.77729576611E+02  0.41800000000E+01 0. -1.
        -11    1    1    2    0    0  0.23896254622E+01  0.32428556989E+02 -0.71186990662E+02  0.78261799479E+02  0.00000000000E+00 0. -1.
         11    1    1    2    0    0  0.18449278406E+02 -0.12745286848E+02  0.87743551431E+01  0.24079192651E+02  0.00000000000E+00 0.  1.
</event>
<event>
 7    1  0.1226955E-005  0.1293326E+03  0.7561462E-02  0.1228449E+00
         -1   -1    0    0    0  501 -0.00000000000E+00  0.00000000000E+00  0.10592552973E+04  0.10592552973E+04  0.00000000000E+00 0.  1.
          1   -1    0    0  501    0  0.00000000000E+00 -0.00000000000E+00 -0.26722348644E+02  0.26722348644E+02  0.00000000000E+00 0. -1.
         23    2    1    2    0    0  0.10723967307E+03 -0.58256378775E+02  0.66210768619E+03  0.68478360528E+03  0.12509134584E+03 0.  0.
          5    1    3    3  502    0  0.62417193482E+02 -0.26463401119E+02  0.59064686247E+03  0.59453965905E+03  0.41800000000E+01 0. -1.
         -5    1    3    3    0  502  0.44822479588E+02 -0.31792977656E+02  0.71460823722E+02  0.90243946233E+02  0.41800000000E+01 0. -1.
        -11    1    1    2    0    0 -0.83775369325E+02  0.70200680330E+02  0.35321329661E+03  0.36973785433E+03  0.00000000000E+00 0.  1.
         11    1    1    2    0    0 -0.23464303746E+02 -0.11944301555E+02  0.17211965867E+02  0.31456186338E+02  0.00000000000E+00 0. -1.
</event>
<event>
 7    1  0.1226955E-005  0.1619675E+03  0.7561462E-02  0.1186493E+00
          2   -1    0    0  501    0  0.00000000000E+00  0.00000000000E+00  0.93421690032E+03  0.93421690032E+03  0.00000000000E+00 0. -1.
         -2   -1    0    0    0  501 -0.00000000000E+00 -0.00000000000E+00 -0.32518235114E+02  0.32518235114E+02  0.00000000000E+00 0.  1.
         23    2    1    2    0    0 -0.27361857426E+02 -0.13898586314E+03  0.38719826479E+03  0.43085522132E+03  0.12509190256E+03 0.  0.
          5    1    3    3  502    0  0.42208215931E+02 -0.42169107330E+02  0.70606169771E+02  0.92533619375E+02  0.41800000000E+01 0.  1.
         -5    1    3    3    0  502 -0.69570073357E+02 -0.96816755808E+02  0.31659209502E+03  0.33832160194E+03  0.41800000000E+01 0.  1.
        -11    1    1    2    0    0 -0.58792526518E+01  0.39597100342E+02  0.87752815541E+02  0.96452333319E+02  0.00000000000E+00 0. -1.
         11    1    1    2    0    0  0.33241110078E+02  0.99388762795E+02  0.42674758488E+03  0.43942758080E+03  0.00000000000E+00 0.  1.
</event>
<event>
 7    1  0.1226955E-005  0.1712593E+03  0.7561462E-02  0.1176541E+00
          2   -1    0    0  501    0  0.00000000000E+00  0.00000000000E+00  0.50520269608E+03  0.50520269608E+03  0.00000000000E+00 0.  1.
         -2   -1    0    0    0  501 -0.00000000000E+00 -0.00000000000E+00 -0.66203519309E+02  0.66203519309E+02  0.00000000000E+00 0. -1.
         23    2    1    2    0    0 -0.55233497616E+01 -0.14616165577E+03  0.20461052190E+03  0.28090104195E+03  0.12508474202E+03 0.  0.
          5    1    3    3  502    0  0.37143989453E+02 -0.10534091385E+03  0.18916693458E+03  0.21972251961E+03  0.41800000000E+01 0. -1.
         -5    1    3    3    0  502 -0.42667339215E+02 -0.40820741918E+02  0.15443587317E+02  0.61178522340E+02  0.41800000000E+01 0. -1.
        -11    1    1    2    0    0  0.20993416533E+02 -0.33296492638E+01  0.26205042552E+02  0.33741878387E+02  0.00000000000E+00 0. -1.
         11    1    1    2    0    0 -0.15470066771E+02  0.14949130504E+03  0.20818361231E+03  0.25676329505E+03  0.00000000000E+00 0.  1.
</event>
<event>
 7    1  0.1226955E-005  0.1081758E+03  0.7561462E-02  0.1263986E+00
          1   -1    0    0  501    0  0.00000000000E+00  0.00000000000E+00  0.15454997417E+03  0.15454997417E+03  0.00000000000E+00 0. -1.
         -1   -1    0    0    0  501 -0.00000000000E+00 -0.00000000000E+00 -0.84334977463E+02  0.84334977463E+02  0.00000000000E+00 0.  1.
         23    2    1    2    0    0 -0.71502221057E+01  0.35673715420E+02  0.25494256591E+02  0.13387038627E+03  0.12628374223E+03 0.  0.
          5    1    3    3  502    0 -0.53286820846E+02  0.49655978929E+02  0.40195527086E+02  0.83296784554E+02  0.41800000000E+01 0. -1.
         -5    1    3    3    0  502  0.46136598741E+02 -0.13982263509E+02 -0.14701270495E+02  0.50573601715E+02  0.41800000000E+01 0.  1.
        -11    1    1    2    0    0 -0.35922433030E+02 -0.37453400476E+02  0.25228492785E+02  0.57703164993E+02  0.00000000000E+00 0.  1.
         11    1    1    2    0    0  0.43072655135E+02  0.17796850557E+01  0.19492247336E+02  0.47311400376E+02  0.00000000000E+00 0. -1.
</event>
<event>
 7    1  0.1226955E-005  0.1078832E+03  0.7561462E-02  0.1264541E+00
          2   -1    0    0  501    0  0.00000000000E+00  0.00000000000E+00  0.64360631137E+03  0.64360631137E+03  0.00000000000E+00 0.  1.
         -2   -1    0    0    0  501 -0.00000000000E+00 -0.00000000000E+00 -0.25529884483E+02  0.25529884483E+02  0.00000000000E+00 0. -1.
         23    2    1    2    0    0 -0.38714900328E+02  0.51050290748E+02  0.28050912890E+03  0.31374582793E+03  0.12508436134E+03 0.  0.
          5    1    3    3  502    0 -0.13742367976E+02  0.88250746473E+02  0.13917917794E+03  0.16542479530E+03  0.41800000000E+01 0.  1.
         -5    1    3    3    0  502 -0.24972532352E+02 -0.37200455725E+02  0.14132995097E+03  0.14832103262E+03  0.41800000000E+01 0.  1.
        -11    1    1    2    0    0 -0.11242187915E+02 -0.21460391245E+01  0.83277456907E+00  0.11475442759E+02  0.00000000000E+00 0. -1.
         11    1    1    2    0    0  0.49957088243E+02 -0.48904251623E+02  0.33673452342E+03  0.34391492517E+03  0.00000000000E+00 0.  1.
</event>
<event>
 7    1  0.1226955E-005  0.2217205E+03  0.7561462E-02  0.1132607E+00
         -1   -1    0    0    0  501 -0.00000000000E+00  0.00000000000E+00  0.27761685223E+03  0.27761685223E+03  0.00000000000E+00 0.  1.
          1   -1    0    0  501    0  0.00000000000E+00 -0.00000000000E+00 -0.28651050292E+03  0.28651050292E+03  0.00000000000E+00 0. -1.
         23    2    1    2    0    0  0.10407675423E+03 -0.18261098600E+03  0.14557639618E+03  0.28463803291E+03  0.12509028610E+03 0.  0.
          5    1    3    3  502    0  0.93557901546E+02 -0.16085717735E+03  0.16849723243E+03  0.25107150811E+03  0.41800000000E+01 0. -1.
         -5    1    3    3    0  502  0.10518852685E+02 -0.21753808649E+02 -0.22920836255E+02  0.33566524800E+02  0.41800000000E+01 0. -1.
        -11    1    1    2    0    0 -0.28913759141E+01  0.10556904546E+03 -0.65300107268E+02  0.12416636994E+03  0.00000000000E+00 0.  1.
         11    1    1    2    0    0 -0.10118537832E+03  0.77041940535E+02 -0.89169939599E+02  0.15532295231E+03  0.00000000000E+00 0. -1.
</event>
<event>
 7    1  0.1383845E-005  0.1804103E+03  0.7561462E-02  0.1167407E+00
         -1   -1    0    0    0  501 -0.00000000000E+00  0.00000000000E+00  0.38372639537E+02  0.38372639537E+02  0.00000000000E+00 0.  1.
          1   -1    0    0  501    0  0.00000000000E+00 -0.00000000000E+00 -0.93563808039E+03  0.93563808039E+03  0.00000000000E+00 0. -1.
         23    2    1    2    0    0  0.69204431988E+02 -0.13819265620E+03 -0.43589761680E+03  0.47910367712E+03  0.12508851848E+03 0.  0.
          5    1    3    3  502    0 -0.23472466458E+02 -0.87760640754E+02 -0.16587214475E+03  0.18916640175E+03  0.41800000000E+01 0. -1.
         -5    1    3    3    0  502  0.92676898447E+02 -0.50432015447E+02 -0.27002547205E+03  0.28993727536E+03  0.41800000000E+01 0. -1.
        -11    1    1    2    0    0 -0.77838936237E+02  0.10967419228E+03 -0.43431550506E+03  0.45466172742E+03  0.00000000000E+00 0.  1.
         11    1    1    2    0    0  0.86345042481E+01  0.28518463923E+02 -0.27052318981E+02  0.40245315384E+02  0.00000000000E+00 0. -1.
</event>
<event>
 7    1  0.1226955E-005  0.2351984E+03  0.7561462E-02  0.1123033E+00
         -1   -1    0    0    0  501 -0.00000000000E+00  0.00000000000E+00  0.48927201455E+02  0.48927201455E+02  0.00000000000E+00 0.  1.
          1   -1    0    0  501    0  0.00000000000E+00 -0.00000000000E+00 -0.11676414693E+04  0.11676414693E+04  0.00000000000E+00 0. -1.
         23    2    1    2    0    0 -0.20597427935E+03  0.51293669570E+02 -0.59937937071E+03  0.64804199710E+03  0.12508539355E+03 0.  0.
          5    1    3    3  502    0 -0.22238851102E+03  0.46250103134E+02 -0.53404647906E+03  0.58036095326E+03  0.41800000000E+01 0.  1.
         -5    1    3    3    0  502  0.16414231669E+02  0.50435664358E+01 -0.65332891653E+02  0.67681043841E+02  0.41800000000E+01 0.  1.
        -11    1    1    2    0    0  0.11857985989E+03  0.96824462998E+01 -0.33637104055E+03  0.35679182987E+03  0.00000000000E+00 0. -1.
         11    1    1    2    0    0  0.87394419461E+02 -0.60976115870E+02 -0.18296385660E+03  0.21173484380E+03  0.00000000000E+00 0.  1.
</event>
<event>
 7    1  0.1226955E-005  0.1339301E+03  0.7561462E-02  0.1221738E+00
          1   -1    0    0  501    0  0.00000000000E+00  0.00000000000E+00  0.12776950724E+03  0.12776950724E+03  0.00000000000E+00 0. -1.
         -1   -1    0    0    0  501 -0.00000000000E+00 -0.00000000000E+00 -0.16524753597E+03  0.16524753597E+03  0.00000000000E+00 0.  1.
         23    2    1    2    0    0 -0.63387190979E+02  0.59464352310E+02 -0.59660553018E+02  0.16358663597E+03  0.12508901114E+03 0.  0.
          5    1    3    3  502    0 -0.97223188113E+02  0.60434542075E+02 -0.60341192975E+02  0.12947283172E+03  0.41800000000E+01 0. -1.
         -5    1    3    3    0  502  0.33835997134E+02 -0.97018976478E+00  0.68063995750E+00  0.34113804258E+02  0.41800000000E+01 0. -1.
        -11    1    1    2    0    0  0.42048770795E+02  0.12718771928E+02  0.30823188563E+02  0.53665028072E+02  0.00000000000E+00 0. -1.
         11    1    1    2    0    0  0.21338420184E+02 -0.72183124238E+02 -0.86406642779E+01  0.75765379164E+02  0.00000000000E+00 0.  1.
</event>
<event>
 7    1  0.1226955E-005  0.7237957E+02  0.7561462E-02  0.1352183E+00
         -1   -1    0    0    0  501 -0.00000000000E+00  0.00000000000E+00  0.29652582847E+02  0.29652582847E+02  0.00000000000E+00 0.  1.
          1   -1    0    0  501    0  0.00000000000E+00 -0.00000000000E+00 -0.39935775672E+03  0.39935775672E+03  0.00000000000E+00 0. -1.
         23    2    1    2    0    0  0.30133239949E+02 -0.16344101589E+02 -0.19227064920E+03  0.22619314806E+03  0.11410607293E+03 0.  0.
          5    1    3    3  502    0 -0.66659125612E+01 -0.38023997598E+00 -0.18505539882E+03  0.18522297915E+03  0.41800000000E+01 0. -1.
         -5    1    3    3    0  502  0.36799152510E+02 -0.15963861613E+02 -0.72152503848E+01  0.40970168918E+02  0.41800000000E+01 0.  1.
        -11    1    1    2    0    0  0.32512375518E+02  0.54158335257E+01 -0.43729331173E+02  0.54759841303E+02  0.00000000000E+00 0. -1.
         11    1    1    2    0    0 -0.62645615467E+02  0.10928268063E+02 -0.13370519350E+03  0.14805735021E+03  0.00000000000E+00 0.  1.
</event>
<event>
 7    1  0.1226955E-005  0.1293995E+03  0.7561462E-02  0.1228350E+00
          2   -1    0    0  501    0  0.00000000000E+00  0.00000000000E+00  0.53609263737E+03  0.53609263737E+03  0.00000000000E+00 0. -1.
         -2   -1    0    0    0  501 -0.00000000000E+00 -0.00000000000E+00 -0.39048689319E+02  0.39048689319E+02  0.00000000000E+00 0.  1.
         23    2    1    2    0    0  0.73434444696E+02 -0.61545041726E+02  0.25239628178E+03  0.29754479538E+03  0.12509441383E+03 0.  0.
          5    1    3    3  502    0 -0.74387987258E+01  0.15627396897E+02  0.13202246675E+03  0.13321769923E+03  0.41800000000E+01 0.  1.
         -5    1    3    3    0  502  0.80873243422E+02 -0.77172438623E+02  0.12037381502E+03  0.16432709615E+03  0.41800000000E+01 0.  1.
        -11    1    1    2    0    0  0.12981307285E+01  0.54001930562E+02  0.12706635498E+03  0.13807154746E+03  0.00000000000E+00 0. -1.
         11    1    1    2    0    0 -0.74732575425E+02  0.75431111639E+01  0.11758131129E+03  0.13952498386E+03  0.00000000000E+00 0.  1.
</event>
<event>
 7    1  0.1226955E-005  0.6864282E+02  0.7561462E-02  0.1364770E+00
          1   -1    0    0  501    0  0.00000000000E+00  0.00000000000E+00  0.80084780236E+02  0.80084780236E+02  0.00000000000E+00 0. -1.
         -1   -1    0    0    0  501 -0.00000000000E+00 -0.00000000000E+00 -0.15067953781E+03  0.15067953781E+03  0.00000000000E+00 0.  1.
         23    2    1    2    0    0 -0.62778596405E+01  0.10851328289E+02 -0.53094161906E+02  0.13646998274E+03  0.12509157970E+03 0.  0.
          5    1    3    3  502    0  0.78324127764E+01  0.31650383318E+02  0.33063684652E+02  0.46623739627E+02  0.41800000000E+01 0. -1.
         -5    1    3    3    0  502 -0.14110272417E+02 -0.20799055029E+02 -0.86157846558E+02  0.89846243112E+02  0.41800000000E+01 0. -1.
        -11    1    1    2    0    0  0.41151778679E+02 -0.15031787779E+02 -0.34030755367E+02  0.55475362488E+02  0.00000000000E+00 0.  1.
         11    1    1    2    0    0 -0.34873919038E+02  0.41804594907E+01  0.16530159704E+02  0.38818972816E+02  0.00000000000E+00 0. -1.
</event>
<event>
 7    1  0.1226955E-005  0.1134659E+03  0.7561462E-02  0.1254283E+00
         -2   -1    0    0    0  501 -0.00000000000E+00  0.00000000000E+00  0.26893035664E+03  0.26893035664E+03  0.00000000000E+00 0.  1.
          2   -1    0    0  501    0  0.00000000000E+00 -0.00000000000E+00 -0.76375406839E+02  0.76375406839E+02  0.00000000000E+00 0. -1.
         23    2    1    2    0    0  0.83011061679E+02 -0.73133129012E+01  0.15722750421E+03  0.21751450963E+03  0.12509097854E+03 0.  0.
          5    1    3    3  502    0  0.23269952717E+01 -0.49146735186E+02  0.20908197216E+02  0.53623144232E+02  0.41800000000E+01 0.  1.
         -5    1    3    3    0  502  0.80684066407E+02  0.41833422285E+02  0.13631930699E+03  0.16389136539E+03  0.41800000000E+01 0.  1.
        -11    1    1    2    0    0 -0.59892508135E+02  0.15806259001E+02  0.64624593982E+02  0.89516973260E+02  0.00000000000E+00 0.  1.
         11    1    1    2    0    0 -0.23118553544E+02 -0.84929460998E+01 -0.29297148387E+02  0.38274280594E+02  0.00000000000E+00 0. -1.
</event>
<event>
 7    1  0.1226955E-005  0.1010967E+03  0.7561462E-02  0.1278006E+00
          1   -1    0    0  501    0  0.00000000000E+00  0.00000000000E+00  0.15806364047E+02  0.15806364047E+02  0.00000000000E+00 0. -1.
         -1   -1    0    0    0  501 -0.00000000000E+00 -0.00000000000E+00 -0.10406603948E+04  0.10406603948E+04  0.00000000000E+00 0.  1.
         23    2    1    2    0    0 -0.11944761115E+02  0.24656602490E+02 -0.83634290266E+03  0.84608941562E+03  0.12508886053E+03 0.  0.
          5    1    3    3  502    0 -0.52449855992E+02 -0.21198731294E+02 -0.56812748815E+03  0.57095244004E+03  0.41800000000E+01 0.  1.
         -5    1    3    3    0  502  0.40505094877E+02  0.45855333785E+02 -0.26821541451E+03  0.27513697558E+03  0.41800000000E+01 0.  1.
        -11    1    1    2    0    0  0.44497078768E+02 -0.21166177641E+01 -0.53178741601E+02  0.69371814507E+02  0.00000000000E+00 0. -1.
         11    1    1    2    0    0 -0.32552317654E+02 -0.22539984726E+02 -0.13533238646E+03  0.14100552869E+03  0.00000000000E+00 0.  1.
</event>
<event>
 7    1  0.1226955E-005  0.1307332E+03  0.7561462E-02  0.1226372E+00
          2   -1    0    0  501    0  0.00000000000E+00  0.00000000000E+00  0.64204456659E+03  0.64204456659E+03  0.00000000000E+00 0.  1.
         -2   -1    0    0    0  501 -0.00000000000E+00 -0.00000000000E+00 -0.32856608303E+02  0.32856608303E+02  0.00000000000E+00 0. -1.
         23    2    1    2    0    0 -0.87553628874E+02 -0.25957129168E+02  0.26031520971E+03  0.30290433406E+03  0.12509043410E+03 0.  0.
          5    1    3    3  502    0 -0.12544078999E+02  0.34295218193E+02  0.15871555234E+03  0.16291597486E+03  0.41800000000E+01 0.  1.
         -5    1    3    3    0  502 -0.75009549875E+02 -0.60252347361E+02  0.10159965737E+03  0.13998835920E+03  0.41800000000E+01 0.  1.
        -11    1    1    2    0    0  0.10659598120E+03  0.20005512860E+02  0.27925648769E+03  0.29957821962E+03  0.00000000000E+00 0.  1.
         11    1    1    2    0    0 -0.19042352324E+02  0.59516163081E+01  0.69616260894E+02  0.72418621221E+02  0.00000000000E+00 0. -1.
</event>
<event>
 7    1  0.1226955E-005  0.8488734E+02  0.7561462E-02  0.1315727E+00
          2   -1    0    0  501    0  0.00000000000E+00  0.00000000000E+00  0.30006434792E+03  0.30006434792E+03  0.00000000000E+00 0. -1.
         -2   -1    0    0    0  501 -0.00000000000E+00 -0.00000000000E+00 -0.52232615328E+02  0.52232615328E+02  0.00000000000E+00 0.  1.
         23    2    1    2    0    0 -0.22455526626E+02 -0.50526817513E+02  0.10110769343E+03  0.17006898831E+03  0.12507391875E+03 0.  0.
          5    1    3    3  502    0  0.14033392052E+02 -0.36203861711E+02  0.12011517876E+03  0.12630433193E+03  0.41800000000E+01 0.  1.
         -5    1    3    3    0  502 -0.36488918678E+02 -0.14322955802E+02 -0.19007485337E+02  0.43764656379E+02  0.41800000000E+01 0.  1.
        -11    1    1    2    0    0  0.14296740992E+02 -0.17606533827E+02  0.28896339629E+01  0.22863438518E+02  0.00000000000E+00 0.  1.
         11    1    1    2    0    0  0.81587856341E+01  0.68133351341E+02  0.14383440520E+03  0.15936453641E+03  0.00000000000E+00 0. -1.
</event>
<event>
 7    1  0.1226955E-005  0.1008878E+03  0.7561462E-02  0.1278440E+00
         -1   -1    0    0    0  501 -0.00000000000E+00  0.00000000000E+00  0.13725567163E+03  0.13725567163E+03  0.00000000000E+00 0.  1.
          1   -1    0    0  501    0  0.00000000000E+00 -0.00000000000E+00 -0.12108534007E+03  0.12108534007E+03  0.00000000000E+00 0. -1.
         23    2    1    2    0    0 -0.34956500715E+02 -0.58826115011E+02  0.26085595255E+02  0.14496380507E+03  0.12510626584E+03 0.  0.
          5    1    3    3  502    0  0.77455576776E+01  0.31435896409E+02 -0.16202414299E+02  0.36444476617E+02  0.41800000000E+01 0. -1.
         -5    1    3    3    0  502 -0.42702058392E+02 -0.90262011420E+02  0.42288009554E+02  0.10851932846E+03  0.41800000000E+01 0. -1.
        -11    1    1    2    0    0  0.11515747398E+02  0.29358147348E+02 -0.49533126813E+02  0.58720046881E+02  0.00000000000E+00 0. -1.
         11    1    1    2    0    0  0.23440753317E+02  0.29467967663E+02  0.39617863115E+02  0.54657159751E+02  0.00000000000E+00 0.  1.
</event>
<event>
 7    1  0.1226955E-005  0.1399376E+03  0.7561462E-02  0.1213413E+00
         -1   -1    0    0    0  501 -0.00000000000E+00  0.00000000000E+00  0.79089374758E+02  0.79089374758E+02  0.00000000000E+00 0.  1.
          1   -1    0    0  501    0  0.00000000000E+00 -0.00000000000E+00 -0.40046814544E+03  0.40046814544E+03  0.00000000000E+00 0. -1.
         23    2    1    2    0    0  0.77325051894E+02 -0.10121429126E+03 -0.88755078972E+02  0.19936912252E+03  0.12508831507E+03 0.  0.
          5    1    3    3  502    0  0.33198916868E+02  0.74277811916E+01 -0.73431433531E+02  0.81036953577E+02  0.41800000000E+01 0. -1.
         -5    1    3    3    0  502  0.44126135026E+02 -0.10864207245E+03 -0.15323645441E+02  0.11833216895E+03  0.41800000000E+01 0. -1.
        -11    1    1    2    0    0 -0.12245963887E+02  0.26419932623E+02 -0.14492997744E+03  0.14782650247E+03  0.00000000000E+00 0. -1.
         11    1    1    2    0    0 -0.65079088007E+02  0.74794358634E+02 -0.87693714266E+02  0.13236189520E+03  0.00000000000E+00 0.  1.
</event>
<event>
 7    1  0.1226955E-005  0.1717504E+03  0.7561462E-02  0.1176035E+00
          1   -1    0    0  501    0  0.00000000000E+00  0.00000000000E+00  0.10503581650E+03  0.10503581650E+03  0.00000000000E+00 0. -1.
         -1   -1    0    0    0  501 -0.00000000000E+00 -0.00000000000E+00 -0.42494602589E+03  0.42494602589E+03  0.00000000000E+00 0.  1.
         23    2    1    2    0    0 -0.14581574610E+03 -0.11226309744E+02 -0.30047152472E+03  0.35681774799E+03  0.12508999268E+03 0.  0.
          5    1    3    3  502    0 -0.66213538798E+02 -0.57650601090E+02 -0.20981806617E+03  0.22748388474E+03  0.41800000000E+01 0. -1.
         -5    1    3    3    0  502 -0.79602207303E+02  0.46424291346E+02 -0.90653458551E+02  0.12933386324E+03  0.41800000000E+01 0. -1.
        -11    1    1    2    0    0  0.33252757086E+02 -0.28702164929E+02 -0.30106371110E+02  0.53253673177E+02  0.00000000000E+00 0.  1.
         11    1    1    2    0    0  0.11256298902E+03  0.39928474673E+02  0.10667686442E+02  0.11991042123E+03  0.00000000000E+00 0. -1.
</event>
<event>
 7    1  0.1226955E-005  0.1586863E+03  0.7561462E-02  0.1190188E+00
         -2   -1    0    0    0  501 -0.00000000000E+00  0.00000000000E+00  0.43123837198E+02  0.43123837198E+02  0.00000000000E+00 0.  1.
          2   -1    0    0  501    0  0.00000000000E+00 -0.00000000000E+00 -0.64891744266E+03  0.64891744266E+03  0.00000000000E+00 0. -1.
         23    2    1    2    0    0 -0.43267277021E+02  0.11390990314E+03 -0.25105356672E+03  0.30581529039E+03  0.12509026812E+03 0.  0.
          5    1    3    3  502    0 -0.78063830429E+02  0.11035032362E+03 -0.16848359412E+03  0.21604478571E+03  0.41800000000E+01 0. -1.
         -5    1    3    3    0  502  0.34796553408E+02  0.35595795184E+01 -0.82569972599E+02  0.89770504679E+02  0.41800000000E+01 0. -1.
        -11    1    1    2    0    0  0.59526325708E+02 -0.41173188798E+02 -0.12211855638E+03  0.14195617894E+03  0.00000000000E+00 0.  1.
         11    1    1    2    0    0 -0.16259048687E+02 -0.72736714342E+02 -0.23262148236E+03  0.24426981052E+03  0.00000000000E+00 0. -1.
</event>
<event>
 7    1  0.1226955E-005  0.1178761E+03  0.7561462E-02  0.1246642E+00
         -2   -1    0    0    0  501 -0.00000000000E+00  0.00000000000E+00  0.30116999239E+03  0.30116999239E+03  0.00000000000E+00 0.  1.
          2   -1    0    0  501    0  0.00000000000E+00 -0.00000000000E+00 -0.70786642238E+02  0.70786642238E+02  0.00000000000E+00 0. -1.
         23    2    1    2    0    0  0.16369505915E+02 -0.83324792687E+02  0.18627797350E+03  0.23991339578E+03  0.12509185531E+03 0.  0.
          5    1    3    3  502    0 -0.38851729633E+02 -0.10488946592E+01  0.10381834149E+03  0.11093366264E+03  0.41800000000E+01 0. -1.
         -5    1    3    3    0  502  0.55221235548E+02 -0.82275898028E+02  0.82459632002E+02  0.12897973314E+03  0.41800000000E+01 0. -1.
        -11    1    1    2    0    0  0.16852125627E+02  0.21695841333E+02 -0.22424044738E+02  0.35461830913E+02  0.00000000000E+00 0. -1.
         11    1    1    2    0    0 -0.33221631542E+02  0.61628951355E+02  0.66529421389E+02  0.96581407930E+02  0.00000000000E+00 0.  1.
</event>
<event>
 7    1  0.1226955E-005  0.5287958E+02  0.7561462E-02  0.1430401E+00
         -1   -1    0    0    0  501 -0.00000000000E+00  0.00000000000E+00  0.31304337273E+02  0.31304337273E+02  0.00000000000E+00 0.  1.
          1   -1    0    0  501    0  0.00000000000E+00 -0.00000000000E+00 -0.39036625933E+03  0.39036625933E+03  0.00000000000E+00 0. -1.
         23    2    1    2    0    0 -0.15367962748E+02 -0.75352225613E+00 -0.20210686258E+03  0.23818448268E+03  0.12509165366E+03 0.  0.
          5    1    3    3  502    0 -0.13339084458E+02 -0.40762298897E+01 -0.21944606101E+03  0.21992860869E+03  0.41800000000E+01 0.  1.
         -5    1    3    3    0  502 -0.20288782905E+01  0.33227076336E+01  0.17339198433E+02  0.18255873998E+02  0.41800000000E+01 0.  1.
        -11    1    1    2    0    0  0.27145718690E+02 -0.37027324810E+02 -0.43188273598E+02  0.63032847010E+02  0.00000000000E+00 0.  1.
         11    1    1    2    0    0 -0.11777755942E+02  0.37780847067E+02 -0.11376678588E+03  0.12045326691E+03  0.00000000000E+00 0. -1.
</event>
<event>
 7    1  0.1226955E-005  0.1312674E+03  0.7561462E-02  0.1225587E+00
          2   -1    0    0  501    0  0.00000000000E+00  0.00000000000E+00  0.46960824087E+03  0.46960824087E+03  0.00000000000E+00 0. -1.
         -2   -1    0    0    0  501 -0.00000000000E+00 -0.00000000000E+00 -0.60488530121E+02  0.60488530121E+02  0.00000000000E+00 0.  1.
         23    2    1    2    0    0 -0.10255576910E+03 -0.55630995370E+02  0.13183308900E+03  0.21596213294E+03  0.12508871287E+03 0.  0.
          5    1    3    3  502    0 -0.10995968002E+03 -0.49024662658E+02  0.45206198224E+02  0.12866865017E+03  0.41800000000E+01 0.  1.
         -5    1    3    3    0  502  0.74039109225E+01 -0.66063327127E+01  0.86626890772E+02  0.87293482768E+02  0.41800000000E+01 0.  1.
        -11    1    1    2    0    0  0.85491749464E+02  0.14422440567E+02  0.10500058065E+03  0.13616889496E+03  0.00000000000E+00 0.  1.
         11    1    1    2    0    0  0.17064019632E+02  0.41208554803E+02  0.17228604111E+03  0.17796574309E+03  0.00000000000E+00 0. -1.
</event>
<event>
 6    1  0.1226955E-005  0.1767357E+03  0.7561462E-02  0.1171000E+00
         -2   -1    0    0    0  501 -0.00000000000E+00  0.00000000000E+00  0.15629310216E+03  0.15629310216E+03  0.00000000000E+00 0.  1.
          2   -1    0    0  501    0  0.00000000000E+00 -0.00000000000E+00 -0.42445586681E+03  0.42445586681E+03  0.00000000000E+00 0. -1.
          5    1    1    2  502    0  0.83722163687E+02 -0.11761908878E+03 -0.27461265398E+03  0.31027928204E+03  0.41800000000E+01 0. -1.
         -5    1    1    2    0  502 -0.78175204821E+02  0.13848156645E+03  0.71949298254E+02  0.17459290024E+03  0.41800000000E+01 0.  1.
        -11    1    1    2    0    0  0.16400466507E+02 -0.22621553602E+02 -0.12607944966E+01  0.27969619086E+02  0.00000000000E+00 0. -1.
         11    1    1    2    0    0 -0.21947425374E+02  0.17590759380E+01 -0.64238614428E+02  0.67907167607E+02  0.00000000000E+00 0.  1.
</event>
<event>
 7    1  0.1226955E-005  0.1406658E+03  0.7561462E-02  0.1212436E+00
         -2   -1    0    0    0  501 -0.00000000000E+00  0.00000000000E+00  0.34300109303E+02  0.34300109303E+02  0.00000000000E+00 0. -1.
          2   -1    0    0  501    0  0.00000000000E+00 -0.00000000000E+00 -0.10487219763E+04  0.10487219763E+04  0.00000000000E+00 0.  1.
         23    2    1    2    0    0  0.53113953121E+02 -0.96117903808E+02 -0.21891080249E+03  0.27500717921E+03  0.12508903118E+03 0.  0.
          5    1    3    3  502    0  0.50773920645E+02 -0.80999951209E+01 -0.16377518389E+02  0.54122975225E+02  0.41800000000E+01 0. -1.
         -5    1    3    3    0  502  0.23400324758E+01 -0.88017908687E+02 -0.20253328410E+03  0.22088420399E+03  0.41800000000E+01 0. -1.
        -11    1    1    2    0    0 -0.37261720664E+02  0.11267444931E+03 -0.66556516186E+03  0.67606283143E+03  0.00000000000E+00 0.  1.
         11    1    1    2    0    0 -0.15852232457E+02 -0.16556545503E+02 -0.12994590265E+03  0.13195207497E+03  0.00000000000E+00 0. -1.
</event>
<event>
 7    1  0.1226955E-005  0.1079197E+03  0.7561462E-02  0.1264471E+00
          2   -1    0    0  501    0  0.00000000000E+00  0.00000000000E+00  0.35396702627E+03  0.35396702627E+03  0.00000000000E+00 0. -1.
         -2   -1    0    0    0  501 -0.00000000000E+00 -0.00000000000E+00 -0.45592513050E+02  0.45592513050E+02  0.00000000000E+00 0.  1.
         23    2    1    2    0    0 -0.52057830406E+02  0.32670807997E+01  0.10696358673E+03  0.17265252623E+03  0.12508794668E+03 0.  0.
          5    1    3    3  502    0 -0.78254312577E+01  0.59591733653E+02  0.68597518087E+02  0.91298981275E+02  0.41800000000E+01 0. -1.
         -5    1    3    3    0  502 -0.44232399148E+02 -0.56324652853E+02  0.38366068638E+02  0.81353544951E+02  0.41800000000E+01 0. -1.
        -11    1    1    2    0    0  0.28174811053E+02  0.31123465296E+02  0.16849850849E+03  0.17364975506E+03  0.00000000000E+00 0. -1.
         11    1    1    2    0    0  0.23883019353E+02 -0.34390546096E+02  0.32912418009E+02  0.53257258035E+02  0.00000000000E+00 0.  1.
</event>
<event>
 7    1  0.1226955E-005  0.9077917E+02  0.7561462E-02  0.1300976E+00
         -3   -1    0    0    0  501 -0.00000000000E+00  0.00000000000E+00  0.63316024819E+03  0.63316024819E+03  0.00000000000E+00 0.  1.
          3   -1    0    0  501    0  0.00000000000E+00 -0.00000000000E+00 -0.23748419266E+02  0.23748419266E+02  0.00000000000E+00 0. -1.
         23    2    1    2    0    0 -0.10133542105E+02 -0.54044820540E+02  0.39162199786E+03  0.41477595535E+03  0.12509105733E+03 0.  0.
          5    1    3    3  502    0  0.17268923061E+02  0.13003018972E+02  0.28477365924E+03  0.28562353475E+03  0.41800000000E+01 0. -1.
         -5    1    3    3    0  502 -0.27402465166E+02 -0.67047839512E+02  0.10684833862E+03  0.12915242060E+03  0.41800000000E+01 0. -1.
        -11    1    1    2    0    0  0.25439774150E+02  0.63904508666E+02  0.21222718686E+03  0.22309492863E+03  0.00000000000E+00 0.  1.
         11    1    1    2    0    0 -0.15306232045E+02 -0.98596881260E+01  0.55626442030E+01  0.19037783481E+02  0.00000000000E+00 0. -1.
</event>
<event>
 7    1  0.1226955E-005  0.1791263E+03  0.7561462E-02  0.1168651E+00
          1   -1    0    0  501    0  0.00000000000E+00  0.00000000000E+00  0.17956533737E+03  0.17956533737E+03  0.00000000000E+00 0.  1.
         -1   -1    0    0    0  501 -0.00000000000E+00 -0.00000000000E+00 -0.25050367232E+03  0.25050367232E+03  0.00000000000E+00 0. -1.
         23    2    1    2    0    0 -0.15881681631E+03 -0.26523963807E+02 -0.12559413441E+03  0.23947489929E+03  0.12509212203E+03 0.  0.
          5    1    3    3  502    0 -0.44572426369E+02 -0.62597088834E+02 -0.80577688804E+02  0.11142411344E+03  0.41800000000E+01 0. -1.
         -5    1    3    3    0  502 -0.11424438994E+03  0.36073125027E+02 -0.45016445608E+02  0.12805078585E+03  0.41800000000E+01 0. -1.
        -11    1    1    2    0    0  0.13987431857E+03  0.19560277936E+02  0.76690576330E+02  0.16071363964E+03  0.00000000000E+00 0.  1.
         11    1    1    2    0    0  0.18942497742E+02  0.69636858701E+01 -0.22034776869E+02  0.29880470767E+02  0.00000000000E+00 0. -1.
</event>
<event>
 6    1  0.1226955E-005  0.9885168E+02  0.7561462E-02  0.1282729E+00
         -2   -1    0    0    0  501 -0.00000000000E+00  0.00000000000E+00  0.34684600651E+03  0.34684600651E+03  0.00000000000E+00 0.  1.
          2   -1    0    0  501    0  0.00000000000E+00 -0.00000000000E+00 -0.47253229137E+02  0.47253229137E+02  0.00000000000E+00 0. -1.
          5    1    1    2  502    0 -0.61868031229E+02 -0.82599390336E+01  0.68820570234E+02  0.93003350307E+02  0.41800000000E+01 0. -1.
         -5    1    1    2    0  502  0.62435607100E+02 -0.18270359583E+02  0.17325763851E+03  0.18511534992E+03  0.41800000000E+01 0.  1.
        -11    1    1    2    0    0 -0.14816570694E+02  0.44571103406E+02 -0.70039385489E+01  0.47488621596E+02  0.00000000000E+00 0.  1.
         11    1    1    2    0    0  0.14248994824E+02 -0.18040804789E+02  0.64518507179E+02  0.68491913825E+02  0.00000000000E+00 0. -1.
</event>
<event>
 7    1  0.1226955E-005  0.7735405E+02  0.7561462E-02  0.1336732E+00
         -1   -1    0    0    0  501 -0.00000000000E+00  0.00000000000E+00  0.22211942243E+03  0.22211942243E+03  0.00000000000E+00 0.  1.
          1   -1    0    0  501    0  0.00000000000E+00 -0.00000000000E+00 -0.54754415355E+02  0.54754415355E+02  0.00000000000E+00 0. -1.
         23    2    1    2    0    0 -0.85406774203E+01  0.51471460479E+01  0.76743424743E+02  0.14709632667E+03  0.12509332435E+03 0.  0.
          5    1    3    3  502    0  0.19283746803E+02  0.33423975187E+02  0.95448250427E+02  0.10303817699E+03  0.41800000000E+01 0. -1.
         -5    1    3    3    0  502 -0.27824424223E+02 -0.28276829139E+02 -0.18704825684E+02  0.44058149682E+02  0.41800000000E+01 0. -1.
        -11    1    1    2    0    0 -0.71208104480E+01  0.33529200518E+02  0.79529050224E+02  0.86601287857E+02  0.00000000000E+00 0.  1.
         11    1    1    2    0    0  0.15661487868E+02 -0.38676346566E+02  0.11092532106E+02  0.43176223254E+02  0.00000000000E+00 0. -1.
</event>
<event>
 7    1  0.1226955E-005  0.1180311E+03  0.7561462E-02  0.1246381E+00
          2   -1    0    0  501    0  0.00000000000E+00  0.00000000000E+00  0.73512517507E+03  0.73512517507E+03  0.00000000000E+00 0. -1.
         -2   -1    0    0    0  501 -0.00000000000E+00 -0.00000000000E+00 -0.19240454940E+02  0.19240454940E+02  0.00000000000E+00 0.  1.
         23    2    1    2    0    0  0.31891812498E+02  0.35275512827E+02  0.36402326919E+03  0.38784292716E+03  0.12509095142E+03 0.  0.
          5    1    3    3  502    0 -0.30417292466E+02  0.59343261654E+02  0.17501978156E+03  0.18733988023E+03  0.41800000000E+01 0. -1.
         -5    1    3    3    0  502  0.62309104964E+02 -0.24067748827E+02  0.18900348763E+03  0.20050304694E+03  0.41800000000E+01 0. -1.
        -11    1    1    2    0    0 -0.61985609637E+02 -0.95249223819E+01  0.20161692325E+03  0.21114526679E+03  0.00000000000E+00 0.  1.
         11    1    1    2    0    0  0.30093797138E+02 -0.25750590446E+02  0.15024452769E+03  0.15537743605E+03  0.00000000000E+00 0. -1.
</event>
<event>
 7    1  0.1226955E-005  0.1011837E+03  0.7561462E-02  0.1277826E+00
         -3   -1    0    0    0  501 -0.00000000000E+00  0.00000000000E+00  0.42661455979E+03  0.42661455979E+03  0.00000000000E+00 0.  1.
          3   -1    0    0  501    0  0.00000000000E+00 -0.00000000000E+00 -0.32225716090E+02  0.32225716090E+02  0.00000000000E+00 0. -1.
         23    2    1    2    0    0  0.28338696133E+02 -0.55592791171E+02  0.27098093750E+03  0.30491286598E+03  0.12509015639E+03 0.  0.
          5    1    3    3  502    0  0.63660254703E+02  0.38738807162E+01  0.17672403243E+03  0.18792682357E+03  0.41800000000E+01 0.  1.
         -5    1    3    3    0  502 -0.35321558570E+02 -0.59466671888E+02  0.94256905072E+02  0.11698604241E+03  0.41800000000E+01 0.  1.
        -11    1    1    2    0    0 -0.10218856203E+02  0.48721555757E+02  0.12493560791E+03  0.13448836805E+03  0.00000000000E+00 0.  1.
         11    1    1    2    0    0 -0.18119839930E+02  0.68712354141E+01 -0.15277017115E+01  0.19439041841E+02  0.00000000000E+00 0. -1.
</event>
<event>
 7    1  0.1226955E-005  0.1304332E+03  0.7561462E-02  0.1226814E+00
         -2   -1    0    0    0  501 -0.00000000000E+00  0.00000000000E+00  0.20224401518E+02  0.20224401518E+02  0.00000000000E+00 0.  1.
          2   -1    0    0  501    0  0.00000000000E+00 -0.00000000000E+00 -0.96813827385E+03  0.96813827385E+03  0.00000000000E+00 0. -1.
         23    2    1    2    0    0  0.77332977887E+02  0.99257978731E+01 -0.37049195880E+03  0.39873601445E+03  0.12508879546E+03 0.  0.
          5    1    3    3  502    0 -0.27298583368E+02 -0.24723872601E+02 -0.89620488557E+02  0.96983436212E+02  0.41800000000E+01 0. -1.
         -5    1    3    3    0  502  0.10463156125E+03  0.34649670474E+02 -0.28087147025E+03  0.30175257824E+03  0.41800000000E+01 0. -1.
        -11    1    1    2    0    0  0.17222799654E+02 -0.78362795959E+01 -0.44169259473E+02  0.48051592983E+02  0.00000000000E+00 0.  1.
         11    1    1    2    0    0 -0.94555777541E+02 -0.20895182772E+01 -0.53325265406E+03  0.54157506794E+03  0.00000000000E+00 0. -1.
</event>
<event>
 7    1  0.1226955E-005  0.1107618E+03  0.7561462E-02  0.1259166E+00
         -2   -1    0    0    0  501 -0.00000000000E+00  0.00000000000E+00  0.59121268177E+03  0.59121268177E+03  0.00000000000E+00 0.  1.
          2   -1    0    0  501    0  0.00000000000E+00 -0.00000000000E+00 -0.25052726548E+02  0.25052726548E+02  0.00000000000E+00 0. -1.
         23    2    1    2    0    0  0.49788674497E+02 -0.11247846386E+02  0.37426839472E+03  0.39790935413E+03  0.12509834796E+03 0.  0.
          5    1    3    3  502    0  0.72959186782E+02 -0.47269969703E+02  0.29671367396E+03  0.30921508645E+03  0.41800000000E+01 0.  1.
         -5    1    3    3    0  502 -0.23170512286E+02  0.36022123317E+02  0.77554720756E+02  0.88694267680E+02  0.41800000000E+01 0.  1.
        -11    1    1    2    0    0 -0.63959965391E+02 -0.11175726272E+02  0.17561661625E+03  0.18723506598E+03  0.00000000000E+00 0.  1.
         11    1    1    2    0    0  0.14171290894E+02  0.22423572659E+02  0.16274944252E+02  0.31120988204E+02  0.00000000000E+00 0. -1.
</event>
<event>
 7    1  0.1226955E-005  0.1198693E+03  0.7561462E-02  0.1243313E+00
         -2   -1    0    0    0  501 -0.00000000000E+00  0.00000000000E+00  0.24218312743E+02  0.24218312743E+02  0.00000000000E+00 0.  1.
          2   -1    0    0  501    0  0.00000000000E+00 -0.00000000000E+00 -0.77631879533E+03  0.77631879533E+03  0.00000000000E+00 0. -1.
         23    2    1    2    0    0 -0.73924590532E+02  0.49962588090E+01 -0.29443894640E+03  0.32837672186E+03  0.12508865103E+03 0.  0.
          5    1    3    3  502    0  0.13569650288E+02 -0.27960738539E+02 -0.17198669466E+02  0.35765974613E+02  0.41800000000E+01 0. -1.
         -5    1    3    3    0  502 -0.87494240820E+02  0.32956997348E+02 -0.27724027694E+03  0.29261074725E+03  0.41800000000E+01 0. -1.
        -11    1    1    2    0    0  0.84652075223E+02  0.20526117583E+02 -0.31412258120E+03  0.32597590611E+03  0.00000000000E+00 0.  1.
         11    1    1    2    0    0 -0.10727484691E+02 -0.25522376392E+02 -0.14353895498E+03  0.14618448010E+03  0.00000000000E+00 0. -1.
</event>
<event>
 7    1  0.1226955E-005  0.1002199E+03  0.7561462E-02  0.1279834E+00
         -3   -1    0    0    0  501 -0.00000000000E+00  0.00000000000E+00  0.45383481677E+02  0.45383481677E+02  0.00000000000E+00 0.  1.
          3   -1    0    0  501    0  0.00000000000E+00 -0.00000000000E+00 -0.32601147460E+03  0.32601147460E+03  0.00000000000E+00 0. -1.
         23    2    1    2    0    0  0.30318759500E+02 -0.44468917113E+02 -0.14289269637E+03  0.19738688585E+03  0.12508616336E+03 0.  0.
          5    1    3    3  502    0  0.51314492260E+02  0.26736897546E+02 -0.86116206431E+02  0.10383406096E+03  0.41800000000E+01 0. -1.
         -5    1    3    3    0  502 -0.20995732760E+02 -0.71205814659E+02 -0.56776489936E+02  0.93552824889E+02  0.41800000000E+01 0. -1.
        -11    1    1    2    0    0  0.90837508478E+01  0.19263634243E+02 -0.12319956268E+03  0.12502693461E+03  0.00000000000E+00 0. -1.
         11    1    1    2    0    0 -0.39402510348E+02  0.25205282870E+02 -0.14535733878E+02  0.48981135814E+02  0.00000000000E+00 0.  1.
</event>
<event>
 7    1  0.1226955E-005  0.1001165E+03  0.7561462E-02  0.1280051E+00
          2   -1    0    0  501    0  0.00000000000E+00  0.00000000000E+00  0.38400615977E+03  0.38400615977E+03  0.00000000000E+00 0. -1.
         -2   -1    0    0    0  501 -0.00000000000E+00 -0.00000000000E+00 -0.40596274524E+02  0.40596274524E+02  0.00000000000E+00 0.  1.
         23    2    1    2    0    0 -0.55980006264E+02  0.16852956440E+02  0.10964733804E+03  0.16678014420E+03  0.11124430106E+03 0.  0.
          5    1    3    3  502    0 -0.67145388704E+02  0.50097521254E+02  0.50550486915E+02  0.97934105333E+02  0.41800000000E+01 0. -1.
         -5    1    3    3    0  502  0.11165382441E+02 -0.33244564813E+02  0.59096851129E+02  0.68846038870E+02  0.41800000000E+01 0.  1.
        -11    1    1    2    0    0 -0.33556451318E+01 -0.21273004827E+02  0.59144665808E+01  0.22333427940E+02  0.00000000000E+00 0.  1.
         11    1    1    2    0    0  0.59335651395E+02  0.44200483865E+01  0.22784808062E+03  0.23548886215E+03  0.00000000000E+00 0. -1.
</event>
<event>
 7    1  0.1226955E-005  0.2053571E+03  0.7561462E-02  0.1145296E+00
          3   -1    0    0  501    0  0.00000000000E+00  0.00000000000E+00  0.13914082897E+03  0.13914082897E+03  0.00000000000E+00 0. -1.
         -3   -1    0    0    0  501 -0.00000000000E+00 -0.00000000000E+00 -0.31779204719E+03  0.31779204719E+03  0.00000000000E+00 0.  1.
         23    2    1    2    0    0  0.17897902923E+03 -0.46748194491E+01 -0.83716089676E+02  0.23390544089E+03  0.12509206517E+03 0.  0.
          5    1    3    3  502    0  0.23479098297E+02 -0.49687048451E+02 -0.32876751813E+02  0.64174948776E+02  0.41800000000E+01 0. -1.
         -5    1    3    3    0  502  0.15549993093E+03  0.45012229002E+02 -0.50839337863E+02  0.16973049211E+03  0.41800000000E+01 0. -1.
        -11    1    1    2    0    0 -0.15982215870E+03 -0.21462327365E+02 -0.10069496984E+03  0.19011373138E+03  0.00000000000E+00 0.  1.
         11    1    1    2    0    0 -0.19156870522E+02  0.26137146814E+02  0.57598412974E+01  0.32913703886E+02  0.00000000000E+00 0. -1.
</event>
<event>
 7    1  0.1459532E-005  0.3046910E+03  0.7561462E-02  0.1082919E+00
         -1   -1    0    0    0  501 -0.00000000000E+00  0.00000000000E+00  0.10786870360E+03  0.10786870360E+03  0.00000000000E+00 0.  1.
          1   -1    0    0  501    0  0.00000000000E+00 -0.00000000000E+00 -0.10020796221E+04  0.10020796221E+04  0.00000000000E+00 0. -1.
         23    2    1    2    0    0 -0.18796679999E+03  0.23246452503E+03 -0.31414467586E+03  0.45133779582E+03  0.12509058824E+03 0.  0.
          5    1    3    3  502    0 -0.16984234604E+03  0.21100936663E+03 -0.32302611391E+03  0.42158595563E+03  0.41800000000E+01 0.  1.
         -5    1    3    3    0  502 -0.18124453947E+02  0.21455158399E+02  0.88814380499E+01  0.29751840189E+02  0.41800000000E+01 0.  1.
        -11    1    1    2    0    0  0.11921059533E+03 -0.82107065309E+02 -0.30656940238E+03  0.33902438657E+03  0.00000000000E+00 0. -1.
         11    1    1    2    0    0  0.68756204657E+02 -0.15035745972E+03 -0.27349684029E+03  0.31958614335E+03  0.00000000000E+00 0.  1.
</event>
<event>
 7    1  0.1226955E-005  0.5626309E+02  0.7561462E-02  0.1414218E+00
         -2   -1    0    0    0  501 -0.00000000000E+00  0.00000000000E+00  0.26264908415E+03  0.26264908415E+03  0.00000000000E+00 0.  1.
          2   -1    0    0  501    0  0.00000000000E+00 -0.00000000000E+00 -0.50872960500E+02  0.50872960500E+02  0.00000000000E+00 0. -1.
         23    2    1    2    0    0 -0.29763009426E+02  0.18998378017E+02  0.11525059930E+03  0.17371480429E+03  0.12508939801E+03 0.  0.
          5    1    3    3  502    0 -0.27018242131E+02 -0.71531318863E+01  0.13665882627E+03  0.13955020566E+03  0.41800000000E+01 0. -1.
         -5    1    3    3    0  502 -0.27447672955E+01  0.26151509904E+02 -0.21408226966E+02  0.34164598630E+02  0.41800000000E+01 0. -1.
        -11    1    1    2    0    0  0.22386770331E+01  0.14280217414E+02 -0.14624373202E+02  0.20562309593E+02  0.00000000000E+00 0. -1.
         11    1    1    2    0    0  0.27524332393E+02 -0.33278595432E+02  0.11114989755E+03  0.11924493076E+03  0.00000000000E+00 0.  1.
</event>
<event>
 7    1  0.1226955E-005  0.8766620E+02  0.7561462E-02  0.1308604E+00
          2   -1    0    0  501    0  0.00000000000E+00  0.00000000000E+00  0.75082395859E+03  0.75082395859E+03  0.00000000000E+00 0. -1.
         -2   -1    0    0    0  501 -0.00000000000E+00 -0.00000000000E+00 -0.19303149824E+02  0.19303149824E+02  0.00000000000E+00 0.  1.
         23    2    1    2    0    0  0.88198012727E+01 -0.49450746327E+02  0.36254661568E+03  0.38679641430E+03  0.12509297489E+03 0.  0.
          5    1    3    3  502    0 -0.15204192221E+02 -0.43940829639E+02  0.35843313712E+03  0.36146057898E+03  0.41800000000E+01 0. -1.
         -5    1    3    3    0  502  0.24023993494E+02 -0.55099166875E+01  0.41134785557E+01  0.25335835315E+02  0.41800000000E+01 0. -1.
        -11    1    1    2    0    0  0.30681681726E+02  0.55762159873E+02  0.21272850696E+03  0.22204549475E+03  0.00000000000E+00 0. -1.
         11    1    1    2    0    0 -0.39501482999E+02 -0.63114135462E+01  0.15624568613E+03  0.16128519937E+03  0.00000000000E+00 0.  1.
</event>
<event>
 7    1  0.1226955E-005  0.1023652E+03  0.7561462E-02  0.1275399E+00
         -2   -1    0    0    0  501 -0.00000000000E+00  0.00000000000E+00  0.15034123197E+03  0.15034123197E+03  0.00000000000E+00 0. -1.
          2   -1    0    0  501    0  0.00000000000E+00 -0.00000000000E+00 -0.12743099469E+03  0.12743099469E+03  0.00000000000E+00 0.  1.
         23    2    1    2    0    0 -0.45115211112E+02 -0.73166983579E+02  0.57408063551E+01  0.15188503680E+03  0.12508923929E+03 0.  0.
          5    1    3    3  502    0 -0.33338757798E+02 -0.64696656762E+02 -0.53708127991E+02  0.90549243951E+02  0.41800000000E+01 0. -1.
         -5    1    3    3    0  502 -0.11776453313E+02 -0.84703268165E+01  0.59448934346E+02  0.61335792845E+02  0.41800000000E+01 0. -1.
        -11    1    1    2    0    0  0.43382722387E+02  0.89947439046E+02 -0.26021252722E+01  0.99896814006E+02  0.00000000000E+00 0.  1.
         11    1    1    2    0    0  0.17324887248E+01 -0.16780455467E+02  0.19771556192E+02  0.25990375855E+02  0.00000000000E+00 0. -1.
</event>
<event>
 6    1  0.1226955E-005  0.2761926E+03  0.7561462E-02  0.1097787E+00
          2   -1    0    0  501    0  0.00000000000E+00  0.00000000000E+00  0.11987614296E+04  0.11987614296E+04  0.00000000000E+00 0. -1.
         -2   -1    0    0    0  501 -0.00000000000E+00 -0.00000000000E+00 -0.10903309748E+03  0.10903309748E+03  0.00000000000E+00 0.  1.
          5    1    1    2  502    0 -0.21062658213E+03  0.15872951110E+03  0.27394080285E+03  0.38028890420E+03  0.41800000000E+01 0. -1.
         -5    1    1    2    0  502  0.50064829779E+02  0.12347545395E+02 -0.19479264664E+02  0.55279862607E+02  0.41800000000E+01 0.  1.
        -11    1    1    2    0    0  0.10874740232E+03 -0.92557930077E+02  0.35157683336E+03  0.37947231478E+03  0.00000000000E+00 0.  1.
         11    1    1    2    0    0  0.51814350025E+02 -0.78519126422E+02  0.48368996059E+03  0.49275344551E+03  0.00000000000E+00 0. -1.
</event>
<event>
 7    1  0.1226955E-005  0.8618953E+02  0.7561462E-02  0.1312351E+00
         -1   -1    0    0    0  501 -0.00000000000E+00  0.00000000000E+00  0.77530082510E+02  0.77530082510E+02  0.00000000000E+00 0.  1.
          1   -1    0    0  501    0  0.00000000000E+00 -0.00000000000E+00 -0.20835843242E+03  0.20835843242E+03  0.00000000000E+00 0. -1.
         23    2    1    2    0    0  0.60127817401E+02  0.46683981805E+01 -0.44275811728E+02  0.14576223166E+03  0.12509649199E+03 0.  0.
          5    1    3    3  502    0  0.38871442333E+01  0.21559794386E+02 -0.75778476506E+02  0.78992306751E+02  0.41800000000E+01 0.  1.
         -5    1    3    3    0  502  0.56240673168E+02 -0.16891396206E+02  0.31502664778E+02  0.66769924909E+02  0.41800000000E+01 0.  1.
        -11    1    1    2    0    0 -0.42083096818E+02 -0.35781227219E+02 -0.88257979211E+02  0.10411894234E+03  0.00000000000E+00 0. -1.
         11    1    1    2    0    0 -0.18044720584E+02  0.31112829038E+02  0.17054410323E+01  0.36007340930E+02  0.00000000000E+00 0.  1.
</event>
<event>
 7    1  0.1226955E-005  0.1013337E+03  0.7561462E-02  0.1277516E+00
         -2   -1    0    0    0  501 -0.00000000000E+00  0.00000000000E+00  0.23622677291E+02  0.23622677291E+02  0.00000000000E+00 0.  1.
          2   -1    0    0  501    0  0.00000000000E+00 -0.00000000000E+00 -0.52766321642E+03  0.52766321642E+03  0.00000000000E+00 0. -1.
         23    2    1    2    0    0 -0.16899940929E+02  0.20221736472E+02 -0.28866012972E+03  0.31569830067E+03  0.12508485091E+03 0.  0.
          5    1    3    3  502    0 -0.44835202498E+02 -0.33590010573E+02 -0.75902320581E+02  0.94430497526E+02  0.41800000000E+01 0.  1.
         -5    1    3    3    0  502  0.27935261569E+02  0.53811747045E+02 -0.21275780914E+03  0.22126780315E+03  0.41800000000E+01 0.  1.
        -11    1    1    2    0    0 -0.33191264727E+02 -0.87983627086E+01 -0.39411330080E+02  0.52271638383E+02  0.00000000000E+00 0.  1.
         11    1    1    2    0    0  0.50091205656E+02 -0.11423373763E+02 -0.17596907932E+03  0.18331595465E+03  0.00000000000E+00 0. -1.
</event>
<event>
 7    1  0.1226955E-005  0.3185507E+03  0.7561462E-02  0.1076318E+00
          1   -1    0    0  501    0  0.00000000000E+00  0.00000000000E+00  0.64225620848E+03  0.64225620848E+03  0.00000000000E+00 0. -1.
         -1   -1    0    0    0  501 -0.00000000000E+00 -0.00000000000E+00 -0.16397546481E+03  0.16397546481E+03  0.00000000000E+00 0.  1.
         23    2    1    2    0    0  0.19906073362E+03  0.23192004124E+03  0.24293418985E+03  0.40997068408E+03  0.12508740949E+03 0.  0.
          5    1    3    3  502    0  0.16403155602E+02  0.10603670400E+03  0.64619965080E+02  0.12532381416E+03  0.41800000000E+01 0. -1.
         -5    1    3    3    0  502  0.18265757802E+03  0.12588333725E+03  0.17831422477E+03  0.28464686992E+03  0.41800000000E+01 0. -1.
        -11    1    1    2    0    0 -0.15466388936E+03 -0.20156852483E+03  0.22912127468E+03  0.34212183120E+03  0.00000000000E+00 0. -1.
         11    1    1    2    0    0 -0.44396844263E+02 -0.30351516415E+02  0.62252791471E+01  0.54139158006E+02  0.00000000000E+00 0.  1.
</event>
<event>
 7    1  0.1428717E-005  0.3446795E+03  0.7561462E-02  0.1064820E+00
          1   -1    0    0  501    0  0.00000000000E+00  0.00000000000E+00  0.10796892363E+04  0.10796892363E+04  0.00000000000E+00 0. -1.
         -1   -1    0    0    0  501 -0.00000000000E+00 -0.00000000000E+00 -0.14424390788E+03  0.14424390788E+03  0.00000000000E+00 0.  1.
         23    2    1    2    0    0  0.24664897569E+03 -0.22541020192E+03  0.19526673804E+03  0.40672115389E+03  0.12509005437E+03 0.  0.
          5    1    3    3  502    0  0.23029912502E+03 -0.15479662418E+03  0.12064782054E+03  0.30261039447E+03  0.41800000000E+01 0. -1.
         -5    1    3    3    0  502  0.16349850671E+02 -0.70613577743E+02  0.74618917502E+02  0.10411075942E+03  0.41800000000E+01 0. -1.
        -11    1    1    2    0    0 -0.23236391154E+03  0.18702692355E+03  0.58416317333E+03  0.65591056600E+03  0.00000000000E+00 0.  1.
         11    1    1    2    0    0 -0.14285064152E+02  0.38383278371E+02  0.15601541703E+03  0.16130142426E+03  0.00000000000E+00 0. -1.
</event>
<event>
 7    1  0.1226955E-005  0.1083568E+03  0.7561462E-02  0.1263643E+00
         -3   -1    0    0    0  501 -0.00000000000E+00  0.00000000000E+00  0.56232420431E+03  0.56232420431E+03  0.00000000000E+00 0.  1.
          3   -1    0    0  501    0  0.00000000000E+00 -0.00000000000E+00 -0.29608566983E+02  0.29608566983E+02  0.00000000000E+00 0. -1.
         23    2    1    2    0    0 -0.61321555452E+02  0.40395177314E+02  0.33242201338E+03  0.36269116385E+03  0.12509349241E+03 0.  0.
          5    1    3    3  502    0 -0.86545735344E+02 -0.82181012843E+01  0.16590585641E+03  0.18734974536E+03  0.41800000000E+01 0.  1.
         -5    1    3    3    0  502  0.25224179892E+02  0.48613278598E+02  0.16651615696E+03  0.17534141849E+03  0.41800000000E+01 0.  1.
        -11    1    1    2    0    0  0.53869227236E+02 -0.29121648512E+02  0.20574851808E+03  0.21466815495E+03  0.00000000000E+00 0.  1.
         11    1    1    2    0    0  0.74523282154E+01 -0.11273528802E+02 -0.54548941377E+01  0.14573452492E+02  0.00000000000E+00 0. -1.
</event>
<event>
 7    1  0.1226955E-005  0.1206584E+03  0.7561462E-02  0.1242015E+00
          1   -1    0    0  501    0  0.00000000000E+00  0.00000000000E+00  0.11091882054E+03  0.11091882054E+03  0.00000000000E+00 0. -1.
         -1   -1    0    0    0  501 -0.00000000000E+00 -0.00000000000E+00 -0.18139962989E+03  0.18139962989E+03  0.00000000000E+00 0.  1.
         23    2    1    2    0    0 -0.12223450814E+02 -0.89371106642E+02 -0.54318643366E+02  0.16350651952E+03  0.12508900614E+03 0.  0.
          5    1    3    3  502    0  0.33861005393E+02 -0.67235394028E+02  0.15397385556E+02  0.76952698317E+02  0.41800000000E+01 0.  1.
         -5    1    3    3    0  502 -0.46084456207E+02 -0.22135712613E+02 -0.69716028922E+02  0.86553821207E+02  0.41800000000E+01 0.  1.
        -11    1    1    2    0    0 -0.28942109612E+02  0.25151466045E+02 -0.33121822162E+02  0.50668501620E+02  0.00000000000E+00 0.  1.
         11    1    1    2    0    0  0.41165560426E+02  0.64219640597E+02  0.16959656172E+02  0.78143429289E+02  0.00000000000E+00 0. -1.
</event>
<event>
 7    1  0.1226955E-005  0.1864740E+03  0.7561462E-02  0.1161681E+00
         -2   -1    0    0    0  501 -0.00000000000E+00  0.00000000000E+00  0.16182720548E+03  0.16182720548E+03  0.00000000000E+00 0.  1.
          2   -1    0    0  501    0  0.00000000000E+00 -0.00000000000E+00 -0.25281781802E+03  0.25281781802E+03  0.00000000000E+00 0. -1.
         23    2    1    2    0    0  0.11703818241E+03 -0.11994212727E+03 -0.17455474388E+02  0.20984703060E+03  0.12508809947E+03 0.  0.
          5    1    3    3  502    0  0.13641455784E+03 -0.76628016023E+02  0.62421066582E+01  0.15664361055E+03  0.41800000000E+01 0. -1.
         -5    1    3    3    0  502 -0.19376375425E+02 -0.43314111244E+02 -0.23697581047E+02  0.53203420049E+02  0.41800000000E+01 0. -1.
        -11    1    1    2    0    0 -0.53390751746E+02  0.40575385124E+02  0.16371599948E+02  0.69028715291E+02  0.00000000000E+00 0.  1.
         11    1    1    2    0    0 -0.63647430667E+02  0.79366742143E+02 -0.89906738092E+02  0.13576927761E+03  0.00000000000E+00 0. -1.
</event>
<event>
 7    1  0.1226955E-005  0.1152703E+03  0.7561462E-02  0.1251110E+00
         -2   -1    0    0    0  501 -0.00000000000E+00  0.00000000000E+00  0.31278418339E+03  0.31278418339E+03  0.00000000000E+00 0. -1.
          2   -1    0    0  501    0  0.00000000000E+00 -0.00000000000E+00 -0.52589181736E+02  0.52589181736E+02  0.00000000000E+00 0.  1.
         23    2    1    2    0    0  0.36805789406E+02 -0.56116728249E+02  0.17057876440E+03  0.22191782921E+03  0.12508658895E+03 0.  0.
          5    1    3    3  502    0  0.24723002963E+02  0.27507823481E+02  0.71631283893E+01  0.37903694233E+02  0.41800000000E+01 0. -1.
         -5    1    3    3    0  502  0.12082786443E+02 -0.83624551730E+02  0.16341563601E+03  0.18401413498E+03  0.41800000000E+01 0. -1.
        -11    1    1    2    0    0  0.15201687232E+02 -0.14509605188E+02  0.50384675794E+01  0.21610323759E+02  0.00000000000E+00 0. -1.
         11    1    1    2    0    0 -0.52007476638E+02  0.70626333437E+02  0.84577769671E+02  0.12184521215E+03  0.00000000000E+00 0.  1.
</event>
<event>
 7    1  0.1226955E-005  0.1115012E+03  0.7561462E-02  0.1257815E+00
         -3   -1    0    0    0  501 -0.00000000000E+00  0.00000000000E+00  0.25439884589E+03  0.25439884589E+03  0.00000000000E+00 0.  1.
          3   -1    0    0  501    0  0.00000000000E+00 -0.00000000000E+00 -0.65204444253E+02  0.65204444253E+02  0.00000000000E+00 0. -1.
         23    2    1    2    0    0  0.34514329007E+02  0.53942297016E+02  0.85737855645E+02  0.16461685054E+03  0.12508683895E+03 0.  0.
          5    1    3    3  502    0  0.69201796474E+02  0.72542532625E+02  0.54462030474E+02  0.11417045519E+03  0.41800000000E+01 0.  1.
         -5    1    3    3    0  502 -0.34687467467E+02 -0.18600235609E+02  0.31275825171E+02  0.50446395353E+02  0.41800000000E+01 0.  1.
        -11    1    1    2    0    0  0.13953348302E+02 -0.70262175478E+01 -0.13053326894E+02  0.20358118894E+02  0.00000000000E+00 0. -1.
         11    1    1    2    0    0 -0.48467677310E+02 -0.46916079468E+02  0.11650987289E+03  0.13462832071E+03  0.00000000000E+00 0.  1.
</event>
<event>
 7    1  0.1226955E-005  0.8074675E+02  0.7561462E-02  0.1326946E+00
          1   -1    0    0  501    0  0.00000000000E+00  0.00000000000E+00  0.15889993824E+03  0.15889993824E+03  0.00000000000E+00 0. -1.
         -1   -1    0    0    0  501 -0.00000000000E+00 -0.00000000000E+00 -0.12350590429E+03  0.12350590429E+03  0.00000000000E+00 0.  1.
         23    2    1    2    0    0 -0.24014462420E+02 -0.10924264801E+02 -0.65330105189E+02  0.14356994453E+03  0.12509305481E+03 0.  0.
          5    1    3    3  502    0 -0.28078311922E+02 -0.47626478350E+02  0.12931691629E+02  0.56933066743E+02  0.41800000000E+01 0. -1.
         -5    1    3    3    0  502  0.40638495021E+01  0.36702213549E+02 -0.78261796817E+02  0.86636877791E+02  0.41800000000E+01 0. -1.
        -11    1    1    2    0    0  0.29819629336E+02  0.33922978866E+02  0.11631635827E+02  0.46639829984E+02  0.00000000000E+00 0.  1.
         11    1    1    2    0    0 -0.58051669164E+01 -0.22998714065E+02  0.89092503311E+02  0.92196068017E+02  0.00000000000E+00 0. -1.
</event>
<event>
 7    1  0.1226955E-005  0.1063436E+03  0.7561462E-02  0.1267495E+00
         -1   -1    0    0    0  501 -0.00000000000E+00  0.00000000000E+00  0.13027325429E+03  0.13027325429E+03  0.00000000000E+00 0.  1.
          1   -1    0    0  501    0  0.00000000000E+00 -0.00000000000E+00 -0.15239132775E+03  0.15239132775E+03  0.00000000000E+00 0. -1.
         23    2    1    2    0    0  0.79494681630E+02 -0.33573823401E+02  0.16267928325E+02  0.15284064280E+03  0.12509600543E+03 0.  0.
          5    1    3    3  502    0  0.48855102766E+02 -0.50870231018E+02 -0.43779673510E+02  0.83118792597E+02  0.41800000000E+01 0. -1.
         -5    1    3    3    0  502  0.30639578864E+02  0.17296407618E+02  0.60047601835E+02  0.69721850202E+02  0.41800000000E+01 0. -1.
        -11    1    1    2    0    0 -0.44334806825E+02 -0.14852484326E+02  0.15536134389E+02  0.49270101061E+02  0.00000000000E+00 0.  1.
         11    1    1    2    0    0 -0.35159874806E+02  0.48426307726E+02 -0.53922136175E+02  0.80553838183E+02  0.00000000000E+00 0. -1.
</event>
<event>
 7    1  0.1226955E-005  0.1116728E+03  0.7561462E-02  0.1257503E+00
         -1   -1    0    0    0  501 -0.00000000000E+00  0.00000000000E+00  0.33972820214E+02  0.33972820214E+02  0.00000000000E+00 0.  1.
          1   -1    0    0  501    0  0.00000000000E+00 -0.00000000000E+00 -0.70895758090E+03  0.70895758090E+03  0.00000000000E+00 0. -1.
         23    2    1    2    0    0  0.69902358698E+02 -0.42102049756E+02 -0.18506346962E+03  0.23781266369E+03  0.12508977927E+03 0.  0.
          5    1    3    3  502    0  0.90779103821E+02 -0.31319675136E+02 -0.19046338177E+03  0.21334371314E+03  0.41800000000E+01 0. -1.
         -5    1    3    3    0  502 -0.20876745124E+02 -0.10782374620E+02  0.53999121554E+01  0.24468950543E+02  0.41800000000E+01 0. -1.
        -11    1    1    2    0    0  0.10354334199E+02 -0.36480011410E+01 -0.61065468971E+01  0.12562247571E+02  0.00000000000E+00 0.  1.
         11    1    1    2    0    0 -0.80256692896E+02  0.45750050897E+02 -0.48381474417E+03  0.49255548986E+03  0.00000000000E+00 0. -1.
</event>
<event>
 7    1  0.1226955E-005  0.1070352E+03  0.7561462E-02  0.1266161E+00
         -4   -1    0    0    0  501 -0.00000000000E+00  0.00000000000E+00  0.77943855615E+02  0.77943855615E+02  0.00000000000E+00 0.  1.
          4   -1    0    0  501    0  0.00000000000E+00 -0.00000000000E+00 -0.16244116624E+03  0.16244116624E+03  0.00000000000E+00 0. -1.
         23    2    1    2    0    0 -0.20907992426E+02  0.95883999865E+01 -0.26519536138E+02  0.12991024235E+03  0.12507719100E+03 0.  0.
          5    1    3    3  502    0 -0.54842718500E+02  0.48201361795E+02 -0.28008051198E+02  0.78313590030E+02  0.41800000000E+01 0.  1.
         -5    1    3    3    0  502  0.33934726074E+02 -0.38612961809E+02  0.14885150604E+01  0.51596652318E+02  0.41800000000E+01 0.  1.
        -11    1    1    2    0    0 -0.33966694138E+02 -0.40766090643E+01 -0.60828791903E+01  0.34747035432E+02  0.00000000000E+00 0.  1.
         11    1    1    2    0    0  0.54874686564E+02 -0.55117909221E+01 -0.51894895295E+02  0.75727744073E+02  0.00000000000E+00 0. -1.
</event>
<event>
 7    1  0.1226955E-005  0.6716251E+02  0.7561462E-02  0.1370017E+00
         -2   -1    0    0    0  501 -0.00000000000E+00  0.00000000000E+00  0.85386511147E+02  0.85386511147E+02  0.00000000000E+00 0.  1.
          2   -1    0    0  501    0  0.00000000000E+00 -0.00000000000E+00 -0.16064675218E+03  0.16064675218E+03  0.00000000000E+00 0. -1.
         23    2    1    2    0    0  0.41011723286E+02 -0.15754225257E+02 -0.33514281599E+02  0.13675013053E+03  0.12508890466E+03 0.  0.
          5    1    3    3  502    0  0.41256164916E+02 -0.40509027216E+01  0.42623351990E+02  0.59604559316E+02  0.41800000000E+01 0.  1.
         -5    1    3    3    0  502 -0.24444162915E+00 -0.11703322535E+02 -0.76137633589E+02  0.77145571218E+02  0.41800000000E+01 0.  1.
        -11    1    1    2    0    0  0.18671232700E+02  0.68438944903E+01 -0.44640322590E+02  0.48869338274E+02  0.00000000000E+00 0. -1.
         11    1    1    2    0    0 -0.59682955987E+02  0.89103307663E+01  0.28943631600E+01  0.60413794516E+02  0.00000000000E+00 0.  1.
</event>
<event>
 7    1  0.1226955E-005  0.3419159E+03  0.7561462E-02  0.1065983E+00
         -1   -1    0    0    0  501 -0.00000000000E+00  0.00000000000E+00  0.27822597560E+03  0.27822597560E+03  0.00000000000E+00 0.  1.
          1   -1    0    0  501    0  0.00000000000E+00 -0.00000000000E+00 -0.42477865972E+03  0.42477865972E+03  0.00000000000E+00 0. -1.
         23    2    1    2    0    0  0.21615570983E+03 -0.24411521206E+03 -0.71075179304E+02  0.35639164245E+03  0.12509114294E+03 0.  0.
          5    1    3    3  502    0  0.13095233568E+03 -0.57445678520E+02 -0.16403652858E+02  0.14399677923E+03  0.41800000000E+01 0.  1.
         -5    1    3    3    0  502  0.85203374146E+02 -0.18666953354E+03 -0.54671526445E+02  0.21239486322E+03  0.41800000000E+01 0.  1.
        -11    1    1    2    0    0  0.56460574773E+01  0.17707491779E+02  0.56879613885E+01  0.19436721300E+02  0.00000000000E+00 0. -1.
         11    1    1    2    0    0 -0.22180176731E+03  0.22640772028E+03 -0.81165466203E+02  0.32717627158E+03  0.00000000000E+00 0.  1.
</event>
<event>
 7    1  0.1226955E-005  0.1346975E+03  0.7561462E-02  0.1220647E+00
          1   -1    0    0  501    0  0.00000000000E+00  0.00000000000E+00  0.29354094078E+03  0.29354094078E+03  0.00000000000E+00 0. -1.
         -1   -1    0    0    0  501 -0.00000000000E+00 -0.00000000000E+00 -0.65373108560E+02  0.65373108560E+02  0.00000000000E+00 0.  1.
         23    2    1    2    0    0  0.36737092169E+02  0.77768838499E+02  0.11073065051E+03  0.18789738856E+03  0.12508615224E+03 0.  0.
          5    1    3    3  502    0 -0.37856927379E+02  0.41152978665E+00  0.74904006359E+01  0.38818743012E+02  0.41800000000E+01 0. -1.
         -5    1    3    3    0  502  0.74594019549E+02  0.77357308712E+02  0.10324024987E+03  0.14907864554E+03  0.41800000000E+01 0. -1.
        -11    1    1    2    0    0  0.10702233029E+02 -0.75513406090E+02  0.80121690648E+02  0.11061779967E+03  0.00000000000E+00 0.  1.
         11    1    1    2    0    0 -0.47439325198E+02 -0.22554324093E+01  0.37315491059E+02  0.60398861112E+02  0.00000000000E+00 0. -1.
</event>
<event>
 7    1  0.1226955E-005  0.9773776E+02  0.7561462E-02  0.1285126E+00
          1   -1    0    0  501    0  0.00000000000E+00  0.00000000000E+00  0.19515241252E+03  0.19515241252E+03  0.00000000000E+00 0. -1.
         -1   -1    0    0    0  501 -0.00000000000E+00 -0.00000000000E+00 -0.90339682512E+02  0.90339682512E+02  0.00000000000E+00 0.  1.
         23    2    1    2    0    0 -0.62213413660E+02  0.43535436092E+02  0.55757493444E+02  0.15659191971E+03  0.12508512385E+03 0.  0.
          5    1    3    3  502    0 -0.21679945473E+02  0.15041446086E+02  0.91522867753E+02  0.95342398007E+02  0.41800000000E+01 0.  1.
         -5    1    3    3    0  502 -0.40533468186E+02  0.28493990006E+02 -0.35765374309E+02  0.61249521705E+02  0.41800000000E+01 0.  1.
        -11    1    1    2    0    0  0.73150685659E+02  0.10209983923E+01  0.26844619750E+02  0.77927523120E+02  0.00000000000E+00 0. -1.
         11    1    1    2    0    0 -0.10937271999E+02 -0.44556434485E+02  0.22210616809E+02  0.50972652195E+02  0.00000000000E+00 0.  1.
</event>
<event>
 7    1  0.1226955E-005  0.1441655E+03  0.7561462E-02  0.1207831E+00
         -1   -1    0    0    0  501 -0.00000000000E+00  0.00000000000E+00  0.80199201542E+03  0.80199201542E+03  0.00000000000E+00 0.  1.
          1   -1    0    0  501    0  0.00000000000E+00 -0.00000000000E+00 -0.29792469387E+02  0.29792469387E+02  0.00000000000E+00 0. -1.
         23    2    1    2    0    0 -0.50073446297E+02 -0.94303674071E+02  0.47650399050E+03  0.50407503565E+03  0.12504021606E+03 0.  0.
          5    1    3    3  502    0  0.37863165781E+02 -0.44417291335E+02  0.23611008215E+03  0.24325286923E+03  0.41800000000E+01 0. -1.
         -5    1    3    3    0  502 -0.87936612078E+02 -0.49886382737E+02  0.24039390835E+03  0.26082216643E+03  0.41800000000E+01 0. -1.
        -11    1    1    2    0    0  0.67904380863E+02  0.63137899822E+02  0.26402006815E+03  0.27982851127E+03  0.00000000000E+00 0.  1.
         11    1    1    2    0    0 -0.17830934566E+02  0.31165774250E+02  0.31675487380E+02  0.47880937886E+02  0.00000000000E+00 0. -1.
</event>
<event>
 7    1  0.1226955E-005  0.1053824E+03  0.7561462E-02  0.1269368E+00
         -2   -1    0    0    0  501 -0.00000000000E+00  0.00000000000E+00  0.48803473725E+02  0.48803473725E+02  0.00000000000E+00 0.  1.
          2   -1    0    0  501    0  0.00000000000E+00 -0.00000000000E+00 -0.29890285559E+03  0.29890285559E+03  0.00000000000E+00 0. -1.
         23    2    1    2    0    0 -0.19422766795E+02  0.14225860886E+02 -0.69315133046E+02  0.14502136409E+03  0.12508792662E+03 0.  0.
          5    1    3    3  502    0 -0.25885970567E+02 -0.49077930637E+02 -0.73903388453E+01  0.56132132117E+02  0.41800000000E+01 0.  1.
         -5    1    3    3    0  502  0.64632037718E+01  0.63303791523E+02 -0.61924794200E+02  0.88889231974E+02  0.41800000000E+01 0.  1.
        -11    1    1    2    0    0 -0.34453867909E+02 -0.14734350162E+02 -0.66325452545E+02  0.76178971796E+02  0.00000000000E+00 0.  1.
         11    1    1    2    0    0  0.53876634704E+02  0.50848927550E+00 -0.11445879627E+03  0.12650599342E+03  0.00000000000E+00 0. -1.
</event>
<event>
 7    1  0.1226955E-005  0.1155761E+03  0.7561462E-02  0.1250579E+00
          1   -1    0    0  501    0  0.00000000000E+00  0.00000000000E+00  0.51775188125E+03  0.51775188125E+03  0.00000000000E+00 0. -1.
         -1   -1    0    0    0  501 -0.00000000000E+00 -0.00000000000E+00 -0.56313082376E+02  0.56313082376E+02  0.00000000000E+00 0.  1.
         23    2    1    2    0    0 -0.41020337951E+02  0.42312828942E+02  0.47479063623E+02  0.14620030889E+03  0.12508886929E+03 0.  0.
          5    1    3    3  502    0  0.34900728475E+02 -0.20176085859E+01 -0.14993407019E+02  0.38267561283E+02  0.41800000000E+01 0.  1.
         -5    1    3    3    0  502 -0.75921066426E+02  0.44330437528E+02  0.62472470642E+02  0.10793274761E+03  0.41800000000E+01 0.  1.
        -11    1    1    2    0    0 -0.28750995484E+02 -0.18578105744E+02  0.14554130993E+03  0.14951267054E+03  0.00000000000E+00 0. -1.
         11    1    1    2    0    0  0.69771333435E+02 -0.23734723198E+02  0.26841842532E+03  0.27835198420E+03  0.00000000000E+00 0.  1.
</event>
<event>
 7    1  0.1226955E-005  0.8637140E+02  0.7561462E-02  0.1311885E+00
          1   -1    0    0  501    0  0.00000000000E+00  0.00000000000E+00  0.68031104749E+02  0.68031104749E+02  0.00000000000E+00 0. -1.
         -1   -1    0    0    0  501 -0.00000000000E+00 -0.00000000000E+00 -0.26837522762E+03  0.26837522762E+03  0.00000000000E+00 0.  1.
         23    2    1    2    0    0  0.59714739697E+02  0.41824807509E+02 -0.15171903777E+03  0.20971123549E+03  0.12507985933E+03 0.  0.
          5    1    3    3  502    0  0.29350499874E+02  0.22144136633E+01 -0.15659319406E+03  0.15939026412E+03  0.41800000000E+01 0.  1.
         -5    1    3    3    0  502  0.30364239824E+02  0.39610393846E+02  0.48741562870E+01  0.50320971376E+02  0.41800000000E+01 0.  1.
        -11    1    1    2    0    0 -0.11798845691E+01 -0.33830369830E+02 -0.57726765382E+02  0.66919843782E+02  0.00000000000E+00 0.  1.
         11    1    1    2    0    0 -0.58534855128E+02 -0.79944376790E+01  0.91016802778E+01  0.59775253095E+02  0.00000000000E+00 0. -1.
</event>
<event>
 7    1  0.1226955E-005  0.1103821E+03  0.7561462E-02  0.1259864E+00
         -3   -1    0    0    0  501 -0.00000000000E+00  0.00000000000E+00  0.41468359717E+02  0.41468359717E+02  0.00000000000E+00 0.  1.
          3   -1    0    0  501    0  0.00000000000E+00 -0.00000000000E+00 -0.40570692472E+03  0.40570692472E+03  0.00000000000E+00 0. -1.
         23    2    1    2    0    0 -0.12946649365E+02  0.66882917449E+02 -0.18839321260E+03  0.23618006933E+03  0.12509229482E+03 0.  0.
          5    1    3    3  502    0 -0.52298417580E+02  0.29392791605E+02 -0.16721242314E+03  0.17769785461E+03  0.41800000000E+01 0. -1.
         -5    1    3    3    0  502  0.39351768215E+02  0.37490125844E+02 -0.21180789457E+02  0.58482214728E+02  0.41800000000E+01 0. -1.
        -11    1    1    2    0    0 -0.17354013140E+02 -0.73143574927E+02 -0.77805545308E+02  0.10818894216E+03  0.00000000000E+00 0.  1.
         11    1    1    2    0    0  0.30300662505E+02  0.62606574775E+01 -0.98039807096E+02  0.10280627294E+03  0.00000000000E+00 0. -1.
</event>
<event>
 7    1  0.1226955E-005  0.1137392E+03  0.7561462E-02  0.1253798E+00
         -2   -1    0    0    0  501 -0.00000000000E+00  0.00000000000E+00  0.98868099418E+02  0.98868099418E+02  0.00000000000E+00 0.  1.
          2   -1    0    0  501    0  0.00000000000E+00 -0.00000000000E+00 -0.22681979459E+03  0.22681979459E+03  0.00000000000E+00 0. -1.
         23    2    1    2    0    0  0.26349805542E+02  0.44157514985E+02  0.27301770249E+02  0.13797689657E+03  0.12509212184E+03 0.  0.
          5    1    3    3  502    0  0.70374631235E+02  0.20705770308E+02 -0.11852311564E+02  0.74426254339E+02  0.41800000000E+01 0.  1.
         -5    1    3    3    0  502 -0.44024825694E+02  0.23451744677E+02  0.39154081813E+02  0.63550642234E+02  0.41800000000E+01 0.  1.
        -11    1    1    2    0    0 -0.42285545472E+01 -0.69886538948E+02 -0.11889992616E+03  0.13798261282E+03  0.00000000000E+00 0. -1.
         11    1    1    2    0    0 -0.22121250994E+02  0.25729023962E+02 -0.36353539259E+02  0.49728384613E+02  0.00000000000E+00 0.  1.
</event>
<event>
 7    1  0.1226955E-005  0.8490085E+02  0.7561462E-02  0.1315692E+00
         -2   -1    0    0    0  501 -0.00000000000E+00  0.00000000000E+00  0.55729596720E+02  0.55729596720E+02  0.00000000000E+00 0.  1.
          2   -1    0    0  501    0  0.00000000000E+00 -0.00000000000E+00 -0.27730945562E+03  0.27730945562E+03  0.00000000000E+00 0. -1.
         23    2    1    2    0    0  0.56103687291E+02 -0.14685740463E+02 -0.89069078504E+02  0.16414992258E+03  0.12509437093E+03 0.  0.
          5    1    3    3  502    0  0.57340161097E+02  0.28358955330E+02  0.11248108750E+01  0.64116004410E+02  0.41800000000E+01 0.  1.
         -5    1    3    3    0  502 -0.12364738063E+01 -0.43044695793E+02 -0.90193889379E+02  0.10003391817E+03  0.41800000000E+01 0.  1.
        -11    1    1    2    0    0 -0.21376037488E+02  0.17448687388E+02 -0.13115410421E+03  0.13402533612E+03  0.00000000000E+00 0. -1.
         11    1    1    2    0    0 -0.34727649803E+02 -0.27629469250E+01 -0.13566761829E+01  0.34863793638E+02  0.00000000000E+00 0.  1.
</event>
<event>
 7    1  0.1226955E-005  0.5383132E+02  0.7561462E-02  0.1425708E+00
          2   -1    0    0  501    0  0.00000000000E+00  0.00000000000E+00  0.13646430128E+03  0.13646430128E+03  0.00000000000E+00 0.  1.
         -2   -1    0    0    0  501 -0.00000000000E+00 -0.00000000000E+00 -0.10495183125E+03  0.10495183125E+03  0.00000000000E+00 0. -1.
         23    2    1    2    0    0  0.10762077103E+02 -0.57479593947E+00 -0.34934716335E+02  0.13032503055E+03  0.12509207205E+03 0.  0.
          5    1    3    3  502    0 -0.10764392240E+02  0.19658323075E+02 -0.76123797376E+02  0.79464625673E+02  0.41800000000E+01 0.  1.
         -5    1    3    3    0  502  0.21526469343E+02 -0.20233119014E+02  0.41189081042E+02  0.50860404880E+02  0.41800000000E+01 0.  1.
        -11    1    1    2    0    0  0.21628611404E+02  0.53642014674E+01 -0.12551551398E+02  0.25575631589E+02  0.00000000000E+00 0. -1.
         11    1    1    2    0    0 -0.32390688508E+02 -0.47894055279E+01  0.78998737768E+02  0.85515470391E+02  0.00000000000E+00 0.  1.
</event>
<event>
 7    1  0.1226955E-005  0.8171403E+02  0.7561462E-02  0.1324256E+00
          2   -1    0    0  501    0  0.00000000000E+00  0.00000000000E+00  0.14001549574E+03  0.14001549574E+03  0.00000000000E+00 0. -1.
         -2   -1    0    0    0  501 -0.00000000000E+00 -0.00000000000E+00 -0.10016316905E+03  0.10016316905E+03  0.00000000000E+00 0.  1.
         23    2    1    2    0    0  0.16183157234E+02  0.23437523426E+02 -0.16404810473E+02  0.12933273117E+03  0.12508647194E+03 0.  0.
          5    1    3    3  502    0  0.61981502837E+02  0.22766501372E+02 -0.40333047492E+02  0.77487078914E+02  0.41800000000E+01 0. -1.
         -5    1    3    3    0  502 -0.45798345603E+02  0.67102205423E+00  0.23928237019E+02  0.51845652252E+02  0.41800000000E+01 0. -1.
        -11    1    1    2    0    0  0.11368722297E+02 -0.20658574541E+02 -0.19238028877E+02  0.30432323340E+02  0.00000000000E+00 0.  1.
         11    1    1    2    0    0 -0.27551879531E+02 -0.27789488848E+01  0.75495166039E+02  0.80413610277E+02  0.00000000000E+00 0. -1.
</event>
<event>
 7    1  0.1226955E-005  0.8995730E+02  0.7561462E-02  0.1302955E+00
         -2   -1    0    0    0  501 -0.00000000000E+00  0.00000000000E+00  0.46645103726E+03  0.46645103726E+03  0.00000000000E+00 0.  1.
          2   -1    0    0  501    0  0.00000000000E+00 -0.00000000000E+00 -0.28404373691E+02  0.28404373691E+02  0.00000000000E+00 0. -1.
         23    2    1    2    0    0 -0.32516518743E+02  0.42650259942E+00  0.31221751934E+03  0.33791250648E+03  0.12509027442E+03 0.  0.
          5    1    3    3  502    0  0.27760926069E+02 -0.21021663226E+02  0.23474173405E+03  0.23734728447E+03  0.41800000000E+01 0.  1.
         -5    1    3    3    0  502 -0.60277444812E+02  0.21448165826E+02  0.77475785292E+02  0.10056522200E+03  0.41800000000E+01 0.  1.
        -11    1    1    2    0    0 -0.22391510543E+02 -0.10779216606E+02  0.82714796177E+02  0.86367289883E+02  0.00000000000E+00 0.  1.
         11    1    1    2    0    0  0.54908029286E+02  0.10352714007E+02  0.43114348049E+02  0.70575614592E+02  0.00000000000E+00 0. -1.
</event>
<event>
 7    1  0.1226955E-005  0.8422207E+02  0.7561462E-02  0.1317480E+00
         -2   -1    0    0    0  501 -0.00000000000E+00  0.00000000000E+00  0.62547622797E+02  0.62547622797E+02  0.00000000000E+00 0.  1.
          2   -1    0    0  501    0  0.00000000000E+00 -0.00000000000E+00 -0.25516937279E+03  0.25516937279E+03  0.00000000000E+00 0. -1.
         23    2    1    2    0    0 -0.63674506950E+02 -0.11591532023E+02 -0.10337611257E+03  0.17489721353E+03  0.12535393174E+03 0.  0.
          5    1    3    3  502    0 -0.72341373899E+01 -0.16595800072E+01  0.29193455233E+02  0.30410806928E+02  0.41800000000E+01 0. -1.
         -5    1    3    3    0  502 -0.56440369560E+02 -0.99319520162E+01 -0.13256956780E+03  0.14448640661E+03  0.41800000000E+01 0. -1.
        -11    1    1    2    0    0 -0.15299920683E+02 -0.12652934191E+02  0.17336803752E+01  0.19929625289E+02  0.00000000000E+00 0.  1.
         11    1    1    2    0    0  0.78974427633E+02  0.24244466214E+02 -0.90979317796E+02  0.12289015676E+03  0.00000000000E+00 0. -1.
</event>
<event>
 7    1  0.1226955E-005  0.1588659E+03  0.7561462E-02  0.1189983E+00
         -1   -1    0    0    0  501 -0.00000000000E+00  0.00000000000E+00  0.15955373949E+03  0.15955373949E+03  0.00000000000E+00 0.  1.
          1   -1    0    0  501    0  0.00000000000E+00 -0.00000000000E+00 -0.18999523576E+03  0.18999523576E+03  0.00000000000E+00 0. -1.
         23    2    1    2    0    0  0.13122407695E+02 -0.13468389162E+03 -0.97653647759E+01  0.18552426627E+03  0.12653830558E+03 0.  0.
          5    1    3    3  502    0 -0.51234865130E+02 -0.43901487681E+02 -0.27088969393E+02  0.72826071487E+02  0.41800000000E+01 0. -1.
         -5    1    3    3    0  502  0.64357272825E+02 -0.90782403940E+02  0.17323604617E+02  0.11269819478E+03  0.41800000000E+01 0. -1.
        -11    1    1    2    0    0  0.99609515806E+01  0.50980049149E+02  0.33379799753E+02  0.61744611094E+02  0.00000000000E+00 0.  1.
         11    1    1    2    0    0 -0.23083359276E+02  0.83703842473E+02 -0.54055931247E+02  0.10228009788E+03  0.00000000000E+00 0. -1.
</event>
<event>
 7    1  0.1226955E-005  0.1299993E+03  0.7561462E-02  0.1227457E+00
         -1   -1    0    0    0  501 -0.00000000000E+00  0.00000000000E+00  0.15957847524E+03  0.15957847524E+03  0.00000000000E+00 0.  1.
          1   -1    0    0  501    0  0.00000000000E+00 -0.00000000000E+00 -0.37826759951E+03  0.37826759951E+03  0.00000000000E+00 0. -1.
         23    2    1    2    0    0  0.10299688863E+03 -0.12980735924E+02  0.10273619579E+03  0.18627002937E+03  0.11560683087E+03 0.  0.
          5    1    3    3  502    0 -0.12066239681E+02  0.99433575830E+01  0.58689481047E+02  0.60880145249E+02  0.41800000000E+01 0. -1.
         -5    1    3    3    0  502  0.11506312831E+03 -0.22924093507E+02  0.44046714747E+02  0.12538988412E+03  0.41800000000E+01 0.  1.
        -11    1    1    2    0    0 -0.34145304768E+02 -0.29829280976E+02 -0.46501347973E+02  0.64946618115E+02  0.00000000000E+00 0.  1.
         11    1    1    2    0    0 -0.68851583862E+02  0.42810016900E+02 -0.27492397209E+03  0.28662942727E+03  0.00000000000E+00 0. -1.
</event>
<event>
 7    1  0.1226955E-005  0.1229033E+03  0.7561462E-02  0.1238383E+00
          1   -1    0    0  501    0  0.00000000000E+00  0.00000000000E+00  0.10253053574E+04  0.10253053574E+04  0.00000000000E+00 0. -1.
         -1   -1    0    0    0  501 -0.00000000000E+00 -0.00000000000E+00 -0.15890126346E+02  0.15890126346E+02  0.00000000000E+00 0.  1.
         23    2    1    2    0    0  0.40529107940E+02  0.50422497362E+02  0.50322266464E+03  0.52255683183E+03  0.12509018929E+03 0.  0.
          5    1    3    3  502    0 -0.39511100766E+02 -0.71368143093E+00  0.87488722034E+02  0.96090505817E+02  0.41800000000E+01 0.  1.
         -5    1    3    3    0  502  0.80040208706E+02  0.51136178793E+02  0.41573394260E+03  0.42646632601E+03  0.41800000000E+01 0.  1.
        -11    1    1    2    0    0 -0.20784436678E+02  0.25299322788E+02  0.19669019632E+03  0.19939679504E+03  0.00000000000E+00 0. -1.
         11    1    1    2    0    0 -0.19744671262E+02 -0.75721820150E+02  0.30950237010E+03  0.31924185688E+03  0.00000000000E+00 0.  1.
</event>
<event>
 7    1  0.1226955E-005  0.1024109E+03  0.7561462E-02  0.1275306E+00
         -2   -1    0    0    0  501 -0.00000000000E+00  0.00000000000E+00  0.26845194051E+02  0.26845194051E+02  0.00000000000E+00 0.  1.
          2   -1    0    0  501    0  0.00000000000E+00 -0.00000000000E+00 -0.52913049329E+03  0.52913049329E+03  0.00000000000E+00 0. -1.
         23    2    1    2    0    0 -0.37047350976E+02  0.35447883970E+02 -0.30098000903E+03  0.32994803427E+03  0.12509069026E+03 0.  0.
          5    1    3    3  502    0 -0.74915718204E+01  0.80015777074E+02 -0.20048715809E+03  0.21603523136E+03  0.41800000000E+01 0.  1.
         -5    1    3    3    0  502 -0.29555779156E+02 -0.44567893103E+02 -0.10049285094E+03  0.11391280291E+03  0.41800000000E+01 0.  1.
        -11    1    1    2    0    0 -0.70059514550E+01 -0.24265226800E+02 -0.66229951894E+01  0.26110316978E+02  0.00000000000E+00 0.  1.
         11    1    1    2    0    0  0.44053302431E+02 -0.11182657171E+02 -0.19468229501E+03  0.19991733609E+03  0.00000000000E+00 0. -1.
</event>
<event>
 7    1  0.1226955E-005  0.6918993E+02  0.7561462E-02  0.1362870E+00
          1   -1    0    0  501    0  0.00000000000E+00  0.00000000000E+00  0.87943146844E+02  0.87943146844E+02  0.00000000000E+00 0. -1.
         -1   -1    0    0    0  501 -0.00000000000E+00 -0.00000000000E+00 -0.17652653633E+03  0.17652653633E+03  0.00000000000E+00 0.  1.
         23    2    1    2    0    0 -0.44190388787E+02  0.33925713070E+02 -0.76751310438E+02  0.15696368814E+03  0.12507234415E+03 0.  0.
          5    1    3    3  502    0 -0.58913388542E+02  0.26651184284E+02  0.12608335239E+02  0.66011479993E+02  0.41800000000E+01 0. -1.
         -5    1    3    3    0  502  0.14722999755E+02  0.72745287853E+01 -0.89359645677E+02  0.90952208145E+02  0.41800000000E+01 0. -1.
        -11    1    1    2    0    0  0.17659504534E+02 -0.74817440369E+01 -0.50288180923E+02  0.53821331596E+02  0.00000000000E+00 0.  1.
         11    1    1    2    0    0  0.26530884253E+02 -0.26443969033E+02  0.38456101874E+02  0.53684663441E+02  0.00000000000E+00 0. -1.
</event>
<event>
 6    1  0.1226955E-005  0.1427395E+03  0.7561462E-02  0.1209690E+00
         -2   -1    0    0    0  501 -0.00000000000E+00  0.00000000000E+00  0.90040763379E+02  0.90040763379E+02  0.00000000000E+00 0.  1.
          2   -1    0    0  501    0  0.00000000000E+00 -0.00000000000E+00 -0.41377225592E+03  0.41377225592E+03  0.00000000000E+00 0. -1.
          5    1    1    2  502    0 -0.60530872919E+02  0.53264762939E+02 -0.15597580241E+03  0.17563326816E+03  0.41800000000E+01 0. -1.
         -5    1    1    2    0  502  0.88495652950E+02  0.15486919999E+02  0.33017678597E+02  0.95806914062E+02  0.41800000000E+01 0.  1.
        -11    1    1    2    0    0  0.30376284253E+02 -0.38637954429E+02 -0.10863482705E+03  0.11923563148E+03  0.00000000000E+00 0.  1.
         11    1    1    2    0    0 -0.58341064284E+02 -0.30113728509E+02 -0.92138541678E+02  0.11313720559E+03  0.00000000000E+00 0. -1.
</event>
<event>
 7    1  0.1226955E-005  0.1136906E+03  0.7561462E-02  0.1253884E+00
          1   -1    0    0  501    0  0.00000000000E+00  0.00000000000E+00  0.89576079771E+02  0.89576079771E+02  0.00000000000E+00 0. -1.
         -1   -1    0    0    0  501 -0.00000000000E+00 -0.00000000000E+00 -0.24405348514E+03  0.24405348514E+03  0.00000000000E+00 0.  1.
         23    2    1    2    0    0 -0.69852410598E+02 -0.20303582304E+02 -0.16133186941E+03  0.21671894242E+03  0.12509010031E+03 0.  0.
          5    1    3    3  502    0  0.14523382532E+02  0.12988184672E+02 -0.11125061108E+03  0.11302120353E+03  0.41800000000E+01 0.  1.
         -5    1    3    3    0  502 -0.84375793131E+02 -0.33291766975E+02 -0.50081258331E+02  0.10369773889E+03  0.41800000000E+01 0.  1.
        -11    1    1    2    0    0 -0.10120335637E+02 -0.23415315144E+02  0.30255119781E+01  0.25687582592E+02  0.00000000000E+00 0. -1.
         11    1    1    2    0    0  0.79972746235E+02  0.43718897447E+02  0.38289520669E+01  0.91223039899E+02  0.00000000000E+00 0.  1.
</event>
<event>
 7    1  0.1226955E-005  0.1231788E+03  0.7561462E-02  0.1237943E+00
          1   -1    0    0  501    0  0.00000000000E+00  0.00000000000E+00  0.64214256653E+02  0.64214256653E+02  0.00000000000E+00 0. -1.
         -1   -1    0    0    0  501 -0.00000000000E+00 -0.00000000000E+00 -0.27995148136E+03  0.27995148136E+03  0.00000000000E+00 0.  1.
         23    2    1    2    0    0 -0.74818935924E+02 -0.21399683323E+01 -0.14322248269E+03  0.20435757856E+03  0.12508752027E+03 0.  0.
          5    1    3    3  502    0 -0.82987965785E+02  0.37911849893E+02 -0.53936123088E+02  0.10607020600E+03  0.41800000000E+01 0. -1.
         -5    1    3    3    0  502  0.81690298618E+01 -0.40051818226E+02 -0.89286359605E+02  0.98287372554E+02  0.41800000000E+01 0. -1.
        -11    1    1    2    0    0 -0.19379933529E+02 -0.29265279341E+01 -0.31148930403E+02  0.36802204481E+02  0.00000000000E+00 0.  1.
         11    1    1    2    0    0  0.94198869453E+02  0.50664962664E+01 -0.41365811614E+02  0.10300595498E+03  0.00000000000E+00 0. -1.
</event>
<event>
 7    1  0.1226955E-005  0.1038555E+03  0.7561462E-02  0.1272391E+00
         -3   -1    0    0    0  501 -0.00000000000E+00  0.00000000000E+00  0.77804722624E+02  0.77804722624E+02  0.00000000000E+00 0.  1.
          3   -1    0    0  501    0  0.00000000000E+00 -0.00000000000E+00 -0.23242679391E+03  0.23242679391E+03  0.00000000000E+00 0. -1.
         23    2    1    2    0    0  0.36377421025E+02  0.77273713976E+02 -0.93464399882E+02  0.17798259465E+03  0.12509063242E+03 0.  0.
          5    1    3    3  502    0  0.10501554109E+02  0.58799678928E+02 -0.12145831460E+03  0.13541521135E+03  0.41800000000E+01 0. -1.
         -5    1    3    3    0  502  0.25875866916E+02  0.18474035047E+02  0.27993914714E+02  0.42567383295E+02  0.41800000000E+01 0. -1.
        -11    1    1    2    0    0  0.19617899939E+02  0.86448659443E+00 -0.29176532584E+01  0.19852507036E+02  0.00000000000E+00 0.  1.
         11    1    1    2    0    0 -0.55995320964E+02 -0.78138200570E+02 -0.58240018149E+02  0.11239641486E+03  0.00000000000E+00 0. -1.
</event>
<event>
 7    1  0.1226955E-005  0.2243496E+03  0.7561462E-02  0.1130681E+00
          3   -1    0    0  501    0  0.00000000000E+00  0.00000000000E+00  0.16772925844E+03  0.16772925844E+03  0.00000000000E+00 0. -1.
         -3   -1    0    0    0  501 -0.00000000000E+00 -0.00000000000E+00 -0.35469195539E+03  0.35469195539E+03  0.00000000000E+00 0.  1.
         23    2    1    2    0    0 -0.16593932575E+03  0.13215408480E+03 -0.13608130932E+03  0.28136405282E+03  0.12508815098E+03 0.  0.
          5    1    3    3  502    0 -0.20243061154E+02 -0.17412029901E+02  0.73542578861E+01  0.28009245245E+02  0.41800000000E+01 0. -1.
         -5    1    3    3    0  502 -0.14569626460E+03  0.14956611470E+03 -0.14343556720E+03  0.25335480758E+03  0.41800000000E+01 0. -1.
        -11    1    1    2    0    0  0.85256130696E+02 -0.56900311137E+02 -0.76367189540E+02  0.12782097194E+03  0.00000000000E+00 0.  1.
         11    1    1    2    0    0  0.80683195056E+02 -0.75253773662E+02  0.25485801908E+02  0.11323618906E+03  0.00000000000E+00 0. -1.
</event>
<event>
 7    1  0.1226955E-005  0.7810536E+02  0.7561462E-02  0.1334516E+00
          3   -1    0    0  501    0  0.00000000000E+00  0.00000000000E+00  0.43447326744E+02  0.43447326744E+02  0.00000000000E+00 0. -1.
         -3   -1    0    0    0  501 -0.00000000000E+00 -0.00000000000E+00 -0.29149938587E+03  0.29149938587E+03  0.00000000000E+00 0.  1.
         23    2    1    2    0    0  0.23070160379E+02 -0.17238970417E+02 -0.16250318269E+03  0.20708452976E+03  0.12508918291E+03 0.  0.
          5    1    3    3  502    0  0.47759987808E+02 -0.21123550352E+02 -0.11071095122E+02  0.53546824015E+02  0.41800000000E+01 0. -1.
         -5    1    3    3    0  502 -0.24689827429E+02  0.38845799355E+01 -0.15143208757E+03  0.15353770575E+03  0.41800000000E+01 0. -1.
        -11    1    1    2    0    0 -0.10942084851E+02  0.45991103469E+02 -0.84277045109E+02  0.96630901638E+02  0.00000000000E+00 0.  1.
         11    1    1    2    0    0 -0.12128075529E+02 -0.28752133052E+02 -0.12718313188E+01  0.31231281209E+02  0.00000000000E+00 0. -1.
</event>
<event>
 6    1  0.1226955E-005  0.1318117E+03  0.7561462E-02  0.1224792E+00
          1   -1    0    0  501    0  0.00000000000E+00  0.00000000000E+00  0.44371992402E+03  0.44371992402E+03  0.00000000000E+00 0. -1.
         -1   -1    0    0    0  501 -0.00000000000E+00 -0.00000000000E+00 -0.75547112474E+02  0.75547112474E+02  0.00000000000E+00 0.  1.
          5    1    1    2  502    0 -0.89132201743E+02  0.61203191267E+02  0.28139638956E+03  0.30148263709E+03  0.41800000000E+01 0. -1.
         -5    1    1    2    0  502  0.61061520388E+02 -0.29760550698E+02 -0.20497517532E+02  0.71076158274E+02  0.41800000000E+01 0.  1.
        -11    1    1    2    0    0  0.72560174899E+00  0.24808221323E+02  0.69127861741E+02  0.73448183177E+02  0.00000000000E+00 0. -1.
         11    1    1    2    0    0  0.27345079605E+02 -0.56250861891E+02  0.38146077782E+02  0.73260057960E+02  0.00000000000E+00 0.  1.
</event>
<event>
 7    1  0.1226955E-005  0.8340416E+02  0.7561462E-02  0.1319659E+00
          2   -1    0    0  501    0  0.00000000000E+00  0.00000000000E+00  0.19082373210E+03  0.19082373210E+03  0.00000000000E+00 0. -1.
         -2   -1    0    0    0  501 -0.00000000000E+00 -0.00000000000E+00 -0.80565764584E+02  0.80565764584E+02  0.00000000000E+00 0.  1.
         23    2    1    2    0    0  0.13190951691E+02  0.18925015207E+02 -0.23331558637E+00  0.12719887231E+03  0.12508933317E+03 0.  0.
          5    1    3    3  502    0  0.23475059252E+02  0.65793650638E+02 -0.23349374802E+02  0.73773630620E+02  0.41800000000E+01 0.  1.
         -5    1    3    3    0  502 -0.10284107561E+02 -0.46868635432E+02  0.23116059216E+02  0.53425241686E+02  0.41800000000E+01 0.  1.
        -11    1    1    2    0    0 -0.21709007271E+02  0.58333964580E+01 -0.72140961781E+01  0.23608318335E+02  0.00000000000E+00 0.  1.
         11    1    1    2    0    0  0.85180555808E+01 -0.24758411665E+02  0.11770537928E+03  0.12058230604E+03  0.00000000000E+00 0. -1.
</event>
<event>
 7    1  0.1226955E-005  0.1412220E+03  0.7561462E-02  0.1211694E+00
         -1   -1    0    0    0  501 -0.00000000000E+00  0.00000000000E+00  0.62886243490E+03  0.62886243490E+03  0.00000000000E+00 0.  1.
          1   -1    0    0  501    0  0.00000000000E+00 -0.00000000000E+00 -0.50293188066E+02  0.50293188066E+02  0.00000000000E+00 0. -1.
         23    2    1    2    0    0  0.72734023599E+02  0.67972771477E+02  0.49446663037E+03  0.51966894075E+03  0.12509206042E+03 0.  0.
          5    1    3    3  502    0  0.10194019325E+03  0.43211199216E+02  0.43444462246E+03  0.44835099322E+03  0.41800000000E+01 0.  1.
         -5    1    3    3    0  502 -0.29206169646E+02  0.24761572261E+02  0.60022007906E+02  0.71317947526E+02  0.41800000000E+01 0.  1.
        -11    1    1    2    0    0 -0.30283491467E+01 -0.63184622160E+02  0.25166553195E+02  0.68079532723E+02  0.00000000000E+00 0. -1.
         11    1    1    2    0    0 -0.69705674452E+02 -0.47881493168E+01  0.58936063266E+02  0.91407149491E+02  0.00000000000E+00 0.  1.
</event>
<event>
 7    1  0.1226955E-005  0.1073876E+03  0.7561462E-02  0.1265486E+00
         -1   -1    0    0    0  501 -0.00000000000E+00  0.00000000000E+00  0.22632185331E+03  0.22632185331E+03  0.00000000000E+00 0.  1.
          1   -1    0    0  501    0  0.00000000000E+00 -0.00000000000E+00 -0.77521704139E+02  0.77521704139E+02  0.00000000000E+00 0. -1.
         23    2    1    2    0    0  0.73967419682E+02 -0.19096890865E+02  0.76612122863E+02  0.16538731781E+03  0.12509067554E+03 0.  0.
          5    1    3    3  502    0  0.66495831482E+01  0.21995168478E+02  0.82929760046E+02  0.86155800117E+02  0.41800000000E+01 0.  1.
         -5    1    3    3    0  502  0.67317836534E+02 -0.41092059343E+02 -0.63176371834E+01  0.79231517695E+02  0.41800000000E+01 0.  1.
        -11    1    1    2    0    0 -0.85706524603E+02  0.35081366179E+02  0.73998807908E+02  0.11854169808E+03  0.00000000000E+00 0.  1.
         11    1    1    2    0    0  0.11739104920E+02 -0.15984475315E+02 -0.18107815986E+01  0.19914541557E+02  0.00000000000E+00 0. -1.
</event>
<event>
 7    1  0.1226955E-005  0.9754941E+02  0.7561462E-02  0.1285535E+00
         -2   -1    0    0    0  501 -0.00000000000E+00  0.00000000000E+00  0.13815034833E+03  0.13815034833E+03  0.00000000000E+00 0.  1.
          2   -1    0    0  501    0  0.00000000000E+00 -0.00000000000E+00 -0.11969107650E+03  0.11969107650E+03  0.00000000000E+00 0. -1.
         23    2    1    2    0    0 -0.19772096604E+02  0.30974043798E+01  0.77759373302E+02  0.14863815560E+03  0.12508497689E+03 0.  0.
          5    1    3    3  502    0  0.24010519518E+02  0.46264341358E+02  0.38865475839E+01  0.52435407703E+02  0.41800000000E+01 0.  1.
         -5    1    3    3    0  502 -0.43782616122E+02 -0.43166936978E+02  0.73872825718E+02  0.96202747893E+02  0.41800000000E+01 0.  1.
        -11    1    1    2    0    0 -0.23006277844E+02 -0.24277727628E+02 -0.50641258761E+02  0.60689652890E+02  0.00000000000E+00 0. -1.
         11    1    1    2    0    0  0.42778374448E+02  0.21180323248E+02 -0.86588427159E+01  0.48513616341E+02  0.00000000000E+00 0.  1.
</event>
<event>
 6    1  0.1226955E-005  0.2184718E+03  0.7561462E-02  0.1135028E+00
          1   -1    0    0  501    0  0.00000000000E+00  0.00000000000E+00  0.92403250802E+03  0.92403250802E+03  0.00000000000E+00 0. -1.
         -1   -1    0    0    0  501 -0.00000000000E+00 -0.00000000000E+00 -0.17787178380E+03  0.17787178380E+03  0.00000000000E+00 0.  1.
          5    1    1    2  502    0  0.45522983705E+02  0.21620842235E+02 -0.62873631176E+02  0.80686856188E+02  0.41800000000E+01 0. -1.
         -5    1    1    2    0  502 -0.48022101407E+01  0.17165388898E+03 -0.11268371048E+02  0.17214112643E+03  0.41800000000E+01 0.  1.
        -11    1    1    2    0    0 -0.28464868860E+02 -0.89047763801E+01  0.65255787456E+02  0.71748599973E+02  0.00000000000E+00 0.  1.
         11    1    1    2    0    0 -0.12255904704E+02 -0.18436995483E+03  0.75504693899E+03  0.77732770922E+03  0.00000000000E+00 0. -1.
</event>
<event>
 7    1  0.1226955E-005  0.1178668E+03  0.7561462E-02  0.1246658E+00
          1   -1    0    0  501    0  0.00000000000E+00  0.00000000000E+00  0.40017254024E+03  0.40017254024E+03  0.00000000000E+00 0. -1.
         -1   -1    0    0    0  501 -0.00000000000E+00 -0.00000000000E+00 -0.21037834127E+03  0.21037834127E+03  0.00000000000E+00 0.  1.
         23    2    1    2    0    0 -0.83150707353E+02 -0.18258088708E+02 -0.17050041712E+03  0.22796173429E+03  0.12509501240E+03 0.  0.
          5    1    3    3  502    0 -0.91640695210E+02 -0.29475438521E+02 -0.18420368390E+03  0.20788287100E+03  0.41800000000E+01 0. -1.
         -5    1    3    3    0  502  0.84899878579E+01  0.11217349813E+02  0.13703266778E+02  0.20078863290E+02  0.41800000000E+01 0. -1.
        -11    1    1    2    0    0  0.39702930477E+02  0.54978737391E+02  0.24207455417E+03  0.25139426013E+03  0.00000000000E+00 0. -1.
         11    1    1    2    0    0  0.43447776876E+02 -0.36720648683E+02  0.11822006193E+03  0.13119488709E+03  0.00000000000E+00 0.  1.
</event>
<event>
 7    1  0.1226955E-005  0.6048864E+02  0.7561462E-02  0.1395793E+00
         -2   -1    0    0    0  501 -0.00000000000E+00  0.00000000000E+00  0.33237600191E+03  0.33237600191E+03  0.00000000000E+00 0. -1.
          2   -1    0    0  501    0  0.00000000000E+00 -0.00000000000E+00 -0.40104201910E+02  0.40104201910E+02  0.00000000000E+00 0.  1.
         23    2    1    2    0    0 -0.26487838400E+02  0.50306587044E+01  0.21280174149E+03  0.24830857806E+03  0.12508259531E+03 0.  0.
          5    1    3    3  502    0 -0.33145727054E+02 -0.19936575219E+02  0.21815016790E+03  0.22159213526E+03  0.41800000000E+01 0. -1.
         -5    1    3    3    0  502  0.66578886537E+01  0.24967233923E+02 -0.53484264101E+01  0.26716442805E+02  0.41800000000E+01 0. -1.
        -11    1    1    2    0    0 -0.19457827095E+01  0.18737078525E+02  0.84678283129E+02  0.86748347625E+02  0.00000000000E+00 0. -1.
         11    1    1    2    0    0  0.28433621110E+02 -0.23767737230E+02 -0.52082246189E+01  0.37423278132E+02  0.00000000000E+00 0.  1.
</event>
<event>
 7    1  0.1226955E-005  0.2200955E+03  0.7561462E-02  0.1133812E+00
         -1   -1    0    0    0  501 -0.00000000000E+00  0.00000000000E+00  0.78207695086E+02  0.78207695086E+02  0.00000000000E+00 0. -1.
          1   -1    0    0  501    0  0.00000000000E+00 -0.00000000000E+00 -0.74752676592E+03  0.74752676592E+03  0.00000000000E+00 0.  1.
         23    2    1    2    0    0  0.12314338530E+03 -0.16639051017E+03 -0.24164891511E+03  0.34189613282E+03  0.12509465315E+03 0.  0.
          5    1    3    3  502    0  0.13945688460E+03 -0.12627224563E+03 -0.15072567023E+03  0.24109874065E+03  0.41800000000E+01 0.  1.
         -5    1    3    3    0  502 -0.16313499294E+02 -0.40118264548E+02 -0.90923244874E+02  0.10079739217E+03  0.41800000000E+01 0.  1.
        -11    1    1    2    0    0 -0.70152928618E+02  0.11486755953E+03 -0.35720259380E+03  0.38171937683E+03  0.00000000000E+00 0.  1.
         11    1    1    2    0    0 -0.52990456685E+02  0.51522950647E+02 -0.70467561926E+02  0.10211895136E+03  0.00000000000E+00 0. -1.
</event>
<event>
 7    1  0.1226955E-005  0.8374511E+02  0.7561462E-02  0.1318747E+00
         -2   -1    0    0    0  501 -0.00000000000E+00  0.00000000000E+00  0.36500589478E+02  0.36500589478E+02  0.00000000000E+00 0. -1.
          2   -1    0    0  501    0  0.00000000000E+00 -0.00000000000E+00 -0.32627003098E+03  0.32627003098E+03  0.00000000000E+00 0.  1.
         23    2    1    2    0    0  0.77102916892E+00 -0.78105446486E+01 -0.16761926964E+03  0.20930133622E+03  0.12509688523E+03 0.  0.
          5    1    3    3  502    0  0.44676631228E+02 -0.26258766083E+02 -0.22754163658E+02  0.56751639076E+02  0.41800000000E+01 0.  1.
         -5    1    3    3    0  502 -0.43905602059E+02  0.18448221434E+02 -0.14486510598E+03  0.15254969714E+03  0.41800000000E+01 0.  1.
        -11    1    1    2    0    0 -0.16018639334E+02  0.33888904084E+02 -0.11695758952E+03  0.12281747585E+03  0.00000000000E+00 0.  1.
         11    1    1    2    0    0  0.15247610165E+02 -0.26078359436E+02 -0.51925823376E+01  0.30651808396E+02  0.00000000000E+00 0. -1.
</event>
<event>
 7    1  0.1226955E-005  0.8646787E+02  0.7561462E-02  0.1311638E+00
         -1   -1    0    0    0  501 -0.00000000000E+00  0.00000000000E+00  0.29772792655E+03  0.29772792655E+03  0.00000000000E+00 0.  1.
          1   -1    0    0  501    0  0.00000000000E+00 -0.00000000000E+00 -0.54888044908E+02  0.54888044908E+02  0.00000000000E+00 0. -1.
         23    2    1    2    0    0  0.48924711256E+02  0.27496348041E+02  0.19211731137E+03  0.23602165775E+03  0.12508990796E+03 0.  0.
          5    1    3    3  502    0  0.20103839971E+02  0.33670754529E+02  0.20109651177E+03  0.20492721522E+03  0.41800000000E+01 0. -1.
         -5    1    3    3    0  502  0.28820871286E+02 -0.61744064880E+01 -0.89792003911E+01  0.31094442539E+02  0.41800000000E+01 0. -1.
        -11    1    1    2    0    0  0.15863561646E+01  0.28368968579E+02  0.22207449296E+02  0.36062247688E+02  0.00000000000E+00 0.  1.
         11    1    1    2    0    0 -0.50511067421E+02 -0.55865316619E+02  0.28515120974E+02  0.80532066018E+02  0.00000000000E+00 0. -1.
</event>
<event>
 7    1  0.1226955E-005  0.9033056E+02  0.7561462E-02  0.1302053E+00
         -2   -1    0    0    0  501 -0.00000000000E+00  0.00000000000E+00  0.14342116486E+03  0.14342116486E+03  0.00000000000E+00 0.  1.
          2   -1    0    0  501    0  0.00000000000E+00 -0.00000000000E+00 -0.94763238642E+02  0.94763238642E+02  0.00000000000E+00 0. -1.
         23    2    1    2    0    0  0.43613385403E+02  0.49934312813E+01  0.27213187756E+02  0.13533303627E+03  0.12508961338E+03 0.  0.
          5    1    3    3  502    0  0.56517073472E+02 -0.47107561208E+02 -0.27002201056E+01  0.73743240405E+02  0.41800000000E+01 0. -1.
         -5    1    3    3    0  502 -0.12903688069E+02  0.52100992489E+02  0.29913407862E+02  0.61589795860E+02  0.41800000000E+01 0. -1.
        -11    1    1    2    0    0 -0.58838258545E+01  0.10743946371E+02 -0.32750772717E+02  0.34966625571E+02  0.00000000000E+00 0. -1.
         11    1    1    2    0    0 -0.37729559549E+02 -0.15737377653E+02  0.54195511179E+02  0.67884741666E+02  0.00000000000E+00 0.  1.
</event>
<event>
 7    1  0.1226955E-005  0.9508437E+02  0.7561462E-02  0.1290986E+00
         -1   -1    0    0    0  501 -0.00000000000E+00  0.00000000000E+00  0.84456380756E+02  0.84456380756E+02  0.00000000000E+00 0.  1.
          1   -1    0    0  501    0  0.00000000000E+00 -0.00000000000E+00 -0.15725051152E+03  0.15725051152E+03  0.00000000000E+00 0. -1.
         23    2    1    2    0    0 -0.77764589887E+01  0.22262472051E+02 -0.67617965735E+01  0.12747243795E+03  0.12508960616E+03 0.  0.
          5    1    3    3  502    0 -0.18861856258E+02 -0.34253395406E+02 -0.43804993797E+02  0.58867772167E+02  0.41800000000E+01 0. -1.
         -5    1    3    3    0  502  0.11085397269E+02  0.56515867457E+02  0.37043197223E+02  0.68604665786E+02  0.41800000000E+01 0. -1.
        -11    1    1    2    0    0 -0.23968673963E+02  0.25980333015E+02 -0.22306448093E+02  0.41797759050E+02  0.00000000000E+00 0. -1.
         11    1    1    2    0    0  0.31745132952E+02 -0.48242805066E+02 -0.43725886094E+02  0.72436695269E+02  0.00000000000E+00 0.  1.
</event>
<event>
 7    1  0.1226955E-005  0.9412133E+02  0.7561462E-02  0.1293167E+00
          2   -1    0    0  501    0  0.00000000000E+00  0.00000000000E+00  0.72204086922E+02  0.72204086922E+02  0.00000000000E+00 0.  1.
         -2   -1    0    0    0  501 -0.00000000000E+00 -0.00000000000E+00 -0.23509403980E+03  0.23509403980E+03  0.00000000000E+00 0. -1.
         23    2    1    2    0    0  0.54926126388E+02  0.44915093871E+02 -0.10876300226E+03  0.18030742292E+03  0.12508849300E+03 0.  0.
          5    1    3    3  502    0 -0.11251356057E+02 -0.19440111634E+02 -0.80497398698E+02  0.83676845965E+02  0.41800000000E+01 0.  1.
         -5    1    3    3    0  502  0.66177482445E+02  0.64355205505E+02 -0.28265603565E+02  0.96630576958E+02  0.41800000000E+01 0.  1.
        -11    1    1    2    0    0 -0.20465728271E+02 -0.27783913332E+02  0.22533143734E+02  0.41213279901E+02  0.00000000000E+00 0.  1.
         11    1    1    2    0    0 -0.34460398118E+02 -0.17131180539E+02 -0.76660094348E+02  0.85777423898E+02  0.00000000000E+00 0. -1.
</event>
<event>
 7    1  0.1226955E-005  0.1115458E+03  0.7561462E-02  0.1257734E+00
          1   -1    0    0  501    0  0.00000000000E+00  0.00000000000E+00  0.50305715116E+03  0.50305715116E+03  0.00000000000E+00 0. -1.
         -1   -1    0    0    0  501 -0.00000000000E+00 -0.00000000000E+00 -0.28954607726E+02  0.28954607726E+02  0.00000000000E+00 0.  1.
         23    2    1    2    0    0  0.39155638130E+02 -0.13803248795E+02  0.19610427377E+03  0.23627947595E+03  0.12508961143E+03 0.  0.
          5    1    3    3  502    0  0.75661353687E+02  0.13104805953E+02  0.16218432278E+03  0.17949262753E+03  0.41800000000E+01 0.  1.
         -5    1    3    3    0  502 -0.36505715556E+02 -0.26908054748E+02  0.33919950992E+02  0.56786848424E+02  0.41800000000E+01 0.  1.
        -11    1    1    2    0    0  0.30265141201E+02  0.35369658566E+01  0.93420163340E+02  0.98264010797E+02  0.00000000000E+00 0.  1.
         11    1    1    2    0    0 -0.69420779332E+02  0.10266282938E+02  0.18457810632E+03  0.19746827214E+03  0.00000000000E+00 0. -1.
</event>
<event>
 7    1  0.1226955E-005  0.8428693E+02  0.7561462E-02  0.1317308E+00
         -2   -1    0    0    0  501 -0.00000000000E+00  0.00000000000E+00  0.19582130721E+03  0.19582130721E+03  0.00000000000E+00 0.  1.
          2   -1    0    0  501    0  0.00000000000E+00 -0.00000000000E+00 -0.60920834495E+02  0.60920834495E+02  0.00000000000E+00 0. -1.
         23    2    1    2    0    0 -0.35709854266E+01 -0.42289448869E+01  0.78837754839E+02  0.14796461375E+03  0.12508996531E+03 0.  0.
          5    1    3    3  502    0 -0.41105075996E+02  0.33293638173E+02  0.27463253802E+00  0.53062618089E+02  0.41800000000E+01 0. -1.
         -5    1    3    3    0  502  0.37534090569E+02 -0.37522583060E+02  0.78563122301E+02  0.94901995659E+02  0.41800000000E+01 0. -1.
        -11    1    1    2    0    0  0.16978553808E+02 -0.24940550407E+02 -0.12819392417E+02  0.32781689492E+02  0.00000000000E+00 0. -1.
         11    1    1    2    0    0 -0.13407568381E+02  0.29169495294E+02  0.68882110296E+02  0.75995838468E+02  0.00000000000E+00 0.  1.
</event>
<event>
 7    1  0.1226955E-005  0.8627383E+02  0.7561462E-02  0.1312135E+00
         -2   -1    0    0    0  501 -0.00000000000E+00  0.00000000000E+00  0.16098065222E+03  0.16098065222E+03  0.00000000000E+00 0.  1.
          2   -1    0    0  501    0  0.00000000000E+00 -0.00000000000E+00 -0.89576280269E+02  0.89576280269E+02  0.00000000000E+00 0. -1.
         23    2    1    2    0    0  0.54376693033E+02 -0.52302000369E+01  0.58887931914E+02  0.14865872568E+03  0.12508976160E+03 0.  0.
          5    1    3    3  502    0  0.49343305176E+02  0.32850410512E+02 -0.18435048240E+02  0.62219246541E+02  0.41800000000E+01 0.  1.
         -5    1    3    3    0  502  0.50333878572E+01 -0.38080610549E+02  0.77322980154E+02  0.86439479135E+02  0.41800000000E+01 0.  1.
        -11    1    1    2    0    0 -0.15203203355E+02 -0.22024144225E+02  0.39016272088E+02  0.47312469908E+02  0.00000000000E+00 0.  1.
         11    1    1    2    0    0 -0.39173489678E+02  0.27254344262E+02 -0.26499832052E+02  0.54585736906E+02  0.00000000000E+00 0. -1.
</event>
<event>
 7    1  0.1792268E-005  0.1779152E+03  0.7561462E-02  0.1169836E+00
          2   -1    0    0  501    0  0.00000000000E+00  0.00000000000E+00  0.11452632859E+04  0.11452632859E+04  0.00000000000E+00 0. -1.
         -2   -1    0    0    0  501 -0.00000000000E+00 -0.00000000000E+00 -0.33224597568E+02  0.33224597568E+02  0.00000000000E+00 0.  1.
         23    2    1    2    0    0  0.67292484640E+02 -0.12603861358E+03  0.35469467304E+03  0.40233032820E+03  0.12508945319E+03 0.  0.
          5    1    3    3  502    0  0.66486741370E+02 -0.39940716163E+01  0.14603980170E+03  0.16056629617E+03  0.41800000000E+01 0.  1.
         -5    1    3    3    0  502  0.80574326975E+00 -0.12204454197E+03  0.20865487134E+03  0.24176403202E+03  0.41800000000E+01 0.  1.
        -11    1    1    2    0    0 -0.35743917363E+01  0.96802944434E+02  0.50760727457E+03  0.51676757980E+03  0.00000000000E+00 0.  1.
         11    1    1    2    0    0 -0.63718092904E+02  0.29235669148E+02  0.24973674072E+03  0.25938997548E+03  0.00000000000E+00 0. -1.
</event>
<event>
 7    1  0.1226955E-005  0.1211882E+03  0.7561462E-02  0.1241150E+00
         -1   -1    0    0    0  501 -0.00000000000E+00  0.00000000000E+00  0.95592148801E+02  0.95592148801E+02  0.00000000000E+00 0.  1.
          1   -1    0    0  501    0  0.00000000000E+00 -0.00000000000E+00 -0.26632734830E+03  0.26632734830E+03  0.00000000000E+00 0. -1.
         23    2    1    2    0    0 -0.40330542415E+02  0.10896656269E+03 -0.88301878162E+02  0.19221273651E+03  0.12509296524E+03 0.  0.
          5    1    3    3  502    0 -0.34081372331E+02  0.10367214616E+03 -0.11820202927E+03  0.16093056252E+03  0.41800000000E+01 0. -1.
         -5    1    3    3    0  502 -0.62491700842E+01  0.52944165375E+01  0.29900151110E+02  0.31282173991E+02  0.41800000000E+01 0. -1.
        -11    1    1    2    0    0  0.41777591686E+02 -0.50740207432E+02  0.35854973924E+01  0.65823944039E+02  0.00000000000E+00 0.  1.
         11    1    1    2    0    0 -0.14470492710E+01 -0.58226355263E+02 -0.86018818727E+02  0.10388281655E+03  0.00000000000E+00 0. -1.
</event>
<event>
 7    1  0.1226955E-005  0.9701963E+02  0.7561462E-02  0.1286691E+00
         -1   -1    0    0    0  501 -0.00000000000E+00  0.00000000000E+00  0.15170529830E+02  0.15170529830E+02  0.00000000000E+00 0.  1.
          1   -1    0    0  501    0  0.00000000000E+00 -0.00000000000E+00 -0.79333121690E+03  0.79333121690E+03  0.00000000000E+00 0. -1.
         23    2    1    2    0    0 -0.20363860776E+02  0.20426232869E+01 -0.40235153728E+03  0.42184502198E+03  0.12509038286E+03 0.  0.
          5    1    3    3  502    0  0.24832063845E+02 -0.37379697839E+02 -0.29820808966E+03  0.30159477838E+03  0.41800000000E+01 0.  1.
         -5    1    3    3    0  502 -0.45195924621E+02  0.39422321126E+02 -0.10414344762E+03  0.12025024360E+03  0.41800000000E+01 0.  1.
        -11    1    1    2    0    0 -0.31797902867E+02  0.13317003080E+02 -0.18798253493E+03  0.19111745770E+03  0.00000000000E+00 0. -1.
         11    1    1    2    0    0  0.52161763644E+02 -0.15359626367E+02 -0.18782661486E+03  0.19553926705E+03  0.00000000000E+00 0.  1.
</event>
<event>
 7    1  0.1226955E-005  0.1027627E+03  0.7561462E-02  0.1274591E+00
         -1   -1    0    0    0  501 -0.00000000000E+00  0.00000000000E+00  0.71716767030E+02  0.71716767030E+02  0.00000000000E+00 0.  1.
          1   -1    0    0  501    0  0.00000000000E+00 -0.00000000000E+00 -0.17568545972E+03  0.17568545972E+03  0.00000000000E+00 0. -1.
         23    2    1    2    0    0 -0.48320152174E+01 -0.14362372007E+02 -0.56083796475E+02  0.13792784898E+03  0.12509625573E+03 0.  0.
          5    1    3    3  502    0  0.36006424838E+02 -0.43728468278E+02 -0.65378538122E+02  0.86605237801E+02  0.41800000000E+01 0. -1.
         -5    1    3    3    0  502 -0.40838440055E+02  0.29366096271E+02  0.92947416470E+01  0.51322611183E+02  0.41800000000E+01 0. -1.
        -11    1    1    2    0    0  0.50544943782E+02  0.14339642033E+02 -0.22175634710E+02  0.57027848025E+02  0.00000000000E+00 0.  1.
         11    1    1    2    0    0 -0.45712928565E+02  0.22729974208E-01 -0.25709261500E+02  0.52446529737E+02  0.00000000000E+00 0. -1.
</event>
<event>
 7    1  0.1226955E-005  0.7746371E+02  0.7561462E-02  0.1336407E+00
         -1   -1    0    0    0  501 -0.00000000000E+00  0.00000000000E+00  0.35658165247E+02  0.35658165247E+02  0.00000000000E+00 0.  1.
          1   -1    0    0  501    0  0.00000000000E+00 -0.00000000000E+00 -0.38937000610E+03  0.38937000610E+03  0.00000000000E+00 0. -1.
         23    2    1    2    0    0 -0.39411993085E+02  0.12952486081E+02 -0.16799199421E+03  0.21351746025E+03  0.12508926260E+03 0.  0.
          5    1    3    3  502    0  0.11647686030E+01 -0.86526556239E+01 -0.16706822486E+03  0.16734840690E+03  0.41800000000E+01 0. -1.
         -5    1    3    3    0  502 -0.40576761688E+02  0.21605141705E+02 -0.92376935201E+00  0.46169053347E+02  0.41800000000E+01 0. -1.
        -11    1    1    2    0    0 -0.20472618526E+02  0.21754374603E+02 -0.77406708824E+02  0.82970955729E+02  0.00000000000E+00 0. -1.
         11    1    1    2    0    0  0.59884611611E+02 -0.34706860684E+02 -0.10831313782E+03  0.12853975537E+03  0.00000000000E+00 0.  1.
</event>
<event>
 6    1  0.1226955E-005  0.2835476E+03  0.7561462E-02  0.1093767E+00
         -1   -1    0    0    0  501 -0.00000000000E+00  0.00000000000E+00  0.81268520182E+02  0.81268520182E+02  0.00000000000E+00 0.  1.
          1   -1    0    0  501    0  0.00000000000E+00 -0.00000000000E+00 -0.11725634280E+04  0.11725634280E+04  0.00000000000E+00 0. -1.
          5    1    1    2  502    0  0.23976515341E+03  0.78601428742E+01 -0.25971597311E+03  0.35358021682E+03  0.41800000000E+01 0.  1.
         -5    1    1    2    0  502 -0.27590789420E+02 -0.86388788132E+02 -0.13806944989E+03  0.16524200365E+03  0.41800000000E+01 0. -1.
        -11    1    1    2    0    0 -0.11291926594E+03  0.53143788924E+01 -0.24448925372E+03  0.26935849425E+03  0.00000000000E+00 0.  1.
         11    1    1    2    0    0 -0.99255098054E+02  0.73214266366E+02 -0.44902023109E+03  0.46565123345E+03  0.00000000000E+00 0. -1.
</event>
<event>
 7    1  0.1226955E-005  0.1056615E+03  0.7561462E-02  0.1268822E+00
          2   -1    0    0  501    0  0.00000000000E+00  0.00000000000E+00  0.45704368740E+03  0.45704368740E+03  0.00000000000E+00 0. -1.
         -2   -1    0    0    0  501 -0.00000000000E+00 -0.00000000000E+00 -0.37749319592E+02  0.37749319592E+02  0.00000000000E+00 0.  1.
         23    2    1    2    0    0 -0.62063846889E+02  0.40099049520E+02  0.24621742067E+03  0.28588576054E+03  0.12509114667E+03 0.  0.
          5    1    3    3  502    0 -0.66545639673E+02 -0.18918707065E+01  0.45530641301E+02  0.80761457587E+02  0.41800000000E+01 0.  1.
         -5    1    3    3    0  502  0.44817927839E+01  0.41990920226E+02  0.20068677937E+03  0.20512430295E+03  0.41800000000E+01 0.  1.
        -11    1    1    2    0    0  0.31457493039E+02 -0.58535858437E+02  0.57311593196E+02  0.87753286581E+02  0.00000000000E+00 0.  1.
         11    1    1    2    0    0  0.30606353850E+02  0.18436808917E+02  0.11576535394E+03  0.12115395987E+03  0.00000000000E+00 0. -1.
</event>
<event>
 7    1  0.1226955E-005  0.1001625E+03  0.7561462E-02  0.1279955E+00
         -2   -1    0    0    0  501 -0.00000000000E+00  0.00000000000E+00  0.30612993951E+03  0.30612993951E+03  0.00000000000E+00 0.  1.
          2   -1    0    0  501    0  0.00000000000E+00 -0.00000000000E+00 -0.57248230515E+02  0.57248230515E+02  0.00000000000E+00 0. -1.
         23    2    1    2    0    0 -0.52046791847E+02 -0.11622975910E+02  0.22129768142E+03  0.25972347556E+03  0.12505861763E+03 0.  0.
          5    1    3    3  502    0 -0.74828780594E+02 -0.18234995624E+02  0.22261617629E+03  0.23559986379E+03  0.41800000000E+01 0. -1.
         -5    1    3    3    0  502  0.22781988748E+02  0.66120197141E+01 -0.13184948738E+01  0.24123611768E+02  0.41800000000E+01 0. -1.
        -11    1    1    2    0    0  0.34312949795E+02 -0.35127112612E+02  0.20261235242E+02  0.53120713641E+02  0.00000000000E+00 0. -1.
         11    1    1    2    0    0  0.17733842051E+02  0.46750088522E+02  0.73227923344E+01  0.50533980828E+02  0.00000000000E+00 0.  1.
</event>
<event>
 7    1  0.1226955E-005  0.1037301E+03  0.7561462E-02  0.1272642E+00
         -2   -1    0    0    0  501 -0.00000000000E+00  0.00000000000E+00  0.13649074713E+03  0.13649074713E+03  0.00000000000E+00 0.  1.
          2   -1    0    0  501    0  0.00000000000E+00 -0.00000000000E+00 -0.11409623367E+03  0.11409623367E+03  0.00000000000E+00 0. -1.
         23    2    1    2    0    0  0.38831686164E+02 -0.26571002924E+02  0.48842314406E+02  0.13672681645E+03  0.11872123910E+03 0.  0.
          5    1    3    3  502    0 -0.17323152076E+02  0.20911234216E+02  0.56346827211E+02  0.62688185897E+02  0.41800000000E+01 0. -1.
         -5    1    3    3    0  502  0.56154838240E+02 -0.47482237140E+02 -0.75045128059E+01  0.74038630552E+02  0.41800000000E+01 0.  1.
        -11    1    1    2    0    0  0.78583423067E+01  0.52389274021E+02  0.27380067552E+01  0.53046076737E+02  0.00000000000E+00 0.  1.
         11    1    1    2    0    0 -0.46690028470E+02 -0.25818271097E+02 -0.29185807699E+02  0.60814087612E+02  0.00000000000E+00 0. -1.
</event>
<event>
 7    1  0.1226955E-005  0.8545309E+02  0.7561462E-02  0.1314252E+00
         -1   -1    0    0    0  501 -0.00000000000E+00  0.00000000000E+00  0.84417835632E+03  0.84417835632E+03  0.00000000000E+00 0.  1.
          1   -1    0    0  501    0  0.00000000000E+00 -0.00000000000E+00 -0.20308946895E+02  0.20308946895E+02  0.00000000000E+00 0. -1.
         23    2    1    2    0    0 -0.35187240588E+02  0.18862497630E+02  0.66100971841E+03  0.67392594272E+03  0.12509353590E+03 0.  0.
          5    1    3    3  502    0 -0.43208769187E+02 -0.77461259363E+01  0.63199595351E+03  0.63353244420E+03  0.41800000000E+01 0. -1.
         -5    1    3    3    0  502  0.80215285984E+01  0.26608623567E+02  0.29013764902E+02  0.40393498523E+02  0.41800000000E+01 0. -1.
        -11    1    1    2    0    0  0.22159333914E+02  0.36024396634E+02  0.63272022895E+02  0.76106124022E+02  0.00000000000E+00 0.  1.
         11    1    1    2    0    0  0.13027906675E+02 -0.54886894265E+02  0.99587668118E+02  0.11445523647E+03  0.00000000000E+00 0. -1.
</event>
<event>
 7    1  0.1226955E-005  0.1059964E+03  0.7561462E-02  0.1268169E+00
         -1   -1    0    0    0  501 -0.00000000000E+00  0.00000000000E+00  0.22381001005E+03  0.22381001005E+03  0.00000000000E+00 0.  1.
          1   -1    0    0  501    0  0.00000000000E+00 -0.00000000000E+00 -0.84725608997E+02  0.84725608997E+02  0.00000000000E+00 0. -1.
         23    2    1    2    0    0 -0.84449143928E+02  0.84446169821E+01  0.84752254518E+02  0.17331048243E+03  0.12510239489E+03 0.  0.
          5    1    3    3  502    0 -0.45233313376E+02  0.16322361819E+02 -0.26462616571E+02  0.55047385134E+02  0.41800000000E+01 0. -1.
         -5    1    3    3    0  502 -0.39215830552E+02 -0.78777448364E+01  0.11121487109E+03  0.11826309729E+03  0.41800000000E+01 0. -1.
        -11    1    1    2    0    0  0.11724648277E+02 -0.41860848554E+02  0.14497458104E+02  0.45825476652E+02  0.00000000000E+00 0.  1.
         11    1    1    2    0    0  0.72724495651E+02  0.33416231572E+02  0.39834688429E+02  0.89399659968E+02  0.00000000000E+00 0. -1.
</event>
<event>
 6    1  0.1226955E-005  0.1370131E+03  0.7561462E-02  0.1217406E+00
         -3   -1    0    0    0  501 -0.00000000000E+00  0.00000000000E+00  0.88690195508E+03  0.88690195508E+03  0.00000000000E+00 0.  1.
          3   -1    0    0  501    0  0.00000000000E+00 -0.00000000000E+00 -0.48867630864E+02  0.48867630864E+02  0.00000000000E+00 0. -1.
          5    1    1    2  502    0 -0.96117101077E+02 -0.30262451404E+02  0.21688013201E+03  0.23918356370E+03  0.41800000000E+01 0. -1.
         -5    1    1    2    0  502  0.70029766020E+02  0.43941802635E+02  0.59066709217E+03  0.59643954960E+03  0.41800000000E+01 0.  1.
        -11    1    1    2    0    0  0.38845302810E+02 -0.43281215702E+02  0.34568505780E+02  0.67655027713E+02  0.00000000000E+00 0.  1.
         11    1    1    2    0    0 -0.12757967752E+02  0.29601864471E+02 -0.40814057400E+01  0.32491444938E+02  0.00000000000E+00 0. -1.
</event>
<event>
 7    1  0.1226955E-005  0.1113031E+03  0.7561462E-02  0.1258176E+00
          1   -1    0    0  501    0  0.00000000000E+00  0.00000000000E+00  0.62929576608E+02  0.62929576608E+02  0.00000000000E+00 0. -1.
         -1   -1    0    0    0  501 -0.00000000000E+00 -0.00000000000E+00 -0.32782172380E+03  0.32782172380E+03  0.00000000000E+00 0.  1.
         23    2    1    2    0    0 -0.76645596858E+02  0.52924135206E+01 -0.21274557720E+03  0.25847183925E+03  0.12507779144E+03 0.  0.
          5    1    3    3  502    0 -0.97840722917E+02 -0.30087612134E+02 -0.17290258189E+03  0.20097474142E+03  0.41800000000E+01 0.  1.
         -5    1    3    3    0  502  0.21195126059E+02  0.35380025654E+02 -0.39842995305E+02  0.57497097830E+02  0.41800000000E+01 0.  1.
        -11    1    1    2    0    0  0.14890388221E+02 -0.79733543886E+01  0.27004249579E+02  0.31851648888E+02  0.00000000000E+00 0. -1.
         11    1    1    2    0    0  0.61755208636E+02  0.26809408679E+01 -0.79150819575E+02  0.10042781227E+03  0.00000000000E+00 0.  1.
</event>
<event>
 7    1  0.1226955E-005  0.1059506E+03  0.7561462E-02  0.1268258E+00
          4   -1    0    0  501    0  0.00000000000E+00  0.00000000000E+00  0.25876703430E+03  0.25876703430E+03  0.00000000000E+00 0. -1.
         -4   -1    0    0    0  501 -0.00000000000E+00 -0.00000000000E+00 -0.76816757442E+02  0.76816757442E+02  0.00000000000E+00 0.  1.
         23    2    1    2    0    0  0.36065268789E+02  0.19577556143E+02  0.54568769079E+01  0.13176514119E+03  0.12509312775E+03 0.  0.
          5    1    3    3  502    0  0.19262162626E+02 -0.53147991218E+02  0.60255220266E+01  0.57004554162E+02  0.41800000000E+01 0.  1.
         -5    1    3    3    0  502  0.16803106163E+02  0.72725547361E+02 -0.56864511875E+00  0.74760587029E+02  0.41800000000E+01 0.  1.
        -11    1    1    2    0    0  0.10016296288E+02 -0.31337359543E+02  0.16302032566E+02  0.36716652356E+02  0.00000000000E+00 0.  1.
         11    1    1    2    0    0 -0.46081565076E+02  0.11759803400E+02  0.16019136739E+03  0.16710199820E+03  0.00000000000E+00 0. -1.
</event>
<event>
 7    1  0.1226955E-005  0.1161387E+03  0.7561462E-02  0.1249606E+00
          2   -1    0    0  501    0  0.00000000000E+00  0.00000000000E+00  0.61501121961E+03  0.61501121961E+03  0.00000000000E+00 0. -1.
         -2   -1    0    0    0  501 -0.00000000000E+00 -0.00000000000E+00 -0.28292174821E+02  0.28292174821E+02  0.00000000000E+00 0.  1.
         23    2    1    2    0    0  0.21610529026E+02 -0.65267774992E+02  0.26036886603E+03  0.29694453670E+03  0.12512878990E+03 0.  0.
          5    1    3    3  502    0 -0.19553609654E+02 -0.75155468604E+02  0.79783837045E+02  0.11141643131E+03  0.41800000000E+01 0.  1.
         -5    1    3    3    0  502  0.41164138680E+02  0.98876936122E+01  0.18058502898E+03  0.18552810539E+03  0.41800000000E+01 0.  1.
        -11    1    1    2    0    0  0.31416544150E+02  0.52039228960E+01  0.13889287407E+03  0.14249670356E+03  0.00000000000E+00 0. -1.
         11    1    1    2    0    0 -0.53027073176E+02  0.60063852096E+02  0.18745730470E+03  0.20386215417E+03  0.00000000000E+00 0.  1.
</event>
<event>
 7    1  0.1226955E-005  0.1896569E+03  0.7561462E-02  0.1158771E+00
          1   -1    0    0  501    0  0.00000000000E+00  0.00000000000E+00  0.17133427385E+04  0.17133427385E+04  0.00000000000E+00 0. -1.
         -1   -1    0    0    0  501 -0.00000000000E+00 -0.00000000000E+00 -0.26532696607E+02  0.26532696607E+02  0.00000000000E+00 0.  1.
         23    2    1    2    0    0 -0.10377120957E+03  0.14354342787E+03  0.70537490198E+03  0.73795315470E+03  0.12509167268E+03 0.  0.
          5    1    3    3  502    0 -0.77691150994E+02  0.75906397789E+02  0.60133615817E+03  0.61108129057E+03  0.41800000000E+01 0.  1.
         -5    1    3    3    0  502 -0.26080058573E+02  0.67637030085E+02  0.10403874381E+03  0.12687186413E+03  0.41800000000E+01 0.  1.
        -11    1    1    2    0    0  0.78831868017E+02 -0.15236566560E+03  0.90285987199E+03  0.91901344273E+03  0.00000000000E+00 0. -1.
         11    1    1    2    0    0  0.24939341549E+02  0.88222377277E+01  0.78575267963E+02  0.82908837713E+02  0.00000000000E+00 0.  1.
</event>
<event>
 7    1  0.1226955E-005  0.9928392E+02  0.7561462E-02  0.1281809E+00
         -2   -1    0    0    0  501 -0.00000000000E+00  0.00000000000E+00  0.15036481963E+03  0.15036481963E+03  0.00000000000E+00 0.  1.
          2   -1    0    0  501    0  0.00000000000E+00 -0.00000000000E+00 -0.84666477681E+02  0.84666477681E+02  0.00000000000E+00 0. -1.
         23    2    1    2    0    0  0.19770726761E+02 -0.24454557272E+02  0.45366907309E+02  0.13672801327E+03  0.12508991296E+03 0.  0.
          5    1    3    3  502    0 -0.31200345478E+02 -0.38472869130E+02  0.63537296728E+02  0.80672694839E+02  0.41800000000E+01 0. -1.
         -5    1    3    3    0  502  0.50971072238E+02  0.14018311858E+02 -0.18170389420E+02  0.56055318429E+02  0.41800000000E+01 0. -1.
        -11    1    1    2    0    0 -0.56212095945E+02  0.14470511047E+02  0.16387289275E+02  0.60313669017E+02  0.00000000000E+00 0. -1.
         11    1    1    2    0    0  0.36441369185E+02  0.99840462243E+01  0.39441453629E+01  0.37989615024E+02  0.00000000000E+00 0.  1.
</event>
<event>
 6    1  0.1226955E-005  0.1746441E+03  0.7561462E-02  0.1173090E+00
         -2   -1    0    0    0  501 -0.00000000000E+00  0.00000000000E+00  0.99358019516E+02  0.99358019516E+02  0.00000000000E+00 0.  1.
          2   -1    0    0  501    0  0.00000000000E+00 -0.00000000000E+00 -0.36681470239E+03  0.36681470239E+03  0.00000000000E+00 0. -1.
          5    1    1    2  502    0  0.31074857409E+02 -0.67958572434E+01 -0.87574026851E+02  0.93265819128E+02  0.41800000000E+01 0. -1.
         -5    1    1    2    0  502 -0.13265875036E+03  0.89974894914E+02 -0.52444493365E+02  0.16870602552E+03  0.41800000000E+01 0.  1.
        -11    1    1    2    0    0  0.10390525729E+03 -0.36512581286E+02 -0.10576505927E+03  0.15269485534E+03  0.00000000000E+00 0.  1.
         11    1    1    2    0    0 -0.23213643365E+01 -0.46666456384E+02 -0.21673103381E+02  0.51506021920E+02  0.00000000000E+00 0. -1.
</event>
<event>
 7    1  0.1513750E-005  0.1833817E+03  0.7561462E-02  0.1164570E+00
          1   -1    0    0  501    0  0.00000000000E+00  0.00000000000E+00  0.58530402555E+03  0.58530402555E+03  0.00000000000E+00 0. -1.
         -1   -1    0    0    0  501 -0.00000000000E+00 -0.00000000000E+00 -0.73198331165E+02  0.73198331165E+02  0.00000000000E+00 0.  1.
         23    2    1    2    0    0 -0.13078528329E+03  0.10798017665E+03  0.19219482805E+03  0.28521972028E+03  0.12508768137E+03 0.  0.
          5    1    3    3  502    0 -0.13032126878E+03  0.87669252455E+02  0.20689768740E+03  0.25979541254E+03  0.41800000000E+01 0. -1.
         -5    1    3    3    0  502 -0.46401450514E+00  0.20310924190E+02 -0.14702859350E+02  0.25424307738E+02  0.41800000000E+01 0. -1.
        -11    1    1    2    0    0  0.28798166166E+02 -0.77159058343E+02  0.17509230318E+03  0.19349462342E+03  0.00000000000E+00 0.  1.
         11    1    1    2    0    0  0.10198711712E+03 -0.30821118302E+02  0.14481856315E+03  0.17978801302E+03  0.00000000000E+00 0. -1.
</event>
<event>
 7    1  0.1226955E-005  0.1105101E+03  0.7561462E-02  0.1259628E+00
         -1   -1    0    0    0  501 -0.00000000000E+00  0.00000000000E+00  0.22659773637E+02  0.22659773637E+02  0.00000000000E+00 0.  1.
          1   -1    0    0  501    0  0.00000000000E+00 -0.00000000000E+00 -0.69145971009E+03  0.69145971009E+03  0.00000000000E+00 0. -1.
         23    2    1    2    0    0 -0.49087995488E+02  0.33849805242E+02 -0.32251973326E+03  0.35129133736E+03  0.12582203602E+03 0.  0.
          5    1    3    3  502    0 -0.33952807691E+02  0.69083650795E+02 -0.29228439804E+03  0.30227964816E+03  0.41800000000E+01 0. -1.
         -5    1    3    3    0  502 -0.15135187796E+02 -0.35233845553E+02 -0.30235335222E+02  0.49011689199E+02  0.41800000000E+01 0. -1.
        -11    1    1    2    0    0 -0.12874621486E+02  0.19650583955E+02 -0.46867592890E+02  0.52425877117E+02  0.00000000000E+00 0.  1.
         11    1    1    2    0    0  0.61962616973E+02 -0.53500389197E+02 -0.29941261031E+03  0.31040226925E+03  0.00000000000E+00 0. -1.
</event>
<event>
 7    1  0.1226955E-005  0.1286612E+03  0.7561462E-02  0.1229456E+00
          1   -1    0    0  501    0  0.00000000000E+00  0.00000000000E+00  0.19928200744E+03  0.19928200744E+03  0.00000000000E+00 0. -1.
         -1   -1    0    0    0  501 -0.00000000000E+00 -0.00000000000E+00 -0.11509274450E+03  0.11509274450E+03  0.00000000000E+00 0.  1.
         23    2    1    2    0    0 -0.47162656958E+01  0.10436823851E+03  0.33695062945E+02  0.16642512782E+03  0.12508794319E+03 0.  0.
          5    1    3    3  502    0 -0.15030058198E+02  0.10616516334E+03  0.70194108337E+02  0.12822491880E+03  0.41800000000E+01 0.  1.
         -5    1    3    3    0  502  0.10313792502E+02 -0.17969248279E+01 -0.36499045392E+02  0.38200209020E+02  0.41800000000E+01 0.  1.
        -11    1    1    2    0    0  0.45315798493E+02 -0.31041150890E+02  0.15093294998E+02  0.56963867456E+02  0.00000000000E+00 0. -1.
         11    1    1    2    0    0 -0.40599532797E+02 -0.73327087621E+02  0.35400904994E+02  0.90985756670E+02  0.00000000000E+00 0.  1.
</event>
<event>
 7    1  0.1226955E-005  0.8788724E+02  0.7561462E-02  0.1308050E+00
          1   -1    0    0  501    0  0.00000000000E+00  0.00000000000E+00  0.35955930868E+02  0.35955930868E+02  0.00000000000E+00 0. -1.
         -1   -1    0    0    0  501 -0.00000000000E+00 -0.00000000000E+00 -0.34332928576E+03  0.34332928576E+03  0.00000000000E+00 0.  1.
         23    2    1    2    0    0 -0.46347512457E+01  0.44357778611E+01 -0.21724484766E+03  0.25076759918E+03  0.12509159812E+03 0.  0.
          5    1    3    3  502    0 -0.62788562685E+02  0.86581587718E+01 -0.84420399121E+02  0.10564867962E+03  0.41800000000E+01 0.  1.
         -5    1    3    3    0  502  0.58153811439E+02 -0.42223809107E+01 -0.13282444854E+03  0.14511891956E+03  0.41800000000E+01 0.  1.
        -11    1    1    2    0    0 -0.50001830015E+01 -0.27945914127E+02 -0.97911626357E+02  0.10194440898E+03  0.00000000000E+00 0.  1.
         11    1    1    2    0    0  0.96349342473E+01  0.23510136266E+02  0.77831191196E+01  0.26573208470E+02  0.00000000000E+00 0. -1.
</event>
<event>
 7    1  0.1226955E-005  0.9584176E+02  0.7561462E-02  0.1289291E+00
         -2   -1    0    0    0  501 -0.00000000000E+00  0.00000000000E+00  0.27132564076E+02  0.27132564076E+02  0.00000000000E+00 0. -1.
          2   -1    0    0  501    0  0.00000000000E+00 -0.00000000000E+00 -0.61413330255E+03  0.61413330255E+03  0.00000000000E+00 0.  1.
         23    2    1    2    0    0 -0.35677123566E+02  0.18081433291E+02 -0.18369582619E+03  0.22581296715E+03  0.12509014429E+03 0.  0.
          5    1    3    3  502    0 -0.68664460709E+02  0.91726298565E+01 -0.44542256987E+02  0.82464721914E+02  0.41800000000E+01 0.  1.
         -5    1    3    3    0  502  0.32987337142E+02  0.89088034349E+01 -0.13915356920E+03  0.14334824523E+03  0.41800000000E+01 0.  1.
        -11    1    1    2    0    0 -0.23356610059E+02 -0.16871987755E+02 -0.54131188094E+02  0.61321943289E+02  0.00000000000E+00 0. -1.
         11    1    1    2    0    0  0.59033733626E+02 -0.12094455364E+01 -0.34917372419E+03  0.35413095619E+03  0.00000000000E+00 0.  1.
</event>
<event>
 7    1  0.1226955E-005  0.1159694E+03  0.7561462E-02  0.1249898E+00
          2   -1    0    0  501    0  0.00000000000E+00  0.00000000000E+00  0.33143702942E+03  0.33143702942E+03  0.00000000000E+00 0. -1.
         -2   -1    0    0    0  501 -0.00000000000E+00 -0.00000000000E+00 -0.59197287386E+02  0.59197287386E+02  0.00000000000E+00 0.  1.
         23    2    1    2    0    0  0.72385822138E+00  0.82528747325E+02  0.10234708917E+03  0.18147749164E+03  0.12509050805E+03 0.  0.
          5    1    3    3  502    0  0.45363321400E+02 -0.78311573850E+01  0.16692395118E+02  0.49145359997E+02  0.41800000000E+01 0. -1.
         -5    1    3    3    0  502 -0.44639463179E+02  0.90359904710E+02  0.85654694057E+02  0.13233213165E+03  0.41800000000E+01 0. -1.
        -11    1    1    2    0    0  0.91307502895E+01 -0.50990508123E+02  0.19778170260E+02  0.55448882210E+02  0.00000000000E+00 0.  1.
         11    1    1    2    0    0 -0.98546085109E+01 -0.31538239201E+02  0.15011448260E+03  0.15370794296E+03  0.00000000000E+00 0. -1.
</event>
<event>
 7    1  0.1226955E-005  0.8838379E+02  0.7561462E-02  0.1306813E+00
         -1   -1    0    0    0  501 -0.00000000000E+00  0.00000000000E+00  0.35159492453E+03  0.35159492453E+03  0.00000000000E+00 0.  1.
          1   -1    0    0  501    0  0.00000000000E+00 -0.00000000000E+00 -0.41858530675E+02  0.41858530675E+02  0.00000000000E+00 0. -1.
         23    2    1    2    0    0 -0.21125998216E+02  0.10477680950E+02  0.22194418068E+03  0.25585708697E+03  0.12509012757E+03 0.  0.
          5    1    3    3  502    0  0.16229139293E+02  0.34584639188E+02  0.20423471521E+03  0.20781908846E+03  0.41800000000E+01 0.  1.
         -5    1    3    3    0  502 -0.37355137509E+02 -0.24106958238E+02  0.17709465471E+02  0.48037998512E+02  0.41800000000E+01 0.  1.
        -11    1    1    2    0    0  0.54240741857E+02 -0.22123461527E+02  0.83832086788E+02  0.10227083848E+03  0.00000000000E+00 0.  1.
         11    1    1    2    0    0 -0.33114743641E+02  0.11645780577E+02  0.39601263817E+01  0.35325529757E+02  0.00000000000E+00 0. -1.
</event>
<event>
 7    1  0.1226955E-005  0.2523143E+03  0.7561462E-02  0.1111851E+00
         -2   -1    0    0    0  501 -0.00000000000E+00  0.00000000000E+00  0.52792347535E+02  0.52792347535E+02  0.00000000000E+00 0.  1.
          2   -1    0    0  501    0  0.00000000000E+00 -0.00000000000E+00 -0.13562099557E+04  0.13562099557E+04  0.00000000000E+00 0. -1.
         23    2    1    2    0    0 -0.83172350994E+01  0.24110404350E+03 -0.56415786688E+03  0.62619512841E+03  0.12508358760E+03 0.  0.
          5    1    3    3  502    0 -0.11026928719E+02 -0.78558690796E+01 -0.85241145536E+02  0.86410839183E+02  0.41800000000E+01 0. -1.
         -5    1    3    3    0  502  0.27096936191E+01  0.24895991258E+03 -0.47891672135E+03  0.53978428922E+03  0.41800000000E+01 0. -1.
        -11    1    1    2    0    0 -0.13392133711E+01 -0.10269701322E+03 -0.18659748747E+03  0.21299552190E+03  0.00000000000E+00 0.  1.
         11    1    1    2    0    0  0.96564484705E+01 -0.13840703027E+03 -0.55266225377E+03  0.56981165289E+03  0.00000000000E+00 0. -1.
</event>
<event>
 7    1  0.1226955E-005  0.1393286E+03  0.7561462E-02  0.1214235E+00
          2   -1    0    0  501    0  0.00000000000E+00  0.00000000000E+00  0.10328096673E+04  0.10328096673E+04  0.00000000000E+00 0. -1.
         -2   -1    0    0    0  501 -0.00000000000E+00 -0.00000000000E+00 -0.22197064403E+02  0.22197064403E+02  0.00000000000E+00 0.  1.
         23    2    1    2    0    0  0.80859342922E+01 -0.10293663733E+03  0.47958756844E+03  0.50627369481E+03  0.12508990615E+03 0.  0.
          5    1    3    3  502    0  0.49981465895E+02 -0.37268733279E+02  0.93996264354E+02  0.11287105708E+03  0.41800000000E+01 0. -1.
         -5    1    3    3    0  502 -0.41895531603E+02 -0.65667904048E+02  0.38559130408E+03  0.39340263773E+03  0.41800000000E+01 0. -1.
        -11    1    1    2    0    0  0.22763171658E+02  0.10481478026E+03  0.42120870955E+03  0.43465052300E+03  0.00000000000E+00 0. -1.
         11    1    1    2    0    0 -0.30849105950E+02 -0.18781429328E+01  0.10981632488E+03  0.11408251386E+03  0.00000000000E+00 0.  1.
</event>
<event>
 6    1  0.1226955E-005  0.1783333E+03  0.7561462E-02  0.1169426E+00
         -1   -1    0    0    0  501 -0.00000000000E+00  0.00000000000E+00  0.13973793816E+03  0.13973793816E+03  0.00000000000E+00 0.  1.
          1   -1    0    0  501    0  0.00000000000E+00 -0.00000000000E+00 -0.32947781323E+03  0.32947781323E+03  0.00000000000E+00 0. -1.
          5    1    1    2  502    0 -0.64312691862E+02 -0.12340518705E+03 -0.15419297236E+03  0.20774481377E+03  0.41800000000E+01 0. -1.
         -5    1    1    2    0  502  0.87105750806E+02  0.86519399369E+02  0.46155498636E+02  0.13122812482E+03  0.41800000000E+01 0.  1.
        -11    1    1    2    0    0  0.87003151607E+01 -0.24287249703E+02 -0.34246598772E+01  0.26024878046E+02  0.00000000000E+00 0.  1.
         11    1    1    2    0    0 -0.31493374104E+02  0.61173037380E+02 -0.78277741462E+02  0.10421793475E+03  0.00000000000E+00 0. -1.
</event>
<event>
 7    1  0.1226955E-005  0.9805857E+02  0.7561462E-02  0.1284432E+00
          2   -1    0    0  501    0  0.00000000000E+00  0.00000000000E+00  0.22009015978E+03  0.22009015978E+03  0.00000000000E+00 0. -1.
         -2   -1    0    0    0  501 -0.00000000000E+00 -0.00000000000E+00 -0.10706420614E+03  0.10706420614E+03  0.00000000000E+00 0.  1.
         23    2    1    2    0    0  0.81117634685E+02  0.37955682006E+02 -0.29782900704E+01  0.15387144011E+03  0.12508735115E+03 0.  0.
          5    1    3    3  502    0  0.30283847297E+02  0.42646048149E+02 -0.58329232308E+02  0.78457431589E+02  0.41800000000E+01 0.  1.
         -5    1    3    3    0  502  0.50833787388E+02 -0.46903661428E+01  0.55350942238E+02  0.75414008522E+02  0.41800000000E+01 0.  1.
        -11    1    1    2    0    0 -0.23486790791E+02 -0.12561736990E+00 -0.13123840693E+02  0.26905023990E+02  0.00000000000E+00 0.  1.
         11    1    1    2    0    0 -0.57630843894E+02 -0.37830064636E+02  0.12912808441E+03  0.14637790182E+03  0.00000000000E+00 0. -1.
</event>
<event>
 7    1  0.1226955E-005  0.1270042E+03  0.7561462E-02  0.1231970E+00
         -1   -1    0    0    0  501 -0.00000000000E+00  0.00000000000E+00  0.46961310154E+03  0.46961310154E+03  0.00000000000E+00 0.  1.
          1   -1    0    0  501    0  0.00000000000E+00 -0.00000000000E+00 -0.40083063361E+02  0.40083063361E+02  0.00000000000E+00 0. -1.
         23    2    1    2    0    0 -0.69558763783E+02 -0.46408822837E+02  0.21634632747E+03  0.26352538510E+03  0.12509074596E+03 0.  0.
          5    1    3    3  502    0 -0.17192140451E+01 -0.61506560382E+02  0.38918185947E+02  0.72925374626E+02  0.41800000000E+01 0. -1.
         -5    1    3    3    0  502 -0.67839549738E+02  0.15097737545E+02  0.17742814153E+03  0.19060001048E+03  0.41800000000E+01 0. -1.
        -11    1    1    2    0    0  0.12361970954E+02  0.62166276266E+02  0.11982008488E+03  0.13555189770E+03  0.00000000000E+00 0.  1.
         11    1    1    2    0    0  0.57196792829E+02 -0.15757453430E+02  0.93363625829E+02  0.11061888210E+03  0.00000000000E+00 0. -1.
</event>
<event>
 7    1  0.1226955E-005  0.1047789E+03  0.7561462E-02  0.1270556E+00
          2   -1    0    0  501    0  0.00000000000E+00  0.00000000000E+00  0.25483430664E+03  0.25483430664E+03  0.00000000000E+00 0. -1.
         -2   -1    0    0    0  501 -0.00000000000E+00 -0.00000000000E+00 -0.77096604280E+02  0.77096604280E+02  0.00000000000E+00 0.  1.
         23    2    1    2    0    0  0.84935752784E+02 -0.19986314836E+02  0.11553729222E+03  0.19133702373E+03  0.12508979125E+03 0.  0.
          5    1    3    3  502    0  0.57734839490E+01 -0.39596821462E+02  0.10056386591E+03  0.10831345676E+03  0.41800000000E+01 0. -1.
         -5    1    3    3    0  502  0.79162268835E+02  0.19610506626E+02  0.14973426303E+02  0.83023566970E+02  0.41800000000E+01 0. -1.
        -11    1    1    2    0    0 -0.28127046955E+02  0.25712715690E+01  0.74712197874E+02  0.79872740776E+02  0.00000000000E+00 0. -1.
         11    1    1    2    0    0 -0.56808705829E+02  0.17415043267E+02 -0.12511787732E+02  0.60721146417E+02  0.00000000000E+00 0.  1.
</event>
<event>
 7    1  0.1226955E-005  0.1909559E+03  0.7561462E-02  0.1157602E+00
          2   -1    0    0  501    0  0.00000000000E+00  0.00000000000E+00  0.53598302258E+02  0.53598302258E+02  0.00000000000E+00 0.  1.
         -2   -1    0    0    0  501 -0.00000000000E+00 -0.00000000000E+00 -0.75085304555E+03  0.75085304555E+03  0.00000000000E+00 0. -1.
         23    2    1    2    0    0  0.16725257296E+03 -0.46027846071E+02 -0.43504722371E+03  0.48477843202E+03  0.12510817526E+03 0.  0.
          5    1    3    3  502    0  0.12373402039E+02  0.27928830055E+02 -0.23215793999E+02  0.38594897555E+02  0.41800000000E+01 0.  1.
         -5    1    3    3    0  502  0.15487917092E+03 -0.73956676126E+02 -0.41183142972E+03  0.44618353447E+03  0.41800000000E+01 0.  1.
        -11    1    1    2    0    0 -0.80606992761E+02  0.45886339628E+02 -0.10446039206E+03  0.13969615942E+03  0.00000000000E+00 0.  1.
         11    1    1    2    0    0 -0.86645580202E+02  0.14150644252E+00 -0.15774712751E+03  0.17997675636E+03  0.00000000000E+00 0. -1.
</event>
<event>
 7    1  0.1226955E-005  0.1378332E+03  0.7561462E-02  0.1216275E+00
          1   -1    0    0  501    0  0.00000000000E+00  0.00000000000E+00  0.55959993153E+03  0.55959993153E+03  0.00000000000E+00 0. -1.
         -1   -1    0    0    0  501 -0.00000000000E+00 -0.00000000000E+00 -0.55755469135E+02  0.55755469135E+02  0.00000000000E+00 0.  1.
         23    2    1    2    0    0  0.28146758450E+02 -0.10595975472E+03  0.11116870652E+03  0.20006150948E+03  0.12508563720E+03 0.  0.
          5    1    3    3  502    0 -0.48545070799E+02 -0.41729194366E+02  0.28401808190E+02  0.70157570295E+02  0.41800000000E+01 0. -1.
         -5    1    3    3    0  502  0.76691829249E+02 -0.64230560354E+02  0.82766898325E+02  0.12990393918E+03  0.41800000000E+01 0. -1.
        -11    1    1    2    0    0 -0.31671576525E+01  0.50111511350E+02  0.65948050424E+02  0.82887513004E+02  0.00000000000E+00 0.  1.
         11    1    1    2    0    0 -0.24979600797E+02  0.55848243370E+02  0.32672770545E+03  0.33240637818E+03  0.00000000000E+00 0. -1.
</event>
<event>
 7    1  0.1226955E-005  0.1375439E+03  0.7561462E-02  0.1216673E+00
          2   -1    0    0  501    0  0.00000000000E+00  0.00000000000E+00  0.14831590130E+03  0.14831590130E+03  0.00000000000E+00 0. -1.
         -2   -1    0    0    0  501 -0.00000000000E+00 -0.00000000000E+00 -0.14059689087E+03  0.14059689087E+03  0.00000000000E+00 0.  1.
         23    2    1    2    0    0  0.77037169553E+02  0.53717796808E+02 -0.44817291698E+01  0.15648613402E+03  0.12508995586E+03 0.  0.
          5    1    3    3  502    0  0.85732300484E+02  0.79837925690E+02  0.20587614094E+02  0.11901867072E+03  0.41800000000E+01 0.  1.
         -5    1    3    3    0  502 -0.86951309304E+01 -0.26120128882E+02 -0.25069343264E+02  0.37467463304E+02  0.41800000000E+01 0.  1.
        -11    1    1    2    0    0 -0.96875410914E+02 -0.35776388973E+02  0.60205204996E+00  0.10327225046E+03  0.00000000000E+00 0. -1.
         11    1    1    2    0    0  0.19838241361E+02 -0.17941407835E+02  0.11598687544E+02  0.29154407696E+02  0.00000000000E+00 0.  1.
</event>
<event>
 7    1  0.1226955E-005  0.1168821E+03  0.7561462E-02  0.1248331E+00
          2   -1    0    0  501    0  0.00000000000E+00  0.00000000000E+00  0.12759588637E+04  0.12759588637E+04  0.00000000000E+00 0. -1.
         -2   -1    0    0    0  501 -0.00000000000E+00 -0.00000000000E+00 -0.14100856734E+02  0.14100856734E+02  0.00000000000E+00 0.  1.
         23    2    1    2    0    0  0.42119863907E+02  0.66062229112E+02  0.72086431742E+03  0.73581987035E+03  0.12508883413E+03 0.  0.
          5    1    3    3  502    0  0.19065124801E+02 -0.18575348190E+02  0.45560000359E+03  0.45639605412E+03  0.41800000000E+01 0. -1.
         -5    1    3    3    0  502  0.23054739106E+02  0.84637577301E+02  0.26526431383E+03  0.27942381623E+03  0.41800000000E+01 0. -1.
        -11    1    1    2    0    0 -0.48245468737E+01 -0.79283089350E+02  0.31850217099E+03  0.32825709046E+03  0.00000000000E+00 0.  1.
         11    1    1    2    0    0 -0.37295317033E+02  0.13220860238E+02  0.22249151851E+03  0.22598275958E+03  0.00000000000E+00 0. -1.
</event>
<event>
 7    1  0.1300198E-005  0.1164702E+03  0.7561462E-02  0.1249036E+00
          2   -1    0    0  501    0  0.00000000000E+00  0.00000000000E+00  0.13995582074E+04  0.13995582074E+04  0.00000000000E+00 0. -1.
         -2   -1    0    0    0  501 -0.00000000000E+00 -0.00000000000E+00 -0.13499365583E+02  0.13499365583E+02  0.00000000000E+00 0.  1.
         23    2    1    2    0    0  0.79863268952E+02 -0.24342223252E+02  0.72289963298E+03  0.73837783148E+03  0.12508899670E+03 0.  0.
          5    1    3    3  502    0  0.80396172453E+02 -0.41887159708E+02  0.26472348304E+03  0.27984651788E+03  0.41800000000E+01 0.  1.
         -5    1    3    3    0  502 -0.53290350095E+00  0.17544936456E+02  0.45817614994E+03  0.45853131361E+03  0.41800000000E+01 0.  1.
        -11    1    1    2    0    0  0.14957189877E+02  0.25220393734E+02  0.15774491970E+03  0.16044701767E+03  0.00000000000E+00 0. -1.
         11    1    1    2    0    0 -0.94820458828E+02 -0.87817048184E+00  0.50541428913E+03  0.51423272383E+03  0.00000000000E+00 0.  1.
</event>
<event>
 7    1  0.1226955E-005  0.1304197E+03  0.7561462E-02  0.1226834E+00
         -3   -1    0    0    0  501 -0.00000000000E+00  0.00000000000E+00  0.89825049503E+03  0.89825049503E+03  0.00000000000E+00 0.  1.
          3   -1    0    0  501    0  0.00000000000E+00 -0.00000000000E+00 -0.24959106273E+02  0.24959106273E+02  0.00000000000E+00 0. -1.
         23    2    1    2    0    0  0.78834698702E+02  0.19224938265E+02  0.66666795760E+03  0.68313838638E+03  0.12508949313E+03 0.  0.
          5    1    3    3  502    0  0.10629037026E+03  0.34275981027E+02  0.58489391307E+03  0.59547531236E+03  0.41800000000E+01 0.  1.
         -5    1    3    3    0  502 -0.27455671554E+02 -0.15051042762E+02  0.81774044529E+02  0.87663074024E+02  0.41800000000E+01 0.  1.
        -11    1    1    2    0    0 -0.97143348680E+02 -0.12303982024E+02  0.19237274519E+03  0.21585988803E+03  0.00000000000E+00 0.  1.
         11    1    1    2    0    0  0.18308649978E+02 -0.69209562412E+01  0.14250685966E+02  0.24211326891E+02  0.00000000000E+00 0. -1.
</event>
<event>
 7    1  0.1226955E-005  0.8870414E+02  0.7561462E-02  0.1306020E+00
          2   -1    0    0  501    0  0.00000000000E+00  0.00000000000E+00  0.67455122882E+03  0.67455122882E+03  0.00000000000E+00 0. -1.
         -2   -1    0    0    0  501 -0.00000000000E+00 -0.00000000000E+00 -0.25364461080E+02  0.25364461080E+02  0.00000000000E+00 0.  1.
         23    2    1    2    0    0 -0.48739116032E+02 -0.54370432065E+02  0.33855619553E+03  0.36823844913E+03  0.12509041757E+03 0.  0.
          5    1    3    3  502    0  0.59011977638E+01 -0.19234132570E+02 -0.27929370665E+01  0.20737620120E+02  0.41800000000E+01 0. -1.
         -5    1    3    3    0  502 -0.54640313796E+02 -0.35136299495E+02  0.34134913260E+03  0.34750082901E+03  0.41800000000E+01 0. -1.
        -11    1    1    2    0    0  0.36905789248E+02  0.81414444177E+00  0.35786144952E+02  0.51413502912E+02  0.00000000000E+00 0.  1.
         11    1    1    2    0    0  0.11833326785E+02  0.53556287623E+02  0.27484442725E+03  0.28026373786E+03  0.00000000000E+00 0. -1.
</event>
<event>
 7    1  0.1226955E-005  0.1022267E+03  0.7561462E-02  0.1275682E+00
          4   -1    0    0  501    0  0.00000000000E+00  0.00000000000E+00  0.88458662760E+02  0.88458662760E+02  0.00000000000E+00 0. -1.
         -4   -1    0    0    0  501 -0.00000000000E+00 -0.00000000000E+00 -0.14844864395E+03  0.14844864395E+03  0.00000000000E+00 0.  1.
         23    2    1    2    0    0  0.17565300835E+02 -0.26402515815E+02 -0.56150238099E+02  0.14073497990E+03  0.12509137737E+03 0.  0.
          5    1    3    3  502    0  0.10667253387E+02  0.50460163539E+02 -0.23709144653E+02  0.56917610099E+02  0.41800000000E+01 0.  1.
         -5    1    3    3    0  502  0.68980474479E+01 -0.76862679353E+02 -0.32441093446E+02  0.83817369799E+02  0.41800000000E+01 0.  1.
        -11    1    1    2    0    0 -0.37713173092E+01  0.48894276642E+02  0.26681077599E+02  0.55827887515E+02  0.00000000000E+00 0. -1.
         11    1    1    2    0    0 -0.13793983526E+02 -0.22491760827E+02 -0.30520820694E+02  0.40344439300E+02  0.00000000000E+00 0.  1.
</event>
<event>
 7    1  0.1226955E-005  0.1078024E+03  0.7561462E-02  0.1264694E+00
         -3   -1    0    0    0  501 -0.00000000000E+00  0.00000000000E+00  0.26902221074E+02  0.26902221074E+02  0.00000000000E+00 0.  1.
          3   -1    0    0  501    0  0.00000000000E+00 -0.00000000000E+00 -0.48132305371E+03  0.48132305371E+03  0.00000000000E+00 0. -1.
         23    2    1    2    0    0 -0.35270773146E+01  0.10801429969E+02 -0.20819147634E+03  0.24315067424E+03  0.12509775537E+03 0.  0.
          5    1    3    3  502    0 -0.36956147830E+02  0.57198480337E+02 -0.11645714204E+03  0.13497096483E+03  0.41800000000E+01 0. -1.
         -5    1    3    3    0  502  0.33429070516E+02 -0.46397050368E+02 -0.91734334301E+02  0.10817970941E+03  0.41800000000E+01 0. -1.
        -11    1    1    2    0    0 -0.35498185221E+01 -0.50041289418E+02 -0.82461885691E+02  0.96523025491E+02  0.00000000000E+00 0. -1.
         11    1    1    2    0    0  0.70768958367E+01  0.39239859449E+02 -0.16376747060E+03  0.16855157505E+03  0.00000000000E+00 0.  1.
</event>
<event>
 7    1  0.1226955E-005  0.9123784E+02  0.7561462E-02  0.1299881E+00
          2   -1    0    0  501    0  0.00000000000E+00  0.00000000000E+00  0.46448407095E+03  0.46448407095E+03  0.00000000000E+00 0. -1.
         -2   -1    0    0    0  501 -0.00000000000E+00 -0.00000000000E+00 -0.34403953495E+02  0.34403953495E+02  0.00000000000E+00 0.  1.
         23    2    1    2    0    0  0.62881275683E+02  0.28947914474E+02  0.23393934064E+03  0.27416713548E+03  0.12509183224E+03 0.  0.
          5    1    3    3  502    0  0.10263771342E+02  0.17786871733E+02 -0.10783173776E+02  0.23568348370E+02  0.41800000000E+01 0. -1.
         -5    1    3    3    0  502  0.52617504342E+02  0.11161042740E+02  0.24472251442E+03  0.25059878711E+03  0.41800000000E+01 0. -1.
        -11    1    1    2    0    0 -0.25347748569E+02 -0.55887908853E+02  0.13307014425E+03  0.14653883446E+03  0.00000000000E+00 0. -1.
         11    1    1    2    0    0 -0.37533527115E+02  0.26939994379E+02  0.63070632562E+02  0.78182054505E+02  0.00000000000E+00 0.  1.
</event>
<event>
 7    1  0.1226955E-005  0.1219568E+03  0.7561462E-02  0.1239903E+00
          2   -1    0    0  501    0  0.00000000000E+00  0.00000000000E+00  0.57636451935E+03  0.57636451935E+03  0.00000000000E+00 0. -1.
         -2   -1    0    0    0  501 -0.00000000000E+00 -0.00000000000E+00 -0.34791769136E+02  0.34791769136E+02  0.00000000000E+00 0.  1.
         23    2    1    2    0    0  0.60079646295E+01 -0.62479265066E+02  0.14792893859E+03  0.20364292132E+03  0.12509082433E+03 0.  0.
          5    1    3    3  502    0  0.65083489750E+02 -0.38808798910E+02  0.86832042717E+02  0.11532241566E+03  0.41800000000E+01 0. -1.
         -5    1    3    3    0  502 -0.59075525120E+02 -0.23670466155E+02  0.61096895870E+02  0.88320505666E+02  0.41800000000E+01 0. -1.
        -11    1    1    2    0    0  0.36943173272E+02  0.14081161058E+02  0.12097008611E+03  0.12726680197E+03  0.00000000000E+00 0.  1.
         11    1    1    2    0    0 -0.42951137901E+02  0.48398104008E+02  0.27267372551E+03  0.28024656520E+03  0.00000000000E+00 0. -1.
</event>
<event>
 7    1  0.1226955E-005  0.1033596E+03  0.7561462E-02  0.1273386E+00
          3   -1    0    0  501    0  0.00000000000E+00  0.00000000000E+00  0.11742219737E+03  0.11742219737E+03  0.00000000000E+00 0. -1.
         -3   -1    0    0    0  501 -0.00000000000E+00 -0.00000000000E+00 -0.14709904126E+03  0.14709904126E+03  0.00000000000E+00 0.  1.
         23    2    1    2    0    0  0.42666351755E+02  0.47646496613E+02 -0.41485643336E+02  0.14649419571E+03  0.12509550177E+03 0.  0.
          5    1    3    3  502    0  0.31394034986E+01  0.85453562414E+02 -0.26698614215E+02  0.89679738986E+02  0.41800000000E+01 0.  1.
         -5    1    3    3    0  502  0.39526948256E+02 -0.37807065802E+02 -0.14787029120E+02  0.56814456727E+02  0.41800000000E+01 0.  1.
        -11    1    1    2    0    0 -0.11843432398E+01 -0.10498906443E+02 -0.40361901049E+02  0.41721849931E+02  0.00000000000E+00 0.  1.
         11    1    1    2    0    0 -0.41482008515E+02 -0.37147590170E+02  0.52170700499E+02  0.76305192985E+02  0.00000000000E+00 0. -1.
</event>
<event>
 7    1  0.1226955E-005  0.1311522E+03  0.7561462E-02  0.1225756E+00
         -2   -1    0    0    0  501 -0.00000000000E+00  0.00000000000E+00  0.23957256477E+02  0.23957256477E+02  0.00000000000E+00 0.  1.
          2   -1    0    0  501    0  0.00000000000E+00 -0.00000000000E+00 -0.10684648515E+04  0.10684648515E+04  0.00000000000E+00 0. -1.
         23    2    1    2    0    0  0.57790342280E+02 -0.98687611166E+02 -0.65296966557E+03  0.67460743042E+03  0.12508730060E+03 0.  0.
          5    1    3    3  502    0  0.60078948036E+02 -0.10971377902E+03 -0.65038873737E+03  0.66232135358E+03  0.41800000000E+01 0.  1.
         -5    1    3    3    0  502 -0.22886057565E+01  0.11026167852E+02 -0.25809281915E+01  0.12286076841E+02  0.41800000000E+01 0.  1.
        -11    1    1    2    0    0 -0.24112590443E+02  0.37502415282E+01 -0.16434342920E+02  0.29420553303E+02  0.00000000000E+00 0.  1.
         11    1    1    2    0    0 -0.33677751836E+02  0.94937369638E+02 -0.37510358658E+03  0.38839412430E+03  0.00000000000E+00 0. -1.
</event>
<event>
 7    1  0.1324005E-005  0.1706348E+03  0.7561462E-02  0.1177187E+00
          1   -1    0    0  501    0  0.00000000000E+00  0.00000000000E+00  0.30988581121E+03  0.30988581121E+03  0.00000000000E+00 0.  1.
         -1   -1    0    0    0  501 -0.00000000000E+00 -0.00000000000E+00 -0.10046005505E+03  0.10046005505E+03  0.00000000000E+00 0. -1.
         23    2    1    2    0    0  0.41201769850E+01  0.13695761647E+03  0.83743265512E+02  0.20355575715E+03  0.12509055594E+03 0.  0.
          5    1    3    3  502    0  0.21191799717E+02  0.15313203091E+03  0.50626342752E+02  0.16272372367E+03  0.41800000000E+01 0.  1.
         -5    1    3    3    0  502 -0.17071622732E+02 -0.16174414438E+02  0.33116922760E+02  0.40832033482E+02  0.41800000000E+01 0.  1.
        -11    1    1    2    0    0 -0.34906052266E+02 -0.16877210706E+02  0.18702950861E+02  0.43047335538E+02  0.00000000000E+00 0. -1.
         11    1    1    2    0    0  0.30785875281E+02 -0.12008040576E+03  0.10697953979E+03  0.16374277358E+03  0.00000000000E+00 0.  1.
</event>
<event>
 7    1  0.1226955E-005  0.7746280E+02  0.7561462E-02  0.1336410E+00
          3   -1    0    0  501    0  0.00000000000E+00  0.00000000000E+00  0.88234820027E+03  0.88234820027E+03  0.00000000000E+00 0. -1.
         -3   -1    0    0    0  501 -0.00000000000E+00 -0.00000000000E+00 -0.13637863631E+02  0.13637863631E+02  0.00000000000E+00 0.  1.
         23    2    1    2    0    0  0.11994952506E+02 -0.70726246087E+01  0.54706046488E+03  0.56135229613E+03  0.12508935697E+03 0.  0.
          5    1    3    3  502    0 -0.19525054592E+02 -0.20654451140E+02  0.24809614208E+02  0.37958180487E+02  0.41800000000E+01 0.  1.
         -5    1    3    3    0  502  0.31520007098E+02  0.13581826531E+02  0.52225085067E+03  0.52339411564E+03  0.41800000000E+01 0.  1.
        -11    1    1    2    0    0 -0.48803871589E+02  0.19810778019E+02  0.16439224354E+03  0.17262414241E+03  0.00000000000E+00 0. -1.
         11    1    1    2    0    0  0.36808919083E+02 -0.12738153410E+02  0.15725762822E+03  0.16200962537E+03  0.00000000000E+00 0.  1.
</event>
<event>
 7    1  0.1226955E-005  0.3007171E+03  0.7561462E-02  0.1084883E+00
          2   -1    0    0  501    0  0.00000000000E+00  0.00000000000E+00  0.12912608860E+03  0.12912608860E+03  0.00000000000E+00 0. -1.
         -2   -1    0    0    0  501 -0.00000000000E+00 -0.00000000000E+00 -0.71244409773E+03  0.71244409773E+03  0.00000000000E+00 0.  1.
         23    2    1    2    0    0 -0.25047507613E+03 -0.13058466966E+03 -0.26977034205E+03  0.41013772201E+03  0.12508714505E+03 0.  0.
          5    1    3    3  502    0 -0.15145897603E+03 -0.13902027165E+03 -0.15041330406E+03  0.25477066508E+03  0.41800000000E+01 0.  1.
         -5    1    3    3    0  502 -0.99016100104E+02  0.84356019949E+01 -0.11935703799E+03  0.15536705693E+03  0.41800000000E+01 0.  1.
        -11    1    1    2    0    0  0.18134692269E+03  0.45978483217E+02 -0.19932574409E+03  0.27337059012E+03  0.00000000000E+00 0. -1.
         11    1    1    2    0    0  0.69128153443E+02  0.84606186438E+02 -0.11422192299E+03  0.15806187419E+03  0.00000000000E+00 0.  1.
</event>
<event>
 6    1  0.1226955E-005  0.1508199E+03  0.7561462E-02  0.1199469E+00
         -2   -1    0    0    0  501 -0.00000000000E+00  0.00000000000E+00  0.51281179290E+02  0.51281179290E+02  0.00000000000E+00 0.  1.
          2   -1    0    0  501    0  0.00000000000E+00 -0.00000000000E+00 -0.54193852987E+03  0.54193852987E+03  0.00000000000E+00 0. -1.
          5    1    1    2  502    0  0.54730381483E+02  0.77876353816E+02 -0.21104860054E+03  0.23155803880E+03  0.41800000000E+01 0. -1.
         -5    1    1    2    0  502 -0.96441997056E+02 -0.78217078009E+02 -0.11664469585E+03  0.17041838973E+03  0.41800000000E+01 0.  1.
        -11    1    1    2    0    0  0.49531265060E+02  0.25544945377E+02 -0.48824088259E+02  0.74092388591E+02  0.00000000000E+00 0.  1.
         11    1    1    2    0    0 -0.78196494876E+01 -0.25204221185E+02 -0.11413996592E+03  0.11715089204E+03  0.00000000000E+00 0. -1.
</event>
<event>
 7    1  0.1226955E-005  0.1194456E+03  0.7561462E-02  0.1244014E+00
         -3   -1    0    0    0  501 -0.00000000000E+00  0.00000000000E+00  0.91469663423E+03  0.91469663423E+03  0.00000000000E+00 0.  1.
          3   -1    0    0  501    0  0.00000000000E+00 -0.00000000000E+00 -0.19867703451E+02  0.19867703451E+02  0.00000000000E+00 0. -1.
         23    2    1    2    0    0  0.74674827497E+02 -0.48861068998E+02  0.66650198700E+03  0.68398466845E+03  0.12508554703E+03 0.  0.
          5    1    3    3  502    0  0.88263531533E+02  0.99790538952E+01  0.31511183202E+03  0.32741864882E+03  0.41800000000E+01 0.  1.
         -5    1    3    3    0  502 -0.13588704036E+02 -0.58840122893E+02  0.35139015498E+03  0.35656601963E+03  0.41800000000E+01 0.  1.
        -11    1    1    2    0    0 -0.39372582869E+02  0.22244372851E+02  0.17770625623E+03  0.18336991549E+03  0.00000000000E+00 0.  1.
         11    1    1    2    0    0 -0.35302244627E+02  0.26616696146E+02  0.50620687557E+02  0.67209753743E+02  0.00000000000E+00 0. -1.
</event>
<event>
 6    1  0.1226955E-005  0.1119074E+03  0.7561462E-02  0.1257078E+00
          2   -1    0    0  501    0  0.00000000000E+00  0.00000000000E+00  0.25141225878E+03  0.25141225878E+03  0.00000000000E+00 0. -1.
         -2   -1    0    0    0  501 -0.00000000000E+00 -0.00000000000E+00 -0.69961371835E+02  0.69961371835E+02  0.00000000000E+00 0.  1.
          5    1    1    2  502    0 -0.48624633578E+02 -0.49228582062E+02  0.13530574301E+03  0.15202935497E+03  0.41800000000E+01 0. -1.
         -5    1    1    2    0  502  0.53573801229E+02  0.38703524527E+02 -0.17091020199E+01  0.66245818122E+02  0.41800000000E+01 0.  1.
        -11    1    1    2    0    0  0.32960694256E+02 -0.20901181267E+02  0.34466072917E+02  0.52068963179E+02  0.00000000000E+00 0.  1.
         11    1    1    2    0    0 -0.37909861907E+02  0.31426238803E+02  0.13388173038E+02  0.51029494338E+02  0.00000000000E+00 0. -1.
</event>
<event>
 7    1  0.1226955E-005  0.2362590E+03  0.7561462E-02  0.1122310E+00
         -2   -1    0    0    0  501 -0.00000000000E+00  0.00000000000E+00  0.13606923176E+03  0.13606923176E+03  0.00000000000E+00 0.  1.
          2   -1    0    0  501    0  0.00000000000E+00 -0.00000000000E+00 -0.42692928766E+03  0.42692928766E+03  0.00000000000E+00 0. -1.
         23    2    1    2    0    0  0.20659884921E+03 -0.43227923795E+02 -0.11101366000E+03  0.26930147548E+03  0.12509002397E+03 0.  0.
          5    1    3    3  502    0  0.22310710738E+03 -0.33426250966E+02 -0.10385163475E+03  0.24838826473E+03  0.41800000000E+01 0.  1.
         -5    1    3    3    0  502 -0.16508258168E+02 -0.98016728288E+01 -0.71620252486E+01  0.20913210745E+02  0.41800000000E+01 0.  1.
        -11    1    1    2    0    0 -0.11248692589E+03  0.65981117149E+02 -0.13252190657E+03  0.18592706107E+03  0.00000000000E+00 0.  1.
         11    1    1    2    0    0 -0.94111923316E+02 -0.22753193355E+02 -0.47324489324E+02  0.10776998287E+03  0.00000000000E+00 0. -1.
</event>
<event>
 7    1  0.1226955E-005  0.9424135E+02  0.7561462E-02  0.1292894E+00
         -2   -1    0    0    0  501 -0.00000000000E+00  0.00000000000E+00  0.31989014240E+03  0.31989014240E+03  0.00000000000E+00 0.  1.
          2   -1    0    0  501    0  0.00000000000E+00 -0.00000000000E+00 -0.61186231871E+02  0.61186231871E+02  0.00000000000E+00 0. -1.
         23    2    1    2    0    0  0.73158834323E+02  0.32993044386E+02  0.19436208466E+03  0.24411752516E+03  0.12399996015E+03 0.  0.
          5    1    3    3  502    0 -0.11669063523E+02 -0.17071352709E+01  0.13335214921E+03  0.13393785668E+03  0.41800000000E+01 0.  1.
         -5    1    3    3    0  502  0.84827897847E+02  0.34700179657E+02  0.61009935455E+02  0.11017966848E+03  0.41800000000E+01 0.  1.
        -11    1    1    2    0    0 -0.39505244490E+02 -0.38253934070E+01  0.80363344732E+02  0.89630157612E+02  0.00000000000E+00 0.  1.
         11    1    1    2    0    0 -0.33653589834E+02 -0.29167650979E+02 -0.16021518867E+02  0.47328691500E+02  0.00000000000E+00 0. -1.
</event>
<event>
 6    1  0.1226955E-005  0.2593303E+03  0.7561462E-02  0.1107546E+00
          2   -1    0    0  501    0  0.00000000000E+00  0.00000000000E+00  0.13421453299E+04  0.13421453299E+04  0.00000000000E+00 0. -1.
         -2   -1    0    0    0  501 -0.00000000000E+00 -0.00000000000E+00 -0.58750966563E+02  0.58750966563E+02  0.00000000000E+00 0.  1.
          5    1    1    2  502    0 -0.64643522371E+02 -0.19590995301E+03  0.54486478426E+03  0.58262732531E+03  0.41800000000E+01 0. -1.
         -5    1    1    2    0  502  0.95803212312E+02  0.19473722620E+03  0.30491319262E+03  0.37428648144E+03  0.41800000000E+01 0.  1.
        -11    1    1    2    0    0 -0.32971281884E+02 -0.41239907289E+02  0.22885308722E+03  0.23486500572E+03  0.00000000000E+00 0.  1.
         11    1    1    2    0    0  0.18115919421E+01  0.42412634099E+02  0.20476329927E+03  0.20911748402E+03  0.00000000000E+00 0. -1.
</event>
<event>
 7    1  0.1226955E-005  0.1510975E+03  0.7561462E-02  0.1199131E+00
         -2   -1    0    0    0  501 -0.00000000000E+00  0.00000000000E+00  0.25567218114E+03  0.25567218114E+03  0.00000000000E+00 0.  1.
          2   -1    0    0  501    0  0.00000000000E+00 -0.00000000000E+00 -0.10172773883E+03  0.10172773883E+03  0.00000000000E+00 0. -1.
         23    2    1    2    0    0 -0.78871820110E+02  0.97143723041E+02  0.11574098887E+03  0.21142618641E+03  0.12508952339E+03 0.  0.
          5    1    3    3  502    0 -0.97665914736E+02  0.29423880642E+02  0.91129802230E+02  0.13684483515E+03  0.41800000000E+01 0.  1.
         -5    1    3    3    0  502  0.18794094626E+02  0.67719842399E+02  0.24611186642E+02  0.74581351257E+02  0.41800000000E+01 0.  1.
        -11    1    1    2    0    0  0.89207160539E+01 -0.35054593789E+02  0.37969872963E+02  0.52441538626E+02  0.00000000000E+00 0.  1.
         11    1    1    2    0    0  0.69951104056E+02 -0.62089129252E+02  0.23358046916E+00  0.93532194937E+02  0.00000000000E+00 0. -1.
</event>
<event>
 6    1  0.1226955E-005  0.9849995E+02  0.7561462E-02  0.1283482E+00
          2   -1    0    0  501    0  0.00000000000E+00  0.00000000000E+00  0.36934749794E+03  0.36934749794E+03  0.00000000000E+00 0. -1.
         -2   -1    0    0    0  501 -0.00000000000E+00 -0.00000000000E+00 -0.84119959376E+02  0.84119959376E+02  0.00000000000E+00 0.  1.
          5    1    1    2  502    0 -0.68180237571E+02  0.91747492259E+00  0.10013487526E+03  0.12121820077E+03  0.41800000000E+01 0. -1.
         -5    1    1    2    0  502 -0.65665635053E+01 -0.20419135369E+02 -0.57373176347E+02  0.61393929746E+02  0.41800000000E+01 0.  1.
        -11    1    1    2    0    0  0.83067831818E+02 -0.27118467398E+01  0.22891708999E+03  0.24353778534E+03  0.00000000000E+00 0. -1.
         11    1    1    2    0    0 -0.83210307423E+01  0.22213507187E+02  0.13548749662E+02  0.27317541462E+02  0.00000000000E+00 0.  1.
</event>
<event>
 7    1  0.1226955E-005  0.7888519E+02  0.7561462E-02  0.1332245E+00
         -3   -1    0    0    0  501 -0.00000000000E+00  0.00000000000E+00  0.39188490542E+02  0.39188490542E+02  0.00000000000E+00 0.  1.
          3   -1    0    0  501    0  0.00000000000E+00 -0.00000000000E+00 -0.31734914567E+03  0.31734914567E+03  0.00000000000E+00 0. -1.
         23    2    1    2    0    0 -0.16898595924E+02  0.16371153058E+02 -0.18110174639E+03  0.22135619492E+03  0.12508854979E+03 0.  0.
          5    1    3    3  502    0 -0.10984644619E+02  0.40057032974E+02 -0.19038296842E+03  0.19490606808E+03  0.41800000000E+01 0.  1.
         -5    1    3    3    0  502 -0.59139513044E+01 -0.23685879916E+02  0.92812220357E+01  0.26450126841E+02  0.41800000000E+01 0.  1.
        -11    1    1    2    0    0 -0.32091314422E+02  0.12445061219E+02 -0.53314817453E+02  0.63460237709E+02  0.00000000000E+00 0. -1.
         11    1    1    2    0    0  0.48989910346E+02 -0.28816214277E+02 -0.43744091286E+02  0.71721203583E+02  0.00000000000E+00 0.  1.
</event>
<event>
 7    1  0.1226955E-005  0.1129914E+03  0.7561462E-02  0.1255129E+00
          1   -1    0    0  501    0  0.00000000000E+00  0.00000000000E+00  0.23599594751E+03  0.23599594751E+03  0.00000000000E+00 0. -1.
         -1   -1    0    0    0  501 -0.00000000000E+00 -0.00000000000E+00 -0.56323158397E+02  0.56323158397E+02  0.00000000000E+00 0.  1.
         23    2    1    2    0    0  0.79177743517E+01  0.37272909268E+02  0.89106897876E+02  0.15823818649E+03  0.12508926213E+03 0.  0.
          5    1    3    3  502    0 -0.45148635999E+02 -0.21723880273E+02  0.44327585568E+02  0.67027856515E+02  0.41800000000E+01 0. -1.
         -5    1    3    3    0  502  0.53066410351E+02  0.58996789541E+02  0.44779312308E+02  0.91210329977E+02  0.41800000000E+01 0. -1.
        -11    1    1    2    0    0  0.30070200327E+02  0.13393417610E+02  0.46334160240E+02  0.56837091658E+02  0.00000000000E+00 0. -1.
         11    1    1    2    0    0 -0.37987974679E+02 -0.50666326877E+02  0.44231730996E+02  0.77243827756E+02  0.00000000000E+00 0.  1.
</event>
<event>
 7    1  0.1226955E-005  0.2261966E+03  0.7561462E-02  0.1129346E+00
         -1   -1    0    0    0  501 -0.00000000000E+00  0.00000000000E+00  0.40173146502E+02  0.40173146502E+02  0.00000000000E+00 0.  1.
          1   -1    0    0  501    0  0.00000000000E+00 -0.00000000000E+00 -0.14312612729E+04  0.14312612729E+04  0.00000000000E+00 0. -1.
         23    2    1    2    0    0  0.12253388980E+03  0.16698976113E+03 -0.55319885788E+03  0.60380166586E+03  0.12508933152E+03 0.  0.
          5    1    3    3  502    0  0.70598410995E+02  0.22144832755E+02 -0.95309027821E+02  0.12073032940E+03  0.41800000000E+01 0. -1.
         -5    1    3    3    0  502  0.51935478802E+02  0.14484492838E+03 -0.45788983006E+03  0.48307133646E+03  0.41800000000E+01 0. -1.
        -11    1    1    2    0    0 -0.13606395026E+03 -0.14804780646E+03 -0.72492360353E+03  0.75229368103E+03  0.00000000000E+00 0.  1.
         11    1    1    2    0    0  0.13530060469E+02 -0.18941954672E+02 -0.11296566496E+03  0.11533907249E+03  0.00000000000E+00 0. -1.
</event>
<event>
 7    1  0.1226955E-005  0.1546088E+03  0.7561462E-02  0.1194921E+00
          2   -1    0    0  501    0  0.00000000000E+00  0.00000000000E+00  0.57594600046E+03  0.57594600046E+03  0.00000000000E+00 0. -1.
         -2   -1    0    0    0  501 -0.00000000000E+00 -0.00000000000E+00 -0.50904190435E+02  0.50904190435E+02  0.00000000000E+00 0.  1.
         23    2    1    2    0    0  0.92271228327E+02 -0.88088875691E+02  0.21643502540E+03  0.28065144888E+03  0.12508991142E+03 0.  0.
          5    1    3    3  502    0  0.54934515489E+02  0.24244824861E+02  0.70810720889E+02  0.92936769458E+02  0.41800000000E+01 0. -1.
         -5    1    3    3    0  502  0.37336712837E+02 -0.11233370055E+03  0.14562430451E+03  0.18771467942E+03  0.41800000000E+01 0. -1.
        -11    1    1    2    0    0 -0.61266597469E+02  0.39363037693E+02  0.71116867634E+02  0.10178729569E+03  0.00000000000E+00 0.  1.
         11    1    1    2    0    0 -0.31004630857E+02  0.48725837998E+02  0.23748991699E+03  0.24441144633E+03  0.00000000000E+00 0. -1.
</event>
<event>
 7    1  0.1226955E-005  0.1344584E+03  0.7561462E-02  0.1220986E+00
         -1   -1    0    0    0  501 -0.00000000000E+00  0.00000000000E+00  0.20634690172E+02  0.20634690172E+02  0.00000000000E+00 0.  1.
          1   -1    0    0  501    0  0.00000000000E+00 -0.00000000000E+00 -0.98765347889E+03  0.98765347889E+03  0.00000000000E+00 0. -1.
         23    2    1    2    0    0  0.38427238130E+02 -0.87425056701E+02 -0.52194196112E+03  0.54515206871E+03  0.12509026370E+03 0.  0.
          5    1    3    3  502    0 -0.23992322684E+02 -0.75355041781E+02 -0.17066213874E+03  0.18814104249E+03  0.41800000000E+01 0.  1.
         -5    1    3    3    0  502  0.62419560815E+02 -0.12070014919E+02 -0.35127982237E+03  0.35701102621E+03  0.41800000000E+01 0.  1.
        -11    1    1    2    0    0  0.18793120645E+02  0.59388867092E+02 -0.17875312502E+03  0.18929579663E+03  0.00000000000E+00 0.  1.
         11    1    1    2    0    0 -0.57220358775E+02  0.28036189609E+02 -0.26632370259E+03  0.27384030373E+03  0.00000000000E+00 0. -1.
</event>
<event>
 7    1  0.1226955E-005  0.1030466E+03  0.7561462E-02  0.1274017E+00
          2   -1    0    0  501    0  0.00000000000E+00  0.00000000000E+00  0.33395764556E+03  0.33395764556E+03  0.00000000000E+00 0. -1.
         -2   -1    0    0    0  501 -0.00000000000E+00 -0.00000000000E+00 -0.74531210212E+02  0.74531210212E+02  0.00000000000E+00 0.  1.
         23    2    1    2    0    0  0.20670256063E+02 -0.43587816337E+02 -0.76680456981E+01  0.12217003979E+03  0.11198018789E+03 0.  0.
          5    1    3    3  502    0 -0.13747746073E+02  0.28472386965E+02  0.19891017788E+02  0.37587262872E+02  0.41800000000E+01 0. -1.
         -5    1    3    3    0  502  0.34418002137E+02 -0.72060203303E+02 -0.27559063486E+02  0.84582776919E+02  0.41800000000E+01 0.  1.
        -11    1    1    2    0    0 -0.44283132007E+02  0.52777988220E+02  0.13230176811E+03  0.14916524282E+03  0.00000000000E+00 0. -1.
         11    1    1    2    0    0  0.23612875944E+02 -0.91901718831E+01  0.13479271294E+03  0.13715357316E+03  0.00000000000E+00 0.  1.
</event>
<event>
 7    1  0.1226955E-005  0.1092948E+03  0.7561462E-02  0.1261881E+00
         -2   -1    0    0    0  501 -0.00000000000E+00  0.00000000000E+00  0.20883716223E+02  0.20883716223E+02  0.00000000000E+00 0.  1.
          2   -1    0    0  501    0  0.00000000000E+00 -0.00000000000E+00 -0.91003801773E+03  0.91003801773E+03  0.00000000000E+00 0. -1.
         23    2    1    2    0    0 -0.19283789706E+02  0.74442676127E+02 -0.40752524600E+03  0.43317291822E+03  0.12509346256E+03 0.  0.
          5    1    3    3  502    0 -0.10230423641E+02 -0.57307789627E+01  0.45485265700E+01  0.13253863186E+02  0.41800000000E+01 0. -1.
         -5    1    3    3    0  502 -0.90533660654E+01  0.80173455090E+02 -0.41207377257E+03  0.41991905504E+03  0.41800000000E+01 0. -1.
        -11    1    1    2    0    0  0.26932686974E+02  0.18126737961E+02 -0.14031382523E+03  0.14402054648E+03  0.00000000000E+00 0.  1.
         11    1    1    2    0    0 -0.76488972682E+01 -0.92569414088E+02 -0.34131523027E+03  0.35372826925E+03  0.00000000000E+00 0. -1.
</event>
<event>
 7    1  0.1226955E-005  0.1108184E+03  0.7561462E-02  0.1259062E+00
         -2   -1    0    0    0  501 -0.00000000000E+00  0.00000000000E+00  0.27567810286E+03  0.27567810286E+03  0.00000000000E+00 0.  1.
          2   -1    0    0  501    0  0.00000000000E+00 -0.00000000000E+00 -0.94237985953E+02  0.94237985953E+02  0.00000000000E+00 0. -1.
         23    2    1    2    0    0  0.95381128708E+01 -0.27268205343E+02  0.22759375298E+03  0.26130570775E+03  0.12508887195E+03 0.  0.
          5    1    3    3  502    0  0.45284158784E+02  0.30884643619E+02  0.13835022705E+03  0.14887166948E+03  0.41800000000E+01 0.  1.
         -5    1    3    3    0  502 -0.35746045913E+02 -0.58152848962E+02  0.89243525932E+02  0.11243403827E+03  0.41800000000E+01 0.  1.
        -11    1    1    2    0    0  0.40519371170E+02  0.26112805146E+02 -0.24198029636E+02  0.53937395848E+02  0.00000000000E+00 0. -1.
         11    1    1    2    0    0 -0.50057484041E+02  0.11554001974E+01 -0.21955606442E+02  0.54672985215E+02  0.00000000000E+00 0.  1.
</event>
<event>
 6    1  0.1226955E-005  0.9733659E+02  0.7561462E-02  0.1285999E+00
          1   -1    0    0  501    0  0.00000000000E+00  0.00000000000E+00  0.17907840233E+03  0.17907840233E+03  0.00000000000E+00 0. -1.
         -1   -1    0    0    0  501 -0.00000000000E+00 -0.00000000000E+00 -0.31458306794E+03  0.31458306794E+03  0.00000000000E+00 0.  1.
          5    1    1    2  502    0 -0.23015306385E+02  0.20985667587E+02  0.69692548630E+01  0.32189213805E+02  0.41800000000E+01 0. -1.
         -5    1    1    2    0  502 -0.35585379413E+02 -0.36345186377E+02 -0.27840114997E+03  0.28304057042E+03  0.41800000000E+01 0.  1.
        -11    1    1    2    0    0 -0.88032079406E+01 -0.29802554732E+02  0.20081991828E+02  0.36999663976E+02  0.00000000000E+00 0.  1.
         11    1    1    2    0    0  0.67403893738E+02  0.45162073521E+02  0.11584523767E+03  0.14143202207E+03  0.00000000000E+00 0. -1.
</event>
<event>
 7    1  0.1226955E-005  0.1429704E+03  0.7561462E-02  0.1209387E+00
          1   -1    0    0  501    0  0.00000000000E+00  0.00000000000E+00  0.16693072768E+03  0.16693072768E+03  0.00000000000E+00 0. -1.
         -1   -1    0    0    0  501 -0.00000000000E+00 -0.00000000000E+00 -0.20252245469E+03  0.20252245469E+03  0.00000000000E+00 0.  1.
         23    2    1    2    0    0 -0.98754266970E+02  0.13952607523E+02 -0.12917601414E+03  0.20561905422E+03  0.12508266198E+03 0.  0.
          5    1    3    3  502    0 -0.10947038904E+03 -0.25652346920E+02 -0.66822752087E+02  0.13086084814E+03  0.41800000000E+01 0.  1.
         -5    1    3    3    0  502  0.10716122068E+02  0.39604954443E+02 -0.62353262051E+02  0.74758206085E+02  0.41800000000E+01 0.  1.
        -11    1    1    2    0    0  0.34111758453E+02  0.36668150358E+02  0.21220899029E+02  0.54392020288E+02  0.00000000000E+00 0.  1.
         11    1    1    2    0    0  0.64642508517E+02 -0.50620757881E+02  0.72363388094E+02  0.10944210786E+03  0.00000000000E+00 0. -1.
</event>
<event>
 7    1  0.1226955E-005  0.1070648E+03  0.7561462E-02  0.1266104E+00
          1   -1    0    0  501    0  0.00000000000E+00  0.00000000000E+00  0.21028783386E+03  0.21028783386E+03  0.00000000000E+00 0. -1.
         -1   -1    0    0    0  501 -0.00000000000E+00 -0.00000000000E+00 -0.63524603560E+02  0.63524603560E+02  0.00000000000E+00 0.  1.
         23    2    1    2    0    0 -0.21482672522E+02  0.22154721068E+02  0.49436231244E+02  0.13799811405E+03  0.12508877503E+03 0.  0.
          5    1    3    3  502    0 -0.14963637760E+02 -0.47312793091E+02 -0.40807112396E+01  0.49965342481E+02  0.41800000000E+01 0. -1.
         -5    1    3    3    0  502 -0.65190347623E+01  0.69467514159E+02  0.53516942484E+02  0.88032771571E+02  0.41800000000E+01 0. -1.
        -11    1    1    2    0    0  0.46482041497E+02  0.15705921412E+02  0.55883756767E+02  0.74365653493E+02  0.00000000000E+00 0. -1.
         11    1    1    2    0    0 -0.24999368975E+02 -0.37860642480E+02  0.41443242293E+02  0.61448669879E+02  0.00000000000E+00 0.  1.
</event>
<event>
 7    1  0.1226955E-005  0.1031680E+03  0.7561462E-02  0.1273772E+00
          3   -1    0    0  501    0  0.00000000000E+00  0.00000000000E+00  0.60674983883E+02  0.60674983883E+02  0.00000000000E+00 0. -1.
         -3   -1    0    0    0  501 -0.00000000000E+00 -0.00000000000E+00 -0.35630890883E+03  0.35630890883E+03  0.00000000000E+00 0.  1.
         23    2    1    2    0    0 -0.71661966814E+02  0.26209533494E+02 -0.25053048916E+03  0.29023390597E+03  0.12509123489E+03 0.  0.
          5    1    3    3  502    0 -0.35992739468E+02  0.64929111816E+02 -0.21255983401E+03  0.22518974730E+03  0.41800000000E+01 0. -1.
         -5    1    3    3    0  502 -0.35669227346E+02 -0.38719578323E+02 -0.37970655149E+02  0.65044158672E+02  0.41800000000E+01 0. -1.
        -11    1    1    2    0    0  0.30003792695E+02 -0.96757772334E-01 -0.66633189635E+02  0.73076801374E+02  0.00000000000E+00 0.  1.
         11    1    1    2    0    0  0.41658174119E+02 -0.26112775721E+02  0.21529753844E+02  0.53673185366E+02  0.00000000000E+00 0. -1.
</event>
<event>
 7    1  0.1226955E-005  0.1012707E+03  0.7561462E-02  0.1277646E+00
          3   -1    0    0  501    0  0.00000000000E+00  0.00000000000E+00  0.49759784455E+03  0.49759784455E+03  0.00000000000E+00 0. -1.
         -3   -1    0    0    0  501 -0.00000000000E+00 -0.00000000000E+00 -0.25164732885E+02  0.25164732885E+02  0.00000000000E+00 0.  1.
         23    2    1    2    0    0 -0.70806037415E+01 -0.25303715016E+02  0.30226620035E+03  0.32818094556E+03  0.12508982459E+03 0.  0.
          5    1    3    3  502    0 -0.56296915521E+02 -0.32657219477E+01  0.71482403575E+02  0.91143919478E+02  0.41800000000E+01 0. -1.
         -5    1    3    3    0  502  0.49216311779E+02 -0.22037993068E+02  0.23078379677E+03  0.23703702609E+03  0.41800000000E+01 0. -1.
        -11    1    1    2    0    0 -0.45543536480E+01 -0.32564774369E+02  0.83327724700E+02  0.89580781256E+02  0.00000000000E+00 0. -1.
         11    1    1    2    0    0  0.11634957389E+02  0.57868489385E+02  0.86839186618E+02  0.10500085061E+03  0.00000000000E+00 0.  1.
</event>
<event>
 7    1  0.1226955E-005  0.1509171E+03  0.7561462E-02  0.1199351E+00
         -1   -1    0    0    0  501 -0.00000000000E+00  0.00000000000E+00  0.15383946847E+03  0.15383946847E+03  0.00000000000E+00 0.  1.
          1   -1    0    0  501    0  0.00000000000E+00 -0.00000000000E+00 -0.19885113200E+03  0.19885113200E+03  0.00000000000E+00 0. -1.
         23    2    1    2    0    0 -0.10237233932E+03  0.77200312358E+02  0.20730361143E+02  0.18032453310E+03  0.12508878958E+03 0.  0.
          5    1    3    3  502    0 -0.70898112480E-01 -0.15196849683E+02 -0.29582746533E+02  0.33519554879E+02  0.41800000000E+01 0.  1.
         -5    1    3    3    0  502 -0.10230144121E+03  0.92397162041E+02  0.50313107676E+02  0.14680497822E+03  0.41800000000E+01 0.  1.
        -11    1    1    2    0    0  0.61174750270E+02 -0.59431676806E+00 -0.59212761383E+02  0.85140204332E+02  0.00000000000E+00 0. -1.
         11    1    1    2    0    0  0.41197589053E+02 -0.76605995590E+02 -0.65292632846E+01  0.87225863040E+02  0.00000000000E+00 0.  1.
</event>
<event>
 7    1  0.1226955E-005  0.8705931E+02  0.7561462E-02  0.1310133E+00
          2   -1    0    0  501    0  0.00000000000E+00  0.00000000000E+00  0.98102284518E+02  0.98102284518E+02  0.00000000000E+00 0. -1.
         -2   -1    0    0    0  501 -0.00000000000E+00 -0.00000000000E+00 -0.19786608159E+03  0.19786608159E+03  0.00000000000E+00 0.  1.
         23    2    1    2    0    0 -0.10433908605E+02  0.84314867853E+02 -0.78457329496E+02  0.17035431243E+03  0.12508867184E+03 0.  0.
          5    1    3    3  502    0 -0.16187016673E+02  0.72139380775E+02  0.15239005867E+02  0.75602972608E+02  0.41800000000E+01 0.  1.
         -5    1    3    3    0  502  0.57531080682E+01  0.12175487078E+02 -0.93696335362E+02  0.94751339824E+02  0.41800000000E+01 0.  1.
        -11    1    1    2    0    0  0.13020736627E+02 -0.54222820971E+02 -0.56399797383E+02  0.79313246316E+02  0.00000000000E+00 0.  1.
         11    1    1    2    0    0 -0.25868280215E+01 -0.30092046881E+02  0.35093329810E+02  0.46300807356E+02  0.00000000000E+00 0. -1.
</event>
<event>
 7    1  0.1226955E-005  0.1582884E+03  0.7561462E-02  0.1190643E+00
          3   -1    0    0  501    0  0.00000000000E+00  0.00000000000E+00  0.42740577149E+03  0.42740577149E+03  0.00000000000E+00 0.  1.
         -3   -1    0    0    0  501 -0.00000000000E+00 -0.00000000000E+00 -0.75913904068E+02  0.75913904068E+02  0.00000000000E+00 0. -1.
         23    2    1    2    0    0 -0.94001953628E+02 -0.10166296961E+03  0.13563797778E+03  0.23068680509E+03  0.12508802642E+03 0.  0.
          5    1    3    3  502    0  0.47888824118E+01 -0.40299581325E+02 -0.12161440441E+02  0.42571853182E+02  0.41800000000E+01 0.  1.
         -5    1    3    3    0  502 -0.98790836040E+02 -0.61363388284E+02  0.14779941822E+03  0.18811495191E+03  0.41800000000E+01 0.  1.
        -11    1    1    2    0    0  0.27594524529E+02  0.87173281390E+02  0.16156013867E+03  0.18564028975E+03  0.00000000000E+00 0. -1.
         11    1    1    2    0    0  0.66407429098E+02  0.14489688219E+02  0.54293750975E+02  0.86992580713E+02  0.00000000000E+00 0.  1.
</event>
<event>
 7    1  0.1226955E-005  0.1330744E+03  0.7561462E-02  0.1222964E+00
         -1   -1    0    0    0  501 -0.00000000000E+00  0.00000000000E+00  0.28764825307E+03  0.28764825307E+03  0.00000000000E+00 0.  1.
          1   -1    0    0  501    0  0.00000000000E+00 -0.00000000000E+00 -0.15157344865E+03  0.15157344865E+03  0.00000000000E+00 0. -1.
         23    2    1    2    0    0 -0.66975836987E+02  0.56736830595E+02  0.23401932884E+03  0.27949464454E+03  0.12508948544E+03 0.  0.
          5    1    3    3  502    0 -0.88774396851E+02  0.17452481897E+01  0.17244594336E+03  0.19400777100E+03  0.41800000000E+01 0.  1.
         -5    1    3    3    0  502  0.21798559863E+02  0.54991582405E+02  0.61573385481E+02  0.85486873537E+02  0.41800000000E+01 0.  1.
        -11    1    1    2    0    0 -0.22097384978E+01 -0.48195587676E+02 -0.69118197859E+02  0.84291297837E+02  0.00000000000E+00 0. -1.
         11    1    1    2    0    0  0.69185575485E+02 -0.85412429191E+01 -0.28826326565E+02  0.75435759352E+02  0.00000000000E+00 0.  1.
</event>
<event>
 7    1  0.1226955E-005  0.1597838E+03  0.7561462E-02  0.1188941E+00
         -1   -1    0    0    0  501 -0.00000000000E+00  0.00000000000E+00  0.10262642453E+03  0.10262642453E+03  0.00000000000E+00 0.  1.
          1   -1    0    0  501    0  0.00000000000E+00 -0.00000000000E+00 -0.32586762000E+03  0.32586762000E+03  0.00000000000E+00 0. -1.
         23    2    1    2    0    0 -0.67588162311E+01  0.14384447582E+03 -0.83655180681E+02  0.20828610781E+03  0.12509196070E+03 0.  0.
          5    1    3    3  502    0  0.20273820134E+02  0.13773965994E+03 -0.10385132663E+03  0.17374064621E+03  0.41800000000E+01 0. -1.
         -5    1    3    3    0  502 -0.27032636365E+02  0.61048158800E+01  0.20196145950E+02  0.34545461598E+02  0.41800000000E+01 0. -1.
        -11    1    1    2    0    0 -0.21073050937E+02 -0.47377529739E+02 -0.99304434027E+02  0.11202711465E+03  0.00000000000E+00 0. -1.
         11    1    1    2    0    0  0.27831867168E+02 -0.96466946078E+02 -0.40281580767E+02  0.10818082207E+03  0.00000000000E+00 0.  1.
</event>
<event>
 7    1  0.1226955E-005  0.6880508E+02  0.7561462E-02  0.1364204E+00
         -2   -1    0    0    0  501 -0.00000000000E+00  0.00000000000E+00  0.58816260764E+03  0.58816260764E+03  0.00000000000E+00 0.  1.
          2   -1    0    0  501    0  0.00000000000E+00 -0.00000000000E+00 -0.28115042347E+02  0.28115042347E+02  0.00000000000E+00 0. -1.
         23    2    1    2    0    0 -0.18038184123E+02 -0.58695727398E+02  0.38760801983E+03  0.41189691089E+03  0.12509405926E+03 0.  0.
          5    1    3    3  502    0 -0.87297211024E+01 -0.10659219895E+01  0.32874736848E+03  0.32889154581E+03  0.41800000000E+01 0.  1.
         -5    1    3    3    0  502 -0.93084630202E+01 -0.57629805409E+02  0.58860651348E+02  0.83005365081E+02  0.41800000000E+01 0.  1.
        -11    1    1    2    0    0 -0.62205590739E+01  0.34599617217E+02  0.16588104761E+03  0.16956518164E+03  0.00000000000E+00 0.  1.
         11    1    1    2    0    0  0.24258743196E+02  0.24096110181E+02  0.65584978528E+01  0.34815557462E+02  0.00000000000E+00 0. -1.
</event>
<event>
 7    1  0.1226955E-005  0.1276714E+03  0.7561462E-02  0.1230952E+00
          2   -1    0    0  501    0  0.00000000000E+00  0.00000000000E+00  0.17435517766E+03  0.17435517766E+03  0.00000000000E+00 0. -1.
         -2   -1    0    0    0  501 -0.00000000000E+00 -0.00000000000E+00 -0.15080948197E+03  0.15080948197E+03  0.00000000000E+00 0.  1.
         23    2    1    2    0    0 -0.98948319981E+02  0.51164793326E+02 -0.33005538429E+02  0.17072007939E+03  0.12508946333E+03 0.  0.
          5    1    3    3  502    0 -0.52081847932E+02  0.22590903291E+02 -0.80105622703E+02  0.98271313129E+02  0.41800000000E+01 0.  1.
         -5    1    3    3    0  502 -0.46866472049E+02  0.28573890036E+02  0.47100084274E+02  0.72448766261E+02  0.41800000000E+01 0.  1.
        -11    1    1    2    0    0  0.77626138836E+02 -0.77361103836E+02  0.38585552462E+02  0.11618692989E+03  0.00000000000E+00 0.  1.
         11    1    1    2    0    0  0.21322181145E+02  0.26196310509E+02  0.17965681661E+02  0.38257650355E+02  0.00000000000E+00 0. -1.
</event>
<event>
 7    1  0.1226955E-005  0.1046699E+03  0.7561462E-02  0.1270771E+00
          2   -1    0    0  501    0  0.00000000000E+00  0.00000000000E+00  0.12059044531E+02  0.12059044531E+02  0.00000000000E+00 0. -1.
         -2   -1    0    0    0  501 -0.00000000000E+00 -0.00000000000E+00 -0.11327517825E+04  0.11327517825E+04  0.00000000000E+00 0.  1.
         23    2    1    2    0    0 -0.25062436309E+02  0.26510932486E+02 -0.74208684905E+03  0.75343972239E+03  0.12509024133E+03 0.  0.
          5    1    3    3  502    0 -0.45266674305E+02  0.58247456994E+02 -0.27281006880E+03  0.28263871654E+03  0.41800000000E+01 0.  1.
         -5    1    3    3    0  502  0.20204237997E+02 -0.31736524508E+02 -0.46927678026E+03  0.47080100585E+03  0.41800000000E+01 0.  1.
        -11    1    1    2    0    0  0.59491826324E+02 -0.17415116914E+02 -0.27202484981E+03  0.27899835592E+03  0.00000000000E+00 0.  1.
         11    1    1    2    0    0 -0.34429390015E+02 -0.90958155729E+01 -0.10658103914E+03  0.11237274875E+03  0.00000000000E+00 0. -1.
</event>
<event>
 7    1  0.1226955E-005  0.1193442E+03  0.7561462E-02  0.1244183E+00
          1   -1    0    0  501    0  0.00000000000E+00  0.00000000000E+00  0.29804986723E+03  0.29804986723E+03  0.00000000000E+00 0. -1.
         -1   -1    0    0    0  501 -0.00000000000E+00 -0.00000000000E+00 -0.71663341081E+02  0.71663341081E+02  0.00000000000E+00 0.  1.
         23    2    1    2    0    0 -0.14577820811E+02  0.87423077287E+02  0.69231289721E+02  0.16821293779E+03  0.12508922280E+03 0.  0.
          5    1    3    3  502    0 -0.31623953361E+02 -0.12144483193E+02  0.56911727827E+02  0.66362489875E+02  0.41800000000E+01 0.  1.
         -5    1    3    3    0  502  0.17046132550E+02  0.99567560479E+02  0.12319561895E+02  0.10185044791E+03  0.41800000000E+01 0.  1.
        -11    1    1    2    0    0  0.25777170431E+02 -0.14301240468E+02  0.10974921961E+03  0.11363925026E+03  0.00000000000E+00 0. -1.
         11    1    1    2    0    0 -0.11199349620E+02 -0.73121836818E+02  0.47406016820E+02  0.87861020267E+02  0.00000000000E+00 0.  1.
</event>
<event>
 7    1  0.1226955E-005  0.7291972E+02  0.7561462E-02  0.1350437E+00
         -1   -1    0    0    0  501 -0.00000000000E+00  0.00000000000E+00  0.87978373174E+02  0.87978373174E+02  0.00000000000E+00 0.  1.
          1   -1    0    0  501    0  0.00000000000E+00 -0.00000000000E+00 -0.14171526470E+03  0.14171526470E+03  0.00000000000E+00 0. -1.
         23    2    1    2    0    0  0.51644822455E+01  0.14304785952E+02 -0.11542960794E+02  0.12662547153E+03  0.12517775888E+03 0.  0.
          5    1    3    3  502    0  0.51953590086E+02  0.35931963916E+00  0.31924886358E+02  0.61122625945E+02  0.41800000000E+01 0. -1.
         -5    1    3    3    0  502 -0.46789107841E+02  0.13945466313E+02 -0.43467847153E+02  0.65502845582E+02  0.41800000000E+01 0. -1.
        -11    1    1    2    0    0 -0.22282255411E+02 -0.16119109469E+02  0.22868452355E+02  0.35767173629E+02  0.00000000000E+00 0.  1.
         11    1    1    2    0    0  0.17117773166E+02  0.18143235169E+01 -0.65062383083E+02  0.67300992715E+02  0.00000000000E+00 0. -1.
</event>
<event>
 7    1  0.1226955E-005  0.1439555E+03  0.7561462E-02  0.1208103E+00
         -2   -1    0    0    0  501 -0.00000000000E+00  0.00000000000E+00  0.31642943176E+02  0.31642943176E+02  0.00000000000E+00 0.  1.
          2   -1    0    0  501    0  0.00000000000E+00 -0.00000000000E+00 -0.83221787482E+03  0.83221787482E+03  0.00000000000E+00 0. -1.
         23    2    1    2    0    0 -0.67659188916E+02  0.97505543126E+02 -0.37853496928E+03  0.41595462042E+03  0.12507768186E+03 0.  0.
          5    1    3    3  502    0 -0.62134293051E+02 -0.24844881796E+01 -0.21769489213E+03  0.22644067990E+03  0.41800000000E+01 0.  1.
         -5    1    3    3    0  502 -0.55248958650E+01  0.99990031305E+02 -0.16084007715E+03  0.18951394052E+03  0.41800000000E+01 0.  1.
        -11    1    1    2    0    0  0.13317526852E+01 -0.32361412879E+02 -0.27279672730E+02  0.42346371191E+02  0.00000000000E+00 0.  1.
         11    1    1    2    0    0  0.66327436231E+02 -0.65144130246E+02 -0.39476028964E+03  0.40555982639E+03  0.00000000000E+00 0. -1.
</event>
<event>
 7    1  0.1226955E-005  0.9934830E+02  0.7561462E-02  0.1281672E+00
          1   -1    0    0  501    0  0.00000000000E+00  0.00000000000E+00  0.24034147013E+03  0.24034147013E+03  0.00000000000E+00 0. -1.
         -1   -1    0    0    0  501 -0.00000000000E+00 -0.00000000000E+00 -0.94985718175E+02  0.94985718175E+02  0.00000000000E+00 0.  1.
         23    2    1    2    0    0 -0.84174337941E+01 -0.61522791983E+02 -0.15253217288E+02  0.14049881874E+03  0.12510535682E+03 0.  0.
          5    1    3    3  502    0  0.27711395344E+02 -0.14822217161E+02  0.45644189972E+02  0.55574130957E+02  0.41800000000E+01 0.  1.
         -5    1    3    3    0  502 -0.36128829138E+02 -0.46700574823E+02 -0.60897407260E+02  0.84924687781E+02  0.41800000000E+01 0.  1.
        -11    1    1    2    0    0 -0.21285742119E+02  0.72937728971E+02  0.13057364788E+03  0.15107108474E+03  0.00000000000E+00 0.  1.
         11    1    1    2    0    0  0.29703175913E+02 -0.11414936988E+02  0.30035321369E+02  0.43757284828E+02  0.00000000000E+00 0. -1.
</event>
<event>
 7    1  0.1226955E-005  0.1059883E+03  0.7561462E-02  0.1268185E+00
          1   -1    0    0  501    0  0.00000000000E+00  0.00000000000E+00  0.48988347870E+03  0.48988347870E+03  0.00000000000E+00 0. -1.
         -1   -1    0    0    0  501 -0.00000000000E+00 -0.00000000000E+00 -0.32448848428E+02  0.32448848428E+02  0.00000000000E+00 0.  1.
         23    2    1    2    0    0 -0.91544700106E-01 -0.32009630786E+02  0.13915288937E+03  0.18983029742E+03  0.12508952937E+03 0.  0.
          5    1    3    3  502    0 -0.54716245982E+02 -0.44686330493E+02  0.94299255624E+02  0.11790062646E+03  0.41800000000E+01 0. -1.
         -5    1    3    3    0  502  0.54624701282E+02  0.12676699707E+02  0.44853633741E+02  0.71929670966E+02  0.41800000000E+01 0. -1.
        -11    1    1    2    0    0  0.11859495341E+02 -0.24518365105E+02  0.40657418820E+02  0.48936934541E+02  0.00000000000E+00 0. -1.
         11    1    1    2    0    0 -0.11767950641E+02  0.56527995891E+02  0.27762432209E+03  0.28356509516E+03  0.00000000000E+00 0.  1.
</event>
<event>
 7    1  0.1226955E-005  0.1316541E+03  0.7561462E-02  0.1225022E+00
         -2   -1    0    0    0  501 -0.00000000000E+00  0.00000000000E+00  0.37508487356E+02  0.37508487356E+02  0.00000000000E+00 0.  1.
          2   -1    0    0  501    0  0.00000000000E+00 -0.00000000000E+00 -0.64604388754E+03  0.64604388754E+03  0.00000000000E+00 0. -1.
         23    2    1    2    0    0  0.79744780437E+02  0.30097681072E+02 -0.14055820202E+03  0.19945517761E+03  0.11296308825E+03 0.  0.
          5    1    3    3  502    0  0.89312127783E+02 -0.18924003444E+02 -0.90496473331E+02  0.12861515525E+03  0.41800000000E+01 0.  1.
         -5    1    3    3    0  502 -0.95673473464E+01  0.49021684516E+02 -0.50061728690E+02  0.70840022356E+02  0.41800000000E+01 0.  1.
        -11    1    1    2    0    0 -0.96018846230E+02 -0.38537871948E+02 -0.42422187526E+03  0.43665659946E+03  0.00000000000E+00 0.  1.
         11    1    1    2    0    0  0.16274065793E+02  0.84401908763E+01 -0.43755322903E+02  0.47440597823E+02  0.00000000000E+00 0. -1.
</event>
<event>
 7    1  0.1226955E-005  0.1102737E+03  0.7561462E-02  0.1260064E+00
          1   -1    0    0  501    0  0.00000000000E+00  0.00000000000E+00  0.53921492805E+03  0.53921492805E+03  0.00000000000E+00 0. -1.
         -1   -1    0    0    0  501 -0.00000000000E+00 -0.00000000000E+00 -0.24964308836E+02  0.24964308836E+02  0.00000000000E+00 0.  1.
         23    2    1    2    0    0 -0.12776142630E+02  0.37971468122E+02  0.26997066423E+03  0.30022711633E+03  0.12508836726E+03 0.  0.
          5    1    3    3  502    0 -0.60030114900E+01  0.79969383896E+02  0.22146440467E+03  0.23557396597E+03  0.41800000000E+01 0. -1.
         -5    1    3    3    0  502 -0.67731311401E+01 -0.41997915774E+02  0.48506259567E+02  0.64653150364E+02  0.41800000000E+01 0. -1.
        -11    1    1    2    0    0  0.38907247629E+01 -0.67014233600E+02  0.19314672551E+03  0.20447910118E+03  0.00000000000E+00 0. -1.
         11    1    1    2    0    0  0.88854178672E+01  0.29042765478E+02  0.51133229472E+02  0.59473019375E+02  0.00000000000E+00 0.  1.
</event>
<event>
 7    1  0.1226955E-005  0.1987955E+03  0.7561462E-02  0.1150759E+00
         -2   -1    0    0    0  501 -0.00000000000E+00  0.00000000000E+00  0.55623536300E+02  0.55623536300E+02  0.00000000000E+00 0.  1.
          2   -1    0    0  501    0  0.00000000000E+00 -0.00000000000E+00 -0.90120959982E+03  0.90120959982E+03  0.00000000000E+00 0. -1.
         23    2    1    2    0    0 -0.18790262525E+03 -0.46938032615E+02 -0.38413856629E+03  0.44803485429E+03  0.12514877970E+03 0.  0.
          5    1    3    3  502    0 -0.12194866318E+03 -0.16944614840E+02 -0.11236883739E+03  0.16674178972E+03  0.41800000000E+01 0. -1.
         -5    1    3    3    0  502 -0.65953962069E+02 -0.29993417775E+02 -0.27176972891E+03  0.28129306457E+03  0.41800000000E+01 0. -1.
        -11    1    1    2    0    0  0.56285886647E+02  0.41798532446E+02 -0.86236774309E+02  0.11113955009E+03  0.00000000000E+00 0.  1.
         11    1    1    2    0    0  0.13161673860E+03  0.51395001686E+01 -0.37521072292E+03  0.39765873175E+03  0.00000000000E+00 0. -1.
</event>
<event>
 7    1  0.1226955E-005  0.1893637E+03  0.7561462E-02  0.1159036E+00
         -2   -1    0    0    0  501 -0.00000000000E+00  0.00000000000E+00  0.31633949793E+03  0.31633949793E+03  0.00000000000E+00 0.  1.
          2   -1    0    0  501    0  0.00000000000E+00 -0.00000000000E+00 -0.16617055046E+03  0.16617055046E+03  0.00000000000E+00 0. -1.
         23    2    1    2    0    0  0.13901207518E+03  0.89154459057E+02  0.19988039104E+03  0.28787470786E+03  0.12508717796E+03 0.  0.
          5    1    3    3  502    0  0.16200881399E+03  0.76446217451E+02  0.16184779157E+03  0.24146026590E+03  0.41800000000E+01 0. -1.
         -5    1    3    3    0  502 -0.22996738805E+02  0.12708241607E+02  0.38032599472E+02  0.46414441966E+02  0.41800000000E+01 0. -1.
        -11    1    1    2    0    0 -0.11337734441E+03 -0.93470020131E+02 -0.68933556201E+02  0.16230496622E+03  0.00000000000E+00 0. -1.
         11    1    1    2    0    0 -0.25634730775E+02  0.43155610735E+01  0.19222112626E+02  0.32330374311E+02  0.00000000000E+00 0.  1.
</event>
<event>
 7    1  0.1226955E-005  0.9008215E+02  0.7561462E-02  0.1302653E+00
         -2   -1    0    0    0  501 -0.00000000000E+00  0.00000000000E+00  0.60136698501E+03  0.60136698501E+03  0.00000000000E+00 0.  1.
          2   -1    0    0  501    0  0.00000000000E+00 -0.00000000000E+00 -0.30664132615E+02  0.30664132615E+02  0.00000000000E+00 0. -1.
         23    2    1    2    0    0  0.11332375329E+02  0.16933289399E+02  0.47212525932E+03  0.48886339876E+03  0.12517988311E+03 0.  0.
          5    1    3    3  502    0 -0.18760841292E+02  0.52775697035E+02  0.10812516124E+03  0.12184320357E+03  0.41800000000E+01 0.  1.
         -5    1    3    3    0  502  0.30093216620E+02 -0.35842407636E+02  0.36400009808E+03  0.36702019519E+03  0.41800000000E+01 0.  1.
        -11    1    1    2    0    0 -0.40420208631E+02  0.47947034567E+01  0.98804108727E+02  0.10685988185E+03  0.00000000000E+00 0.  1.
         11    1    1    2    0    0  0.29087833303E+02 -0.21727992855E+02 -0.22651565225E+00  0.36307837020E+02  0.00000000000E+00 0. -1.
</event>
<event>
 7    1  0.1226955E-005  0.8228035E+02  0.7561462E-02  0.1322702E+00
         -2   -1    0    0    0  501 -0.00000000000E+00  0.00000000000E+00  0.34298377778E+02  0.34298377778E+02  0.00000000000E+00 0.  1.
          2   -1    0    0  501    0  0.00000000000E+00 -0.00000000000E+00 -0.45275237909E+03  0.45275237909E+03  0.00000000000E+00 0. -1.
         23    2    1    2    0    0  0.48839578772E+02 -0.17135993204E+02 -0.17522964265E+03  0.22143412089E+03  0.12509474615E+03 0.  0.
          5    1    3    3  502    0  0.40938781742E+02 -0.35013912216E+02 -0.99376857858E+01  0.54938036896E+02  0.41800000000E+01 0. -1.
         -5    1    3    3    0  502  0.79007970309E+01  0.17877919013E+02 -0.16529195686E+03  0.16649608400E+03  0.41800000000E+01 0. -1.
        -11    1    1    2    0    0 -0.50775825957E+02 -0.19102967094E+02 -0.20830752717E+03  0.21525597257E+03  0.00000000000E+00 0. -1.
         11    1    1    2    0    0  0.19362471851E+01  0.36238960298E+02 -0.34916831489E+02  0.50360663398E+02  0.00000000000E+00 0.  1.
</event>
<event>
 7    1  0.1226955E-005  0.1208630E+03  0.7561462E-02  0.1241680E+00
         -2   -1    0    0    0  501 -0.00000000000E+00  0.00000000000E+00  0.11141691023E+03  0.11141691023E+03  0.00000000000E+00 0.  1.
          2   -1    0    0  501    0  0.00000000000E+00 -0.00000000000E+00 -0.17694775160E+03  0.17694775160E+03  0.00000000000E+00 0. -1.
         23    2    1    2    0    0 -0.71316761987E+02  0.52908964538E+02 -0.45672089215E+02  0.16005842013E+03  0.12508924435E+03 0.  0.
          5    1    3    3  502    0 -0.68734502690E+02 -0.26035524143E+02 -0.14459696052E+02  0.75025566225E+02  0.41800000000E+01 0. -1.
         -5    1    3    3    0  502 -0.25822592970E+01  0.78944488681E+02 -0.31212393162E+02  0.85032853905E+02  0.41800000000E+01 0. -1.
        -11    1    1    2    0    0  0.61400691324E+02 -0.48051646486E+02  0.25180456771E+02  0.81933271802E+02  0.00000000000E+00 0.  1.
         11    1    1    2    0    0  0.99160706633E+01 -0.48573180518E+01 -0.45039208924E+02  0.46372969891E+02  0.00000000000E+00 0. -1.
</event>
<event>
 7    1  0.1226955E-005  0.1038910E+03  0.7561462E-02  0.1272320E+00
         -2   -1    0    0    0  501 -0.00000000000E+00  0.00000000000E+00  0.57553603513E+02  0.57553603513E+02  0.00000000000E+00 0.  1.
          2   -1    0    0  501    0  0.00000000000E+00 -0.00000000000E+00 -0.40897468179E+03  0.40897468179E+03  0.00000000000E+00 0. -1.
         23    2    1    2    0    0 -0.34538634646E+02 -0.48231463784E+02 -0.51981314270E+02  0.14793195964E+03  0.12515037462E+03 0.  0.
          5    1    3    3  502    0  0.20825103913E+02 -0.38465237843E+02 -0.75093495239E+02  0.87004395880E+02  0.41800000000E+01 0.  1.
         -5    1    3    3    0  502 -0.55363738559E+02 -0.97662259415E+01  0.23112180969E+02  0.60927563758E+02  0.41800000000E+01 0.  1.
        -11    1    1    2    0    0 -0.18088466617E+01  0.66681606443E+02 -0.16076515688E+03  0.17405500346E+03  0.00000000000E+00 0.  1.
         11    1    1    2    0    0  0.36347481308E+02 -0.18450142659E+02 -0.13867460713E+03  0.14454132220E+03  0.00000000000E+00 0. -1.
</event>
<event>
 7    1  0.1226955E-005  0.1365888E+03  0.7561462E-02  0.1217994E+00
         -2   -1    0    0    0  501 -0.00000000000E+00  0.00000000000E+00  0.40687906787E+02  0.40687906787E+02  0.00000000000E+00 0.  1.
          2   -1    0    0  501    0  0.00000000000E+00 -0.00000000000E+00 -0.51044196409E+03  0.51044196409E+03  0.00000000000E+00 0. -1.
         23    2    1    2    0    0  0.79699447341E+02 -0.33854214112E+02 -0.18178861930E+03  0.23705127397E+03  0.12509234454E+03 0.  0.
          5    1    3    3  502    0  0.10607269366E+03  0.47718141698E+00 -0.10826103758E+03  0.15162311401E+03  0.41800000000E+01 0. -1.
         -5    1    3    3    0  502 -0.26373246322E+02 -0.34331395529E+02 -0.73527581725E+02  0.85428159965E+02  0.41800000000E+01 0. -1.
        -11    1    1    2    0    0 -0.20698221525E+02 -0.30090522251E+02 -0.62224718319E+02  0.72151032380E+02  0.00000000000E+00 0.  1.
         11    1    1    2    0    0 -0.59001225816E+02  0.63944736363E+02 -0.22574071968E+03  0.24192756453E+03  0.00000000000E+00 0. -1.
</event>
<event>
 7    1  0.1226955E-005  0.1181821E+03  0.7561462E-02  0.1246127E+00
         -1   -1    0    0    0  501 -0.00000000000E+00  0.00000000000E+00  0.10196395575E+03  0.10196395575E+03  0.00000000000E+00 0.  1.
          1   -1    0    0  501    0  0.00000000000E+00 -0.00000000000E+00 -0.29586980328E+03  0.29586980328E+03  0.00000000000E+00 0. -1.
         23    2    1    2    0    0  0.84111681237E+02 -0.75378587388E+02 -0.17959208216E+02  0.16950603462E+03  0.12511217469E+03 0.  0.
          5    1    3    3  502    0  0.83590381294E+02 -0.67026609330E+02  0.37248545386E+02  0.11351142998E+03  0.41800000000E+01 0. -1.
         -5    1    3    3    0  502  0.52129994233E+00 -0.83519780578E+01 -0.55207753601E+02  0.55994604640E+02  0.41800000000E+01 0. -1.
        -11    1    1    2    0    0 -0.35034833922E+02  0.57925239767E+02 -0.31287737512E+02  0.74576775933E+02  0.00000000000E+00 0.  1.
         11    1    1    2    0    0 -0.49076847315E+02  0.17453347621E+02 -0.14465890180E+03  0.15375094847E+03  0.00000000000E+00 0. -1.
</event>
<event>
 7    1  0.1226955E-005  0.6870514E+02  0.7561462E-02  0.1364552E+00
          1   -1    0    0  501    0  0.00000000000E+00  0.00000000000E+00  0.17093800049E+02  0.17093800049E+02  0.00000000000E+00 0. -1.
         -1   -1    0    0    0  501 -0.00000000000E+00 -0.00000000000E+00 -0.71294381115E+03  0.71294381115E+03  0.00000000000E+00 0.  1.
         23    2    1    2    0    0  0.22260847692E+01  0.51835104368E+01 -0.48908055501E+03  0.50485697120E+03  0.12509575470E+03 0.  0.
          5    1    3    3  502    0 -0.31325146978E+02  0.20722745112E+02 -0.43079356721E+02  0.57306198388E+02  0.41800000000E+01 0.  1.
         -5    1    3    3    0  502  0.33551231747E+02 -0.15539234675E+02 -0.44600119829E+03  0.44755077281E+03  0.41800000000E+01 0.  1.
        -11    1    1    2    0    0 -0.32139271736E+02 -0.58936023388E+00 -0.24503129339E+02  0.40418850560E+02  0.00000000000E+00 0. -1.
         11    1    1    2    0    0  0.29913186967E+02 -0.45941502030E+01 -0.18226632675E+03  0.18476178944E+03  0.00000000000E+00 0.  1.
</event>
<event>
 7    1  0.1226955E-005  0.8641755E+02  0.7561462E-02  0.1311767E+00
         -3   -1    0    0    0  501 -0.00000000000E+00  0.00000000000E+00  0.10081962576E+03  0.10081962576E+03  0.00000000000E+00 0.  1.
          3   -1    0    0  501    0  0.00000000000E+00 -0.00000000000E+00 -0.17067966584E+03  0.17067966584E+03  0.00000000000E+00 0. -1.
         23    2    1    2    0    0 -0.54736593465E+02  0.47982482767E+02 -0.30494610077E+02  0.14790414938E+03  0.12508917956E+03 0.  0.
          5    1    3    3  502    0 -0.42956426358E+02  0.15098687787E+02  0.45286860732E+02  0.64355241381E+02  0.41800000000E+01 0. -1.
         -5    1    3    3    0  502 -0.11780167107E+02  0.32883794980E+02 -0.75781470808E+02  0.83548907996E+02  0.41800000000E+01 0. -1.
        -11    1    1    2    0    0  0.15328640879E+01  0.11802182976E+02  0.20464024814E+02  0.23673138932E+02  0.00000000000E+00 0.  1.
         11    1    1    2    0    0  0.53203729377E+02 -0.59784665743E+02 -0.59829454823E+02  0.99922003293E+02  0.00000000000E+00 0. -1.
</event>
<event>
 7    1  0.1226955E-005  0.9422438E+02  0.7561462E-02  0.1292933E+00
         -1   -1    0    0    0  501 -0.00000000000E+00  0.00000000000E+00  0.25375578799E+03  0.25375578799E+03  0.00000000000E+00 0.  1.
          1   -1    0    0  501    0  0.00000000000E+00 -0.00000000000E+00 -0.71065039363E+02  0.71065039363E+02  0.00000000000E+00 0. -1.
         23    2    1    2    0    0  0.20826814145E+02 -0.74613657000E+02  0.11814388669E+03  0.18869398098E+03  0.12508591646E+03 0.  0.
          5    1    3    3  502    0 -0.13312312299E+02 -0.28120523245E+02  0.12643200783E+03  0.13027089656E+03  0.41800000000E+01 0. -1.
         -5    1    3    3    0  502  0.34139126444E+02 -0.46493133755E+02 -0.82881211418E+01  0.58423084417E+02  0.41800000000E+01 0. -1.
        -11    1    1    2    0    0  0.22272450151E+02  0.27020730483E+02  0.62791122313E+02  0.71895110772E+02  0.00000000000E+00 0.  1.
         11    1    1    2    0    0 -0.43099264295E+02  0.47592926517E+02  0.17557396259E+01  0.64231735606E+02  0.00000000000E+00 0. -1.
</event>
<event>
 7    1  0.1226955E-005  0.1083539E+03  0.7561462E-02  0.1263649E+00
         -2   -1    0    0    0  501 -0.00000000000E+00  0.00000000000E+00  0.88267163874E+02  0.88267163874E+02  0.00000000000E+00 0.  1.
          2   -1    0    0  501    0  0.00000000000E+00 -0.00000000000E+00 -0.19263752320E+03  0.19263752320E+03  0.00000000000E+00 0. -1.
         23    2    1    2    0    0  0.47247463597E+02  0.18648054460E+02  0.87664857704E+01  0.12696260043E+03  0.11602834948E+03 0.  0.
          5    1    3    3  502    0  0.52416387138E+02  0.59585149755E+02 -0.12349829525E+02  0.80422996719E+02  0.41800000000E+01 0. -1.
         -5    1    3    3    0  502 -0.51689235414E+01 -0.40937095294E+02  0.21116315296E+02  0.46539603709E+02  0.41800000000E+01 0.  1.
        -11    1    1    2    0    0 -0.69871695710E+02 -0.67330681591E+01 -0.10645256992E+03  0.12751289233E+03  0.00000000000E+00 0.  1.
         11    1    1    2    0    0  0.22624232113E+02 -0.11914986301E+02 -0.66842751724E+01  0.26429194310E+02  0.00000000000E+00 0. -1.
</event>
<event>
 7    1  0.1226955E-005  0.1323689E+03  0.7561462E-02  0.1223983E+00
         -1   -1    0    0    0  501 -0.00000000000E+00  0.00000000000E+00  0.65724362881E+02  0.65724362881E+02  0.00000000000E+00 0.  1.
          1   -1    0    0  501    0  0.00000000000E+00 -0.00000000000E+00 -0.32958120005E+03  0.32958120005E+03  0.00000000000E+00 0. -1.
         23    2    1    2    0    0  0.96711658875E+02  0.17707221192E+02 -0.11006280622E+03  0.19343847990E+03  0.12505172349E+03 0.  0.
          5    1    3    3  502    0  0.10018201040E+03 -0.33737112105E+02 -0.86223640837E+02  0.13647936321E+03  0.41800000000E+01 0. -1.
         -5    1    3    3    0  502 -0.34703515292E+01  0.51444333296E+02 -0.23839165386E+02  0.56959116692E+02  0.41800000000E+01 0. -1.
        -11    1    1    2    0    0 -0.49574252184E+02 -0.30711319170E+02 -0.13906690188E+03  0.15079918701E+03  0.00000000000E+00 0.  1.
         11    1    1    2    0    0 -0.47137406691E+02  0.13004097979E+02 -0.14727129070E+02  0.51067896025E+02  0.00000000000E+00 0. -1.
</event>
<event>
 7    1  0.1226955E-005  0.2083418E+03  0.7561462E-02  0.1142886E+00
         -4   -1    0    0    0  501 -0.00000000000E+00  0.00000000000E+00  0.62806138572E+03  0.62806138572E+03  0.00000000000E+00 0.  1.
          4   -1    0    0  501    0  0.00000000000E+00 -0.00000000000E+00 -0.76633812361E+02  0.76633812361E+02  0.00000000000E+00 0. -1.
         23    2    1    2    0    0 -0.18548389615E+03  0.24717230959E+02  0.34029921922E+03  0.40800377460E+03  0.12509318230E+03 0.  0.
          5    1    3    3  502    0 -0.16284424121E+03 -0.30036138488E+02  0.25404974941E+03  0.30328066883E+03  0.41800000000E+01 0.  1.
         -5    1    3    3    0  502 -0.22639654937E+02  0.54753369447E+02  0.86249469808E+02  0.10472310578E+03  0.41800000000E+01 0.  1.
        -11    1    1    2    0    0  0.63390063607E+02  0.11208752999E+02  0.13191445798E+03  0.14678337962E+03  0.00000000000E+00 0.  1.
         11    1    1    2    0    0  0.12209383254E+03 -0.35925983958E+02  0.79213896156E+02  0.14990804385E+03  0.00000000000E+00 0. -1.
</event>
<event>
 7    1  0.1226955E-005  0.2333875E+03  0.7561462E-02  0.1124278E+00
         -2   -1    0    0    0  501 -0.00000000000E+00  0.00000000000E+00  0.20029887132E+03  0.20029887132E+03  0.00000000000E+00 0.  1.
          2   -1    0    0  501    0  0.00000000000E+00 -0.00000000000E+00 -0.49742578015E+03  0.49742578015E+03  0.00000000000E+00 0. -1.
         23    2    1    2    0    0  0.13973866369E+03  0.18513226384E+03  0.52031709571E+02  0.26861623423E+03  0.12508610334E+03 0.  0.
          5    1    3    3  502    0  0.12915718537E+03  0.15473316802E+03  0.88175626835E+02  0.22003714547E+03  0.41800000000E+01 0.  1.
         -5    1    3    3    0  502  0.10581478324E+02  0.30399095819E+02 -0.36143917263E+02  0.48579088765E+02  0.41800000000E+01 0.  1.
        -11    1    1    2    0    0 -0.83176696672E+02 -0.94556433709E+02 -0.11007074837E+03  0.16725684342E+03  0.00000000000E+00 0.  1.
         11    1    1    2    0    0 -0.56561967019E+02 -0.90575830128E+02 -0.23908787002E+03  0.26185157381E+03  0.00000000000E+00 0. -1.
</event>
<event>
 7    1  0.1226955E-005  0.9412818E+02  0.7561462E-02  0.1293152E+00
         -2   -1    0    0    0  501 -0.00000000000E+00  0.00000000000E+00  0.84345323442E+02  0.84345323442E+02  0.00000000000E+00 0.  1.
          2   -1    0    0  501    0  0.00000000000E+00 -0.00000000000E+00 -0.16515783873E+03  0.16515783873E+03  0.00000000000E+00 0. -1.
         23    2    1    2    0    0  0.44462984733E+02  0.13667211852E+02 -0.49769676321E+02  0.14243626756E+03  0.12508924792E+03 0.  0.
          5    1    3    3  502    0  0.35824829314E+02  0.45854237833E+02 -0.78797495530E+02  0.98043598590E+02  0.41800000000E+01 0. -1.
         -5    1    3    3    0  502  0.86381554184E+01 -0.32187025982E+02  0.29027819209E+02  0.44392668973E+02  0.41800000000E+01 0. -1.
        -11    1    1    2    0    0 -0.69693730315E+02 -0.59603446676E+01 -0.52071098227E+01  0.70141683373E+02  0.00000000000E+00 0.  1.
         11    1    1    2    0    0  0.25230745582E+02 -0.77068671840E+01 -0.25835729144E+02  0.36925211236E+02  0.00000000000E+00 0. -1.
</event>
<event>
 7    1  0.1226955E-005  0.1221857E+03  0.7561462E-02  0.1239534E+00
          2   -1    0    0  501    0  0.00000000000E+00  0.00000000000E+00  0.41215453427E+03  0.41215453427E+03  0.00000000000E+00 0. -1.
         -2   -1    0    0    0  501 -0.00000000000E+00 -0.00000000000E+00 -0.45076660654E+02  0.45076660654E+02  0.00000000000E+00 0.  1.
         23    2    1    2    0    0 -0.70314897414E+02 -0.21148871969E+02  0.15812003781E+03  0.21631478936E+03  0.12805733932E+03 0.  0.
          5    1    3    3  502    0  0.19014134079E+02 -0.48381480462E+02  0.74179438658E+02  0.90677265431E+02  0.41800000000E+01 0. -1.
         -5    1    3    3    0  502 -0.89329031493E+02  0.27232608492E+02  0.83940599155E+02  0.12563752393E+03  0.41800000000E+01 0.  1.
        -11    1    1    2    0    0  0.19574332440E+02  0.40061567231E+02  0.29491946913E+02  0.53458943052E+02  0.00000000000E+00 0.  1.
         11    1    1    2    0    0  0.50740564973E+02 -0.18912695262E+02  0.17946588889E+03  0.18745746251E+03  0.00000000000E+00 0. -1.
</event>
<event>
 7    1  0.1226955E-005  0.1433031E+03  0.7561462E-02  0.1208952E+00
          1   -1    0    0  501    0  0.00000000000E+00  0.00000000000E+00  0.16810347933E+03  0.16810347933E+03  0.00000000000E+00 0. -1.
         -1   -1    0    0    0  501 -0.00000000000E+00 -0.00000000000E+00 -0.12657075849E+03  0.12657075849E+03  0.00000000000E+00 0.  1.
         23    2    1    2    0    0  0.92029794362E+01 -0.96094369790E+02  0.67392051545E+01  0.15815135788E+03  0.12509041681E+03 0.  0.
          5    1    3    3  502    0 -0.46096320494E+02 -0.89144013004E+02  0.15319964295E+02  0.10160560774E+03  0.41800000000E+01 0. -1.
         -5    1    3    3    0  502  0.55299299930E+02 -0.69503567864E+01 -0.85807591410E+01  0.56545750147E+02  0.41800000000E+01 0. -1.
        -11    1    1    2    0    0  0.39039967534E+02  0.51064988284E+02  0.61175597362E+01  0.64569161606E+02  0.00000000000E+00 0.  1.
         11    1    1    2    0    0 -0.48242946970E+02  0.45029381507E+02  0.28675955946E+02  0.71953718324E+02  0.00000000000E+00 0. -1.
</event>
<event>
 7    1  0.1226955E-005  0.8495163E+02  0.7561462E-02  0.1315559E+00
         -1   -1    0    0    0  501 -0.00000000000E+00  0.00000000000E+00  0.30087800218E+02  0.30087800218E+02  0.00000000000E+00 0.  1.
          1   -1    0    0  501    0  0.00000000000E+00 -0.00000000000E+00 -0.60898288822E+03  0.60898288822E+03  0.00000000000E+00 0. -1.
         23    2    1    2    0    0 -0.54917895871E+01 -0.10256057202E+02 -0.12987624934E+03  0.18069770824E+03  0.12509386538E+03 0.  0.
          5    1    3    3  502    0 -0.40821937233E+02 -0.10053776592E+02 -0.13790009879E+03  0.14422696914E+03  0.41800000000E+01 0. -1.
         -5    1    3    3    0  502  0.35330147646E+02 -0.20228061022E+00  0.80238494411E+01  0.36470739093E+02  0.41800000000E+01 0. -1.
        -11    1    1    2    0    0  0.42656110749E+02  0.27866184472E+02 -0.24074447847E+03  0.24607716663E+03  0.00000000000E+00 0.  1.
         11    1    1    2    0    0 -0.37164321162E+02 -0.17610127270E+02 -0.20827436018E+03  0.21229581357E+03  0.00000000000E+00 0. -1.
</event>
<event>
 7    1  0.1451715E-005  0.1176037E+03  0.7561462E-02  0.1247103E+00
         -1   -1    0    0    0  501 -0.00000000000E+00  0.00000000000E+00  0.23852891541E+02  0.23852891541E+02  0.00000000000E+00 0.  1.
          1   -1    0    0  501    0  0.00000000000E+00 -0.00000000000E+00 -0.78246215704E+03  0.78246215704E+03  0.00000000000E+00 0. -1.
         23    2    1    2    0    0 -0.81379862264E+02 -0.53437340049E+01 -0.43081710050E+03  0.45596312375E+03  0.12509100152E+03 0.  0.
          5    1    3    3  502    0 -0.66303201643E+01 -0.35731314979E+02 -0.30660587424E+02  0.47730828997E+02  0.41800000000E+01 0. -1.
         -5    1    3    3    0  502 -0.74749542100E+02  0.30387580974E+02 -0.40015651308E+03  0.40823229475E+03  0.41800000000E+01 0. -1.
        -11    1    1    2    0    0  0.65010834006E+02  0.42195915135E+02 -0.16001244394E+03  0.17779450500E+03  0.00000000000E+00 0.  1.
         11    1    1    2    0    0  0.16369028258E+02 -0.36852181130E+02 -0.16777972106E+03  0.17255741983E+03  0.00000000000E+00 0. -1.
</event>
<event>
 7    1  0.1226955E-005  0.7603151E+02  0.7561462E-02  0.1340706E+00
          2   -1    0    0  501    0  0.00000000000E+00  0.00000000000E+00  0.29230575578E+03  0.29230575578E+03  0.00000000000E+00 0. -1.
         -2   -1    0    0    0  501 -0.00000000000E+00 -0.00000000000E+00 -0.42526888808E+02  0.42526888808E+02  0.00000000000E+00 0.  1.
         23    2    1    2    0    0 -0.61798932568E+02 -0.89390710984E+01  0.14460454162E+03  0.20113948642E+03  0.12509038525E+03 0.  0.
          5    1    3    3  502    0 -0.37053737259E+02  0.93877399093E+01  0.16132995787E+03  0.16584913872E+03  0.41800000000E+01 0. -1.
         -5    1    3    3    0  502 -0.24745195309E+02 -0.18326811008E+02 -0.16725416249E+02  0.35290347707E+02  0.41800000000E+01 0. -1.
        -11    1    1    2    0    0  0.63756354779E+02 -0.90894383986E+01  0.81835600594E+02  0.10413719888E+03  0.00000000000E+00 0.  1.
         11    1    1    2    0    0 -0.19574222109E+01  0.18028509497E+02  0.23338724750E+02  0.29555959286E+02  0.00000000000E+00 0. -1.
</event>
<event>
 7    1  0.1226955E-005  0.7144391E+02  0.7561462E-02  0.1355251E+00
          2   -1    0    0  501    0  0.00000000000E+00  0.00000000000E+00  0.33709801396E+02  0.33709801396E+02  0.00000000000E+00 0. -1.
         -2   -1    0    0    0  501 -0.00000000000E+00 -0.00000000000E+00 -0.45211433678E+03  0.45211433678E+03  0.00000000000E+00 0.  1.
         23    2    1    2    0    0 -0.11554966674E+01 -0.25648877602E+02 -0.30989450585E+03  0.33517242457E+03  0.12508696711E+03 0.  0.
          5    1    3    3  502    0  0.13339804498E+02 -0.36667774373E+02 -0.31366826648E+03  0.31611347624E+03  0.41800000000E+01 0.  1.
         -5    1    3    3    0  502 -0.14495301165E+02  0.11018896772E+02  0.37737606379E+01  0.19058948326E+02  0.41800000000E+01 0.  1.
        -11    1    1    2    0    0 -0.28470167903E+02 -0.16906729785E+02 -0.89492977736E+02  0.95422120268E+02  0.00000000000E+00 0.  1.
         11    1    1    2    0    0  0.29625664570E+02  0.42555607387E+02 -0.19017051800E+02  0.55229593340E+02  0.00000000000E+00 0. -1.
</event>
<event>
 7    1  0.1226955E-005  0.9310700E+02  0.7561462E-02  0.1295497E+00
          1   -1    0    0  501    0  0.00000000000E+00  0.00000000000E+00  0.19685307941E+03  0.19685307941E+03  0.00000000000E+00 0. -1.
         -1   -1    0    0    0  501 -0.00000000000E+00 -0.00000000000E+00 -0.61707505917E+02  0.61707505917E+02  0.00000000000E+00 0.  1.
         23    2    1    2    0    0 -0.78013479870E+01  0.14593494594E+02  0.59959017638E+02  0.13969649592E+03  0.12508475551E+03 0.  0.
          5    1    3    3  502    0 -0.17250104717E+02  0.56518448169E+02  0.73539275602E+02  0.94431978441E+02  0.41800000000E+01 0.  1.
         -5    1    3    3    0  502  0.94487567303E+01 -0.41924953575E+02 -0.13580257964E+02  0.45264517476E+02  0.41800000000E+01 0.  1.
        -11    1    1    2    0    0 -0.36612624135E+02 -0.14503521249E+02  0.11142588138E+02  0.40926686222E+02  0.00000000000E+00 0. -1.
         11    1    1    2    0    0  0.44413972122E+02 -0.89973345120E-01  0.64043967720E+02  0.77937403192E+02  0.00000000000E+00 0.  1.
</event>
<event>
 7    1  0.1226955E-005  0.1163815E+03  0.7561462E-02  0.1249189E+00
         -2   -1    0    0    0  501 -0.00000000000E+00  0.00000000000E+00  0.69399436167E+02  0.69399436167E+02  0.00000000000E+00 0.  1.
          2   -1    0    0  501    0  0.00000000000E+00 -0.00000000000E+00 -0.36466717410E+03  0.36466717410E+03  0.00000000000E+00 0. -1.
         23    2    1    2    0    0  0.39520053338E+02 -0.74756575579E+02 -0.49727024317E+02  0.15896083956E+03  0.12508153883E+03 0.  0.
          5    1    3    3  502    0 -0.15707597400E+02  0.42610038421E+00 -0.62617704559E+02  0.64694354482E+02  0.41800000000E+01 0.  1.
         -5    1    3    3    0  502  0.55227650738E+02 -0.75182675964E+02  0.12890680242E+02  0.94266485074E+02  0.41800000000E+01 0.  1.
        -11    1    1    2    0    0 -0.67401864040E+02  0.39322765114E+02 -0.17146920476E+03  0.18839049688E+03  0.00000000000E+00 0.  1.
         11    1    1    2    0    0  0.27881810702E+02  0.35433810466E+02 -0.74071508862E+02  0.86715273840E+02  0.00000000000E+00 0. -1.
</event>
<event>
 7    1  0.1226955E-005  0.1316109E+03  0.7561462E-02  0.1225085E+00
         -1   -1    0    0    0  501 -0.00000000000E+00  0.00000000000E+00  0.33383172162E+03  0.33383172162E+03  0.00000000000E+00 0.  1.
          1   -1    0    0  501    0  0.00000000000E+00 -0.00000000000E+00 -0.10234830818E+03  0.10234830818E+03  0.00000000000E+00 0. -1.
         23    2    1    2    0    0  0.22876386086E+02 -0.10858579147E+03  0.23970071091E+03  0.29226247614E+03  0.12508685382E+03 0.  0.
          5    1    3    3  502    0  0.40381215142E+02 -0.19348404514E+02  0.17472200407E+03  0.18041689056E+03  0.41800000000E+01 0. -1.
         -5    1    3    3    0  502 -0.17504829056E+02 -0.89237386955E+02  0.64978706837E+02  0.11184558558E+03  0.41800000000E+01 0. -1.
        -11    1    1    2    0    0 -0.13390474344E+02  0.11499219350E+03 -0.29750727926E+02  0.11953081268E+03  0.00000000000E+00 0. -1.
         11    1    1    2    0    0 -0.94859117424E+01 -0.64064020303E+01  0.21533430460E+02  0.24386740986E+02  0.00000000000E+00 0.  1.
</event>
<event>
 7    1  0.1226955E-005  0.1193487E+03  0.7561462E-02  0.1244175E+00
         -2   -1    0    0    0  501 -0.00000000000E+00  0.00000000000E+00  0.24291714821E+02  0.24291714821E+02  0.00000000000E+00 0.  1.
          2   -1    0    0  501    0  0.00000000000E+00 -0.00000000000E+00 -0.80532241017E+03  0.80532241017E+03  0.00000000000E+00 0. -1.
         23    2    1    2    0    0  0.15125424811E+02 -0.78307868741E+02 -0.52126265084E+03  0.54196236191E+03  0.12509016660E+03 0.  0.
          5    1    3    3  502    0 -0.17253395116E+02 -0.97001284024E+02 -0.26124194878E+03  0.27923423312E+03  0.41800000000E+01 0.  1.
         -5    1    3    3    0  502  0.32378819927E+02  0.18693415283E+02 -0.26002070206E+03  0.26272812878E+03  0.41800000000E+01 0.  1.
        -11    1    1    2    0    0  0.21956709863E+02  0.53551466162E+02 -0.61579206162E+02  0.84509498091E+02  0.00000000000E+00 0.  1.
         11    1    1    2    0    0 -0.37082134674E+02  0.24756402579E+02 -0.19818883834E+03  0.20314226499E+03  0.00000000000E+00 0. -1.
</event>
<event>
 7    1  0.1226955E-005  0.1001089E+03  0.7561462E-02  0.1280067E+00
          2   -1    0    0  501    0  0.00000000000E+00  0.00000000000E+00  0.35779227850E+03  0.35779227850E+03  0.00000000000E+00 0. -1.
         -2   -1    0    0    0  501 -0.00000000000E+00 -0.00000000000E+00 -0.37969567117E+02  0.37969567117E+02  0.00000000000E+00 0.  1.
         23    2    1    2    0    0 -0.36159075924E+02 -0.12378040963E+02  0.15400720700E+03  0.20205535075E+03  0.12508976892E+03 0.  0.
          5    1    3    3  502    0  0.23698278870E+02  0.20745323076E+02 -0.18172524163E+01  0.31823759320E+02  0.41800000000E+01 0. -1.
         -5    1    3    3    0  502 -0.59857354794E+02 -0.33123364039E+02  0.15582445942E+03  0.17023159143E+03  0.41800000000E+01 0. -1.
        -11    1    1    2    0    0 -0.27211014324E+01 -0.36977282364E+02  0.55298927650E+02  0.66578489043E+02  0.00000000000E+00 0. -1.
         11    1    1    2    0    0  0.38880177356E+02  0.49355323327E+02  0.11051657673E+03  0.12712800582E+03  0.00000000000E+00 0.  1.
</event>
<event>
 7    1  0.1226955E-005  0.7697792E+02  0.7561462E-02  0.1337853E+00
          1   -1    0    0  501    0  0.00000000000E+00  0.00000000000E+00  0.19798563913E+02  0.19798563913E+02  0.00000000000E+00 0. -1.
         -1   -1    0    0    0  501 -0.00000000000E+00 -0.00000000000E+00 -0.70859137494E+03  0.70859137494E+03  0.00000000000E+00 0.  1.
         23    2    1    2    0    0 -0.31633566473E+02  0.84620399132E+01 -0.45517711562E+03  0.47318622320E+03  0.12508679623E+03 0.  0.
          5    1    3    3  502    0 -0.14691230120E+01 -0.29767995492E+02 -0.39275102188E+03  0.39390243648E+03  0.41800000000E+01 0. -1.
         -5    1    3    3    0  502 -0.30164443461E+02  0.38230035405E+02 -0.62426093741E+02  0.79283786717E+02  0.41800000000E+01 0. -1.
        -11    1    1    2    0    0  0.44452101336E+02 -0.27323734647E+02 -0.22476370643E+03  0.23074076258E+03  0.00000000000E+00 0.  1.
         11    1    1    2    0    0 -0.12818534863E+02  0.18861694734E+02 -0.88519889774E+01  0.24462953075E+02  0.00000000000E+00 0. -1.
</event>
<event>
 7    1  0.1226955E-005  0.1749349E+03  0.7561462E-02  0.1172797E+00
         -1   -1    0    0    0  501 -0.00000000000E+00  0.00000000000E+00  0.89121233999E+02  0.89121233999E+02  0.00000000000E+00 0.  1.
          1   -1    0    0  501    0  0.00000000000E+00 -0.00000000000E+00 -0.38113776616E+03  0.38113776616E+03  0.00000000000E+00 0. -1.
         23    2    1    2    0    0  0.14000077793E+03 -0.40650852498E+02 -0.11741554010E+03  0.22512400375E+03  0.12506677569E+03 0.  0.
          5    1    3    3  502    0 -0.15737251326E+02 -0.30953046747E+02 -0.30824643999E+02  0.46619558770E+02  0.41800000000E+01 0. -1.
         -5    1    3    3    0  502  0.15573802925E+03 -0.96978057507E+01 -0.86590896096E+02  0.17850444498E+03  0.41800000000E+01 0. -1.
        -11    1    1    2    0    0 -0.96915862121E+02  0.57325263530E+02 -0.16192740905E+03  0.19722919655E+03  0.00000000000E+00 0.  1.
         11    1    1    2    0    0 -0.43084915807E+02 -0.16674411032E+02 -0.12673583015E+02  0.47905799855E+02  0.00000000000E+00 0. -1.
</event>
<event>
 7    1  0.1226955E-005  0.8552848E+02  0.7561462E-02  0.1314056E+00
          3   -1    0    0  501    0  0.00000000000E+00  0.00000000000E+00  0.28896335539E+03  0.28896335539E+03  0.00000000000E+00 0. -1.
         -3   -1    0    0    0  501 -0.00000000000E+00 -0.00000000000E+00 -0.67836703699E+02  0.67836703699E+02  0.00000000000E+00 0.  1.
         23    2    1    2    0    0 -0.23777497406E+01 -0.14929187539E+02  0.11485041073E+02  0.12652147149E+03  0.12508893734E+03 0.  0.
          5    1    3    3  502    0  0.48062062303E+02 -0.24737271569E+02  0.40214691343E+02  0.67502505416E+02  0.41800000000E+01 0. -1.
         -5    1    3    3    0  502 -0.50439812044E+02  0.98080840302E+01 -0.28729650271E+02  0.59018966071E+02  0.41800000000E+01 0. -1.
        -11    1    1    2    0    0 -0.30574741985E+02  0.81818804192E+01  0.19479592549E+02  0.37164667905E+02  0.00000000000E+00 0.  1.
         11    1    1    2    0    0  0.32952491725E+02  0.67473071200E+01  0.19016201807E+03  0.19311391969E+03  0.00000000000E+00 0. -1.
</event>
<event>
 7    1  0.1226955E-005  0.1222704E+03  0.7561462E-02  0.1239398E+00
         -1   -1    0    0    0  501 -0.00000000000E+00  0.00000000000E+00  0.12289272866E+03  0.12289272866E+03  0.00000000000E+00 0.  1.
          1   -1    0    0  501    0  0.00000000000E+00 -0.00000000000E+00 -0.17411341261E+03  0.17411341261E+03  0.00000000000E+00 0. -1.
         23    2    1    2    0    0  0.57916804461E+02  0.20601808715E+02  0.48885149171E+02  0.14770338223E+03  0.12509092914E+03 0.  0.
          5    1    3    3  502    0  0.68712622455E+02 -0.35325809637E+02  0.86838855261E+01  0.77860256735E+02  0.41800000000E+01 0.  1.
         -5    1    3    3    0  502 -0.10795817993E+02  0.55927618352E+02  0.40201263645E+02  0.69843125498E+02  0.41800000000E+01 0.  1.
        -11    1    1    2    0    0 -0.47582820706E+02  0.31416199495E+02 -0.60319751034E+02  0.83003462469E+02  0.00000000000E+00 0. -1.
         11    1    1    2    0    0 -0.10333983755E+02 -0.52018008210E+02 -0.39786082081E+02  0.66299296570E+02  0.00000000000E+00 0.  1.
</event>
<event>
 7    1  0.1226955E-005  0.1187190E+03  0.7561462E-02  0.1245225E+00
          3   -1    0    0  501    0  0.00000000000E+00  0.00000000000E+00  0.10267885461E+03  0.10267885461E+03  0.00000000000E+00 0. -1.
         -3   -1    0    0    0  501 -0.00000000000E+00 -0.00000000000E+00 -0.18776802624E+03  0.18776802624E+03  0.00000000000E+00 0.  1.
         23    2    1    2    0    0 -0.47542178181E+02  0.68255277982E+02 -0.53026704566E+02  0.15930964660E+03  0.12509472580E+03 0.  0.
          5    1    3    3  502    0  0.71629872317E+01 -0.33557818737E+02 -0.11754285812E+02  0.36511247848E+02  0.41800000000E+01 0.  1.
         -5    1    3    3    0  502 -0.54705165413E+02  0.10181309672E+03 -0.41272418754E+02  0.12279839875E+03  0.41800000000E+01 0.  1.
        -11    1    1    2    0    0  0.17788075149E+02 -0.69989606383E+01  0.32236743814E+02  0.37478109868E+02  0.00000000000E+00 0. -1.
         11    1    1    2    0    0  0.29754103032E+02 -0.61256317344E+02 -0.64299210870E+02  0.93659124383E+02  0.00000000000E+00 0.  1.
</event>
<event>
 7    1  0.1226955E-005  0.1834648E+03  0.7561462E-02  0.1164491E+00
         -2   -1    0    0    0  501 -0.00000000000E+00  0.00000000000E+00  0.14586937268E+03  0.14586937268E+03  0.00000000000E+00 0.  1.
          2   -1    0    0  501    0  0.00000000000E+00 -0.00000000000E+00 -0.83312353601E+03  0.83312353601E+03  0.00000000000E+00 0. -1.
         23    2    1    2    0    0  0.30653024707E+01 -0.17025255505E+03  0.49783350030E+02  0.21707605981E+03  0.12509318615E+03 0.  0.
          5    1    3    3  502    0 -0.25901804445E+02 -0.66485570466E+02 -0.35314348192E+02  0.79723334990E+02  0.41800000000E+01 0.  1.
         -5    1    3    3    0  502  0.28967106916E+02 -0.10376698458E+03  0.85097698222E+02  0.13735272482E+03  0.41800000000E+01 0.  1.
        -11    1    1    2    0    0 -0.40973548785E+02  0.88842869824E+02 -0.29342257193E+03  0.30930356114E+03  0.00000000000E+00 0. -1.
         11    1    1    2    0    0  0.37908246314E+02  0.81409685222E+02 -0.44361494143E+03  0.45261328775E+03  0.00000000000E+00 0.  1.
</event>
<event>
 7    1  0.1226955E-005  0.9774280E+02  0.7561462E-02  0.1285115E+00
          4   -1    0    0  501    0  0.00000000000E+00  0.00000000000E+00  0.99009505413E+02  0.99009505413E+02  0.00000000000E+00 0. -1.
         -4   -1    0    0    0  501 -0.00000000000E+00 -0.00000000000E+00 -0.13331348872E+03  0.13331348872E+03  0.00000000000E+00 0.  1.
         23    2    1    2    0    0  0.27721040941E+02 -0.17289844670E+02 -0.27449575526E+02  0.13216825247E+03  0.12509025911E+03 0.  0.
          5    1    3    3  502    0  0.46490534610E+02 -0.44431670147E+02  0.25772668842E+02  0.69406382845E+02  0.41800000000E+01 0. -1.
         -5    1    3    3    0  502 -0.18769493669E+02  0.27141825477E+02 -0.53222244368E+02  0.62761869622E+02  0.41800000000E+01 0. -1.
        -11    1    1    2    0    0  0.22443515864E+02 -0.23961686886E+02 -0.12114137128E+02  0.34994659037E+02  0.00000000000E+00 0.  1.
         11    1    1    2    0    0 -0.50164556805E+02  0.41251531556E+02  0.52597293480E+01  0.65160082627E+02  0.00000000000E+00 0. -1.
</event>
<event>
 7    1  0.1226955E-005  0.1241335E+03  0.7561462E-02  0.1236430E+00
          1   -1    0    0  501    0  0.00000000000E+00  0.00000000000E+00  0.22953448262E+03  0.22953448262E+03  0.00000000000E+00 0. -1.
         -1   -1    0    0    0  501 -0.00000000000E+00 -0.00000000000E+00 -0.78047823731E+02  0.78047823731E+02  0.00000000000E+00 0.  1.
         23    2    1    2    0    0 -0.74811074258E+02 -0.10403826851E+02  0.64249595514E+02  0.15962655345E+03  0.12509072546E+03 0.  0.
          5    1    3    3  502    0 -0.98807840595E+02  0.65858853995E+01  0.12418496535E+02  0.99890213264E+02  0.41800000000E+01 0. -1.
         -5    1    3    3    0  502  0.23996766337E+02 -0.16989712251E+02  0.51831098979E+02  0.59736340182E+02  0.41800000000E+01 0. -1.
        -11    1    1    2    0    0 -0.63053761223E+01  0.34312601518E+02  0.27394111794E+02  0.44357071048E+02  0.00000000000E+00 0. -1.
         11    1    1    2    0    0  0.81116450381E+02 -0.23908774667E+02  0.59842951579E+02  0.10359868186E+03  0.00000000000E+00 0.  1.
</event>
<event>
 7    1  0.1226955E-005  0.1337638E+03  0.7561462E-02  0.1221975E+00
         -2   -1    0    0    0  501 -0.00000000000E+00  0.00000000000E+00  0.74356589250E+03  0.74356589250E+03  0.00000000000E+00 0.  1.
          2   -1    0    0  501    0  0.00000000000E+00 -0.00000000000E+00 -0.53023267869E+02  0.53023267869E+02  0.00000000000E+00 0. -1.
         23    2    1    2    0    0 -0.29711949182E+02  0.11034317160E+03  0.60342582863E+03  0.62675975602E+03  0.12508655269E+03 0.  0.
          5    1    3    3  502    0 -0.60059988036E+02  0.85656783009E+02  0.55288435739E+03  0.56271029108E+03  0.41800000000E+01 0. -1.
         -5    1    3    3    0  502  0.30348038855E+02  0.24686388594E+02  0.50541471239E+02  0.64049464940E+02  0.41800000000E+01 0. -1.
        -11    1    1    2    0    0  0.11427321379E+02  0.21159094381E+00  0.50747316923E+02  0.52018444993E+02  0.00000000000E+00 0.  1.
         11    1    1    2    0    0  0.18284627803E+02 -0.11055476255E+03  0.36369479075E+02  0.11781095935E+03  0.00000000000E+00 0. -1.
</event>
<event>
 7    1  0.1226955E-005  0.1569383E+03  0.7561462E-02  0.1192197E+00
         -2   -1    0    0    0  501 -0.00000000000E+00  0.00000000000E+00  0.28874628839E+03  0.28874628839E+03  0.00000000000E+00 0.  1.
          2   -1    0    0  501    0  0.00000000000E+00 -0.00000000000E+00 -0.11666937908E+03  0.11666937908E+03  0.00000000000E+00 0. -1.
         23    2    1    2    0    0 -0.55934596337E+02 -0.11713701459E+03  0.18048649878E+03  0.25509346002E+03  0.12509011891E+03 0.  0.
          5    1    3    3  502    0  0.38697575868E+02 -0.17447018745E+02  0.39180830359E+02  0.57918137995E+02  0.41800000000E+01 0.  1.
         -5    1    3    3    0  502 -0.94632172206E+02 -0.99689995842E+02  0.14130566842E+03  0.19717532203E+03  0.41800000000E+01 0.  1.
        -11    1    1    2    0    0  0.31902918584E+02  0.97764688624E+02 -0.35963648647E+02  0.10894546608E+03  0.00000000000E+00 0. -1.
         11    1    1    2    0    0  0.24031677753E+02  0.19372325963E+02  0.27554059178E+02  0.41376741365E+02  0.00000000000E+00 0.  1.
</event>
<event>
 7    1  0.1226955E-005  0.1101751E+03  0.7561462E-02  0.1260246E+00
         -1   -1    0    0    0  501 -0.00000000000E+00  0.00000000000E+00  0.88885405036E+02  0.88885405036E+02  0.00000000000E+00 0.  1.
          1   -1    0    0  501    0  0.00000000000E+00 -0.00000000000E+00 -0.17126402151E+03  0.17126402151E+03  0.00000000000E+00 0. -1.
         23    2    1    2    0    0  0.35488250358E+02 -0.40433313247E+02 -0.30987928092E+02  0.13965849939E+03  0.12509986423E+03 0.  0.
          5    1    3    3  502    0  0.76486503714E+02  0.22790263908E+01 -0.21121065930E+02  0.79491830006E+02  0.41800000000E+01 0. -1.
         -5    1    3    3    0  502 -0.40998253356E+02 -0.42712339638E+02 -0.98668621615E+01  0.60166669382E+02  0.41800000000E+01 0. -1.
        -11    1    1    2    0    0 -0.45105330512E+02  0.52316613415E+02 -0.23428313094E+01  0.69115900763E+02  0.00000000000E+00 0.  1.
         11    1    1    2    0    0  0.96170801540E+01 -0.11883300168E+02 -0.49047857068E+02  0.51375026390E+02  0.00000000000E+00 0. -1.
</event>
<event>
 7    1  0.1226955E-005  0.1047727E+03  0.7561462E-02  0.1270568E+00
         -1   -1    0    0    0  501 -0.00000000000E+00  0.00000000000E+00  0.16903951359E+03  0.16903951359E+03  0.00000000000E+00 0.  1.
          1   -1    0    0  501    0  0.00000000000E+00 -0.00000000000E+00 -0.11548111030E+03  0.11548111030E+03  0.00000000000E+00 0. -1.
         23    2    1    2    0    0 -0.59683077004E+02 -0.29883361854E+02  0.86902241825E+02  0.16629738477E+03  0.12509090914E+03 0.  0.
          5    1    3    3  502    0  0.69039582903E+01 -0.28405035709E+02 -0.23197727241E+02  0.37551533162E+02  0.41800000000E+01 0. -1.
         -5    1    3    3    0  502 -0.66587035294E+02 -0.14783261450E+01  0.11009996907E+03  0.12874585161E+03  0.41800000000E+01 0. -1.
        -11    1    1    2    0    0 -0.72214450434E+01  0.44263868258E+02 -0.10317247741E+02  0.46020483511E+02  0.00000000000E+00 0.  1.
         11    1    1    2    0    0  0.66904522047E+02 -0.14380506404E+02 -0.23026590792E+02  0.72202755614E+02  0.00000000000E+00 0. -1.
</event>
<event>
 7    1  0.1226955E-005  0.9275778E+02  0.7561462E-02  0.1296307E+00
          4   -1    0    0  501    0  0.00000000000E+00  0.00000000000E+00  0.67859155587E+02  0.67859155587E+02  0.00000000000E+00 0. -1.
         -4   -1    0    0    0  501 -0.00000000000E+00 -0.00000000000E+00 -0.17766026524E+03  0.17766026524E+03  0.00000000000E+00 0.  1.
         23    2    1    2    0    0  0.19139998220E+02 -0.45239617971E+01 -0.69352718018E+02  0.14315731400E+03  0.12368270410E+03 0.  0.
          5    1    3    3  502    0 -0.39438747756E+01 -0.60974307351E+02 -0.19494021700E+02  0.64272152502E+02  0.41800000000E+01 0. -1.
         -5    1    3    3    0  502  0.23083872995E+02  0.56450345554E+02 -0.49858696319E+02  0.78885161496E+02  0.41800000000E+01 0.  1.
        -11    1    1    2    0    0 -0.39161006415E+02  0.13192066201E+02  0.14060013811E+02  0.43649731070E+02  0.00000000000E+00 0.  1.
         11    1    1    2    0    0  0.20021008196E+02 -0.86681044044E+01 -0.54508405449E+02  0.58712375763E+02  0.00000000000E+00 0. -1.
</event>
<event>
 7    1  0.1226955E-005  0.9740405E+02  0.7561462E-02  0.1285852E+00
         -1   -1    0    0    0  501 -0.00000000000E+00  0.00000000000E+00  0.42912724130E+03  0.42912724130E+03  0.00000000000E+00 0.  1.
          1   -1    0    0  501    0  0.00000000000E+00 -0.00000000000E+00 -0.41223052977E+02  0.41223052977E+02  0.00000000000E+00 0. -1.
         23    2    1    2    0    0 -0.17576960417E+02  0.64130037706E+02  0.28500643219E+03  0.31827203317E+03  0.12508720733E+03 0.  0.
          5    1    3    3  502    0 -0.54602250114E+02  0.68861311959E+02  0.11855088010E+03  0.14763153313E+03  0.41800000000E+01 0.  1.
         -5    1    3    3    0  502  0.37025289696E+02 -0.47312742532E+01  0.16645555209E+03  0.17064050004E+03  0.41800000000E+01 0.  1.
        -11    1    1    2    0    0  0.15369227612E+02 -0.20705706506E+02  0.10541689122E+03  0.10852492983E+03  0.00000000000E+00 0.  1.
         11    1    1    2    0    0  0.22077328052E+01 -0.43424331200E+02 -0.25191350814E+01  0.43553331283E+02  0.00000000000E+00 0. -1.
</event>
<event>
 7    1  0.1226955E-005  0.1513423E+03  0.7561462E-02  0.1198833E+00
         -1   -1    0    0    0  501 -0.00000000000E+00  0.00000000000E+00  0.27814383873E+02  0.27814383873E+02  0.00000000000E+00 0.  1.
          1   -1    0    0  501    0  0.00000000000E+00 -0.00000000000E+00 -0.12112485661E+04  0.12112485661E+04  0.00000000000E+00 0. -1.
         23    2    1    2    0    0 -0.34773234777E+02  0.12569637389E+03 -0.38982946429E+03  0.42967841171E+03  0.12509104680E+03 0.  0.
          5    1    3    3  502    0  0.17914454310E+02  0.31755160705E+02 -0.25223612619E+03  0.25489184699E+03  0.41800000000E+01 0. -1.
         -5    1    3    3    0  502 -0.52687689088E+02  0.93941213187E+02 -0.13759333810E+03  0.17478656472E+03  0.41800000000E+01 0. -1.
        -11    1    1    2    0    0  0.65251247461E+02 -0.79444695713E+02 -0.55427222105E+03  0.56372589084E+03  0.00000000000E+00 0. -1.
         11    1    1    2    0    0 -0.30478012684E+02 -0.46251678180E+02 -0.23933249687E+03  0.24565864742E+03  0.00000000000E+00 0.  1.
</event>
<event>
 7    1  0.1226955E-005  0.9541284E+02  0.7561462E-02  0.1290249E+00
         -3   -1    0    0    0  501 -0.00000000000E+00  0.00000000000E+00  0.51657154010E+03  0.51657154010E+03  0.00000000000E+00 0.  1.
          3   -1    0    0  501    0  0.00000000000E+00 -0.00000000000E+00 -0.34581968280E+02  0.34581968280E+02  0.00000000000E+00 0. -1.
         23    2    1    2    0    0  0.33539878566E+01 -0.37909698442E+02  0.41227517464E+03  0.43251270186E+03  0.12509205882E+03 0.  0.
          5    1    3    3  502    0  0.35307688554E+02 -0.73223578399E+02  0.22641974891E+03  0.24060694172E+03  0.41800000000E+01 0. -1.
         -5    1    3    3    0  502 -0.31953700698E+02  0.35313879957E+02  0.18585542572E+03  0.19190576014E+03  0.41800000000E+01 0. -1.
        -11    1    1    2    0    0 -0.24989672324E+02  0.28836060377E+02 -0.66685621217E+01  0.38735924175E+02  0.00000000000E+00 0. -1.
         11    1    1    2    0    0  0.21635684468E+02  0.90736380653E+01  0.76382959308E+02  0.79904882346E+02  0.00000000000E+00 0.  1.
</event>
<event>
 7    1  0.1226955E-005  0.1105609E+03  0.7561462E-02  0.1259535E+00
          4   -1    0    0  501    0  0.00000000000E+00  0.00000000000E+00  0.65614804450E+03  0.65614804450E+03  0.00000000000E+00 0. -1.
         -4   -1    0    0    0  501 -0.00000000000E+00 -0.00000000000E+00 -0.28418440657E+02  0.28418440657E+02  0.00000000000E+00 0.  1.
         23    2    1    2    0    0 -0.53762012544E+02 -0.49671453329E+02  0.24514434755E+03  0.28478085278E+03  0.12508707251E+03 0.  0.
          5    1    3    3  502    0 -0.12958002199E+02  0.22096047368E+02 -0.12711599296E+00  0.25954454121E+02  0.41800000000E+01 0. -1.
         -5    1    3    3    0  502 -0.40804010345E+02 -0.71767500697E+02  0.24527146354E+03  0.25882639866E+03  0.41800000000E+01 0. -1.
        -11    1    1    2    0    0  0.28043814822E+02 -0.22458259990E+02  0.17191803926E+03  0.17563211897E+03  0.00000000000E+00 0. -1.
         11    1    1    2    0    0  0.25718197721E+02  0.72129713319E+02  0.21066721703E+03  0.22415351340E+03  0.00000000000E+00 0.  1.
</event>
<event>
 7    1  0.1226955E-005  0.2321098E+03  0.7561462E-02  0.1125164E+00
         -1   -1    0    0    0  501 -0.00000000000E+00  0.00000000000E+00  0.99214653302E+02  0.99214653302E+02  0.00000000000E+00 0.  1.
          1   -1    0    0  501    0  0.00000000000E+00 -0.00000000000E+00 -0.59722266516E+03  0.59722266516E+03  0.00000000000E+00 0. -1.
         23    2    1    2    0    0  0.64650998870E+02 -0.20790118786E+03 -0.25320690587E+03  0.35659979098E+03  0.12508804172E+03 0.  0.
          5    1    3    3  502    0 -0.31441476164E+02 -0.74021133506E+02 -0.12069413816E+03  0.14509390757E+03  0.41800000000E+01 0. -1.
         -5    1    3    3    0  502  0.96092475033E+02 -0.13388005435E+03 -0.13251276771E+03  0.21150588341E+03  0.41800000000E+01 0. -1.
        -11    1    1    2    0    0 -0.25156501555E+02  0.11791449801E+03 -0.70296703092E+02  0.13956469782E+03  0.00000000000E+00 0.  1.
         11    1    1    2    0    0 -0.39494497314E+02  0.89986689850E+02 -0.17450440290E+03  0.20027282966E+03  0.00000000000E+00 0. -1.
</event>
<event>
 7    1  0.1226955E-005  0.1091784E+03  0.7561462E-02  0.1262099E+00
          1   -1    0    0  501    0  0.00000000000E+00  0.00000000000E+00  0.32899016485E+03  0.32899016485E+03  0.00000000000E+00 0. -1.
         -1   -1    0    0    0  501 -0.00000000000E+00 -0.00000000000E+00 -0.13124942592E+03  0.13124942592E+03  0.00000000000E+00 0.  1.
         23    2    1    2    0    0  0.44292738485E+02 -0.26160560415E+02 -0.83556763127E+02  0.15898316903E+03  0.12509074213E+03 0.  0.
          5    1    3    3  502    0  0.77319591333E+02 -0.34619933204E+02 -0.90397997474E+02  0.12396019251E+03  0.41800000000E+01 0. -1.
         -5    1    3    3    0  502 -0.33026852848E+02  0.84593727887E+01  0.68412343465E+01  0.35022976521E+02  0.41800000000E+01 0. -1.
        -11    1    1    2    0    0 -0.69978803214E+02  0.18431232639E+02  0.14174052272E+03  0.15914496227E+03  0.00000000000E+00 0.  1.
         11    1    1    2    0    0  0.25686064729E+02  0.77293277757E+01  0.13955697934E+03  0.14211145947E+03  0.00000000000E+00 0. -1.
</event>
<event>
 7    1  0.1226955E-005  0.1315013E+03  0.7561462E-02  0.1225245E+00
          2   -1    0    0  501    0  0.00000000000E+00  0.00000000000E+00  0.25536435377E+03  0.25536435377E+03  0.00000000000E+00 0. -1.
         -2   -1    0    0    0  501 -0.00000000000E+00 -0.00000000000E+00 -0.16254175555E+03  0.16254175555E+03  0.00000000000E+00 0.  1.
         23    2    1    2    0    0  0.70833281023E+01  0.10333311256E+03 -0.89005163730E+02  0.18519267754E+03  0.12508598225E+03 0.  0.
          5    1    3    3  502    0  0.72327345242E+01 -0.47436442790E+01 -0.75599466574E+02  0.76207390429E+02  0.41800000000E+01 0. -1.
         -5    1    3    3    0  502 -0.14940642190E+00  0.10807675684E+03 -0.13405697155E+02  0.10898528711E+03  0.41800000000E+01 0. -1.
        -11    1    1    2    0    0 -0.50704572885E+02 -0.82645708608E+02  0.12154257373E+03  0.15547946518E+03  0.00000000000E+00 0.  1.
         11    1    1    2    0    0  0.43621244783E+02 -0.20687403950E+02  0.60285188217E+02  0.77233966601E+02  0.00000000000E+00 0. -1.
</event>
<event>
 7    1  0.1226955E-005  0.9607260E+02  0.7561462E-02  0.1288778E+00
         -2   -1    0    0    0  501 -0.00000000000E+00  0.00000000000E+00  0.54694979494E+02  0.54694979494E+02  0.00000000000E+00 0.  1.
          2   -1    0    0  501    0  0.00000000000E+00 -0.00000000000E+00 -0.39054954045E+03  0.39054954045E+03  0.00000000000E+00 0. -1.
         23    2    1    2    0    0 -0.59391916955E+02 -0.44880121455E+02 -0.89530952159E+02  0.17089323348E+03  0.12508829184E+03 0.  0.
          5    1    3    3  502    0 -0.75108609973E+02 -0.14646056427E+02 -0.10759650818E+03  0.13209955047E+03  0.41800000000E+01 0.  1.
         -5    1    3    3    0  502  0.15716693018E+02 -0.30234065028E+02  0.18065556022E+02  0.38793683016E+02  0.41800000000E+01 0.  1.
        -11    1    1    2    0    0  0.23713475549E+02 -0.16515891591E+00 -0.24972746849E+01  0.23845179406E+02  0.00000000000E+00 0.  1.
         11    1    1    2    0    0  0.35678441406E+02  0.45045280371E+02 -0.24382633411E+03  0.25050610705E+03  0.00000000000E+00 0. -1.
</event>
<event>
 6    1  0.1226955E-005  0.1143526E+03  0.7561462E-02  0.1252715E+00
         -2   -1    0    0    0  501 -0.00000000000E+00  0.00000000000E+00  0.98086199463E+02  0.98086199463E+02  0.00000000000E+00 0.  1.
          2   -1    0    0  501    0  0.00000000000E+00 -0.00000000000E+00 -0.23087314307E+03  0.23087314307E+03  0.00000000000E+00 0. -1.
          5    1    1    2  502    0  0.46107146330E+02  0.19790417578E+02 -0.97765940278E+01  0.51289216814E+02  0.41800000000E+01 0. -1.
         -5    1    1    2    0  502 -0.78377408413E+02 -0.23618944624E+02  0.37702273025E+02  0.90220876109E+02  0.41800000000E+01 0.  1.
        -11    1    1    2    0    0 -0.27541063098E+02  0.20461135751E+02 -0.61139181680E+02  0.70108257498E+02  0.00000000000E+00 0.  1.
         11    1    1    2    0    0  0.59811325182E+02 -0.16632608705E+02 -0.99573440919E+02  0.11734099211E+03  0.00000000000E+00 0. -1.
</event>
<event>
 7    1  0.1226955E-005  0.8005493E+02  0.7561462E-02  0.1328896E+00
         -1   -1    0    0    0  501 -0.00000000000E+00  0.00000000000E+00  0.28749216850E+02  0.28749216850E+02  0.00000000000E+00 0.  1.
          1   -1    0    0  501    0  0.00000000000E+00 -0.00000000000E+00 -0.55059808214E+03  0.55059808214E+03  0.00000000000E+00 0. -1.
         23    2    1    2    0    0 -0.63268204766E+02  0.38227612326E+01 -0.27748723689E+03  0.31090846101E+03  0.12508966884E+03 0.  0.
          5    1    3    3  502    0 -0.52300816733E+02 -0.12506796729E+02 -0.28453277254E+03  0.28960001113E+03  0.41800000000E+01 0.  1.
         -5    1    3    3    0  502 -0.10967388033E+02  0.16329557961E+02  0.70455356528E+01  0.21308449876E+02  0.41800000000E+01 0.  1.
        -11    1    1    2    0    0  0.41793377424E+02 -0.30555761437E+02 -0.22091142210E+03  0.22689688708E+03  0.00000000000E+00 0. -1.
         11    1    1    2    0    0  0.21474827342E+02  0.26733000204E+02 -0.23450206304E+02  0.41541950905E+02  0.00000000000E+00 0.  1.
</event>
<event>
 6    1  0.1226955E-005  0.2874729E+03  0.7561462E-02  0.1091676E+00
          2   -1    0    0  501    0  0.00000000000E+00  0.00000000000E+00  0.10848861835E+03  0.10848861835E+03  0.00000000000E+00 0. -1.
         -2   -1    0    0    0  501 -0.00000000000E+00 -0.00000000000E+00 -0.99438522689E+03  0.99438522689E+03  0.00000000000E+00 0.  1.
          5    1    1    2  502    0  0.15137446225E+03 -0.23098405853E+03 -0.53370931965E+03  0.60094173877E+03  0.41800000000E+01 0. -1.
         -5    1    1    2    0  502 -0.80117364578E+02  0.19317420524E+03 -0.30800712151E+03  0.37231831136E+03  0.41800000000E+01 0.  1.
        -11    1    1    2    0    0 -0.66237123937E+02  0.17296814706E+02  0.12084224201E+02  0.69516651681E+02  0.00000000000E+00 0.  1.
         11    1    1    2    0    0 -0.50199737309E+01  0.20513038581E+02 -0.56264391579E+02  0.60097143425E+02  0.00000000000E+00 0. -1.
</event>
<event>
 7    1  0.1226955E-005  0.2739092E+02  0.7561462E-02  0.1628859E+00
         -2   -1    0    0    0  501 -0.00000000000E+00  0.00000000000E+00  0.53663788954E+02  0.53663788954E+02  0.00000000000E+00 0.  1.
          2   -1    0    0  501    0  0.00000000000E+00 -0.00000000000E+00 -0.12583620941E+03  0.12583620941E+03  0.00000000000E+00 0. -1.
         23    2    1    2    0    0 -0.11168670683E+02  0.18520481401E+02 -0.28018208779E+02  0.12667294077E+03  0.12162757280E+03 0.  0.
          5    1    3    3  502    0  0.52563815960E+00  0.96342668299E+01 -0.75791974150E+02  0.76517913840E+02  0.41800000000E+01 0. -1.
         -5    1    3    3    0  502 -0.11694308842E+02  0.88862145708E+01  0.47773765372E+02  0.50155026931E+02  0.41800000000E+01 0.  1.
        -11    1    1    2    0    0  0.15801983869E+02 -0.84697284357E+01 -0.26787651202E+02  0.32233790514E+02  0.00000000000E+00 0. -1.
         11    1    1    2    0    0 -0.46333131864E+01 -0.10050752965E+02 -0.17366560475E+02  0.20593267078E+02  0.00000000000E+00 0.  1.
</event>
<event>
 7    1  0.1226955E-005  0.1232781E+03  0.7561462E-02  0.1237785E+00
          1   -1    0    0  501    0  0.00000000000E+00  0.00000000000E+00  0.20078712372E+02  0.20078712372E+02  0.00000000000E+00 0. -1.
         -1   -1    0    0    0  501 -0.00000000000E+00 -0.00000000000E+00 -0.83750390185E+03  0.83750390185E+03  0.00000000000E+00 0.  1.
         23    2    1    2    0    0 -0.48943928519E+02 -0.40848853041E+02 -0.51161422190E+03  0.53052898799E+03  0.12509099933E+03 0.  0.
          5    1    3    3  502    0 -0.87205591061E+02 -0.29425301884E+02 -0.42762305318E+03  0.43743526551E+03  0.41800000000E+01 0. -1.
         -5    1    3    3    0  502  0.38261662542E+02 -0.11423551157E+02 -0.83991168721E+02  0.93093722477E+02  0.41800000000E+01 0. -1.
        -11    1    1    2    0    0 -0.25921355777E+02 -0.51231653955E+01 -0.96520520056E+02  0.10007184570E+03  0.00000000000E+00 0.  1.
         11    1    1    2    0    0  0.74865284296E+02  0.45972018437E+02 -0.20929044753E+03  0.22698178054E+03  0.00000000000E+00 0. -1.
</event>
<event>
 7    1  0.1717082E-005  0.3815333E+03  0.7561462E-02  0.1050368E+00
         -1   -1    0    0    0  501 -0.00000000000E+00  0.00000000000E+00  0.57303229310E+03  0.57303229310E+03  0.00000000000E+00 0.  1.
          1   -1    0    0  501    0  0.00000000000E+00 -0.00000000000E+00 -0.28377229885E+03  0.28377229885E+03  0.00000000000E+00 0. -1.
         23    2    1    2    0    0  0.63363479211E+02 -0.37207230494E+03  0.24462378935E+03  0.46684197445E+03  0.12509156725E+03 0.  0.
          5    1    3    3  502    0  0.67746393842E+02 -0.17828102369E+03  0.18050875854E+03  0.26263012317E+03  0.41800000000E+01 0.  1.
         -5    1    3    3    0  502 -0.43829146313E+01 -0.19379128125E+03  0.64115030807E+02  0.20421185129E+03  0.41800000000E+01 0.  1.
        -11    1    1    2    0    0 -0.20876938922E+02  0.20365842404E+03 -0.17547770553E+02  0.20547633565E+03  0.00000000000E+00 0. -1.
         11    1    1    2    0    0 -0.42486540290E+02  0.16841388089E+03  0.62183975459E+02  0.18448628184E+03  0.00000000000E+00 0.  1.
</event>
<event>
 7    1  0.1226955E-005  0.1096001E+03  0.7561462E-02  0.1261312E+00
          2   -1    0    0  501    0  0.00000000000E+00  0.00000000000E+00  0.12697579975E+03  0.12697579975E+03  0.00000000000E+00 0. -1.
         -2   -1    0    0    0  501 -0.00000000000E+00 -0.00000000000E+00 -0.11964560984E+03  0.11964560984E+03  0.00000000000E+00 0.  1.
         23    2    1    2    0    0  0.37238579654E+02 -0.42850053167E+02 -0.16278514941E+02  0.13832744006E+03  0.12508657703E+03 0.  0.
          5    1    3    3  502    0 -0.24835607298E+02 -0.56761467863E+02 -0.35769784532E+02  0.71663250758E+02  0.41800000000E+01 0. -1.
         -5    1    3    3    0  502  0.62074186952E+02  0.13911414696E+02  0.19491269591E+02  0.66664189298E+02  0.41800000000E+01 0. -1.
        -11    1    1    2    0    0  0.22848323290E+02  0.11939995928E+02 -0.15637758673E+02  0.30152095719E+02  0.00000000000E+00 0.  1.
         11    1    1    2    0    0 -0.60086902944E+02  0.30910057239E+02  0.39246463522E+02  0.78141873812E+02  0.00000000000E+00 0. -1.
</event>
<event>
 7    1  0.1226955E-005  0.6853875E+02  0.7561462E-02  0.1365134E+00
         -2   -1    0    0    0  501 -0.00000000000E+00  0.00000000000E+00  0.10540088096E+03  0.10540088096E+03  0.00000000000E+00 0.  1.
          2   -1    0    0  501    0  0.00000000000E+00 -0.00000000000E+00 -0.14215731051E+03  0.14215731051E+03  0.00000000000E+00 0. -1.
         23    2    1    2    0    0  0.80195347400E+00  0.98433059597E+01  0.36964599196E+02  0.13081136607E+03  0.12509075945E+03 0.  0.
          5    1    3    3  502    0  0.13343048306E+01 -0.27802528006E+02  0.73178663863E+02  0.78405039236E+02  0.41800000000E+01 0.  1.
         -5    1    3    3    0  502 -0.53235135665E+00  0.37645833966E+02 -0.36214064667E+02  0.52406326838E+02  0.41800000000E+01 0.  1.
        -11    1    1    2    0    0  0.67055336550E+01 -0.39700772620E+02 -0.75863099531E+02  0.85885536609E+02  0.00000000000E+00 0. -1.
         11    1    1    2    0    0 -0.75074871290E+01  0.29857466661E+02  0.21420707929E+01  0.30861288788E+02  0.00000000000E+00 0.  1.
</event>
<event>
 6    1  0.1226955E-005  0.9560839E+02  0.7561462E-02  0.1289812E+00
         -3   -1    0    0    0  501 -0.00000000000E+00  0.00000000000E+00  0.19671909770E+03  0.19671909770E+03  0.00000000000E+00 0.  1.
          3   -1    0    0  501    0  0.00000000000E+00 -0.00000000000E+00 -0.10516974429E+03  0.10516974429E+03  0.00000000000E+00 0. -1.
          5    1    1    2  502    0  0.28911343674E+02 -0.57823335065E+02  0.12528466274E+02  0.65983624773E+02  0.41800000000E+01 0. -1.
         -5    1    1    2    0  502  0.30554444709E+01  0.65225607649E+02  0.11563585857E+03  0.13286398993E+03  0.41800000000E+01 0.  1.
        -11    1    1    2    0    0  0.40333291918E+01  0.17025838310E+02  0.23212180502E+02  0.29068062167E+02  0.00000000000E+00 0. -1.
         11    1    1    2    0    0 -0.36000117337E+02 -0.24428110894E+02 -0.59827151930E+02  0.73973165122E+02  0.00000000000E+00 0.  1.
</event>
<event>
 7    1  0.1226955E-005  0.9692846E+02  0.7561462E-02  0.1286891E+00
         -1   -1    0    0    0  501 -0.00000000000E+00  0.00000000000E+00  0.94229788699E+02  0.94229788699E+02  0.00000000000E+00 0.  1.
          1   -1    0    0  501    0  0.00000000000E+00 -0.00000000000E+00 -0.32488461224E+03  0.32488461224E+03  0.00000000000E+00 0. -1.
         23    2    1    2    0    0  0.60640873140E+02  0.33834087636E+02  0.18354645985E+02  0.14424497250E+03  0.12509059949E+03 0.  0.
          5    1    3    3  502    0  0.39336315321E+02  0.57450488344E+02  0.59770715507E+02  0.91858125096E+02  0.41800000000E+01 0. -1.
         -5    1    3    3    0  502  0.21304557819E+02 -0.23616400707E+02 -0.41416069523E+02  0.52386847404E+02  0.41800000000E+01 0. -1.
        -11    1    1    2    0    0 -0.20315340990E+02 -0.45681690343E+02 -0.21519317068E+03  0.22092449076E+03  0.00000000000E+00 0. -1.
         11    1    1    2    0    0 -0.40325532150E+02  0.11847602707E+02 -0.33816298848E+02  0.53944937676E+02  0.00000000000E+00 0.  1.
</event>
<event>
 7    1  0.1226955E-005  0.8967963E+02  0.7561462E-02  0.1303629E+00
          1   -1    0    0  501    0  0.00000000000E+00  0.00000000000E+00  0.48386783970E+03  0.48386783970E+03  0.00000000000E+00 0. -1.
         -1   -1    0    0    0  501 -0.00000000000E+00 -0.00000000000E+00 -0.35453227586E+02  0.35453227586E+02  0.00000000000E+00 0.  1.
         23    2    1    2    0    0 -0.24038690357E+02  0.52254847239E+02  0.15847116861E+03  0.20992439732E+03  0.12508682431E+03 0.  0.
          5    1    3    3  502    0 -0.34700342313E+02  0.52159784954E+02  0.13145923539E+02  0.64148613615E+02  0.41800000000E+01 0.  1.
         -5    1    3    3    0  502  0.10661651956E+02  0.95062284861E-01  0.14532524507E+03  0.14577578370E+03  0.41800000000E+01 0.  1.
        -11    1    1    2    0    0 -0.14404212007E+02 -0.63462443809E+02  0.21208219021E+03  0.22184187726E+03  0.00000000000E+00 0.  1.
         11    1    1    2    0    0  0.38442902364E+02  0.11207596570E+02  0.77861253289E+02  0.87554792712E+02  0.00000000000E+00 0. -1.
</event>
<event>
 7    1  0.1226955E-005  0.2374992E+03  0.7561462E-02  0.1121470E+00
          2   -1    0    0  501    0  0.00000000000E+00  0.00000000000E+00  0.58292545222E+03  0.58292545222E+03  0.00000000000E+00 0. -1.
         -2   -1    0    0    0  501 -0.00000000000E+00 -0.00000000000E+00 -0.14081557898E+03  0.14081557898E+03  0.00000000000E+00 0.  1.
         23    2    1    2    0    0 -0.22743679195E+03 -0.54435718266E+01  0.52446483925E+02  0.26486871994E+03  0.12509068039E+03 0.  0.
          5    1    3    3  502    0 -0.14979092851E+03  0.22402518608E+02 -0.22699453913E+02  0.15320552441E+03  0.41800000000E+01 0. -1.
         -5    1    3    3    0  502 -0.77645863446E+02 -0.27846090434E+02  0.75145937839E+02  0.11166319553E+03  0.41800000000E+01 0. -1.
        -11    1    1    2    0    0  0.60173002883E+02  0.37052065056E+02  0.92456517777E+02  0.11636946971E+03  0.00000000000E+00 0.  1.
         11    1    1    2    0    0  0.16726378907E+03 -0.31608493230E+02  0.29720687154E+03  0.34250284155E+03  0.00000000000E+00 0. -1.
</event>
<event>
 7    1  0.1226955E-005  0.2771636E+03  0.7561462E-02  0.1097248E+00
          2   -1    0    0  501    0  0.00000000000E+00  0.00000000000E+00  0.28288399060E+03  0.28288399060E+03  0.00000000000E+00 0. -1.
         -2   -1    0    0    0  501 -0.00000000000E+00 -0.00000000000E+00 -0.31379125123E+03  0.31379125123E+03  0.00000000000E+00 0.  1.
         23    2    1    2    0    0  0.51929536902E+02 -0.26367034256E+03 -0.86243411065E+02  0.30871502354E+03  0.12509321909E+03 0.  0.
          5    1    3    3  502    0 -0.60416009435E+01 -0.57354325472E+02 -0.74146235956E+02  0.94027423121E+02  0.41800000000E+01 0. -1.
         -5    1    3    3    0  502  0.57971137846E+02 -0.20631601709E+03 -0.12097175108E+02  0.21468760042E+03  0.41800000000E+01 0. -1.
        -11    1    1    2    0    0  0.11306987585E+02  0.16221349503E+03  0.23978891426E+02  0.16436560824E+03  0.00000000000E+00 0.  1.
         11    1    1    2    0    0 -0.63236524487E+02  0.10145684753E+03  0.31357259004E+02  0.12359461004E+03  0.00000000000E+00 0. -1.
</event>
<event>
 7    1  0.1226955E-005  0.1350684E+03  0.7561462E-02  0.1220123E+00
         -1   -1    0    0    0  501 -0.00000000000E+00  0.00000000000E+00  0.44054010030E+02  0.44054010030E+02  0.00000000000E+00 0.  1.
          1   -1    0    0  501    0  0.00000000000E+00 -0.00000000000E+00 -0.47838249611E+03  0.47838249611E+03  0.00000000000E+00 0. -1.
         23    2    1    2    0    0  0.39480089662E+02  0.86623145356E+02 -0.27459602629E+03  0.31640947351E+03  0.12509888281E+03 0.  0.
          5    1    3    3  502    0 -0.44031895019E+02  0.15733313081E+02 -0.69768066327E+02  0.84091619074E+02  0.41800000000E+01 0.  1.
         -5    1    3    3    0  502  0.83511984682E+02  0.70889832275E+02 -0.20482795996E+03  0.23231785443E+03  0.41800000000E+01 0.  1.
        -11    1    1    2    0    0  0.11229648783E+02 -0.49410695185E+02 -0.12337819412E+03  0.13337803641E+03  0.00000000000E+00 0. -1.
         11    1    1    2    0    0 -0.50709738446E+02 -0.37212450170E+02 -0.36354265669E+02  0.72648996230E+02  0.00000000000E+00 0.  1.
</event>
<event>
 7    1  0.1226955E-005  0.8201258E+02  0.7561462E-02  0.1323435E+00
         -2   -1    0    0    0  501 -0.00000000000E+00  0.00000000000E+00  0.70367981426E+02  0.70367981426E+02  0.00000000000E+00 0.  1.
          2   -1    0    0  501    0  0.00000000000E+00 -0.00000000000E+00 -0.30067882229E+03  0.30067882229E+03  0.00000000000E+00 0. -1.
         23    2    1    2    0    0 -0.47704714305E+02 -0.36255787698E+02 -0.28741033875E+02  0.14164768450E+03  0.12509115711E+03 0.  0.
          5    1    3    3  502    0 -0.31559811026E+02 -0.13836678313E+02  0.48423442886E+02  0.59580009731E+02  0.41800000000E+01 0. -1.
         -5    1    3    3    0  502 -0.16144903279E+02 -0.22419109385E+02 -0.77164476761E+02  0.82067674765E+02  0.41800000000E+01 0. -1.
        -11    1    1    2    0    0 -0.15227316705E+01  0.50187109184E+02 -0.56572240113E+02  0.75640485134E+02  0.00000000000E+00 0.  1.
         11    1    1    2    0    0  0.49227445975E+02 -0.13931321486E+02 -0.14499756687E+03  0.15375863408E+03  0.00000000000E+00 0. -1.
</event>
<event>
 7    1  0.1226955E-005  0.1048307E+03  0.7561462E-02  0.1270453E+00
          1   -1    0    0  501    0  0.00000000000E+00  0.00000000000E+00  0.44249554619E+03  0.44249554619E+03  0.00000000000E+00 0. -1.
         -1   -1    0    0    0  501 -0.00000000000E+00 -0.00000000000E+00 -0.45419826833E+02  0.45419826833E+02  0.00000000000E+00 0.  1.
         23    2    1    2    0    0 -0.27754444876E+02 -0.83248161352E+02  0.17135932220E+03  0.22958995104E+03  0.12508782009E+03 0.  0.
          5    1    3    3  502    0  0.59551551253E+00 -0.11353129161E+02 -0.19881955207E+02  0.23281166709E+02  0.41800000000E+01 0. -1.
         -5    1    3    3    0  502 -0.28349960388E+02 -0.71895032191E+02  0.19124127741E+03  0.20630878433E+03  0.41800000000E+01 0. -1.
        -11    1    1    2    0    0 -0.19634418336E+02 -0.47547568511E+01  0.15185361528E+02  0.25272777862E+02  0.00000000000E+00 0.  1.
         11    1    1    2    0    0  0.47388863212E+02  0.88002918203E+02  0.21053103562E+03  0.23305264412E+03  0.00000000000E+00 0. -1.
</event>
<event>
 7    1  0.1226955E-005  0.1692952E+03  0.7561462E-02  0.1178585E+00
         -3   -1    0    0    0  501 -0.00000000000E+00  0.00000000000E+00  0.20319901564E+03  0.20319901564E+03  0.00000000000E+00 0.  1.
          3   -1    0    0  501    0  0.00000000000E+00 -0.00000000000E+00 -0.27691278262E+03  0.27691278262E+03  0.00000000000E+00 0. -1.
         23    2    1    2    0    0 -0.75259945072E+02  0.13110135498E+03  0.10759588047E+03  0.22377716227E+03  0.12509084798E+03 0.  0.
          5    1    3    3  502    0 -0.10391959620E+03  0.10557563559E+03  0.11079869653E+03  0.18503870097E+03  0.41800000000E+01 0. -1.
         -5    1    3    3    0  502  0.28659651126E+02  0.25525719387E+02 -0.32028160602E+01  0.38738461297E+02  0.41800000000E+01 0. -1.
        -11    1    1    2    0    0  0.23337930882E+02 -0.54043168269E+02 -0.14514172152E+03  0.15662516522E+03  0.00000000000E+00 0. -1.
         11    1    1    2    0    0  0.51922014189E+02 -0.77058186708E+02 -0.36167925927E+02  0.99709470774E+02  0.00000000000E+00 0.  1.
</event>
<event>
 7    1  0.1226955E-005  0.1139558E+03  0.7561462E-02  0.1253415E+00
         -2   -1    0    0    0  501 -0.00000000000E+00  0.00000000000E+00  0.69114801332E+02  0.69114801332E+02  0.00000000000E+00 0.  1.
          2   -1    0    0  501    0  0.00000000000E+00 -0.00000000000E+00 -0.24196534897E+03  0.24196534897E+03  0.00000000000E+00 0. -1.
         23    2    1    2    0    0 -0.53295121444E+02  0.42716774495E+02 -0.83322647275E+02  0.16509146603E+03  0.12508971107E+03 0.  0.
          5    1    3    3  502    0 -0.49054279009E+02  0.75558588982E+02 -0.93788148025E+02  0.13011192016E+03  0.41800000000E+01 0.  1.
         -5    1    3    3    0  502 -0.42408424355E+01 -0.32841814488E+02  0.10465500750E+02  0.34979545871E+02  0.41800000000E+01 0.  1.
        -11    1    1    2    0    0  0.63529764219E+02 -0.57956670914E+02 -0.93682415486E+02  0.12716682593E+03  0.00000000000E+00 0. -1.
         11    1    1    2    0    0 -0.10234642775E+02  0.15239896420E+02  0.41545151211E+01  0.18821858343E+02  0.00000000000E+00 0.  1.
</event>
<event>
 7    1  0.1226955E-005  0.7034818E+02  0.7561462E-02  0.1358913E+00
          4   -1    0    0  501    0  0.00000000000E+00  0.00000000000E+00  0.65402285302E+02  0.65402285302E+02  0.00000000000E+00 0. -1.
         -4   -1    0    0    0  501 -0.00000000000E+00 -0.00000000000E+00 -0.23306063425E+03  0.23306063425E+03  0.00000000000E+00 0.  1.
         23    2    1    2    0    0  0.36036003505E+02 -0.45072444279E+02 -0.10629516640E+03  0.17400658691E+03  0.12509800600E+03 0.  0.
          5    1    3    3  502    0  0.45809161072E+02 -0.33755908101E+02 -0.13209772076E+03  0.14389308809E+03  0.41800000000E+01 0. -1.
         -5    1    3    3    0  502 -0.97731575664E+01 -0.11316536179E+02  0.25802554357E+02  0.30113498821E+02  0.41800000000E+01 0. -1.
        -11    1    1    2    0    0 -0.88692814791E+01  0.39368555413E+02 -0.80971281648E+02  0.90470413732E+02  0.00000000000E+00 0.  1.
         11    1    1    2    0    0 -0.27166722026E+02  0.57038888664E+01  0.19608099102E+02  0.33985918911E+02  0.00000000000E+00 0. -1.
</event>
<event>
 7    1  0.1226955E-005  0.1189089E+03  0.7561462E-02  0.1244908E+00
          2   -1    0    0  501    0  0.00000000000E+00  0.00000000000E+00  0.39087811975E+03  0.39087811975E+03  0.00000000000E+00 0. -1.
         -2   -1    0    0    0  501 -0.00000000000E+00 -0.00000000000E+00 -0.37246281876E+02  0.37246281876E+02  0.00000000000E+00 0.  1.
         23    2    1    2    0    0  0.19197594389E+02  0.46979019241E+02  0.18848352401E+03  0.23184920884E+03  0.12510971559E+03 0.  0.
          5    1    3    3  502    0  0.64159917294E+02 -0.45606386867E+01  0.71425865103E+02  0.96210295801E+02  0.41800000000E+01 0. -1.
         -5    1    3    3    0  502 -0.44962322905E+02  0.51539657928E+02  0.11705765891E+03  0.13563891304E+03  0.41800000000E+01 0. -1.
        -11    1    1    2    0    0 -0.52705831520E+01 -0.74132941207E+02  0.10271531694E+03  0.12678291822E+03  0.00000000000E+00 0.  1.
         11    1    1    2    0    0 -0.13927011237E+02  0.27153921966E+02  0.62432996923E+02  0.69492274570E+02  0.00000000000E+00 0. -1.
</event>
<event>
 7    1  0.1226955E-005  0.1249957E+03  0.7561462E-02  0.1235076E+00
         -1   -1    0    0    0  501 -0.00000000000E+00  0.00000000000E+00  0.76466369478E+02  0.76466369478E+02  0.00000000000E+00 0.  1.
          1   -1    0    0  501    0  0.00000000000E+00 -0.00000000000E+00 -0.23706902516E+03  0.23706902516E+03  0.00000000000E+00 0. -1.
         23    2    1    2    0    0 -0.52227242656E+02 -0.58452118707E+02 -0.95935830590E+02  0.17605107933E+03  0.12508382744E+03 0.  0.
          5    1    3    3  502    0  0.28925684552E+02  0.76486417330E+01  0.49565390922E+01  0.30614320619E+02  0.41800000000E+01 0.  1.
         -5    1    3    3    0  502 -0.81152927208E+02 -0.66100760441E+02 -0.10089236968E+03  0.14543675871E+03  0.41800000000E+01 0.  1.
        -11    1    1    2    0    0  0.90792773459E+01 -0.21966011026E+02  0.28824326076E+01  0.23942584139E+02  0.00000000000E+00 0.  1.
         11    1    1    2    0    0  0.43147965310E+02  0.80418129733E+02 -0.67549257697E+02  0.11354173116E+03  0.00000000000E+00 0. -1.
</event>
<event>
 7    1  0.1226955E-005  0.1340573E+03  0.7561462E-02  0.1221557E+00
         -2   -1    0    0    0  501 -0.00000000000E+00  0.00000000000E+00  0.22518938984E+03  0.22518938984E+03  0.00000000000E+00 0. -1.
          2   -1    0    0  501    0  0.00000000000E+00 -0.00000000000E+00 -0.25505131996E+03  0.25505131996E+03  0.00000000000E+00 0.  1.
         23    2    1    2    0    0  0.11806162692E+01  0.92569028792E+02  0.17702025108E+03  0.23569728219E+03  0.12508645247E+03 0.  0.
          5    1    3    3  502    0 -0.50381718212E+02  0.56320160312E+02  0.41818145898E+02  0.86466801223E+02  0.41800000000E+01 0.  1.
         -5    1    3    3    0  502  0.51562334481E+02  0.36248868480E+02  0.13520210518E+03  0.14923048097E+03  0.41800000000E+01 0.  1.
        -11    1    1    2    0    0  0.17468173793E+02 -0.10526529518E+03 -0.15738432097E+03  0.19014663803E+03  0.00000000000E+00 0. -1.
         11    1    1    2    0    0 -0.18648790062E+02  0.12696266385E+02 -0.49497860223E+02  0.54396789589E+02  0.00000000000E+00 0.  1.
</event>
<event>
 7    1  0.1226955E-005  0.2545077E+03  0.7561462E-02  0.1110489E+00
         -2   -1    0    0    0  501 -0.00000000000E+00  0.00000000000E+00  0.31382516429E+03  0.31382516429E+03  0.00000000000E+00 0.  1.
          2   -1    0    0  501    0  0.00000000000E+00 -0.00000000000E+00 -0.23329936694E+03  0.23329936694E+03  0.00000000000E+00 0. -1.
         23    2    1    2    0    0 -0.23613672343E+03  0.35614129837E+02  0.10711231007E+03  0.29008323013E+03  0.12508523109E+03 0.  0.
          5    1    3    3  502    0 -0.16255801961E+03 -0.36298232893E+02  0.65975075717E+02  0.17920059840E+03  0.41800000000E+01 0. -1.
         -5    1    3    3    0  502 -0.73578703827E+02  0.71912362730E+02  0.41137234354E+02  0.11088263174E+03  0.41800000000E+01 0. -1.
        -11    1    1    2    0    0  0.10265520086E+03 -0.24161633469E+02  0.32876451307E+02  0.11046599407E+03  0.00000000000E+00 0.  1.
         11    1    1    2    0    0  0.13348152257E+03 -0.11452496368E+02 -0.59462964022E+02  0.14657530703E+03  0.00000000000E+00 0. -1.
</event>
<event>
 7    1  0.1226955E-005  0.1300531E+03  0.7561462E-02  0.1227377E+00
         -1   -1    0    0    0  501 -0.00000000000E+00  0.00000000000E+00  0.25920374411E+02  0.25920374411E+02  0.00000000000E+00 0.  1.
          1   -1    0    0  501    0  0.00000000000E+00 -0.00000000000E+00 -0.10046456583E+04  0.10046456583E+04  0.00000000000E+00 0. -1.
         23    2    1    2    0    0  0.25371146721E+02  0.11656881543E+03 -0.52442841727E+03  0.55218130570E+03  0.12508815179E+03 0.  0.
          5    1    3    3  502    0  0.15593026483E+02  0.52356020112E+02 -0.52822294673E+02  0.76104944198E+02  0.41800000000E+01 0. -1.
         -5    1    3    3    0  502  0.97781202382E+01  0.64212795314E+02 -0.47160612259E+03  0.47607636151E+03  0.41800000000E+01 0. -1.
        -11    1    1    2    0    0 -0.36396698920E+02 -0.17207643416E+02 -0.21996452438E+03  0.22361845781E+03  0.00000000000E+00 0. -1.
         11    1    1    2    0    0  0.11025552199E+02 -0.99361172010E+02 -0.23433234228E+03  0.25476626924E+03  0.00000000000E+00 0.  1.
</event>
<event>
 7    1  0.1226955E-005  0.1019428E+03  0.7561462E-02  0.1276263E+00
         -1   -1    0    0    0  501 -0.00000000000E+00  0.00000000000E+00  0.83922867310E+02  0.83922867310E+02  0.00000000000E+00 0.  1.
          1   -1    0    0  501    0  0.00000000000E+00 -0.00000000000E+00 -0.18000421626E+03  0.18000421626E+03  0.00000000000E+00 0. -1.
         23    2    1    2    0    0 -0.31829132242E+02  0.49192494232E+02 -0.88155084367E+01  0.12507544145E+03  0.11015061378E+03 0.  0.
          5    1    3    3  502    0 -0.85631238832E+00 -0.33697025851E+02 -0.13053985349E+02  0.36388209019E+02  0.41800000000E+01 0. -1.
         -5    1    3    3    0  502 -0.30972819854E+02  0.82889520083E+02  0.42384769125E+01  0.88687232428E+02  0.41800000000E+01 0.  1.
        -11    1    1    2    0    0 -0.15675625233E+01  0.11742631345E+02  0.12532222664E+02  0.17245383384E+02  0.00000000000E+00 0.  1.
         11    1    1    2    0    0  0.33396694765E+02 -0.60935125577E+02 -0.99798063173E+02  0.12160625873E+03  0.00000000000E+00 0. -1.
</event>
<event>
 7    1  0.1226955E-005  0.1011656E+03  0.7561462E-02  0.1277864E+00
          2   -1    0    0  501    0  0.00000000000E+00  0.00000000000E+00  0.44322838991E+03  0.44322838991E+03  0.00000000000E+00 0. -1.
         -2   -1    0    0    0  501 -0.00000000000E+00 -0.00000000000E+00 -0.29872727948E+02  0.29872727948E+02  0.00000000000E+00 0.  1.
         23    2    1    2    0    0 -0.18430413182E+02  0.23817108448E+02  0.18581867022E+03  0.22601426538E+03  0.12508770989E+03 0.  0.
          5    1    3    3  502    0 -0.63096115596E-01  0.74482010729E+02  0.10640575288E+03  0.12995087744E+03  0.41800000000E+01 0. -1.
         -5    1    3    3    0  502 -0.18367317066E+02 -0.50664902281E+02  0.79412917346E+02  0.96063387931E+02  0.41800000000E+01 0. -1.
        -11    1    1    2    0    0  0.37572939912E+02  0.61961345473E+01  0.19556739375E+03  0.19924036588E+03  0.00000000000E+00 0. -1.
         11    1    1    2    0    0 -0.19142526730E+02 -0.30013242996E+02  0.31969597988E+02  0.47846486603E+02  0.00000000000E+00 0.  1.
</event>
<event>
 7    1  0.1226955E-005  0.1169060E+03  0.7561462E-02  0.1248290E+00
         -2   -1    0    0    0  501 -0.00000000000E+00  0.00000000000E+00  0.30831196214E+03  0.30831196214E+03  0.00000000000E+00 0.  1.
          2   -1    0    0  501    0  0.00000000000E+00 -0.00000000000E+00 -0.67866940646E+02  0.67866940646E+02  0.00000000000E+00 0. -1.
         23    2    1    2    0    0  0.70694126023E+02 -0.45456755231E+02  0.19201591464E+03  0.24409329757E+03  0.12508976935E+03 0.  0.
          5    1    3    3  502    0 -0.14798962926E+01  0.24205506405E+02 -0.29618651431E+01  0.24785916938E+02  0.41800000000E+01 0.  1.
         -5    1    3    3    0  502  0.72174022316E+02 -0.69662261636E+02  0.19497777978E+03  0.21930738063E+03  0.41800000000E+01 0.  1.
        -11    1    1    2    0    0 -0.54792318138E+02  0.64084829378E+02  0.61464407090E+02  0.10434048506E+03  0.00000000000E+00 0.  1.
         11    1    1    2    0    0 -0.15901807885E+02 -0.18628074147E+02 -0.13035300229E+02  0.27745120156E+02  0.00000000000E+00 0. -1.
</event>
<event>
 6    1  0.1226955E-005  0.1261738E+03  0.7561462E-02  0.1233246E+00
          1   -1    0    0  501    0  0.00000000000E+00  0.00000000000E+00  0.51255097295E+02  0.51255097295E+02  0.00000000000E+00 0. -1.
         -1   -1    0    0    0  501 -0.00000000000E+00 -0.00000000000E+00 -0.32650332279E+03  0.32650332279E+03  0.00000000000E+00 0.  1.
          5    1    1    2  502    0 -0.43902091231E+02  0.78755793931E+02 -0.94219985518E+02  0.13047891310E+03  0.41800000000E+01 0. -1.
         -5    1    1    2    0  502 -0.10084594847E+02 -0.60608049085E+02 -0.79537795079E+02  0.10059208673E+03  0.41800000000E+01 0.  1.
        -11    1    1    2    0    0 -0.20039027905E+02  0.85797911474E+01 -0.53581500977E+01  0.22447387999E+02  0.00000000000E+00 0. -1.
         11    1    1    2    0    0  0.74025713984E+02 -0.26727535994E+02 -0.96132294797E+02  0.12424003225E+03  0.00000000000E+00 0.  1.
</event>
<event>
 7    1  0.1226955E-005  0.8683975E+02  0.7561462E-02  0.1310690E+00
          2   -1    0    0  501    0  0.00000000000E+00  0.00000000000E+00  0.37346479092E+03  0.37346479092E+03  0.00000000000E+00 0. -1.
         -2   -1    0    0    0  501 -0.00000000000E+00 -0.00000000000E+00 -0.42922509204E+02  0.42922509204E+02  0.00000000000E+00 0.  1.
         23    2    1    2    0    0 -0.41000968481E+02 -0.67814848357E+02  0.13847336627E+03  0.20273614249E+03  0.12508851759E+03 0.  0.
          5    1    3    3  502    0 -0.40872638737E+02 -0.40760539295E+02  0.15855333560E+03  0.16878574226E+03  0.41800000000E+01 0.  1.
         -5    1    3    3    0  502 -0.12832974420E+00 -0.27054309063E+02 -0.20079969332E+02  0.33950400230E+02  0.41800000000E+01 0.  1.
        -11    1    1    2    0    0  0.96795962312E+01  0.52827256872E+02  0.80235054163E+02  0.96550906616E+02  0.00000000000E+00 0.  1.
         11    1    1    2    0    0  0.31321372249E+02  0.14987591485E+02  0.11183386129E+03  0.11710025102E+03  0.00000000000E+00 0. -1.
</event>
<event>
 7    1  0.1226955E-005  0.1192604E+03  0.7561462E-02  0.1244322E+00
          1   -1    0    0  501    0  0.00000000000E+00  0.00000000000E+00  0.38576532493E+03  0.38576532493E+03  0.00000000000E+00 0. -1.
         -1   -1    0    0    0  501 -0.00000000000E+00 -0.00000000000E+00 -0.51657584155E+02  0.51657584155E+02  0.00000000000E+00 0.  1.
         23    2    1    2    0    0 -0.67632776956E+02 -0.89953315233E+01  0.91443859809E+02  0.16930597625E+03  0.12508967020E+03 0.  0.
          5    1    3    3  502    0 -0.94013535296E+02 -0.19773543710E+02  0.10051840755E+03  0.13910772986E+03  0.41800000000E+01 0. -1.
         -5    1    3    3    0  502  0.26380758340E+02  0.10778212187E+02 -0.90745477425E+01  0.30198246394E+02  0.41800000000E+01 0. -1.
        -11    1    1    2    0    0  0.47483154068E+02  0.49329680182E+02  0.13427608791E+03  0.15072536300E+03  0.00000000000E+00 0.  1.
         11    1    1    2    0    0  0.20149622889E+02 -0.40334348659E+02  0.10838779306E+03  0.11739156983E+03  0.00000000000E+00 0. -1.
</event>
<event>
 7    1  0.1226955E-005  0.1311970E+03  0.7561462E-02  0.1225690E+00
         -2   -1    0    0    0  501 -0.00000000000E+00  0.00000000000E+00  0.11702583797E+03  0.11702583797E+03  0.00000000000E+00 0.  1.
          2   -1    0    0  501    0  0.00000000000E+00 -0.00000000000E+00 -0.16922353306E+03  0.16922353306E+03  0.00000000000E+00 0. -1.
         23    2    1    2    0    0  0.45723838629E+02  0.71280699182E+02 -0.12070013017E+01  0.15106509535E+03  0.12509036208E+03 0.  0.
          5    1    3    3  502    0  0.48205688358E+02  0.98825786116E+02  0.24884553219E+02  0.11281417367E+03  0.41800000000E+01 0.  1.
         -5    1    3    3    0  502 -0.24818497300E+01 -0.27545086934E+02 -0.26091554521E+02  0.38250921683E+02  0.41800000000E+01 0.  1.
        -11    1    1    2    0    0 -0.73534500137E+02 -0.57520922460E+02 -0.44767303845E+02  0.10353787097E+03  0.00000000000E+00 0. -1.
         11    1    1    2    0    0  0.27810661508E+02 -0.13759776722E+02 -0.62233899430E+01  0.31646404715E+02  0.00000000000E+00 0.  1.
</event>
<event>
 7    1  0.1226955E-005  0.1482867E+03  0.7561462E-02  0.1202594E+00
         -2   -1    0    0    0  501 -0.00000000000E+00  0.00000000000E+00  0.31377696588E+02  0.31377696588E+02  0.00000000000E+00 0.  1.
          2   -1    0    0  501    0  0.00000000000E+00 -0.00000000000E+00 -0.81417680926E+03  0.81417680926E+03  0.00000000000E+00 0. -1.
         23    2    1    2    0    0 -0.41303465732E+02 -0.10964723423E+03 -0.40778176062E+03  0.44233818918E+03  0.12509443256E+03 0.  0.
          5    1    3    3  502    0  0.30822853191E+02 -0.65197576004E+01 -0.28453163316E+02  0.42656891831E+02  0.41800000000E+01 0.  1.
         -5    1    3    3    0  502 -0.72126318923E+02 -0.10312747663E+03 -0.37932859730E+03  0.39968129735E+03  0.41800000000E+01 0.  1.
        -11    1    1    2    0    0 -0.19415998233E+02  0.91598376864E+01 -0.20196090482E+02  0.29474831375E+02  0.00000000000E+00 0.  1.
         11    1    1    2    0    0  0.60719463965E+02  0.10048739654E+03 -0.35482126157E+03  0.37374148529E+03  0.00000000000E+00 0. -1.
</event>
<event>
 7    1  0.1226955E-005  0.1989957E+03  0.7561462E-02  0.1150589E+00
          2   -1    0    0  501    0  0.00000000000E+00  0.00000000000E+00  0.59988977547E+03  0.59988977547E+03  0.00000000000E+00 0. -1.
         -2   -1    0    0    0  501 -0.00000000000E+00 -0.00000000000E+00 -0.11016008050E+03  0.11016008050E+03  0.00000000000E+00 0.  1.
         23    2    1    2    0    0 -0.17749929314E+03  0.36679360968E+02  0.48152367433E+02  0.22542637695E+03  0.12508807438E+03 0.  0.
          5    1    3    3  502    0 -0.18636374374E+03  0.56367088084E+02  0.55050534979E+02  0.20237768504E+03  0.41800000000E+01 0.  1.
         -5    1    3    3    0  502  0.88644506025E+01 -0.19687727116E+02 -0.68981675468E+01  0.23048691915E+02  0.41800000000E+01 0.  1.
        -11    1    1    2    0    0  0.87871725330E+02 -0.18715417579E+02  0.11756446496E+03  0.14796320620E+03  0.00000000000E+00 0.  1.
         11    1    1    2    0    0  0.89627567805E+02 -0.17963943389E+02  0.32401286258E+03  0.33666027282E+03  0.00000000000E+00 0. -1.
</event>
<event>
 7    1  0.1226955E-005  0.9579233E+02  0.7561462E-02  0.1289401E+00
          2   -1    0    0  501    0  0.00000000000E+00  0.00000000000E+00  0.27174267731E+03  0.27174267731E+03  0.00000000000E+00 0. -1.
         -2   -1    0    0    0  501 -0.00000000000E+00 -0.00000000000E+00 -0.65029057610E+02  0.65029057610E+02  0.00000000000E+00 0.  1.
         23    2    1    2    0    0 -0.32692304915E+02 -0.70299266100E+02  0.55270274324E+02  0.15720347322E+03  0.12508938865E+03 0.  0.
          5    1    3    3  502    0 -0.52723018700E+02 -0.37792454064E+02  0.86147544850E+02  0.10792061049E+03  0.41800000000E+01 0.  1.
         -5    1    3    3    0  502  0.20030713785E+02 -0.32506812036E+02 -0.30877270526E+02  0.49282862727E+02  0.41800000000E+01 0.  1.
        -11    1    1    2    0    0  0.37879092080E+02  0.32189170910E+02  0.12000461179E+03  0.12989255248E+03  0.00000000000E+00 0.  1.
         11    1    1    2    0    0 -0.51867871650E+01  0.38110095190E+02  0.31438733586E+02  0.49675709215E+02  0.00000000000E+00 0. -1.
</event>
<event>
 7    1  0.7331417E-005  0.3654741E+03  0.7561462E-02  0.1056437E+00
         -2   -1    0    0    0  501 -0.00000000000E+00  0.00000000000E+00  0.39139252535E+03  0.39139252535E+03  0.00000000000E+00 0.  1.
          2   -1    0    0  501    0  0.00000000000E+00 -0.00000000000E+00 -0.36829803611E+03  0.36829803611E+03  0.00000000000E+00 0. -1.
         23    2    1    2    0    0 -0.33929096543E+03 -0.12480259058E+03  0.50157999779E+02  0.38582064958E+03  0.12509077850E+03 0.  0.
          5    1    3    3  502    0 -0.21941075816E+03 -0.61848811914E+02  0.89216016264E+02  0.24483326222E+03  0.41800000000E+01 0. -1.
         -5    1    3    3    0  502 -0.11988020727E+03 -0.62953778665E+02 -0.39058016485E+02  0.14098738736E+03  0.41800000000E+01 0. -1.
        -11    1    1    2    0    0  0.66355835294E+02  0.53890852477E+02  0.20459124455E+02  0.87897079768E+02  0.00000000000E+00 0.  1.
         11    1    1    2    0    0  0.27293513014E+03  0.70911738103E+02 -0.47522634994E+02  0.28597283210E+03  0.00000000000E+00 0. -1.
</event>
<event>
 7    1  0.1226955E-005  0.9002310E+02  0.7561462E-02  0.1302796E+00
          2   -1    0    0  501    0  0.00000000000E+00  0.00000000000E+00  0.83456974002E+02  0.83456974002E+02  0.00000000000E+00 0.  1.
         -2   -1    0    0    0  501 -0.00000000000E+00 -0.00000000000E+00 -0.14979108119E+03  0.14979108119E+03  0.00000000000E+00 0. -1.
         23    2    1    2    0    0  0.99444294847E+01  0.24297965032E+02 -0.42927224761E+02  0.13483302181E+03  0.12509162387E+03 0.  0.
          5    1    3    3  502    0  0.61866058130E+02  0.33798221403E+02 -0.41403166629E+02  0.81862222823E+02  0.41800000000E+01 0.  1.
         -5    1    3    3    0  502 -0.51921628645E+02 -0.95002563708E+01 -0.15240581326E+01  0.52970798989E+02  0.41800000000E+01 0.  1.
        -11    1    1    2    0    0 -0.29389927987E+02 -0.22372956119E+02 -0.51999589514E+02  0.63783025502E+02  0.00000000000E+00 0. -1.
         11    1    1    2    0    0  0.19445498502E+02 -0.19250089128E+01  0.28592707085E+02  0.34632007880E+02  0.00000000000E+00 0.  1.
</event>
<event>
 7    1  0.1226955E-005  0.9152157E+02  0.7561462E-02  0.1299208E+00
          2   -1    0    0  501    0  0.00000000000E+00  0.00000000000E+00  0.53685707814E+02  0.53685707814E+02  0.00000000000E+00 0. -1.
         -2   -1    0    0    0  501 -0.00000000000E+00 -0.00000000000E+00 -0.23170612162E+03  0.23170612162E+03  0.00000000000E+00 0.  1.
         23    2    1    2    0    0 -0.25888742170E+00 -0.23715865039E+01 -0.14444641047E+03  0.19109735543E+03  0.12509093617E+03 0.  0.
          5    1    3    3  502    0 -0.53888772734E+02 -0.41685164334E+01 -0.24224695541E+02  0.59377475781E+02  0.41800000000E+01 0. -1.
         -5    1    3    3    0  502  0.53629885312E+02  0.17969299296E+01 -0.12022171493E+03  0.13171987965E+03  0.41800000000E+01 0. -1.
        -11    1    1    2    0    0 -0.25979029142E+02  0.28095038749E+02 -0.41769623160E+02  0.56647529305E+02  0.00000000000E+00 0.  1.
         11    1    1    2    0    0  0.26237916564E+02 -0.25723452245E+02  0.81956198178E+01  0.37646944699E+02  0.00000000000E+00 0. -1.
</event>
<event>
 7    1  0.1226955E-005  0.1074001E+03  0.7561462E-02  0.1265462E+00
          3   -1    0    0  501    0  0.00000000000E+00  0.00000000000E+00  0.14739158257E+02  0.14739158257E+02  0.00000000000E+00 0. -1.
         -3   -1    0    0    0  501 -0.00000000000E+00 -0.00000000000E+00 -0.10494227094E+04  0.10494227094E+04  0.00000000000E+00 0.  1.
         23    2    1    2    0    0  0.16711545073E+02  0.29497266484E+02 -0.72272530715E+03  0.73425310291E+03  0.12508551104E+03 0.  0.
          5    1    3    3  502    0  0.68634178664E+02 -0.10796467969E+01 -0.41432593056E+03  0.41999436336E+03  0.41800000000E+01 0.  1.
         -5    1    3    3    0  502 -0.51922633591E+02  0.30576913281E+02 -0.30839937659E+03  0.31425873955E+03  0.41800000000E+01 0.  1.
        -11    1    1    2    0    0  0.23080761109E+02 -0.38446325374E+02 -0.26007928802E+03  0.26391680039E+03  0.00000000000E+00 0.  1.
         11    1    1    2    0    0 -0.39792306182E+02  0.89490588900E+01 -0.51878955939E+02  0.65991964326E+02  0.00000000000E+00 0. -1.
</event>
<event>
 7    1  0.1226955E-005  0.1885821E+03  0.7561462E-02  0.1159746E+00
          1   -1    0    0  501    0  0.00000000000E+00  0.00000000000E+00  0.15224500122E+03  0.15224500122E+03  0.00000000000E+00 0. -1.
         -1   -1    0    0    0  501 -0.00000000000E+00 -0.00000000000E+00 -0.26670703846E+03  0.26670703846E+03  0.00000000000E+00 0.  1.
         23    2    1    2    0    0 -0.13327237275E+03 -0.10425009781E+03 -0.46832944857E+02  0.21557063902E+03  0.12509103665E+03 0.  0.
          5    1    3    3  502    0 -0.29647360172E+02 -0.93073963376E+02 -0.52749473290E+02  0.11109323992E+03  0.41800000000E+01 0.  1.
         -5    1    3    3    0  502 -0.10362501258E+03 -0.11176134431E+02  0.59165284330E+01  0.10447739910E+03  0.41800000000E+01 0.  1.
        -11    1    1    2    0    0  0.22510599151E+02  0.42945874854E+02 -0.59176120148E+02  0.76504172676E+02  0.00000000000E+00 0.  1.
         11    1    1    2    0    0  0.11076177360E+03  0.61304222953E+02 -0.84529722406E+01  0.12687722799E+03  0.00000000000E+00 0. -1.
</event>
<event>
 7    1  0.1226955E-005  0.1109162E+03  0.7561462E-02  0.1258883E+00
          1   -1    0    0  501    0  0.00000000000E+00  0.00000000000E+00  0.15312155490E+03  0.15312155490E+03  0.00000000000E+00 0. -1.
         -1   -1    0    0    0  501 -0.00000000000E+00 -0.00000000000E+00 -0.10789342396E+03  0.10789342396E+03  0.00000000000E+00 0.  1.
         23    2    1    2    0    0 -0.63267493703E+02 -0.17555165428E+02  0.10395067037E+02  0.14382350757E+03  0.12753895216E+03 0.  0.
          5    1    3    3  502    0 -0.83426441309E+02 -0.30274051922E+02  0.46560246586E+02  0.10030861524E+03  0.41800000000E+01 0. -1.
         -5    1    3    3    0  502  0.20158947606E+02  0.12718886494E+02 -0.36165179549E+02  0.43514892325E+02  0.41800000000E+01 0.  1.
        -11    1    1    2    0    0  0.54388759992E+02 -0.28830122986E+02  0.59786288847E+01  0.61847046883E+02  0.00000000000E+00 0.  1.
         11    1    1    2    0    0  0.88787337116E+01  0.46385288414E+02  0.28854435019E+02  0.55344424415E+02  0.00000000000E+00 0. -1.
</event>
<event>
 7    1  0.1226955E-005  0.3397495E+03  0.7561462E-02  0.1066903E+00
          2   -1    0    0  501    0  0.00000000000E+00  0.00000000000E+00  0.12875806130E+04  0.12875806130E+04  0.00000000000E+00 0. -1.
         -2   -1    0    0    0  501 -0.00000000000E+00 -0.00000000000E+00 -0.12052399915E+03  0.12052399915E+03  0.00000000000E+00 0.  1.
         23    2    1    2    0    0  0.92766258322E+02 -0.31596569452E+03  0.25725635979E+03  0.43619730702E+03  0.12508939684E+03 0.  0.
          5    1    3    3  502    0  0.16249824100E+02 -0.22589519801E+03  0.20987561137E+03  0.30880081269E+03  0.41800000000E+01 0. -1.
         -5    1    3    3    0  502  0.76516434222E+02 -0.90070496509E+02  0.47380748421E+02  0.12739649433E+03  0.41800000000E+01 0. -1.
        -11    1    1    2    0    0 -0.52794560835E+02  0.26365801386E+03  0.79892002127E+03  0.84295670963E+03  0.00000000000E+00 0. -1.
         11    1    1    2    0    0 -0.39971697487E+02  0.52307680660E+02  0.11088023284E+03  0.12895059554E+03  0.00000000000E+00 0.  1.
</event>
<event>
 6    1  0.1226955E-005  0.9182746E+02  0.7561462E-02  0.1298486E+00
         -2   -1    0    0    0  501 -0.00000000000E+00  0.00000000000E+00  0.24611416645E+02  0.24611416645E+02  0.00000000000E+00 0.  1.
          2   -1    0    0  501    0  0.00000000000E+00 -0.00000000000E+00 -0.79619055221E+03  0.79619055221E+03  0.00000000000E+00 0. -1.
          5    1    1    2  502    0  0.14683933259E+01 -0.53607180819E+01 -0.37285019992E+03  0.37291505395E+03  0.41800000000E+01 0. -1.
         -5    1    1    2    0  502 -0.61567960659E+02  0.16294069487E+02 -0.49277459118E+02  0.80634055195E+02  0.41800000000E+01 0.  1.
        -11    1    1    2    0    0  0.27868908962E+02 -0.53000419096E+02 -0.17860213390E+03  0.18837314762E+03  0.00000000000E+00 0. -1.
         11    1    1    2    0    0  0.32230658370E+02  0.42067067691E+02 -0.17084934263E+03  0.17887971210E+03  0.00000000000E+00 0.  1.
</event>
<event>
 7    1  0.1226955E-005  0.1003068E+03  0.7561462E-02  0.1279652E+00
         -3   -1    0    0    0  501 -0.00000000000E+00  0.00000000000E+00  0.11406937117E+04  0.11406937117E+04  0.00000000000E+00 0.  1.
          3   -1    0    0  501    0  0.00000000000E+00 -0.00000000000E+00 -0.14384084462E+02  0.14384084462E+02  0.00000000000E+00 0. -1.
         23    2    1    2    0    0 -0.43909847238E+02  0.46007411909E+02  0.72770817382E+03  0.74111488061E+03  0.12508926164E+03 0.  0.
          5    1    3    3  502    0 -0.59958363238E+02  0.39074329532E+02  0.18950320968E+03  0.20260984041E+03  0.41800000000E+01 0.  1.
         -5    1    3    3    0  502  0.16048515999E+02  0.69330823772E+01  0.53820496414E+03  0.53850504020E+03  0.41800000000E+01 0.  1.
        -11    1    1    2    0    0  0.71481946576E+02 -0.23154996638E+02  0.24621064169E+03  0.25742086674E+03  0.00000000000E+00 0. -1.
         11    1    1    2    0    0 -0.27572099338E+02 -0.22852415270E+02  0.15239081175E+03  0.15654204883E+03  0.00000000000E+00 0.  1.
</event>
<event>
 7    1  0.1226955E-005  0.1891025E+03  0.7561462E-02  0.1159273E+00
          1   -1    0    0  501    0  0.00000000000E+00  0.00000000000E+00  0.27880058853E+03  0.27880058853E+03  0.00000000000E+00 0. -1.
         -1   -1    0    0    0  501 -0.00000000000E+00 -0.00000000000E+00 -0.19964568867E+03  0.19964568867E+03  0.00000000000E+00 0.  1.
         23    2    1    2    0    0 -0.10420349674E+03  0.12833555581E+03 -0.89348406095E+02  0.22573956299E+03  0.12508728555E+03 0.  0.
          5    1    3    3  502    0 -0.11687653007E+03  0.14453575346E+03 -0.75954815342E+02  0.20084151385E+03  0.41800000000E+01 0.  1.
         -5    1    3    3    0  502  0.12673033338E+02 -0.16200197645E+02 -0.13393590752E+02  0.24898049140E+02  0.41800000000E+01 0.  1.
        -11    1    1    2    0    0  0.56887121631E+02 -0.10288382553E+03  0.60820182745E+02  0.13236434865E+03  0.00000000000E+00 0.  1.
         11    1    1    2    0    0  0.47316375105E+02 -0.25451730279E+02  0.10768312320E+03  0.12034236557E+03  0.00000000000E+00 0. -1.
</event>
<event>
 6    1  0.1226955E-005  0.2310482E+03  0.7561462E-02  0.1125904E+00
          2   -1    0    0  501    0  0.00000000000E+00  0.00000000000E+00  0.12453745718E+04  0.12453745718E+04  0.00000000000E+00 0. -1.
         -2   -1    0    0    0  501 -0.00000000000E+00 -0.00000000000E+00 -0.48422689789E+02  0.48422689789E+02  0.00000000000E+00 0.  1.
          5    1    1    2  502    0  0.10561419103E+03 -0.19179269274E+03  0.47544900182E+03  0.52345775385E+03  0.41800000000E+01 0. -1.
         -5    1    1    2    0  502 -0.21740512346E+02  0.46795615163E+02  0.50491801672E+02  0.72314410125E+02  0.41800000000E+01 0.  1.
        -11    1    1    2    0    0  0.63115348576E+01 -0.10110303248E+02  0.61965888649E+02  0.63101704098E+02  0.00000000000E+00 0.  1.
         11    1    1    2    0    0 -0.90185213545E+02  0.15510738082E+03  0.60904518983E+03  0.63492339348E+03  0.00000000000E+00 0. -1.
</event>
<event>
 7    1  0.1226955E-005  0.1683338E+03  0.7561462E-02  0.1179597E+00
         -2   -1    0    0    0  501 -0.00000000000E+00  0.00000000000E+00  0.43346655174E+02  0.43346655174E+02  0.00000000000E+00 0.  1.
          2   -1    0    0  501    0  0.00000000000E+00 -0.00000000000E+00 -0.72381784337E+03  0.72381784337E+03  0.00000000000E+00 0. -1.
         23    2    1    2    0    0  0.82540379523E+02  0.10793781958E+03 -0.28940652543E+03  0.34331480276E+03  0.12508169204E+03 0.  0.
          5    1    3    3  502    0  0.48493853118E+02  0.12600177493E+03 -0.26517806285E+03  0.29759868698E+03  0.41800000000E+01 0.  1.
         -5    1    3    3    0  502  0.34046526405E+02 -0.18063955345E+02 -0.24228462584E+02  0.45716115781E+02  0.41800000000E+01 0.  1.
        -11    1    1    2    0    0 -0.72898406050E+02 -0.21715767673E+02 -0.16424246693E+03  0.18100093954E+03  0.00000000000E+00 0.  1.
         11    1    1    2    0    0 -0.96419734734E+01 -0.86222051910E+02 -0.22682219583E+03  0.24284875624E+03  0.00000000000E+00 0. -1.
</event>
<event>
 7    1  0.1226955E-005  0.1027140E+03  0.7561462E-02  0.1274690E+00
          1   -1    0    0  501    0  0.00000000000E+00  0.00000000000E+00  0.11442073675E+03  0.11442073675E+03  0.00000000000E+00 0. -1.
         -1   -1    0    0    0  501 -0.00000000000E+00 -0.00000000000E+00 -0.18909217872E+03  0.18909217872E+03  0.00000000000E+00 0.  1.
         23    2    1    2    0    0 -0.13708552466E+02  0.56347499639E+02 -0.12230594565E+03  0.18430705301E+03  0.12508948926E+03 0.  0.
          5    1    3    3  502    0  0.11060883311E+02  0.69042931969E+02 -0.12757032368E+02  0.71200308071E+02  0.41800000000E+01 0.  1.
         -5    1    3    3    0  502 -0.24769435777E+02 -0.12695432330E+02 -0.10954891328E+03  0.11310674494E+03  0.41800000000E+01 0.  1.
        -11    1    1    2    0    0  0.14106558605E+02  0.23487610510E+02  0.25431934808E+01  0.27516007637E+02  0.00000000000E+00 0.  1.
         11    1    1    2    0    0 -0.39800613925E+00 -0.79835110149E+02  0.45091310196E+02  0.91689854818E+02  0.00000000000E+00 0. -1.
</event>
<event>
 7    1  0.1226955E-005  0.4115381E+03  0.7561462E-02  0.1039856E+00
         -1   -1    0    0    0  501 -0.00000000000E+00  0.00000000000E+00  0.33118872124E+04  0.33118872124E+04  0.00000000000E+00 0.  1.
          1   -1    0    0  501    0  0.00000000000E+00 -0.00000000000E+00 -0.52462903309E+02  0.52462903309E+02  0.00000000000E+00 0. -1.
         23    2    1    2    0    0 -0.39119800573E+03 -0.85220810223E+02  0.17930450949E+04  0.18414550392E+04  0.12508989881E+03 0.  0.
          5    1    3    3  502    0 -0.32818915795E+03 -0.10820753329E+03  0.13597962874E+04  0.14030254486E+04  0.41800000000E+01 0. -1.
         -5    1    3    3    0  502 -0.63008847780E+02  0.22986723071E+02  0.43324880748E+03  0.43842959061E+03  0.41800000000E+01 0. -1.
        -11    1    1    2    0    0  0.25093381407E+03  0.98100252832E+02  0.10055808960E+04  0.10410496516E+04  0.00000000000E+00 0.  1.
         11    1    1    2    0    0  0.14026419165E+03 -0.12879442609E+02  0.46079831818E+03  0.48184542495E+03  0.00000000000E+00 0. -1.
</event>
<event>
 7    1  0.1226955E-005  0.2088167E+03  0.7561462E-02  0.1142506E+00
          2   -1    0    0  501    0  0.00000000000E+00  0.00000000000E+00  0.80141775990E+03  0.80141775990E+03  0.00000000000E+00 0.  1.
         -2   -1    0    0    0  501 -0.00000000000E+00 -0.00000000000E+00 -0.84790829172E+02  0.84790829172E+02  0.00000000000E+00 0. -1.
         23    2    1    2    0    0  0.13437035083E+03 -0.14841169161E+03  0.15351117589E+03  0.28159284090E+03  0.12508966999E+03 0.  0.
          5    1    3    3  502    0  0.50706141889E+02 -0.82807791444E+02  0.14539031811E+03  0.17488298988E+03  0.41800000000E+01 0.  1.
         -5    1    3    3    0  502  0.83664208945E+02 -0.65603900163E+02  0.81208577803E+01  0.10670985103E+03  0.41800000000E+01 0.  1.
        -11    1    1    2    0    0 -0.84938061598E+02  0.37958838543E+02  0.31683467731E+03  0.33021138756E+03  0.00000000000E+00 0. -1.
         11    1    1    2    0    0 -0.49432289236E+02  0.11045285306E+03  0.24628107754E+03  0.27440436061E+03  0.00000000000E+00 0.  1.
</event>
<event>
 7    1  0.1226955E-005  0.8653057E+02  0.7561462E-02  0.1311478E+00
          1   -1    0    0  501    0  0.00000000000E+00  0.00000000000E+00  0.33324001798E+02  0.33324001798E+02  0.00000000000E+00 0. -1.
         -1   -1    0    0    0  501 -0.00000000000E+00 -0.00000000000E+00 -0.35903673520E+03  0.35903673520E+03  0.00000000000E+00 0.  1.
         23    2    1    2    0    0 -0.25098100136E+02 -0.59769141609E+01 -0.17225721175E+03  0.21452570552E+03  0.12523215719E+03 0.  0.
          5    1    3    3  502    0 -0.48422470524E+02  0.32007526836E+02 -0.15665523913E+03  0.16711539059E+03  0.41800000000E+01 0. -1.
         -5    1    3    3    0  502  0.23324370388E+02 -0.37984440997E+02 -0.15601972627E+02  0.47410314929E+02  0.41800000000E+01 0. -1.
        -11    1    1    2    0    0 -0.21772917459E+02  0.79624890832E+01 -0.72546649237E+01  0.24291795533E+02  0.00000000000E+00 0. -1.
         11    1    1    2    0    0  0.46871017595E+02 -0.19855749223E+01 -0.14620085672E+03  0.15354323595E+03  0.00000000000E+00 0.  1.
</event>
<event>
 7    1  0.1226955E-005  0.1139435E+03  0.7561462E-02  0.1253437E+00
          1   -1    0    0  501    0  0.00000000000E+00  0.00000000000E+00  0.41794638924E+03  0.41794638924E+03  0.00000000000E+00 0. -1.
         -1   -1    0    0    0  501 -0.00000000000E+00 -0.00000000000E+00 -0.41358724883E+02  0.41358724883E+02  0.00000000000E+00 0.  1.
         23    2    1    2    0    0  0.37572917686E+02 -0.80589481369E+01  0.97276782973E+02  0.16306041737E+03  0.12509698804E+03 0.  0.
          5    1    3    3  502    0  0.35413633845E+02 -0.64782053772E+02  0.54848472975E+02  0.92068818504E+02  0.41800000000E+01 0. -1.
         -5    1    3    3    0  502  0.21592838401E+01  0.56723105635E+02  0.42428309998E+02  0.70991598861E+02  0.41800000000E+01 0. -1.
        -11    1    1    2    0    0  0.38989811665E+01 -0.36176063658E+02  0.13249450336E+03  0.13739979278E+03  0.00000000000E+00 0. -1.
         11    1    1    2    0    0 -0.41471898852E+02  0.44235011795E+02  0.14681637802E+03  0.15884490397E+03  0.00000000000E+00 0.  1.
</event>
<event>
 7    1  0.1226955E-005  0.8889341E+02  0.7561462E-02  0.1305554E+00
          1   -1    0    0  501    0  0.00000000000E+00  0.00000000000E+00  0.31973651540E+03  0.31973651540E+03  0.00000000000E+00 0. -1.
         -1   -1    0    0    0  501 -0.00000000000E+00 -0.00000000000E+00 -0.72606495566E+02  0.72606495566E+02  0.00000000000E+00 0.  1.
         23    2    1    2    0    0  0.81634514422E+01 -0.84719130789E+01 -0.65102033250E+01  0.12184676345E+03  0.12110258365E+03 0.  0.
          5    1    3    3  502    0 -0.44089608181E+02  0.48370131213E+01  0.32514660706E+02  0.55154018950E+02  0.41800000000E+01 0. -1.
         -5    1    3    3    0  502  0.52253059623E+02 -0.13308926200E+02 -0.39024864031E+02  0.66692744502E+02  0.41800000000E+01 0.  1.
        -11    1    1    2    0    0 -0.10716073355E+02  0.43109547076E+02  0.21038169948E+03  0.21502029382E+03  0.00000000000E+00 0.  1.
         11    1    1    2    0    0  0.25526219126E+01 -0.34637633997E+02  0.43258523674E+02  0.55475953692E+02  0.00000000000E+00 0. -1.
</event>
<event>
 7    1  0.1226955E-005  0.6626698E+02  0.7561462E-02  0.1373268E+00
         -3   -1    0    0    0  501 -0.00000000000E+00  0.00000000000E+00  0.21778171471E+02  0.21778171471E+02  0.00000000000E+00 0.  1.
          3   -1    0    0  501    0  0.00000000000E+00 -0.00000000000E+00 -0.54643320821E+03  0.54643320821E+03  0.00000000000E+00 0. -1.
         23    2    1    2    0    0  0.12128602644E+02  0.69868375801E+01 -0.26841785873E+03  0.29646677769E+03  0.12509390267E+03 0.  0.
          5    1    3    3  502    0  0.14228807253E+02 -0.18197897288E+02  0.31568262993E+01  0.23686713023E+02  0.41800000000E+01 0.  1.
         -5    1    3    3    0  502 -0.21002046086E+01  0.25184734868E+02 -0.27157468503E+03  0.27278006467E+03  0.41800000000E+01 0.  1.
        -11    1    1    2    0    0  0.10899383036E+02 -0.40968623764E+02 -0.18242151486E+03  0.18728276421E+03  0.00000000000E+00 0. -1.
         11    1    1    2    0    0 -0.23027985680E+02  0.33981786184E+02 -0.73815663142E+02  0.84461837784E+02  0.00000000000E+00 0.  1.
</event>
<event>
 7    1  0.1226955E-005  0.1219322E+03  0.7561462E-02  0.1239943E+00
         -2   -1    0    0    0  501 -0.00000000000E+00  0.00000000000E+00  0.35856946793E+02  0.35856946793E+02  0.00000000000E+00 0.  1.
          2   -1    0    0  501    0  0.00000000000E+00 -0.00000000000E+00 -0.50002995497E+03  0.50002995497E+03  0.00000000000E+00 0. -1.
         23    2    1    2    0    0 -0.57604946834E+02  0.17170191393E+02 -0.16464443837E+03  0.21533399728E+03  0.12509114247E+03 0.  0.
          5    1    3    3  502    0 -0.84344938011E+02 -0.18457679835E+02 -0.13921901139E+03  0.16387238951E+03  0.41800000000E+01 0.  1.
         -5    1    3    3    0  502  0.26739991177E+02  0.35627871229E+02 -0.25425426985E+02  0.51461607765E+02  0.41800000000E+01 0.  1.
        -11    1    1    2    0    0  0.32365558110E+01 -0.49380805197E+02 -0.15771429708E+03  0.16529591259E+03  0.00000000000E+00 0. -1.
         11    1    1    2    0    0  0.54368391023E+02  0.32210613804E+02 -0.14181427273E+03  0.15525699190E+03  0.00000000000E+00 0.  1.
</event>
<event>
 7    1  0.1226955E-005  0.1450576E+03  0.7561462E-02  0.1206681E+00
          3   -1    0    0  501    0  0.00000000000E+00  0.00000000000E+00  0.45480047517E+02  0.45480047517E+02  0.00000000000E+00 0.  1.
         -3   -1    0    0    0  501 -0.00000000000E+00 -0.00000000000E+00 -0.76861888400E+03  0.76861888400E+03  0.00000000000E+00 0. -1.
         23    2    1    2    0    0  0.12988871260E+03 -0.59482640538E+02 -0.27014735531E+03  0.33020653823E+03  0.12508997608E+03 0.  0.
          5    1    3    3  502    0  0.10248812534E+03 -0.59427552624E+02 -0.92375704328E+02  0.15028703536E+03  0.41800000000E+01 0.  1.
         -5    1    3    3    0  502  0.27400587261E+02 -0.55087914498E-01 -0.17777165099E+03  0.17991950287E+03  0.41800000000E+01 0.  1.
        -11    1    1    2    0    0 -0.23800214662E+02  0.18414914187E+02 -0.19822689470E+02  0.36034681909E+02  0.00000000000E+00 0. -1.
         11    1    1    2    0    0 -0.10608849794E+03  0.41067726351E+02 -0.43316879170E+03  0.44785771139E+03  0.00000000000E+00 0.  1.
</event>
<event>
 7    1  0.1226955E-005  0.1032677E+03  0.7561462E-02  0.1273571E+00
          2   -1    0    0  501    0  0.00000000000E+00  0.00000000000E+00  0.26237405508E+03  0.26237405508E+03  0.00000000000E+00 0. -1.
         -2   -1    0    0    0  501 -0.00000000000E+00 -0.00000000000E+00 -0.65731007494E+02  0.65731007494E+02  0.00000000000E+00 0.  1.
         23    2    1    2    0    0  0.15757128468E+02 -0.58680871920E+02  0.15761568072E+03  0.21019409914E+03  0.12508846741E+03 0.  0.
          5    1    3    3  502    0 -0.18573929711E+02 -0.88465982033E+02  0.83373957159E+02  0.12304434150E+03  0.41800000000E+01 0.  1.
         -5    1    3    3    0  502  0.34331058179E+02  0.29785110113E+02  0.74241723559E+02  0.87149757643E+02  0.41800000000E+01 0.  1.
        -11    1    1    2    0    0  0.84742660869E+01  0.36766230469E+02  0.65680975560E+02  0.75746679393E+02  0.00000000000E+00 0. -1.
         11    1    1    2    0    0 -0.24231394555E+02  0.21914641451E+02 -0.26653608695E+02  0.42164284038E+02  0.00000000000E+00 0.  1.
</event>
<event>
 7    1  0.1226955E-005  0.7946000E+02  0.7561462E-02  0.1330591E+00
          1   -1    0    0  501    0  0.00000000000E+00  0.00000000000E+00  0.56341008193E+02  0.56341008193E+02  0.00000000000E+00 0. -1.
         -1   -1    0    0    0  501 -0.00000000000E+00 -0.00000000000E+00 -0.25624287544E+03  0.25624287544E+03  0.00000000000E+00 0.  1.
         23    2    1    2    0    0 -0.30164580874E+02  0.19344000457E+02 -0.15534120764E+03  0.20263989834E+03  0.12509174758E+03 0.  0.
          5    1    3    3  502    0 -0.58811874395E+02 -0.84969522747E+00 -0.19224643946E+02  0.62021108396E+02  0.41800000000E+01 0. -1.
         -5    1    3    3    0  502  0.28647293521E+02  0.20193695685E+02 -0.13611656370E+03  0.14061878994E+03  0.41800000000E+01 0. -1.
        -11    1    1    2    0    0 -0.13602448087E+02  0.50981330790E+01  0.22155630100E+02  0.26493197239E+02  0.00000000000E+00 0. -1.
         11    1    1    2    0    0  0.43767028961E+02 -0.24442133536E+02 -0.66716289703E+02  0.83450788059E+02  0.00000000000E+00 0.  1.
</event>
<event>
 7    1  0.1226955E-005  0.1183316E+03  0.7561462E-02  0.1245875E+00
         -2   -1    0    0    0  501 -0.00000000000E+00  0.00000000000E+00  0.20407825065E+02  0.20407825065E+02  0.00000000000E+00 0.  1.
          2   -1    0    0  501    0  0.00000000000E+00 -0.00000000000E+00 -0.11209092857E+04  0.11209092857E+04  0.00000000000E+00 0. -1.
         23    2    1    2    0    0 -0.14284224511E+02 -0.92003800951E+02 -0.41006627401E+03  0.43871516628E+03  0.12509160477E+03 0.  0.
          5    1    3    3  502    0 -0.34089389777E+02 -0.64794610674E+02 -0.39475060067E+03  0.40150459175E+03  0.41800000000E+01 0.  1.
         -5    1    3    3    0  502  0.19805165266E+02 -0.27209190277E+02 -0.15315673336E+02  0.37210574525E+02  0.41800000000E+01 0.  1.
        -11    1    1    2    0    0 -0.18355961095E+02  0.94889794204E+02 -0.54687088854E+03  0.55534564290E+03  0.00000000000E+00 0.  1.
         11    1    1    2    0    0  0.32640185607E+02 -0.28859932530E+01 -0.14356429813E+03  0.14725630163E+03  0.00000000000E+00 0. -1.
</event>
<event>
 7    1  0.1226955E-005  0.1253908E+03  0.7561462E-02  0.1234460E+00
          1   -1    0    0  501    0  0.00000000000E+00  0.00000000000E+00  0.42989494881E+03  0.42989494881E+03  0.00000000000E+00 0. -1.
         -1   -1    0    0    0  501 -0.00000000000E+00 -0.00000000000E+00 -0.91285357973E+02  0.91285357973E+02  0.00000000000E+00 0.  1.
         23    2    1    2    0    0  0.95979161073E+02  0.62153875717E+02  0.19070851815E+02  0.17054747399E+03  0.12509052670E+03 0.  0.
          5    1    3    3  502    0  0.34502220720E+02  0.39896440162E+02  0.69870863834E+02  0.87644390494E+02  0.41800000000E+01 0. -1.
         -5    1    3    3    0  502  0.61476940353E+02  0.22257435555E+02 -0.50800012018E+02  0.82903083499E+02  0.41800000000E+01 0. -1.
        -11    1    1    2    0    0 -0.11868789946E+01 -0.33225496608E+02  0.15521009092E+03  0.15873095045E+03  0.00000000000E+00 0.  1.
         11    1    1    2    0    0 -0.94792282078E+02 -0.28928379109E+02  0.16432864810E+03  0.19190188234E+03  0.00000000000E+00 0. -1.
</event>
<event>
 6    1  0.1226955E-005  0.1241643E+03  0.7561462E-02  0.1236381E+00
          1   -1    0    0  501    0  0.00000000000E+00  0.00000000000E+00  0.13207068816E+03  0.13207068816E+03  0.00000000000E+00 0. -1.
         -1   -1    0    0    0  501 -0.00000000000E+00 -0.00000000000E+00 -0.51565207051E+03  0.51565207051E+03  0.00000000000E+00 0.  1.
          5    1    1    2  502    0  0.70169874996E+02  0.40252218822E+02 -0.11856675552E+03  0.14359526591E+03  0.41800000000E+01 0. -1.
         -5    1    1    2    0  502 -0.28736890893E+02  0.36642949361E+02 -0.34899856713E+03  0.35211643940E+03  0.41800000000E+01 0.  1.
        -11    1    1    2    0    0 -0.64361345307E+02 -0.72987668294E+02  0.84302795724E+02  0.12874992761E+03  0.00000000000E+00 0. -1.
         11    1    1    2    0    0  0.22928361204E+02 -0.39074998884E+01 -0.31885542350E+00  0.23261125761E+02  0.00000000000E+00 0.  1.
</event>
<event>
 7    1  0.1226955E-005  0.1024020E+03  0.7561462E-02  0.1275324E+00
          2   -1    0    0  501    0  0.00000000000E+00  0.00000000000E+00  0.84108782467E+03  0.84108782467E+03  0.00000000000E+00 0. -1.
         -2   -1    0    0    0  501 -0.00000000000E+00 -0.00000000000E+00 -0.23772693846E+02  0.23772693846E+02  0.00000000000E+00 0.  1.
         23    2    1    2    0    0  0.25820467024E+02  0.85791630379E+02  0.33395775047E+03  0.36769854763E+03  0.12509013737E+03 0.  0.
          5    1    3    3  502    0  0.25953788808E+02  0.74230173522E+02  0.75974959094E+02  0.10942296205E+03  0.41800000000E+01 0. -1.
         -5    1    3    3    0  502 -0.13332178360E+00  0.11561456857E+02  0.25798279138E+03  0.25827558558E+03  0.41800000000E+01 0. -1.
        -11    1    1    2    0    0 -0.40789983648E+02 -0.89485097031E+02  0.44663954594E+03  0.45733826578E+03  0.00000000000E+00 0.  1.
         11    1    1    2    0    0  0.14969516623E+02  0.36934666523E+01  0.36717834419E+02  0.39823705105E+02  0.00000000000E+00 0. -1.
</event>
<event>
 7    1  0.1226955E-005  0.1105050E+03  0.7561462E-02  0.1259638E+00
         -1   -1    0    0    0  501 -0.00000000000E+00  0.00000000000E+00  0.28513597732E+03  0.28513597732E+03  0.00000000000E+00 0.  1.
          1   -1    0    0  501    0  0.00000000000E+00 -0.00000000000E+00 -0.73130302797E+02  0.73130302797E+02  0.00000000000E+00 0. -1.
         23    2    1    2    0    0  0.41571766870E+02  0.85832701768E+02  0.11502345986E+03  0.19486736727E+03  0.12508968790E+03 0.  0.
          5    1    3    3  502    0  0.28883005677E+00  0.45968197895E+02  0.12783879068E+03  0.13591684018E+03  0.41800000000E+01 0. -1.
         -5    1    3    3    0  502  0.41282936813E+02  0.39864503873E+02 -0.12815330826E+02  0.58950527098E+02  0.41800000000E+01 0. -1.
        -11    1    1    2    0    0 -0.15349037683E+02  0.97580291626E+01 -0.72319560397E+01  0.19573279722E+02  0.00000000000E+00 0. -1.
         11    1    1    2    0    0 -0.26222729187E+02 -0.95590730931E+02  0.10421417070E+03  0.14382563312E+03  0.00000000000E+00 0.  1.
</event>
<event>
 6    1  0.1226955E-005  0.1272195E+03  0.7561462E-02  0.1231641E+00
          2   -1    0    0  501    0  0.00000000000E+00  0.00000000000E+00  0.22649377318E+03  0.22649377318E+03  0.00000000000E+00 0. -1.
         -2   -1    0    0    0  501 -0.00000000000E+00 -0.00000000000E+00 -0.80072151007E+02  0.80072151007E+02  0.00000000000E+00 0.  1.
          5    1    1    2  502    0 -0.13707810643E+02 -0.52192261445E+02  0.40333613175E+02  0.67499696141E+02  0.41800000000E+01 0. -1.
         -5    1    1    2    0  502  0.46499738876E+02  0.84360298412E+02  0.11517957248E+02  0.97103148264E+02  0.41800000000E+01 0.  1.
        -11    1    1    2    0    0 -0.51972632190E+02  0.14066048673E+02  0.35290234060E+02  0.64377083206E+02  0.00000000000E+00 0.  1.
         11    1    1    2    0    0  0.19180703957E+02 -0.46234085641E+02  0.59279817690E+02  0.77585996576E+02  0.00000000000E+00 0. -1.
</event>
<event>
 7    1  0.1226955E-005  0.3011301E+03  0.7561462E-02  0.1084677E+00
          2   -1    0    0  501    0  0.00000000000E+00  0.00000000000E+00  0.56296666771E+03  0.56296666771E+03  0.00000000000E+00 0.  1.
         -2   -1    0    0    0  501 -0.00000000000E+00 -0.00000000000E+00 -0.17953784128E+03  0.17953784128E+03  0.00000000000E+00 0. -1.
         23    2    1    2    0    0 -0.26977522827E+03 -0.10895019803E+03  0.27203973706E+03  0.41749509376E+03  0.12509082833E+03 0.  0.
          5    1    3    3  502    0 -0.22999808303E+03 -0.42780911141E+02  0.16880626813E+03  0.28851750920E+03  0.41800000000E+01 0. -1.
         -5    1    3    3    0  502 -0.39777145245E+02 -0.66169286892E+02  0.10323346893E+03  0.12897758456E+03  0.41800000000E+01 0. -1.
        -11    1    1    2    0    0  0.80700762579E+02  0.34160675881E+02  0.81166090079E+02  0.11944663677E+03  0.00000000000E+00 0.  1.
         11    1    1    2    0    0  0.18907446570E+03  0.74789522152E+02  0.30222999291E+02  0.20556277846E+03  0.00000000000E+00 0. -1.
</event>
<event>
 6    1  0.1226955E-005  0.1106555E+03  0.7561462E-02  0.1259361E+00
         -1   -1    0    0    0  501 -0.00000000000E+00  0.00000000000E+00  0.26589949669E+03  0.26589949669E+03  0.00000000000E+00 0.  1.
          1   -1    0    0  501    0  0.00000000000E+00 -0.00000000000E+00 -0.80822843035E+02  0.80822843035E+02  0.00000000000E+00 0. -1.
          5    1    1    2  502    0  0.44871990079E+02  0.72680646459E+02  0.51418996841E+02  0.99786559713E+02  0.41800000000E+01 0. -1.
         -5    1    1    2    0  502 -0.11070700505E+02 -0.40734854220E+02  0.13892182744E+03  0.14525369288E+03  0.41800000000E+01 0.  1.
        -11    1    1    2    0    0 -0.49559451841E+02  0.82112792594E+01  0.17132601686E+02  0.53076269785E+02  0.00000000000E+00 0.  1.
         11    1    1    2    0    0  0.15758162267E+02 -0.40157071498E+02 -0.22396772311E+02  0.48605817340E+02  0.00000000000E+00 0. -1.
</event>
<event>
 7    1  0.1226955E-005  0.1599607E+03  0.7561462E-02  0.1188741E+00
          2   -1    0    0  501    0  0.00000000000E+00  0.00000000000E+00  0.36184044608E+03  0.36184044608E+03  0.00000000000E+00 0.  1.
         -2   -1    0    0    0  501 -0.00000000000E+00 -0.00000000000E+00 -0.83539136767E+02  0.83539136767E+02  0.00000000000E+00 0. -1.
         23    2    1    2    0    0  0.65020589537E+02 -0.11823360255E+03  0.14495312394E+03  0.23423544019E+03  0.12509185212E+03 0.  0.
          5    1    3    3  502    0  0.38252276629E+02 -0.13517095662E+03  0.79669376136E+02  0.16155217756E+03  0.41800000000E+01 0. -1.
         -5    1    3    3    0  502  0.26768312907E+02  0.16937354074E+02  0.65283747803E+02  0.72683262627E+02  0.41800000000E+01 0. -1.
        -11    1    1    2    0    0 -0.47768854434E+02  0.27602893947E+02  0.97773201706E+02  0.11226478602E+03  0.00000000000E+00 0.  1.
         11    1    1    2    0    0 -0.17251735102E+02  0.90630708602E+02  0.35574983666E+02  0.98879356635E+02  0.00000000000E+00 0. -1.
</event>
<event>
 7    1  0.1226955E-005  0.1455226E+03  0.7561462E-02  0.1206085E+00
         -1   -1    0    0    0  501 -0.00000000000E+00  0.00000000000E+00  0.70554199358E+02  0.70554199358E+02  0.00000000000E+00 0.  1.
          1   -1    0    0  501    0  0.00000000000E+00 -0.00000000000E+00 -0.76601761556E+03  0.76601761556E+03  0.00000000000E+00 0. -1.
         23    2    1    2    0    0  0.10811117405E+03  0.72115136709E+01 -0.45890144815E+02  0.17173585172E+03  0.12508903026E+03 0.  0.
          5    1    3    3  502    0  0.10924740783E+03 -0.41220454107E+02 -0.31021392930E+02  0.12088805223E+03  0.41800000000E+01 0. -1.
         -5    1    3    3    0  502 -0.11362337743E+01  0.48431967777E+02 -0.14868751885E+02  0.50847799486E+02  0.41800000000E+01 0. -1.
        -11    1    1    2    0    0 -0.98926440575E+02 -0.28033731356E+02 -0.61438553808E+03  0.62293010856E+03  0.00000000000E+00 0.  1.
         11    1    1    2    0    0 -0.91847334771E+01  0.20822217685E+02 -0.35187733308E+02  0.41905854647E+02  0.00000000000E+00 0. -1.
</event>
<event>
 7    1  0.1226955E-005  0.7627128E+02  0.7561462E-02  0.1339979E+00
          2   -1    0    0  501    0  0.00000000000E+00  0.00000000000E+00  0.64784162019E+03  0.64784162019E+03  0.00000000000E+00 0. -1.
         -2   -1    0    0    0  501 -0.00000000000E+00 -0.00000000000E+00 -0.21193527039E+02  0.21193527039E+02  0.00000000000E+00 0.  1.
         23    2    1    2    0    0  0.35376043326E+02  0.86875731395E+00  0.27406450643E+03  0.30333361325E+03  0.12509079927E+03 0.  0.
          5    1    3    3  502    0  0.39577143678E+02  0.15030302332E+02  0.28258963659E+03  0.28577374862E+03  0.41800000000E+01 0. -1.
         -5    1    3    3    0  502 -0.42011003525E+01 -0.14161545018E+02 -0.85251301662E+01  0.17559864630E+02  0.41800000000E+01 0. -1.
        -11    1    1    2    0    0 -0.52606572121E+01  0.41962590884E+02  0.11811375605E+03  0.12545673723E+03  0.00000000000E+00 0.  1.
         11    1    1    2    0    0 -0.30115386114E+02 -0.42831348198E+02  0.23446983068E+03  0.24024479675E+03  0.00000000000E+00 0. -1.
</event>
<event>
 7    1  0.1226955E-005  0.8529549E+02  0.7561462E-02  0.1314662E+00
          1   -1    0    0  501    0  0.00000000000E+00  0.00000000000E+00  0.17135026670E+03  0.17135026670E+03  0.00000000000E+00 0. -1.
         -1   -1    0    0    0  501 -0.00000000000E+00 -0.00000000000E+00 -0.75303898769E+02  0.75303898769E+02  0.00000000000E+00 0.  1.
         23    2    1    2    0    0  0.34230191991E+02  0.43742346797E+02  0.37030212614E+02  0.14178075098E+03  0.12508175629E+03 0.  0.
          5    1    3    3  502    0 -0.19297538937E+02  0.13185745407E+02  0.68465621150E+02  0.72465664769E+02  0.41800000000E+01 0.  1.
         -5    1    3    3    0  502  0.53527730928E+02  0.30556601389E+02 -0.31435408536E+02  0.69315086212E+02  0.41800000000E+01 0.  1.
        -11    1    1    2    0    0  0.10307870902E+02 -0.38932485812E+02  0.17917741397E+02  0.44079883289E+02  0.00000000000E+00 0.  1.
         11    1    1    2    0    0 -0.44538062893E+02 -0.48098609846E+01  0.41098413922E+02  0.60793531201E+02  0.00000000000E+00 0. -1.
</event>
<event>
 7    1  0.1226955E-005  0.1224263E+03  0.7561462E-02  0.1239147E+00
          2   -1    0    0  501    0  0.00000000000E+00  0.00000000000E+00  0.68875020375E+03  0.68875020375E+03  0.00000000000E+00 0. -1.
         -2   -1    0    0    0  501 -0.00000000000E+00 -0.00000000000E+00 -0.25511025163E+02  0.25511025163E+02  0.00000000000E+00 0.  1.
         23    2    1    2    0    0 -0.46528937564E+02 -0.43621207645E+02  0.25310971829E+03  0.28944776354E+03  0.12509087312E+03 0.  0.
          5    1    3    3  502    0 -0.86501812612E+02 -0.49522402171E+02  0.18246110454E+03  0.20795326151E+03  0.41800000000E+01 0.  1.
         -5    1    3    3    0  502  0.39972875048E+02  0.59011945265E+01  0.70648613746E+02  0.81494502027E+02  0.41800000000E+01 0.  1.
        -11    1    1    2    0    0  0.37327684884E+02 -0.18506265628E+02  0.99023151627E+02  0.10743101268E+03  0.00000000000E+00 0. -1.
         11    1    1    2    0    0  0.92012526793E+01  0.62127473272E+02  0.31110630867E+03  0.31738245270E+03  0.00000000000E+00 0.  1.
</event>
<event>
 7    1  0.1226955E-005  0.8966404E+02  0.7561462E-02  0.1303667E+00
         -4   -1    0    0    0  501 -0.00000000000E+00  0.00000000000E+00  0.43644330404E+03  0.43644330404E+03  0.00000000000E+00 0.  1.
          4   -1    0    0  501    0  0.00000000000E+00 -0.00000000000E+00 -0.29586652926E+02  0.29586652926E+02  0.00000000000E+00 0. -1.
         23    2    1    2    0    0  0.17400248343E+02 -0.19116298219E+02  0.29919475962E+03  0.32532123865E+03  0.12509277610E+03 0.  0.
          5    1    3    3  502    0  0.38667842123E+02  0.32449959568E+02  0.54870269940E+02  0.74675436482E+02  0.41800000000E+01 0.  1.
         -5    1    3    3    0  502 -0.21267593780E+02 -0.51566257788E+02  0.24432448968E+03  0.25064580217E+03  0.41800000000E+01 0.  1.
        -11    1    1    2    0    0 -0.14877838952E+01 -0.25410837276E+02  0.27118448569E+01  0.25598403359E+02  0.00000000000E+00 0. -1.
         11    1    1    2    0    0 -0.15912464448E+02  0.44527135496E+02  0.10495004664E+03  0.11511031496E+03  0.00000000000E+00 0.  1.
</event>
<event>
 6    1  0.1226955E-005  0.1367113E+03  0.7561462E-02  0.1217824E+00
          2   -1    0    0  501    0  0.00000000000E+00  0.00000000000E+00  0.13413054344E+03  0.13413054344E+03  0.00000000000E+00 0. -1.
         -2   -1    0    0    0  501 -0.00000000000E+00 -0.00000000000E+00 -0.64966330619E+03  0.64966330619E+03  0.00000000000E+00 0.  1.
          5    1    1    2  502    0 -0.35477600499E+02 -0.64629764636E+02 -0.14072458897E+03  0.15892309132E+03  0.41800000000E+01 0. -1.
         -5    1    1    2    0  502  0.71899760750E+02 -0.13640272226E+02 -0.46426532812E+03  0.47001638261E+03  0.41800000000E+01 0.  1.
        -11    1    1    2    0    0  0.25547287406E+02 -0.11097860630E+01  0.15393484619E+02  0.29847192291E+02  0.00000000000E+00 0.  1.
         11    1    1    2    0    0 -0.61969447657E+02  0.79379822925E+02  0.74063669720E+02  0.12500718341E+03  0.00000000000E+00 0. -1.
</event>
<event>
 7    1  0.1226955E-005  0.1018888E+03  0.7561462E-02  0.1276373E+00
          3   -1    0    0  501    0  0.00000000000E+00  0.00000000000E+00  0.87333309523E+02  0.87333309523E+02  0.00000000000E+00 0. -1.
         -3   -1    0    0    0  501 -0.00000000000E+00 -0.00000000000E+00 -0.12039264126E+03  0.12039264126E+03  0.00000000000E+00 0.  1.
         23    2    1    2    0    0  0.21785055640E+02 -0.45536371693E+02 -0.28575788064E+02  0.13787745876E+03  0.12508184591E+03 0.  0.
          5    1    3    3  502    0  0.14697725276E+02  0.43132655914E+02 -0.75371587542E+01  0.46375966799E+02  0.41800000000E+01 0. -1.
         -5    1    3    3    0  502  0.70873303641E+01 -0.88669027607E+02 -0.21038629310E+02  0.91501491964E+02  0.41800000000E+01 0. -1.
        -11    1    1    2    0    0 -0.16413478047E+02 -0.57574059265E+01  0.32579398275E+01  0.17696444742E+02  0.00000000000E+00 0.  1.
         11    1    1    2    0    0 -0.53715775930E+01  0.51293777619E+02 -0.77414835000E+01  0.52152047276E+02  0.00000000000E+00 0. -1.
</event>
<event>
 6    1  0.1226955E-005  0.1412763E+03  0.7561462E-02  0.1211622E+00
         -1   -1    0    0    0  501 -0.00000000000E+00  0.00000000000E+00  0.26059054199E+03  0.26059054199E+03  0.00000000000E+00 0.  1.
          1   -1    0    0  501    0  0.00000000000E+00 -0.00000000000E+00 -0.88628909227E+02  0.88628909227E+02  0.00000000000E+00 0. -1.
          5    1    1    2  502    0  0.46731506282E+02 -0.24471078737E+01 -0.11479654784E+01  0.46995874724E+02  0.41800000000E+01 0. -1.
         -5    1    1    2    0  502 -0.81568052346E+02  0.62392123485E+02  0.12230285758E+03  0.15975476709E+03  0.41800000000E+01 0.  1.
        -11    1    1    2    0    0 -0.41580784044E+02 -0.15414098255E+02  0.21592295313E+02  0.49323252565E+02  0.00000000000E+00 0.  1.
         11    1    1    2    0    0  0.76417330108E+02 -0.44530917356E+02  0.29214445349E+02  0.93145556837E+02  0.00000000000E+00 0. -1.
</event>
<event>
 7    1  0.1226955E-005  0.1012870E+03  0.7561462E-02  0.1277613E+00
          1   -1    0    0  501    0  0.00000000000E+00  0.00000000000E+00  0.29433730410E+03  0.29433730410E+03  0.00000000000E+00 0. -1.
         -1   -1    0    0    0  501 -0.00000000000E+00 -0.00000000000E+00 -0.82674241877E+02  0.82674241877E+02  0.00000000000E+00 0.  1.
         23    2    1    2    0    0  0.48276458290E+02  0.21986523657E+02 -0.47177406311E+01  0.13595674290E+03  0.12509178717E+03 0.  0.
          5    1    3    3  502    0  0.86678137642E+02  0.23499943376E+01  0.15425822155E+02  0.88170575634E+02  0.41800000000E+01 0. -1.
         -5    1    3    3    0  502 -0.38401679351E+02  0.19636529320E+02 -0.20143562786E+02  0.47786167271E+02  0.41800000000E+01 0. -1.
        -11    1    1    2    0    0 -0.19072855594E+02 -0.35463362097E+02  0.25899163433E+02  0.47876826735E+02  0.00000000000E+00 0.  1.
         11    1    1    2    0    0 -0.29203602697E+02  0.13476838439E+02  0.19048163942E+03  0.19317797634E+03  0.00000000000E+00 0. -1.
</event>
