<event>
 6    1  0.6101889E-006  0.1339377E+03  0.7546771E-02  0.1234869E+00
          1   -1    0    0  501    0  0.00000000000E+00  0.00000000000E+00  0.19293148065E+03  0.19293148065E+03  0.00000000000E+00 0. -1.
         -1   -1    0    0    0  501 -0.00000000000E+00 -0.00000000000E+00 -0.78086447497E+02  0.78086447497E+02  0.00000000000E+00 0.  1.
          5    1    1    2  502    0 -0.18272566201E+02  0.61825554917E+02  0.56381576520E+02  0.85774460577E+02  0.47000000000E+01 0. -1.
         -5    1    1    2    0  502 -0.29844538325E+02 -0.61826530829E+02  0.45266379431E+02  0.82367174827E+02  0.47000000000E+01 0. -1.
        -11    1    1    2    0    0 -0.23352640882E+02  0.32629358762E+01 -0.12708854278E+02  0.26786331659E+02  0.00000000000E+00 0.  1.
         11    1    1    2    0    0  0.71469745408E+02 -0.32619599639E+01  0.25905931478E+02  0.76089961081E+02  0.00000000000E+00 0. -1.
<mgrwt>
<rscale>  0 0.12512818E+03</rscale>
<asrwt>0</asrwt>
<pdfrwt beam="1">  1        1 0.29681766E-01 0.13393768E+03</pdfrwt>
<pdfrwt beam="2">  1       -1 0.12013300E-01 0.13393768E+03</pdfrwt>
<totfact> 0.66673476E+03</totfact>
</mgrwt>
</event>
<event>
 6    1  0.6101889E-006  0.1371964E+03  0.7546771E-02  0.1228419E+00
          3   -1    0    0  501    0  0.00000000000E+00  0.00000000000E+00  0.19026011782E+03  0.19026011782E+03  0.00000000000E+00 0. -1.
         -3   -1    0    0    0  501 -0.00000000000E+00 -0.00000000000E+00 -0.79680898823E+02  0.79680898823E+02  0.00000000000E+00 0.  1.
          5    1    1    2  502    0 -0.80386418550E+02 -0.49738225805E+02  0.57396605525E+02  0.11069023317E+03  0.47000000000E+01 0. -1.
         -5    1    1    2    0  502  0.40217479547E+02  0.99209263676E+01  0.14035642094E+02  0.43988176708E+02  0.47000000000E+01 0. -1.
        -11    1    1    2    0    0  0.22256593071E+02 -0.21872427963E+02  0.40356247252E+02  0.51013583802E+02  0.00000000000E+00 0. -1.
         11    1    1    2    0    0  0.17912345932E+02  0.61689727400E+02 -0.12092758741E+01  0.64249022962E+02  0.00000000000E+00 0.  1.
<mgrwt>
<rscale>  0 0.12935270E+03</rscale>
<asrwt>0</asrwt>
<pdfrwt beam="1">  1        3 0.29270787E-01 0.13719637E+03</pdfrwt>
<pdfrwt beam="2">  1       -3 0.12258600E-01 0.13719637E+03</pdfrwt>
<totfact> 0.13572850E+03</totfact>
</mgrwt>
</event>
<event>
 6    1  0.6101889E-006  0.1630153E+03  0.7546771E-02  0.1191343E+00
          2   -1    0    0  501    0  0.00000000000E+00  0.00000000000E+00  0.74683288370E+03  0.74683288370E+03  0.00000000000E+00 0. -1.
         -2   -1    0    0    0  501 -0.00000000000E+00 -0.00000000000E+00 -0.31517974046E+02  0.31517974046E+02  0.00000000000E+00 0.  1.
          5    1    1    2  502    0 -0.50943088388E+02  0.11865065430E+02  0.27547372545E+02  0.59303674138E+02  0.47000000000E+01 0.  1.
         -5    1    1    2    0  502 -0.45171933669E+02  0.29501029355E+02  0.32031160728E+03  0.32485755352E+03  0.47000000000E+01 0.  1.
        -11    1    1    2    0    0  0.10650327880E+03 -0.58480233858E+02  0.29560431184E+03  0.31960099394E+03  0.00000000000E+00 0. -1.
         11    1    1    2    0    0 -0.10388256744E+02  0.17114139073E+02  0.71851617994E+02  0.74588636150E+02  0.00000000000E+00 0.  1.
<mgrwt>
<rscale>  0 0.15767859E+03</rscale>
<asrwt>0</asrwt>
<pdfrwt beam="1">  1        2 0.11489735E+00 0.16301527E+03</pdfrwt>
<pdfrwt beam="2">  1       -2 0.48489196E-02 0.16301527E+03</pdfrwt>
<totfact> 0.77257114E+03</totfact>
</mgrwt>
</event>
<event>
 6    1  0.6101889E-006  0.1470998E+03  0.7546771E-02  0.1213639E+00
          1   -1    0    0  501    0  0.00000000000E+00  0.00000000000E+00  0.54430720426E+03  0.54430720426E+03  0.00000000000E+00 0. -1.
         -1   -1    0    0    0  501 -0.00000000000E+00 -0.00000000000E+00 -0.39507188796E+02  0.39507188796E+02  0.00000000000E+00 0.  1.
          5    1    1    2  502    0  0.43764084993E+02 -0.71141914789E+01  0.29136814417E+03  0.29475988922E+03  0.47000000000E+01 0.  1.
         -5    1    1    2    0  502 -0.25071582639E+02 -0.68132100177E+02  0.10260568561E+03  0.12577990320E+03  0.47000000000E+01 0.  1.
        -11    1    1    2    0    0  0.10181080963E+02  0.85925055686E+02  0.95558248209E+02  0.12891139750E+03  0.00000000000E+00 0. -1.
         11    1    1    2    0    0 -0.28873583317E+02 -0.10678764031E+02  0.15267937473E+02  0.34363203131E+02  0.00000000000E+00 0.  1.
<mgrwt>
<rscale>  0 0.13977011E+03</rscale>
<asrwt>0</asrwt>
<pdfrwt beam="1">  1        1 0.83739564E-01 0.14709976E+03</pdfrwt>
<pdfrwt beam="2">  1       -1 0.60780294E-02 0.14709976E+03</pdfrwt>
<totfact> 0.51101655E+03</totfact>
</mgrwt>
</event>
<event>
 6    1  0.6101889E-006  0.2790542E+03  0.7546771E-02  0.1096207E+00
         -3   -1    0    0    0  501 -0.00000000000E+00  0.00000000000E+00  0.48488765037E+02  0.48488765037E+02  0.00000000000E+00 0.  1.
          3   -1    0    0  501    0  0.00000000000E+00 -0.00000000000E+00 -0.40149116675E+03  0.40149116675E+03  0.00000000000E+00 0. -1.
          5    1    1    2  502    0 -0.91455284795E+01 -0.95510115878E+02 -0.20860413379E+03  0.22965974301E+03  0.47000000000E+01 0.  1.
         -5    1    1    2    0  502 -0.42538521237E+01  0.85082926374E+01  0.14159179626E+02  0.17693464024E+02  0.47000000000E+01 0.  1.
        -11    1    1    2    0    0  0.51775113083E+02  0.58475675757E+02 -0.10438029608E+03  0.13036607380E+03  0.00000000000E+00 0.  1.
         11    1    1    2    0    0 -0.38375732480E+02  0.28526147484E+02 -0.54177151473E+02  0.72260650947E+02  0.00000000000E+00 0. -1.
<mgrwt>
<rscale>  0 0.27905419E+03</rscale>
<asrwt>0</asrwt>
<pdfrwt beam="2">  1        3 0.61767871E-01 0.27905419E+03</pdfrwt>
<pdfrwt beam="1">  1       -3 0.74598101E-02 0.27905419E+03</pdfrwt>
<totfact> 0.78930172E+02</totfact>
</mgrwt>
</event>
<event>
 6    1  0.6101889E-006  0.1269893E+03  0.7546771E-02  0.1246889E+00
          4   -1    0    0  501    0  0.00000000000E+00  0.00000000000E+00  0.70114793042E+02  0.70114793042E+02  0.00000000000E+00 0. -1.
         -4   -1    0    0    0  501 -0.00000000000E+00 -0.00000000000E+00 -0.28563677981E+03  0.28563677981E+03  0.00000000000E+00 0.  1.
          5    1    1    2  502    0  0.62654335673E+00  0.40044012330E+02 -0.42712656145E+02  0.58739905303E+02  0.47000000000E+01 0. -1.
         -5    1    1    2    0  502 -0.16617785133E+02 -0.55841605353E+02  0.35616438545E+02  0.68447471581E+02  0.47000000000E+01 0. -1.
        -11    1    1    2    0    0  0.51080756495E+02  0.81682071830E+01 -0.16081179259E+03  0.16892719121E+03  0.00000000000E+00 0.  1.
         11    1    1    2    0    0 -0.35089514719E+02  0.76293858402E+01 -0.47613976579E+02  0.59637004764E+02  0.00000000000E+00 0. -1.
<mgrwt>
<rscale>  0 0.11773006E+03</rscale>
<asrwt>0</asrwt>
<pdfrwt beam="1">  1        4 0.10786891E-01 0.12698926E+03</pdfrwt>
<pdfrwt beam="2">  1       -4 0.43944120E-01 0.12698926E+03</pdfrwt>
<totfact> 0.55020039E+02</totfact>
</mgrwt>
</event>
<event>
 6    1  0.6101889E-006  0.1826105E+03  0.7546771E-02  0.1170940E+00
          3   -1    0    0  501    0  0.00000000000E+00  0.00000000000E+00  0.16266457699E+03  0.16266457699E+03  0.00000000000E+00 0. -1.
         -3   -1    0    0    0  501 -0.00000000000E+00 -0.00000000000E+00 -0.18340672589E+03  0.18340672589E+03  0.00000000000E+00 0.  1.
          5    1    1    2  502    0  0.51840096943E+02 -0.13294589823E+02  0.48409043382E+02  0.72316438316E+02  0.47000000000E+01 0. -1.
         -5    1    1    2    0  502  0.74244509185E+02 -0.29426416682E+02 -0.79754672585E+02  0.11296485711E+03  0.47000000000E+01 0. -1.
        -11    1    1    2    0    0 -0.88477166682E+02  0.68961301740E+02 -0.51673311529E+01  0.11229680081E+03  0.00000000000E+00 0.  1.
         11    1    1    2    0    0 -0.37607439446E+02 -0.26240295235E+02  0.15770811456E+02  0.48493206634E+02  0.00000000000E+00 0. -1.
<mgrwt>
<rscale>  0 0.17679604E+03</rscale>
<asrwt>0</asrwt>
<pdfrwt beam="1">  1        3 0.25025320E-01 0.18261054E+03</pdfrwt>
<pdfrwt beam="2">  1       -3 0.28216419E-01 0.18261054E+03</pdfrwt>
<totfact> 0.43564685E+02</totfact>
</mgrwt>
</event>
<event>
 6    1  0.6101889E-006  0.1290976E+03  0.7546771E-02  0.1242935E+00
         -2   -1    0    0    0  501 -0.00000000000E+00  0.00000000000E+00  0.17507474693E+02  0.17507474693E+02  0.00000000000E+00 0. -1.
          2   -1    0    0  501    0  0.00000000000E+00 -0.00000000000E+00 -0.97437368381E+03  0.97437368381E+03  0.00000000000E+00 0.  1.
          5    1    1    2  502    0  0.35159792261E+02 -0.42338999758E+02 -0.19926155272E+03  0.20677538124E+03  0.47000000000E+01 0.  1.
         -5    1    1    2    0  502 -0.78820329465E+01  0.59578184264E+02 -0.57792871115E+03  0.58106399962E+03  0.47000000000E+01 0.  1.
        -11    1    1    2    0    0 -0.18124474703E+02 -0.44680012770E+02 -0.16440836269E+03  0.17133274598E+03  0.00000000000E+00 0.  1.
         11    1    1    2    0    0 -0.91532846111E+01  0.27440828265E+02 -0.15267582550E+02  0.32709031657E+02  0.00000000000E+00 0. -1.
<mgrwt>
<rscale>  0 0.12009853E+03</rscale>
<asrwt>0</asrwt>
<pdfrwt beam="2">  1        2 0.14990369E+00 0.12909757E+03</pdfrwt>
<pdfrwt beam="1">  1       -2 0.26934569E-02 0.12909757E+03</pdfrwt>
<totfact> 0.12960075E+04</totfact>
</mgrwt>
</event>
<event>
 6    1  0.6101889E-006  0.2226000E+03  0.7546771E-02  0.1168694E+00
         -2   -1    0    0    0  501 -0.00000000000E+00  0.00000000000E+00  0.19501037044E+03  0.19501037044E+03  0.00000000000E+00 0.  1.
          2   -1    0    0  501    0  0.00000000000E+00 -0.00000000000E+00 -0.20405035921E+03  0.20405035921E+03  0.00000000000E+00 0. -1.
          5    1    1    2  502    0  0.18766122401E+02  0.88390453097E+02 -0.12927957912E+03  0.15779841294E+03  0.47000000000E+01 0. -1.
         -5    1    1    2    0  502  0.71249440970E+00 -0.95082034376E+02  0.82838283609E+01  0.95560518635E+02  0.47000000000E+01 0.  1.
        -11    1    1    2    0    0  0.21670875211E+02 -0.29615675613E+02  0.31790262337E+02  0.48552403173E+02  0.00000000000E+00 0.  1.
         11    1    1    2    0    0 -0.41149492022E+02  0.36307256893E+02  0.80165499654E+02  0.97149394911E+02  0.00000000000E+00 0. -1.
<mgrwt>
<rscale>  0 0.17908208E+03</rscale>
<asrwt>0</asrwt>
<pdfrwt beam="2">  1        2 0.31392363E-01 0.22260004E+03</pdfrwt>
<pdfrwt beam="1">  1       -2 0.30001595E-01 0.22260004E+03</pdfrwt>
<totfact> 0.16932721E+03</totfact>
</mgrwt>
</event>
<event>
 6    1  0.6101889E-006  0.2455513E+03  0.7546771E-02  0.1116149E+00
          4   -1    0    0  501    0  0.00000000000E+00  0.00000000000E+00  0.22947466178E+03  0.22947466178E+03  0.00000000000E+00 0.  1.
         -4   -1    0    0    0  501 -0.00000000000E+00 -0.00000000000E+00 -0.65688559713E+02  0.65688559713E+02  0.00000000000E+00 0. -1.
          5    1    1    2  502    0  0.97599696983E+02 -0.35603878354E+01  0.65119106556E+02  0.11747750956E+03  0.47000000000E+01 0. -1.
         -5    1    1    2    0  502 -0.37615019115E+02  0.11990319280E+02  0.42829080718E+02  0.58438665065E+02  0.47000000000E+01 0. -1.
        -11    1    1    2    0    0 -0.30756104096E+02  0.18366995646E+02 -0.14383881353E+02  0.38602856255E+02  0.00000000000E+00 0. -1.
         11    1    1    2    0    0 -0.29228573772E+02 -0.26796927090E+02  0.70221796142E+02  0.80644190613E+02  0.00000000000E+00 0.  1.
<mgrwt>
<rscale>  0 0.24555130E+03</rscale>
<asrwt>0</asrwt>
<pdfrwt beam="1">  1        4 0.35303794E-01 0.24555130E+03</pdfrwt>
<pdfrwt beam="2">  1       -4 0.10105932E-01 0.24555130E+03</pdfrwt>
<totfact> 0.10692761E+03</totfact>
</mgrwt>
</event>
<event>
 6    1  0.6101889E-006  0.1399770E+03  0.7546771E-02  0.1224520E+00
         -1   -1    0    0    0  501 -0.00000000000E+00  0.00000000000E+00  0.22555320674E+02  0.22555320674E+02  0.00000000000E+00 0.  1.
          1   -1    0    0  501    0  0.00000000000E+00 -0.00000000000E+00 -0.74087538913E+03  0.74087538913E+03  0.00000000000E+00 0. -1.
          5    1    1    2  502    0  0.38496981127E+02 -0.56329301912E+02 -0.33641551827E+03  0.34329651723E+03  0.47000000000E+01 0.  1.
         -5    1    1    2    0  502  0.24440020141E+02  0.58892872271E+02 -0.15506900712E+03  0.16773244158E+03  0.47000000000E+01 0.  1.
        -11    1    1    2    0    0 -0.40511025414E+02 -0.66377539190E+01 -0.22588920517E+03  0.22958905891E+03  0.00000000000E+00 0. -1.
         11    1    1    2    0    0 -0.22425975854E+02  0.40741835607E+01 -0.94633789111E+00  0.22812692083E+02  0.00000000000E+00 0.  1.
<mgrwt>
<rscale>  0 0.13199869E+03</rscale>
<asrwt>0</asrwt>
<pdfrwt beam="2">  1        1 0.11398085E+00 0.13997699E+03</pdfrwt>
<pdfrwt beam="1">  1       -1 0.34700487E-02 0.13997699E+03</pdfrwt>
<totfact> 0.75999021E+03</totfact>
</mgrwt>
</event>
<event>
 6    1  0.6101889E-006  0.2704628E+03  0.7546771E-02  0.1101015E+00
         -1   -1    0    0    0  501 -0.00000000000E+00  0.00000000000E+00  0.44493978484E+02  0.44493978484E+02  0.00000000000E+00 0.  1.
          1   -1    0    0  501    0  0.00000000000E+00 -0.00000000000E+00 -0.41101143704E+03  0.41101143704E+03  0.00000000000E+00 0. -1.
          5    1    1    2  502    0 -0.24316174301E+02 -0.31531000508E+02 -0.37013073877E+02  0.54566821086E+02  0.47000000000E+01 0. -1.
         -5    1    1    2    0  502  0.93362127569E+02  0.25534058563E+02 -0.22846098250E+03  0.24816322357E+03  0.47000000000E+01 0.  1.
        -11    1    1    2    0    0 -0.29819832111E+02  0.22739593398E+02 -0.10347046906E+03  0.11005657392E+03  0.00000000000E+00 0. -1.
         11    1    1    2    0    0 -0.39226121158E+02 -0.16742651453E+02  0.24270668796E+01  0.42718796945E+02  0.00000000000E+00 0.  1.
<mgrwt>
<rscale>  0 0.27046282E+03</rscale>
<asrwt>0</asrwt>
<pdfrwt beam="2">  1        1 0.63232528E-01 0.27046282E+03</pdfrwt>
<pdfrwt beam="1">  1       -1 0.68452276E-02 0.27046282E+03</pdfrwt>
<totfact> 0.63529069E+03</totfact>
</mgrwt>
</event>
<event>
 6    1  0.6101889E-006  0.1387041E+03  0.7546771E-02  0.1225703E+00
          2   -1    0    0  501    0  0.00000000000E+00  0.00000000000E+00  0.71965345641E+02  0.71965345641E+02  0.00000000000E+00 0. -1.
         -2   -1    0    0    0  501 -0.00000000000E+00 -0.00000000000E+00 -0.23649333473E+03  0.23649333473E+03  0.00000000000E+00 0.  1.
          5    1    1    2  502    0  0.68423630184E+02  0.24530719446E+01  0.88962049054E+01  0.69202913170E+02  0.47000000000E+01 0.  1.
         -5    1    1    2    0  502 -0.27161178088E+02 -0.46213932382E+02 -0.55044192117E+02  0.76976686257E+02  0.47000000000E+01 0.  1.
        -11    1    1    2    0    0 -0.20613098006E+02 -0.28184785245E+02 -0.49371393184E+02  0.60471616430E+02  0.00000000000E+00 0.  1.
         11    1    1    2    0    0 -0.20649354089E+02  0.71945645683E+02 -0.69008608693E+02  0.10180746451E+03  0.00000000000E+00 0. -1.
<mgrwt>
<rscale>  0 0.13118869E+03</rscale>
<asrwt>0</asrwt>
<pdfrwt beam="1">  1        2 0.11071592E-01 0.13870414E+03</pdfrwt>
<pdfrwt beam="2">  1       -2 0.36383590E-01 0.13870414E+03</pdfrwt>
<totfact> 0.38575680E+03</totfact>
</mgrwt>
</event>
<event>
 6    1  0.6101889E-006  0.1640584E+03  0.7546771E-02  0.1191162E+00
          2   -1    0    0  501    0  0.00000000000E+00  0.00000000000E+00  0.48724386793E+03  0.48724386793E+03  0.00000000000E+00 0. -1.
         -2   -1    0    0    0  501 -0.00000000000E+00 -0.00000000000E+00 -0.53466162060E+02  0.53466162060E+02  0.00000000000E+00 0.  1.
          5    1    1    2  502    0 -0.42761830366E+02 -0.65709564305E+02  0.18262709392E+03  0.19879906039E+03  0.47000000000E+01 0. -1.
         -5    1    1    2    0  502  0.75695327339E+02 -0.35312757781E+02  0.13842373890E+03  0.16174051729E+03  0.47000000000E+01 0. -1.
        -11    1    1    2    0    0 -0.83404108278E+01  0.49052556877E+02 -0.41377402134E+01  0.49928315444E+02  0.00000000000E+00 0.  1.
         11    1    1    2    0    0 -0.24593086145E+02  0.51969765210E+02  0.11686461327E+03  0.13024213687E+03  0.00000000000E+00 0. -1.
<mgrwt>
<rscale>  0 0.15783590E+03</rscale>
<asrwt>0</asrwt>
<pdfrwt beam="1">  1        2 0.74960592E-01 0.16405837E+03</pdfrwt>
<pdfrwt beam="2">  1       -2 0.82255637E-02 0.16405837E+03</pdfrwt>
<totfact> 0.56361419E+03</totfact>
</mgrwt>
</event>
<event>
 6    1  0.6101889E-006  0.1281809E+03  0.7546771E-02  0.1245688E+00
          2   -1    0    0  501    0  0.00000000000E+00  0.00000000000E+00  0.31757379554E+03  0.31757379554E+03  0.00000000000E+00 0.  1.
         -2   -1    0    0    0  501 -0.00000000000E+00 -0.00000000000E+00 -0.38757013479E+02  0.38757013479E+02  0.00000000000E+00 0. -1.
          5    1    1    2  502    0  0.18966295903E+02  0.48754890908E+02  0.14849422021E+03  0.15750994636E+03  0.47000000000E+01 0. -1.
         -5    1    1    2    0  502  0.94044214279E+01 -0.49813292143E+02  0.21183269791E+02  0.55141890932E+02  0.47000000000E+01 0. -1.
        -11    1    1    2    0    0 -0.18842459987E+02 -0.22874358656E+02  0.11371735085E+03  0.11751557542E+03  0.00000000000E+00 0.  1.
         11    1    1    2    0    0 -0.95282573438E+01  0.23932759891E+02 -0.45780587852E+01  0.26163396306E+02  0.00000000000E+00 0. -1.
<mgrwt>
<rscale>  0 0.11844274E+03</rscale>
<asrwt>0</asrwt>
<pdfrwt beam="1">  1        2 0.48857505E-01 0.12818094E+03</pdfrwt>
<pdfrwt beam="2">  1       -2 0.59626177E-02 0.12818094E+03</pdfrwt>
<totfact> 0.14373347E+04</totfact>
</mgrwt>
</event>
<event>
 6    1  0.6101889E-006  0.2633086E+03  0.7546771E-02  0.1105171E+00
          2   -1    0    0  501    0  0.00000000000E+00  0.00000000000E+00  0.70614020884E+03  0.70614020884E+03  0.00000000000E+00 0. -1.
         -2   -1    0    0    0  501 -0.00000000000E+00 -0.00000000000E+00 -0.24545913498E+02  0.24545913498E+02  0.00000000000E+00 0.  1.
          5    1    1    2  502    0  0.29292978823E+02 -0.28322161706E+02  0.26667945921E+03  0.26981520976E+03  0.47000000000E+01 0. -1.
         -5    1    1    2    0  502 -0.33913324822E+02  0.79376921728E+02  0.26407926725E+03  0.27786823981E+03  0.47000000000E+01 0. -1.
        -11    1    1    2    0    0 -0.16259380145E+02 -0.28613284864E+02  0.41761404269E+01  0.33174201758E+02  0.00000000000E+00 0.  1.
         11    1    1    2    0    0  0.20879726145E+02 -0.22441475158E+02  0.14665942845E+03  0.14982847101E+03  0.00000000000E+00 0. -1.
<mgrwt>
<rscale>  0 0.26330861E+03</rscale>
<asrwt>0</asrwt>
<pdfrwt beam="1">  1        2 0.10863694E+00 0.26330861E+03</pdfrwt>
<pdfrwt beam="2">  1       -2 0.37762949E-02 0.26330861E+03</pdfrwt>
<totfact> 0.12360955E+04</totfact>
</mgrwt>
</event>
<event>
 6    1  0.6101889E-006  0.3233983E+03  0.7546771E-02  0.1074096E+00
         -1   -1    0    0    0  501 -0.00000000000E+00  0.00000000000E+00  0.36750330609E+03  0.36750330609E+03  0.00000000000E+00 0.  1.
          1   -1    0    0  501    0  0.00000000000E+00 -0.00000000000E+00 -0.71146607111E+02  0.71146607111E+02  0.00000000000E+00 0. -1.
          5    1    1    2  502    0  0.23760151988E+02 -0.20395238002E+02 -0.20418061138E+02  0.37676222957E+02  0.47000000000E+01 0. -1.
         -5    1    1    2    0  502 -0.88541812869E+02 -0.52612892024E+02  0.84755074949E+02  0.13346640687E+03  0.47000000000E+01 0. -1.
        -11    1    1    2    0    0  0.27902959928E+00  0.64476426707E+02  0.84613576503E+02  0.10638018982E+03  0.00000000000E+00 0. -1.
         11    1    1    2    0    0  0.64502631281E+02  0.85317033193E+01  0.14740610867E+03  0.16112709355E+03  0.00000000000E+00 0.  1.
<mgrwt>
<rscale>  0 0.32339829E+03</rscale>
<asrwt>0</asrwt>
<pdfrwt beam="2">  1        1 0.10945632E-01 0.32339829E+03</pdfrwt>
<pdfrwt beam="1">  1       -1 0.56538969E-01 0.32339829E+03</pdfrwt>
<totfact> 0.18539381E+03</totfact>
</mgrwt>
</event>
<event>
 6    1  0.6101889E-006  0.1755881E+03  0.7546771E-02  0.1177975E+00
         -3   -1    0    0    0  501 -0.00000000000E+00  0.00000000000E+00  0.10287689114E+03  0.10287689114E+03  0.00000000000E+00 0.  1.
          3   -1    0    0  501    0  0.00000000000E+00 -0.00000000000E+00 -0.27218610830E+03  0.27218610830E+03  0.00000000000E+00 0. -1.
          5    1    1    2  502    0 -0.33309742031E+02 -0.85707724031E+02 -0.88540108168E+02  0.12773720534E+03  0.47000000000E+01 0.  1.
         -5    1    1    2    0  502  0.28569105270E+02 -0.37510201459E+02  0.31481351426E+02  0.56889141996E+02  0.47000000000E+01 0.  1.
        -11    1    1    2    0    0 -0.21686702579E+02  0.34209591712E+02 -0.84212201732E+02  0.93446798524E+02  0.00000000000E+00 0. -1.
         11    1    1    2    0    0  0.26427339340E+02  0.89008333778E+02 -0.28038258687E+02  0.96989853576E+02  0.00000000000E+00 0.  1.
<mgrwt>
<rscale>  0 0.16987788E+03</rscale>
<asrwt>0</asrwt>
<pdfrwt beam="2">  1        3 0.41874785E-01 0.17558812E+03</pdfrwt>
<pdfrwt beam="1">  1       -3 0.15827214E-01 0.17558812E+03</pdfrwt>
<totfact> 0.46179953E+02</totfact>
</mgrwt>
</event>
<event>
 6    1  0.6101889E-006  0.1252167E+03  0.7546771E-02  0.1250327E+00
          1   -1    0    0  501    0  0.00000000000E+00  0.00000000000E+00  0.18260689615E+03  0.18260689615E+03  0.00000000000E+00 0. -1.
         -1   -1    0    0    0  501 -0.00000000000E+00 -0.00000000000E+00 -0.75541377690E+02  0.75541377690E+02  0.00000000000E+00 0.  1.
          5    1    1    2  502    0  0.37699531393E+02  0.50825711725E+02  0.35822865392E+02  0.72868891336E+02  0.47000000000E+01 0.  1.
         -5    1    1    2    0  502 -0.37242931782E+02 -0.43408834455E+02  0.74304917075E+02  0.93886493054E+02  0.47000000000E+01 0.  1.
        -11    1    1    2    0    0 -0.27926178285E+02  0.29824028243E+02 -0.15130484819E+02  0.43569205468E+02  0.00000000000E+00 0.  1.
         11    1    1    2    0    0  0.27469578675E+02 -0.37240905513E+02  0.12068220812E+02  0.47823683982E+02  0.00000000000E+00 0. -1.
<mgrwt>
<rscale>  0 0.11572146E+03</rscale>
<asrwt>0</asrwt>
<pdfrwt beam="1">  1        1 0.28093369E-01 0.12521673E+03</pdfrwt>
<pdfrwt beam="2">  1       -1 0.11621750E-01 0.12521673E+03</pdfrwt>
<totfact> 0.74769515E+03</totfact>
</mgrwt>
</event>
<event>
 6    1  0.6101889E-006  0.1299121E+03  0.7546771E-02  0.1242311E+00
          2   -1    0    0  501    0  0.00000000000E+00  0.00000000000E+00  0.16179315582E+03  0.16179315582E+03  0.00000000000E+00 0. -1.
         -2   -1    0    0    0  501 -0.00000000000E+00 -0.00000000000E+00 -0.17055921636E+03  0.17055921636E+03  0.00000000000E+00 0.  1.
          5    1    1    2  502    0  0.23801998424E+02 -0.61745659394E+02  0.11434794929E+03  0.13219911154E+03  0.47000000000E+01 0.  1.
         -5    1    1    2    0  502  0.53859077904E+01  0.41625275291E+02  0.21373217131E+01  0.42288647293E+02  0.47000000000E+01 0.  1.
        -11    1    1    2    0    0 -0.48937700453E+02  0.40721463219E+02 -0.10527786382E+03  0.12303074698E+03  0.00000000000E+00 0.  1.
         11    1    1    2    0    0  0.19749794238E+02 -0.20601079117E+02 -0.19973467729E+02  0.34833866371E+02  0.00000000000E+00 0. -1.
<mgrwt>
<rscale>  0 0.12047782E+03</rscale>
<asrwt>0</asrwt>
<pdfrwt beam="1">  1        2 0.24891255E-01 0.12991212E+03</pdfrwt>
<pdfrwt beam="2">  1       -2 0.26239879E-01 0.12991212E+03</pdfrwt>
<totfact> 0.27184875E+03</totfact>
</mgrwt>
</event>
<event>
 6    1  0.6101889E-006  0.2536825E+03  0.7546771E-02  0.1114503E+00
         -1   -1    0    0    0  501 -0.00000000000E+00  0.00000000000E+00  0.14069322638E+03  0.14069322638E+03  0.00000000000E+00 0.  1.
          1   -1    0    0  501    0  0.00000000000E+00 -0.00000000000E+00 -0.44815904525E+03  0.44815904525E+03  0.00000000000E+00 0. -1.
          5    1    1    2  502    0 -0.96708310099E+02  0.12511608062E+03 -0.11740571837E+03  0.19700945048E+03  0.47000000000E+01 0. -1.
         -5    1    1    2    0  502 -0.44429325479E+02  0.44621027071E+02  0.31837430474E+02  0.70715719600E+02  0.47000000000E+01 0. -1.
        -11    1    1    2    0    0  0.99178888911E+02 -0.68272518108E+02 -0.13659360094E+03  0.18208624482E+03  0.00000000000E+00 0. -1.
         11    1    1    2    0    0  0.41958746666E+02 -0.10146458959E+03 -0.85303930030E+02  0.13904085673E+03  0.00000000000E+00 0.  1.
<mgrwt>
<rscale>  0 0.24811357E+03</rscale>
<asrwt>0</asrwt>
<pdfrwt beam="2">  1        1 0.68947544E-01 0.25368255E+03</pdfrwt>
<pdfrwt beam="1">  1       -1 0.21645112E-01 0.25368255E+03</pdfrwt>
<totfact> 0.92631590E+02</totfact>
</mgrwt>
</event>
<event>
 6    1  0.6101889E-006  0.1329889E+03  0.7546771E-02  0.1235947E+00
         -2   -1    0    0    0  501 -0.00000000000E+00  0.00000000000E+00  0.16838677880E+02  0.16838677880E+02  0.00000000000E+00 0. -1.
          2   -1    0    0  501    0  0.00000000000E+00 -0.00000000000E+00 -0.10448668876E+04  0.10448668876E+04  0.00000000000E+00 0.  1.
          5    1    1    2  502    0  0.51918111880E+02  0.13742573939E+02 -0.49101904268E+03  0.49396977534E+03  0.47000000000E+01 0.  1.
         -5    1    1    2    0  502 -0.64843841085E+02  0.29776732239E+02 -0.32110173042E+03  0.32896776254E+03  0.47000000000E+01 0.  1.
        -11    1    1    2    0    0  0.37847020476E+02  0.78978918562E+01 -0.12973389747E+03  0.13537229335E+03  0.00000000000E+00 0.  1.
         11    1    1    2    0    0 -0.24921291271E+02 -0.51417198034E+02 -0.86173539191E+02  0.10339573429E+03  0.00000000000E+00 0. -1.
<mgrwt>
<rscale>  0 0.12444003E+03</rscale>
<asrwt>0</asrwt>
<pdfrwt beam="2">  1        2 0.16074879E+00 0.13298888E+03</pdfrwt>
<pdfrwt beam="1">  1       -2 0.25905652E-02 0.13298888E+03</pdfrwt>
<totfact> 0.12481992E+04</totfact>
</mgrwt>
</event>
<event>
 6    1  0.6101889E-006  0.1330994E+03  0.7546771E-02  0.1235083E+00
         -3   -1    0    0    0  501 -0.00000000000E+00  0.00000000000E+00  0.76896542669E+02  0.76896542669E+02  0.00000000000E+00 0.  1.
          3   -1    0    0  501    0  0.00000000000E+00 -0.00000000000E+00 -0.19762624263E+03  0.19762624263E+03  0.00000000000E+00 0. -1.
          5    1    1    2  502    0  0.35195701157E+02  0.10007829124E+02 -0.13044170459E+03  0.13555818795E+03  0.47000000000E+01 0.  1.
         -5    1    1    2    0  502 -0.36108330550E+01  0.22996288467E+02  0.24824956172E+02  0.34354560797E+02  0.47000000000E+01 0.  1.
        -11    1    1    2    0    0  0.87565159339E+01 -0.41670711207E+02 -0.38307009868E+02  0.57276101026E+02  0.00000000000E+00 0. -1.
         11    1    1    2    0    0 -0.40341384036E+02  0.86665936150E+01  0.23194058325E+02  0.47333935526E+02  0.00000000000E+00 0.  1.
<mgrwt>
<rscale>  0 0.12499146E+03</rscale>
<asrwt>0</asrwt>
<pdfrwt beam="2">  1        3 0.30404038E-01 0.13309938E+03</pdfrwt>
<pdfrwt beam="1">  1       -3 0.11830237E-01 0.13309938E+03</pdfrwt>
<totfact> 0.13365094E+03</totfact>
</mgrwt>
</event>
<event>
 6    1  0.6101889E-006  0.3514599E+03  0.7546771E-02  0.1062017E+00
          2   -1    0    0  501    0  0.00000000000E+00  0.00000000000E+00  0.19004665437E+03  0.19004665437E+03  0.00000000000E+00 0. -1.
         -2   -1    0    0    0  501 -0.00000000000E+00 -0.00000000000E+00 -0.16249176055E+03  0.16249176055E+03  0.00000000000E+00 0.  1.
          5    1    1    2  502    0  0.11216608706E+03 -0.39468943971E+02  0.87990381107E+02  0.14799806010E+03  0.47000000000E+01 0. -1.
         -5    1    1    2    0  502  0.17090290883E+02  0.11937921063E+02 -0.35405844551E+02  0.41355239452E+02  0.47000000000E+01 0. -1.
        -11    1    1    2    0    0 -0.41218904541E+02 -0.97006265865E+01  0.30916000058E+02  0.52429946665E+02  0.00000000000E+00 0.  1.
         11    1    1    2    0    0 -0.88037473406E+02  0.37231649495E+02 -0.55945642792E+02  0.11075516871E+03  0.00000000000E+00 0. -1.
<mgrwt>
<rscale>  0 0.35145990E+03</rscale>
<asrwt>0</asrwt>
<pdfrwt beam="1">  1        2 0.29237947E-01 0.35145990E+03</pdfrwt>
<pdfrwt beam="2">  1       -2 0.24998732E-01 0.35145990E+03</pdfrwt>
<totfact> 0.25763476E+03</totfact>
</mgrwt>
</event>
<event>
 6    1  0.6101889E-006  0.2982352E+03  0.7546771E-02  0.1086126E+00
         -1   -1    0    0    0  501 -0.00000000000E+00  0.00000000000E+00  0.28223798877E+03  0.28223798877E+03  0.00000000000E+00 0.  1.
          1   -1    0    0  501    0  0.00000000000E+00 -0.00000000000E+00 -0.78784800679E+02  0.78784800679E+02  0.00000000000E+00 0. -1.
          5    1    1    2  502    0 -0.12252988619E+02 -0.11662730641E+03  0.10123230051E+03  0.15499075133E+03  0.47000000000E+01 0.  1.
         -5    1    1    2    0  502 -0.88255546114E+01  0.21110147523E+02 -0.12875601178E+02  0.26672079940E+02  0.47000000000E+01 0.  1.
        -11    1    1    2    0    0  0.20672747702E+02  0.36996202501E+02  0.11312662825E+03  0.12080445155E+03  0.00000000000E+00 0.  1.
         11    1    1    2    0    0  0.40579552818E+00  0.58520956382E+02  0.19698605092E+01  0.58555506626E+02  0.00000000000E+00 0. -1.
<mgrwt>
<rscale>  0 0.29823523E+03</rscale>
<asrwt>0</asrwt>
<pdfrwt beam="2">  1        1 0.12120739E-01 0.29823523E+03</pdfrwt>
<pdfrwt beam="1">  1       -1 0.43421229E-01 0.29823523E+03</pdfrwt>
<totfact> 0.26339168E+03</totfact>
</mgrwt>
</event>
<event>
 6    1  0.6101889E-006  0.1602350E+03  0.7546771E-02  0.1202800E+00
         -1   -1    0    0    0  501 -0.00000000000E+00  0.00000000000E+00  0.14146302730E+03  0.14146302730E+03  0.00000000000E+00 0.  1.
          1   -1    0    0  501    0  0.00000000000E+00 -0.00000000000E+00 -0.13588687416E+03  0.13588687416E+03  0.00000000000E+00 0. -1.
          5    1    1    2  502    0  0.69594042478E+02  0.39023035920E+02 -0.13064195774E+02  0.80986982239E+02  0.47000000000E+01 0.  1.
         -5    1    1    2    0  502 -0.50514111537E+02  0.59340013826E+02  0.13616159419E+02  0.79248990546E+02  0.47000000000E+01 0.  1.
        -11    1    1    2    0    0 -0.85148454354E+01 -0.10047081324E+03 -0.68715661317E+01  0.10106485703E+03  0.00000000000E+00 0. -1.
         11    1    1    2    0    0 -0.10565085506E+02  0.21077634939E+01  0.11895755631E+02  0.16049071647E+02  0.00000000000E+00 0.  1.
<mgrwt>
<rscale>  0 0.14812222E+03</rscale>
<asrwt>0</asrwt>
<pdfrwt beam="2">  1        1 0.20905673E-01 0.16023502E+03</pdfrwt>
<pdfrwt beam="1">  1       -1 0.21763542E-01 0.16023502E+03</pdfrwt>
<totfact> 0.40952883E+03</totfact>
</mgrwt>
</event>
<event>
 6    1  0.6101889E-006  0.1284135E+03  0.7546771E-02  0.1243349E+00
         -1   -1    0    0    0  501 -0.00000000000E+00  0.00000000000E+00  0.21626435391E+03  0.21626435391E+03  0.00000000000E+00 0.  1.
          1   -1    0    0  501    0  0.00000000000E+00 -0.00000000000E+00 -0.59896619738E+02  0.59896619738E+02  0.00000000000E+00 0. -1.
          5    1    1    2  502    0 -0.31163440775E+02 -0.10910215685E+01 -0.24932889921E+02  0.40200614035E+02  0.47000000000E+01 0.  1.
         -5    1    1    2    0  502  0.35883022125E+02 -0.27927184033E+02  0.96571187621E+02  0.10684382604E+03  0.47000000000E+01 0.  1.
        -11    1    1    2    0    0 -0.22562389757E+02 -0.50606339511E+01  0.87544148260E+02  0.90546393314E+02  0.00000000000E+00 0.  1.
         11    1    1    2    0    0  0.17842808406E+02  0.34078839552E+02 -0.28147117875E+01  0.38570140258E+02  0.00000000000E+00 0. -1.
<mgrwt>
<rscale>  0 0.11984714E+03</rscale>
<asrwt>0</asrwt>
<pdfrwt beam="2">  1        1 0.92148647E-02 0.12841348E+03</pdfrwt>
<pdfrwt beam="1">  1       -1 0.33271439E-01 0.12841348E+03</pdfrwt>
<totfact> 0.58007856E+03</totfact>
</mgrwt>
</event>
<event>
 6    1  0.6101889E-006  0.3553804E+03  0.7546771E-02  0.1060428E+00
          1   -1    0    0  501    0  0.00000000000E+00  0.00000000000E+00  0.30992907203E+03  0.30992907203E+03  0.00000000000E+00 0. -1.
         -1   -1    0    0    0  501 -0.00000000000E+00 -0.00000000000E+00 -0.10187428135E+03  0.10187428135E+03  0.00000000000E+00 0.  1.
          5    1    1    2  502    0 -0.18844681223E+01 -0.13190574846E+02  0.10553786922E+03  0.10647945494E+03  0.47000000000E+01 0.  1.
         -5    1    1    2    0  502 -0.12457393334E+03  0.20548973619E+02  0.74535498431E+02  0.14669204379E+03  0.47000000000E+01 0.  1.
        -11    1    1    2    0    0  0.71150309235E+02 -0.15008709901E+02 -0.29522550175E+02  0.78480627201E+02  0.00000000000E+00 0.  1.
         11    1    1    2    0    0  0.55308092228E+02  0.76503111286E+01  0.57503973209E+02  0.80151227446E+02  0.00000000000E+00 0. -1.
<mgrwt>
<rscale>  0 0.35538037E+03</rscale>
<asrwt>0</asrwt>
<pdfrwt beam="1">  1        1 0.47681395E-01 0.35538037E+03</pdfrwt>
<pdfrwt beam="2">  1       -1 0.15672967E-01 0.35538037E+03</pdfrwt>
<totfact> 0.25264414E+03</totfact>
</mgrwt>
</event>
<event>
 6    1  0.6101889E-006  0.2926084E+03  0.7546771E-02  0.1088995E+00
          2   -1    0    0  501    0  0.00000000000E+00  0.00000000000E+00  0.10111574720E+03  0.10111574720E+03  0.00000000000E+00 0. -1.
         -2   -1    0    0    0  501 -0.00000000000E+00 -0.00000000000E+00 -0.21168735237E+03  0.21168735237E+03  0.00000000000E+00 0.  1.
          5    1    1    2  502    0  0.11599208174E+02 -0.24860578296E+02 -0.60189829329E+02  0.66313615029E+02  0.47000000000E+01 0. -1.
         -5    1    1    2    0  502 -0.96079267443E+02  0.55075968869E+02 -0.42682068892E+02  0.11877894167E+03  0.47000000000E+01 0. -1.
        -11    1    1    2    0    0  0.26453353849E+02 -0.53657622442E+02 -0.21596947744E+02  0.63603054391E+02  0.00000000000E+00 0.  1.
         11    1    1    2    0    0  0.58026705421E+02  0.23442231868E+02  0.13897240797E+02  0.64107488476E+02  0.00000000000E+00 0. -1.
<mgrwt>
<rscale>  0 0.29260844E+03</rscale>
<asrwt>0</asrwt>
<pdfrwt beam="1">  1        2 0.15556269E-01 0.29260844E+03</pdfrwt>
<pdfrwt beam="2">  1       -2 0.32567285E-01 0.29260844E+03</pdfrwt>
<totfact> 0.32724254E+03</totfact>
</mgrwt>
</event>
<event>
 6    1  0.6101889E-006  0.3943893E+03  0.7546771E-02  0.1045740E+00
         -2   -1    0    0    0  501 -0.00000000000E+00  0.00000000000E+00  0.37464569639E+02  0.37464569639E+02  0.00000000000E+00 0.  1.
          2   -1    0    0  501    0  0.00000000000E+00 -0.00000000000E+00 -0.10379337113E+04  0.10379337113E+04  0.00000000000E+00 0. -1.
          5    1    1    2  502    0 -0.97410229281E+00  0.31938853738E+01 -0.88683003042E+03  0.88684877101E+03  0.47000000000E+01 0. -1.
         -5    1    1    2    0  502  0.29336685463E+02 -0.19193577520E+02 -0.78244111575E+02  0.85867721107E+02  0.47000000000E+01 0.  1.
        -11    1    1    2    0    0 -0.39670571163E+02 -0.29014933467E+02 -0.11489977646E+02  0.50474153453E+02  0.00000000000E+00 0.  1.
         11    1    1    2    0    0  0.11307987993E+02  0.45014625613E+02 -0.23905021984E+02  0.52207635337E+02  0.00000000000E+00 0. -1.
<mgrwt>
<rscale>  0 0.39438935E+03</rscale>
<asrwt>0</asrwt>
<pdfrwt beam="2">  1        2 0.15968213E+00 0.39438935E+03</pdfrwt>
<pdfrwt beam="1">  1       -2 0.57637793E-02 0.39438935E+03</pdfrwt>
<totfact> 0.39350419E+03</totfact>
</mgrwt>
</event>
<event>
 6    1  0.6101889E-006  0.1338484E+03  0.7546771E-02  0.1234408E+00
          2   -1    0    0  501    0  0.00000000000E+00  0.00000000000E+00  0.29754598051E+03  0.29754598051E+03  0.00000000000E+00 0. -1.
         -2   -1    0    0    0  501 -0.00000000000E+00 -0.00000000000E+00 -0.51889284892E+02  0.51889284892E+02  0.00000000000E+00 0.  1.
          5    1    1    2  502    0  0.74275536360E+02 -0.40493469479E+02  0.13692175129E+03  0.16101624871E+03  0.47000000000E+01 0. -1.
         -5    1    1    2    0  502 -0.26407302432E+02  0.39413348769E+02  0.52405502992E+02  0.70846202628E+02  0.47000000000E+01 0. -1.
        -11    1    1    2    0    0 -0.21909607596E+02 -0.28097222953E+02  0.68037418975E+02  0.76802182413E+02  0.00000000000E+00 0. -1.
         11    1    1    2    0    0 -0.25958626332E+02  0.29177343663E+02 -0.11707977645E+02  0.40770631645E+02  0.00000000000E+00 0.  1.
<mgrwt>
<rscale>  0 0.12542392E+03</rscale>
<asrwt>0</asrwt>
<pdfrwt beam="1">  1        2 0.45776304E-01 0.13384837E+03</pdfrwt>
<pdfrwt beam="2">  1       -2 0.79829671E-02 0.13384837E+03</pdfrwt>
<totfact> 0.98938727E+03</totfact>
</mgrwt>
</event>
<event>
 6    1  0.6101889E-006  0.4747539E+03  0.7546771E-02  0.1020587E+00
         -2   -1    0    0    0  501 -0.00000000000E+00  0.00000000000E+00  0.57996869304E+02  0.57996869304E+02  0.00000000000E+00 0.  1.
          2   -1    0    0  501    0  0.00000000000E+00 -0.00000000000E+00 -0.97156665069E+03  0.97156665069E+03  0.00000000000E+00 0. -1.
          5    1    1    2  502    0 -0.10462148270E+03 -0.13634620040E+03 -0.68629756284E+03  0.70750432915E+03  0.47000000000E+01 0. -1.
         -5    1    1    2    0  502 -0.14993369087E+02 -0.86515069530E+01 -0.63729959139E+01  0.19035618353E+02  0.47000000000E+01 0.  1.
        -11    1    1    2    0    0  0.34986902538E+01  0.31164852399E+02 -0.35221632787E+01  0.31557796068E+02  0.00000000000E+00 0. -1.
         11    1    1    2    0    0  0.11611616153E+03  0.11383285495E+03 -0.21737705935E+03  0.27146577642E+03  0.00000000000E+00 0.  1.
<mgrwt>
<rscale>  0 0.47475393E+03</rscale>
<asrwt>0</asrwt>
<pdfrwt beam="2">  1        2 0.14947179E+00 0.47475393E+03</pdfrwt>
<pdfrwt beam="1">  1       -2 0.89225956E-02 0.47475393E+03</pdfrwt>
<totfact> 0.21794346E+03</totfact>
</mgrwt>
</event>
<event>
 6    1  0.6101889E-006  0.3316486E+03  0.7546771E-02  0.1114899E+00
         -1   -1    0    0    0  501 -0.00000000000E+00  0.00000000000E+00  0.25438377897E+02  0.25438377897E+02  0.00000000000E+00 0.  1.
          1   -1    0    0  501    0  0.00000000000E+00 -0.00000000000E+00 -0.20473499335E+04  0.20473499335E+04  0.00000000000E+00 0. -1.
          5    1    1    2  502    0  0.18390224828E+02 -0.10975065725E+03 -0.14104866091E+04  0.14148773698E+04  0.47000000000E+01 0. -1.
         -5    1    1    2    0  502 -0.65005710380E+02  0.12393757069E+03 -0.35749143014E+03  0.38393811537E+03  0.47000000000E+01 0.  1.
        -11    1    1    2    0    0  0.60204644537E+02  0.13959995743E+02 -0.10536910122E+03  0.12215616315E+03  0.00000000000E+00 0.  1.
         11    1    1    2    0    0 -0.13589158985E+02 -0.28146909181E+02 -0.14856441516E+03  0.15181666308E+03  0.00000000000E+00 0. -1.
<mgrwt>
<rscale>  0 0.24749338E+03</rscale>
<asrwt>0</asrwt>
<pdfrwt beam="2">  1        1 0.31497683E+00 0.33164861E+03</pdfrwt>
<pdfrwt beam="1">  1       -1 0.39135976E-02 0.33164861E+03</pdfrwt>
<totfact> 0.79307822E+02</totfact>
</mgrwt>
</event>
<event>
 6    1  0.6101889E-006  0.1896806E+03  0.7546771E-02  0.1163675E+00
          2   -1    0    0  501    0  0.00000000000E+00  0.00000000000E+00  0.16922789603E+04  0.16922789603E+04  0.00000000000E+00 0. -1.
         -2   -1    0    0    0  501 -0.00000000000E+00 -0.00000000000E+00 -0.23350416271E+02  0.23350416271E+02  0.00000000000E+00 0.  1.
          5    1    1    2  502    0 -0.37592655325E+02  0.92231868604E+02  0.11062823995E+04  0.11107667454E+04  0.47000000000E+01 0. -1.
         -5    1    1    2    0  502 -0.49151181294E+02  0.18785828106E+02  0.13576937789E+03  0.14568513971E+03  0.47000000000E+01 0.  1.
        -11    1    1    2    0    0  0.98373762295E+01 -0.55626744994E+02  0.70110060254E+02  0.90036266463E+02  0.00000000000E+00 0.  1.
         11    1    1    2    0    0  0.76906460390E+02 -0.55390951715E+02  0.35676670637E+03  0.36914122495E+03  0.00000000000E+00 0. -1.
<mgrwt>
<rscale>  0 0.18433221E+03</rscale>
<asrwt>0</asrwt>
<pdfrwt beam="1">  1        2 0.26035051E+00 0.18968058E+03</pdfrwt>
<pdfrwt beam="2">  1       -2 0.35923731E-02 0.18968058E+03</pdfrwt>
<totfact> 0.34791164E+03</totfact>
</mgrwt>
</event>
<event>
 6    1  0.6101889E-006  0.1434276E+03  0.7546771E-02  0.1216801E+00
          1   -1    0    0  501    0  0.00000000000E+00  0.00000000000E+00  0.19674134219E+04  0.19674134219E+04  0.00000000000E+00 0. -1.
         -1   -1    0    0    0  501 -0.00000000000E+00 -0.00000000000E+00 -0.22418441724E+02  0.22418441724E+02  0.00000000000E+00 0.  1.
          5    1    1    2  502    0  0.36253178772E+02 -0.27380776852E+01  0.43751162925E+03  0.43904476511E+03  0.47000000000E+01 0. -1.
         -5    1    1    2    0  502 -0.10655860470E+03  0.39207157355E+01  0.13396689816E+04  0.13439141262E+04  0.47000000000E+01 0. -1.
        -11    1    1    2    0    0 -0.14938882402E+02 -0.19780691352E+02  0.10370255752E+02  0.26869837404E+02  0.00000000000E+00 0.  1.
         11    1    1    2    0    0  0.85244308324E+02  0.18598053302E+02  0.15744411353E+03  0.18000313490E+03  0.00000000000E+00 0. -1.
<mgrwt>
<rscale>  0 0.13745098E+03</rscale>
<asrwt>0</asrwt>
<pdfrwt beam="1">  1        1 0.30267885E+00 0.14342763E+03</pdfrwt>
<pdfrwt beam="2">  1       -1 0.34489926E-02 0.14342763E+03</pdfrwt>
<totfact> 0.10996378E+03</totfact>
</mgrwt>
</event>
<event>
 6    1  0.6101889E-006  0.2650566E+03  0.7546771E-02  0.1106009E+00
          2   -1    0    0  501    0  0.00000000000E+00  0.00000000000E+00  0.16979998332E+03  0.16979998332E+03  0.00000000000E+00 0. -1.
         -2   -1    0    0    0  501 -0.00000000000E+00 -0.00000000000E+00 -0.39489601839E+03  0.39489601839E+03  0.00000000000E+00 0.  1.
          5    1    1    2  502    0 -0.52854876049E+02  0.11150719811E+03 -0.10561701689E+03  0.16249473040E+03  0.47000000000E+01 0.  1.
         -5    1    1    2    0  502  0.25961820936E+02  0.12067048010E+03 -0.18927657314E+01  0.12353563646E+03  0.47000000000E+01 0.  1.
        -11    1    1    2    0    0 -0.24505834087E+02 -0.16735616558E+03 -0.68595626985E+02  0.18252118262E+03  0.00000000000E+00 0.  1.
         11    1    1    2    0    0  0.51398889201E+02 -0.64821512622E+02 -0.48990625467E+02  0.96144452223E+02  0.00000000000E+00 0. -1.
<mgrwt>
<rscale>  0 0.26189694E+03</rscale>
<asrwt>0</asrwt>
<pdfrwt beam="1">  1        2 0.26123075E-01 0.26505663E+03</pdfrwt>
<pdfrwt beam="2">  1       -2 0.60753233E-01 0.26505663E+03</pdfrwt>
<totfact> 0.52882050E+02</totfact>
</mgrwt>
</event>
<event>
 6    1  0.6101889E-006  0.2786513E+03  0.7546771E-02  0.1096428E+00
          3   -1    0    0  501    0  0.00000000000E+00  0.00000000000E+00  0.91613175317E+02  0.91613175317E+02  0.00000000000E+00 0. -1.
         -3   -1    0    0    0  501 -0.00000000000E+00 -0.00000000000E+00 -0.21188688746E+03  0.21188688746E+03  0.00000000000E+00 0.  1.
          5    1    1    2  502    0  0.97016850823E+01 -0.21251677377E+02 -0.50056472067E+02  0.55439127704E+02  0.47000000000E+01 0.  1.
         -5    1    1    2    0  502  0.45035146316E+02  0.42531440980E+02  0.54657302280E+02  0.82744175433E+02  0.47000000000E+01 0.  1.
        -11    1    1    2    0    0 -0.43004968507E+02  0.13885929872E+02 -0.12357834501E+02  0.46850426233E+02  0.00000000000E+00 0. -1.
         11    1    1    2    0    0 -0.11731862891E+02 -0.35165693475E+02 -0.11251670786E+03  0.11846633341E+03  0.00000000000E+00 0.  1.
<mgrwt>
<rscale>  0 0.27865126E+03</rscale>
<asrwt>0</asrwt>
<pdfrwt beam="1">  1        3 0.14094335E-01 0.27865126E+03</pdfrwt>
<pdfrwt beam="2">  1       -3 0.32597982E-01 0.27865126E+03</pdfrwt>
<totfact> 0.96656136E+02</totfact>
</mgrwt>
</event>
<event>
 6    1  0.6101889E-006  0.1588174E+03  0.7546771E-02  0.1197715E+00
          2   -1    0    0  501    0  0.00000000000E+00  0.00000000000E+00  0.14473882595E+04  0.14473882595E+04  0.00000000000E+00 0. -1.
         -2   -1    0    0    0  501 -0.00000000000E+00 -0.00000000000E+00 -0.15720580876E+02  0.15720580876E+02  0.00000000000E+00 0.  1.
          5    1    1    2  502    0  0.27310586558E+02  0.31931877242E+02  0.86223539819E+02  0.96031774644E+02  0.47000000000E+01 0. -1.
         -5    1    1    2    0  502  0.70642623117E+02 -0.29915079835E+02  0.85997188520E+03  0.86339969049E+03  0.47000000000E+01 0. -1.
        -11    1    1    2    0    0 -0.84006954244E+02 -0.30812179828E+02  0.43356157813E+03  0.44269876984E+03  0.00000000000E+00 0. -1.
         11    1    1    2    0    0 -0.13946255431E+02  0.28795382421E+02  0.51910675512E+02  0.60978605440E+02  0.00000000000E+00 0.  1.
<mgrwt>
<rscale>  0 0.15226687E+03</rscale>
<asrwt>0</asrwt>
<pdfrwt beam="1">  1        2 0.22267501E+00 0.15881736E+03</pdfrwt>
<pdfrwt beam="2">  1       -2 0.24185521E-02 0.15881736E+03</pdfrwt>
<totfact> 0.83545623E+03</totfact>
</mgrwt>
</event>
<event>
 6    1  0.6701765E-006  0.1610879E+03  0.7546771E-02  0.1195296E+00
          2   -1    0    0  501    0  0.00000000000E+00  0.00000000000E+00  0.15313892324E+03  0.15313892324E+03  0.00000000000E+00 0. -1.
         -2   -1    0    0    0  501 -0.00000000000E+00 -0.00000000000E+00 -0.15218136678E+03  0.15218136678E+03  0.00000000000E+00 0.  1.
          5    1    1    2  502    0 -0.37909857776E+02 -0.17717493494E+02 -0.46535594090E+02  0.62759209759E+02  0.47000000000E+01 0.  1.
         -5    1    1    2    0  502 -0.55065026642E+02 -0.23265128498E+02  0.83017572686E+02  0.10240815757E+03  0.47000000000E+01 0.  1.
        -11    1    1    2    0    0  0.29284279017E+02  0.33972486480E+02 -0.57039745924E+02  0.72561914599E+02  0.00000000000E+00 0.  1.
         11    1    1    2    0    0  0.63690605401E+02  0.70101355114E+01  0.21515323793E+02  0.67591008087E+02  0.00000000000E+00 0. -1.
<mgrwt>
<rscale>  0 0.15429185E+03</rscale>
<asrwt>0</asrwt>
<pdfrwt beam="1">  1        2 0.23559834E-01 0.16108794E+03</pdfrwt>
<pdfrwt beam="2">  1       -2 0.23412518E-01 0.16108794E+03</pdfrwt>
<totfact> 0.35647134E+03</totfact>
</mgrwt>
</event>
<event>
 6    1  0.6101889E-006  0.1266949E+03  0.7546771E-02  0.1245579E+00
         -1   -1    0    0    0  501 -0.00000000000E+00  0.00000000000E+00  0.23625958567E+02  0.23625958567E+02  0.00000000000E+00 0.  1.
          1   -1    0    0  501    0  0.00000000000E+00 -0.00000000000E+00 -0.56663918312E+03  0.56663918312E+03  0.00000000000E+00 0. -1.
          5    1    1    2  502    0 -0.17878888001E+02  0.40992584470E+02 -0.26618571770E+03  0.26995735390E+03  0.47000000000E+01 0.  1.
         -5    1    1    2    0  502  0.13653560877E+02 -0.62448811392E+02 -0.11400945226E+03  0.13079189185E+03  0.47000000000E+01 0.  1.
        -11    1    1    2    0    0 -0.19467769651E+02 -0.25700820785E+02 -0.21730587246E+02  0.38881160814E+02  0.00000000000E+00 0.  1.
         11    1    1    2    0    0  0.23693096775E+02  0.47157047707E+02 -0.14108746734E+03  0.15063473512E+03  0.00000000000E+00 0. -1.
<mgrwt>
<rscale>  0 0.11850812E+03</rscale>
<asrwt>0</asrwt>
<pdfrwt beam="2">  1        1 0.87175250E-01 0.12669487E+03</pdfrwt>
<pdfrwt beam="1">  1       -1 0.36347632E-02 0.12669487E+03</pdfrwt>
<totfact> 0.10255336E+04</totfact>
</mgrwt>
</event>
<event>
 6    1  0.6101889E-006  0.2566431E+03  0.7546771E-02  0.1109177E+00
         -2   -1    0    0    0  501 -0.00000000000E+00  0.00000000000E+00  0.17766820938E+02  0.17766820938E+02  0.00000000000E+00 0.  1.
          2   -1    0    0  501    0  0.00000000000E+00 -0.00000000000E+00 -0.92680724854E+03  0.92680724854E+03  0.00000000000E+00 0. -1.
          5    1    1    2  502    0  0.16895367010E+02 -0.37211280129E+01 -0.55305963945E+01  0.18761069174E+02  0.47000000000E+01 0.  1.
         -5    1    1    2    0  502  0.23962343272E+01  0.68324533568E+02 -0.56679293990E+03  0.57092058165E+03  0.47000000000E+01 0.  1.
        -11    1    1    2    0    0 -0.53002183697E+02 -0.27482462656E+02 -0.21782467703E+03  0.22585859991E+03  0.00000000000E+00 0. -1.
         11    1    1    2    0    0  0.33710582360E+02 -0.37120942899E+02 -0.11889221427E+03  0.12903381874E+03  0.00000000000E+00 0.  1.
<mgrwt>
<rscale>  0 0.25664309E+03</rscale>
<asrwt>0</asrwt>
<pdfrwt beam="2">  1        2 0.14258577E+00 0.25664309E+03</pdfrwt>
<pdfrwt beam="1">  1       -2 0.27333563E-02 0.25664309E+03</pdfrwt>
<totfact> 0.14117060E+04</totfact>
</mgrwt>
</event>
<event>
 6    1  0.6101889E-006  0.1440477E+03  0.7546771E-02  0.1218122E+00
          2   -1    0    0  501    0  0.00000000000E+00  0.00000000000E+00  0.42260453751E+03  0.42260453751E+03  0.00000000000E+00 0. -1.
         -2   -1    0    0    0  501 -0.00000000000E+00 -0.00000000000E+00 -0.52669825481E+02  0.52669825481E+02  0.00000000000E+00 0.  1.
          5    1    1    2  502    0  0.67311904848E+02 -0.83853743771E+02  0.22824870963E+03  0.25235274186E+03  0.47000000000E+01 0.  1.
         -5    1    1    2    0  502 -0.22034010244E+02  0.28359805811E+02  0.87629745388E+02  0.94820032007E+02  0.47000000000E+01 0.  1.
        -11    1    1    2    0    0 -0.34428144791E+02 -0.13796997713E+02 -0.36620088187E+01  0.37270157072E+02  0.00000000000E+00 0.  1.
         11    1    1    2    0    0 -0.10849749813E+02  0.69290935673E+02  0.57718265833E+02  0.90831432050E+02  0.00000000000E+00 0. -1.
<mgrwt>
<rscale>  0 0.13649694E+03</rscale>
<asrwt>0</asrwt>
<pdfrwt beam="1">  1        2 0.65016081E-01 0.14404769E+03</pdfrwt>
<pdfrwt beam="2">  1       -2 0.81030503E-02 0.14404769E+03</pdfrwt>
<totfact> 0.66868646E+03</totfact>
</mgrwt>
</event>
<event>
 6    1  0.6101889E-006  0.1272561E+03  0.7546771E-02  0.1245550E+00
         -2   -1    0    0    0  501 -0.00000000000E+00  0.00000000000E+00  0.26668801414E+02  0.26668801414E+02  0.00000000000E+00 0.  1.
          2   -1    0    0  501    0  0.00000000000E+00 -0.00000000000E+00 -0.51129109638E+03  0.51129109638E+03  0.00000000000E+00 0. -1.
          5    1    1    2  502    0  0.39155730447E+02  0.34008429368E+02 -0.13818743968E+03  0.14767397530E+03  0.47000000000E+01 0. -1.
         -5    1    1    2    0  502 -0.51655859787E+02 -0.54321558971E+02 -0.21442145679E+03  0.22719553418E+03  0.47000000000E+01 0. -1.
        -11    1    1    2    0    0 -0.21863506061E+02  0.16530217845E+02 -0.82316365750E+00  0.27421498823E+02  0.00000000000E+00 0.  1.
         11    1    1    2    0    0  0.34363635401E+02  0.37829117583E+01 -0.13119023484E+03  0.13566888949E+03  0.00000000000E+00 0. -1.
<mgrwt>
<rscale>  0 0.11852519E+03</rscale>
<asrwt>0</asrwt>
<pdfrwt beam="2">  1        2 0.78660169E-01 0.12725610E+03</pdfrwt>
<pdfrwt beam="1">  1       -2 0.41028925E-02 0.12725610E+03</pdfrwt>
<totfact> 0.15101739E+04</totfact>
</mgrwt>
</event>
<event>
 6    1  0.6101889E-006  0.2049516E+03  0.7546771E-02  0.1149742E+00
          3   -1    0    0  501    0  0.00000000000E+00  0.00000000000E+00  0.65762350539E+02  0.65762350539E+02  0.00000000000E+00 0. -1.
         -3   -1    0    0    0  501 -0.00000000000E+00 -0.00000000000E+00 -0.63149514831E+03  0.63149514831E+03  0.00000000000E+00 0.  1.
          5    1    1    2  502    0  0.56974190027E+02  0.10610356000E+03 -0.18252640718E+03  0.21872814883E+03  0.47000000000E+01 0.  1.
         -5    1    1    2    0  502  0.76550319968E+02 -0.13650457733E+02 -0.21196370232E+03  0.22582512611E+03  0.47000000000E+01 0.  1.
        -11    1    1    2    0    0 -0.67706248280E+02 -0.36316917814E+02 -0.14188572783E+03  0.16135245377E+03  0.00000000000E+00 0.  1.
         11    1    1    2    0    0 -0.65818261715E+02 -0.56136184449E+02 -0.29356960435E+02  0.91351770129E+02  0.00000000000E+00 0. -1.
<mgrwt>
<rscale>  0 0.19999610E+03</rscale>
<asrwt>0</asrwt>
<pdfrwt beam="1">  1        3 0.10117285E-01 0.20495162E+03</pdfrwt>
<pdfrwt beam="2">  1       -3 0.97153098E-01 0.20495162E+03</pdfrwt>
<totfact> 0.17123257E+02</totfact>
</mgrwt>
</event>
<event>
 6    1  0.6101889E-006  0.1334225E+03  0.7546771E-02  0.1234190E+00
         -1   -1    0    0    0  501 -0.00000000000E+00  0.00000000000E+00  0.80904973707E+02  0.80904973707E+02  0.00000000000E+00 0.  1.
          1   -1    0    0  501    0  0.00000000000E+00 -0.00000000000E+00 -0.19592001598E+03  0.19592001598E+03  0.00000000000E+00 0. -1.
          5    1    1    2  502    0  0.29234840942E+02 -0.17035489778E+02  0.10459092552E+02  0.35726271201E+02  0.47000000000E+01 0. -1.
         -5    1    1    2    0  502 -0.20758233044E+02  0.62921772196E+02 -0.11894472684E+03  0.13623506046E+03  0.47000000000E+01 0. -1.
        -11    1    1    2    0    0 -0.31231951504E+02  0.17774792531E+02 -0.95744710510E+01  0.37189360578E+02  0.00000000000E+00 0.  1.
         11    1    1    2    0    0  0.22755343607E+02 -0.63661074948E+02  0.30450630648E+01  0.67674297450E+02  0.00000000000E+00 0. -1.
<mgrwt>
<rscale>  0 0.12556460E+03</rscale>
<asrwt>0</asrwt>
<pdfrwt beam="2">  1        1 0.30141540E-01 0.13342251E+03</pdfrwt>
<pdfrwt beam="1">  1       -1 0.12446919E-01 0.13342251E+03</pdfrwt>
<totfact> 0.61910634E+03</totfact>
</mgrwt>
</event>
<event>
 6    1  0.6101889E-006  0.1254732E+03  0.7546771E-02  0.1249729E+00
         -2   -1    0    0    0  501 -0.00000000000E+00  0.00000000000E+00  0.17009388180E+02  0.17009388180E+02  0.00000000000E+00 0.  1.
          2   -1    0    0  501    0  0.00000000000E+00 -0.00000000000E+00 -0.13051196456E+04  0.13051196456E+04  0.00000000000E+00 0. -1.
          5    1    1    2  502    0  0.41532632472E+02 -0.65012894041E+01 -0.10015887211E+04  0.10024815622E+04  0.47000000000E+01 0.  1.
         -5    1    1    2    0  502 -0.41445381072E+02 -0.44271058255E+01 -0.14478959767E+03  0.15074294833E+03  0.47000000000E+01 0.  1.
        -11    1    1    2    0    0 -0.40359569290E+02  0.23943743224E+02 -0.94326565135E+02  0.10535510696E+03  0.00000000000E+00 0.  1.
         11    1    1    2    0    0  0.40272317890E+02 -0.13015347995E+02 -0.47405373508E+02  0.63549416276E+02  0.00000000000E+00 0. -1.
<mgrwt>
<rscale>  0 0.11606763E+03</rscale>
<asrwt>0</asrwt>
<pdfrwt beam="2">  1        2 0.20078763E+00 0.12547319E+03</pdfrwt>
<pdfrwt beam="1">  1       -2 0.26168290E-02 0.12547319E+03</pdfrwt>
<totfact> 0.87774365E+03</totfact>
</mgrwt>
</event>
<event>
 6    1  0.6101889E-006  0.1755170E+03  0.7546771E-02  0.1178738E+00
         -2   -1    0    0    0  501 -0.00000000000E+00  0.00000000000E+00  0.28694657116E+02  0.28694657116E+02  0.00000000000E+00 0.  1.
          2   -1    0    0  501    0  0.00000000000E+00 -0.00000000000E+00 -0.96438820309E+03  0.96438820309E+03  0.00000000000E+00 0. -1.
          5    1    1    2  502    0  0.57245873944E+02 -0.50540096236E+02 -0.16146840915E+03  0.17867716296E+03  0.47000000000E+01 0.  1.
         -5    1    1    2    0  502 -0.44238518923E+02 -0.71978752081E+02 -0.43166626015E+03  0.43988161755E+03  0.47000000000E+01 0.  1.
        -11    1    1    2    0    0 -0.18159757678E+02  0.74856218565E+02 -0.30218504451E+03  0.31184776956E+03  0.00000000000E+00 0. -1.
         11    1    1    2    0    0  0.51524026576E+01  0.47662629752E+02 -0.40373832173E+02  0.62676310137E+02  0.00000000000E+00 0.  1.
<mgrwt>
<rscale>  0 0.16914934E+03</rscale>
<asrwt>0</asrwt>
<pdfrwt beam="2">  1        2 0.14836743E+00 0.17551703E+03</pdfrwt>
<pdfrwt beam="1">  1       -2 0.44145623E-02 0.17551703E+03</pdfrwt>
<totfact> 0.64218056E+03</totfact>
</mgrwt>
</event>
<event>
 6    1  0.6101889E-006  0.1555387E+03  0.7546771E-02  0.1202675E+00
         -2   -1    0    0    0  501 -0.00000000000E+00  0.00000000000E+00  0.40188759543E+02  0.40188759543E+02  0.00000000000E+00 0.  1.
          2   -1    0    0  501    0  0.00000000000E+00 -0.00000000000E+00 -0.12691404471E+04  0.12691404471E+04  0.00000000000E+00 0. -1.
          5    1    1    2  502    0 -0.42422151153E+01  0.48009808074E+02 -0.96155199990E+03  0.96277062511E+03  0.47000000000E+01 0. -1.
         -5    1    1    2    0  502  0.49036311971E+02  0.32988296813E+02 -0.18459299468E+03  0.19387999201E+03  0.47000000000E+01 0. -1.
        -11    1    1    2    0    0  0.98791890072E+01 -0.55661743299E+02 -0.87521112594E+01  0.57205135206E+02  0.00000000000E+00 0.  1.
         11    1    1    2    0    0 -0.54673285863E+02 -0.25336361588E+02 -0.74054581728E+02  0.95473454323E+02  0.00000000000E+00 0. -1.
<mgrwt>
<rscale>  0 0.14822185E+03</rscale>
<asrwt>0</asrwt>
<pdfrwt beam="2">  1        2 0.19525238E+00 0.15553875E+03</pdfrwt>
<pdfrwt beam="1">  1       -2 0.61828860E-02 0.15553875E+03</pdfrwt>
<totfact> 0.25674018E+03</totfact>
</mgrwt>
</event>
<event>
 6    1  0.6101889E-006  0.1276182E+03  0.7546771E-02  0.1243057E+00
         -2   -1    0    0    0  501 -0.00000000000E+00  0.00000000000E+00  0.16296423899E+03  0.16296423899E+03  0.00000000000E+00 0.  1.
          2   -1    0    0  501    0  0.00000000000E+00 -0.00000000000E+00 -0.13109624789E+03  0.13109624789E+03  0.00000000000E+00 0. -1.
          5    1    1    2  502    0 -0.47648365997E+02  0.50176703755E+02 -0.37623622683E+02  0.78903075768E+02  0.47000000000E+01 0. -1.
         -5    1    1    2    0  502  0.52322681412E+02 -0.24938251513E+02 -0.37199694116E+02  0.69032504090E+02  0.47000000000E+01 0. -1.
        -11    1    1    2    0    0  0.36387934663E+02 -0.13409315697E+02  0.93784544733E+02  0.10148611909E+03  0.00000000000E+00 0.  1.
         11    1    1    2    0    0 -0.41062250078E+02 -0.11829136546E+02  0.12906763164E+02  0.44638787935E+02  0.00000000000E+00 0. -1.
<mgrwt>
<rscale>  0 0.12002408E+03</rscale>
<asrwt>0</asrwt>
<pdfrwt beam="2">  1        2 0.20168654E-01 0.12761821E+03</pdfrwt>
<pdfrwt beam="1">  1       -2 0.25071421E-01 0.12761821E+03</pdfrwt>
<totfact> 0.37184636E+03</totfact>
</mgrwt>
</event>
<event>
 6    1  0.6101889E-006  0.3288543E+03  0.7546771E-02  0.1071645E+00
          2   -1    0    0  501    0  0.00000000000E+00  0.00000000000E+00  0.87790375602E+03  0.87790375602E+03  0.00000000000E+00 0. -1.
         -2   -1    0    0    0  501 -0.00000000000E+00 -0.00000000000E+00 -0.30796417920E+02  0.30796417920E+02  0.00000000000E+00 0.  1.
          5    1    1    2  502    0 -0.59171689189E+02 -0.10166569289E+03  0.29555268927E+03  0.31813626648E+03  0.47000000000E+01 0. -1.
         -5    1    1    2    0  502  0.41836577047E+02 -0.15601732426E+02  0.24905665567E+03  0.25307117767E+03  0.47000000000E+01 0. -1.
        -11    1    1    2    0    0  0.51169442568E+02  0.39527614648E+02  0.12204554582E+03  0.13811538447E+03  0.00000000000E+00 0.  1.
         11    1    1    2    0    0 -0.33834330425E+02  0.77739810670E+02  0.18045244735E+03  0.19937734533E+03  0.00000000000E+00 0. -1.
<mgrwt>
<rscale>  0 0.32885432E+03</rscale>
<asrwt>0</asrwt>
<pdfrwt beam="1">  1        2 0.13506210E+00 0.32885432E+03</pdfrwt>
<pdfrwt beam="2">  1       -2 0.47379111E-02 0.32885432E+03</pdfrwt>
<totfact> 0.66979079E+03</totfact>
</mgrwt>
</event>
<event>
 6    1  0.7780051E-006  0.1482940E+03  0.7546771E-02  0.1211939E+00
         -1   -1    0    0    0  501 -0.00000000000E+00  0.00000000000E+00  0.17627968176E+03  0.17627968176E+03  0.00000000000E+00 0.  1.
          1   -1    0    0  501    0  0.00000000000E+00 -0.00000000000E+00 -0.10310365393E+03  0.10310365393E+03  0.00000000000E+00 0. -1.
          5    1    1    2  502    0  0.64119296370E+02  0.30806525593E+02  0.72192535329E+02  0.10146023035E+03  0.47000000000E+01 0.  1.
         -5    1    1    2    0  502 -0.20828796338E+02  0.36219101868E+02 -0.31245065869E+02  0.52383262959E+02  0.47000000000E+01 0.  1.
        -11    1    1    2    0    0 -0.60162288003E+02 -0.17624381553E+02  0.37534226904E+02  0.73068036186E+02  0.00000000000E+00 0.  1.
         11    1    1    2    0    0  0.16871787971E+02 -0.49401245908E+02 -0.53056685250E+01  0.52471806193E+02  0.00000000000E+00 0. -1.
<mgrwt>
<rscale>  0 0.14103830E+03</rscale>
<asrwt>0</asrwt>
<pdfrwt beam="2">  1        1 0.15862101E-01 0.14829405E+03</pdfrwt>
<pdfrwt beam="1">  1       -1 0.27119951E-01 0.14829405E+03</pdfrwt>
<totfact> 0.40483817E+03</totfact>
</mgrwt>
</event>
<event>
 6    1  0.6101889E-006  0.1261451E+03  0.7546771E-02  0.1247864E+00
         -2   -1    0    0    0  501 -0.00000000000E+00  0.00000000000E+00  0.23072316136E+03  0.23072316136E+03  0.00000000000E+00 0.  1.
          2   -1    0    0  501    0  0.00000000000E+00 -0.00000000000E+00 -0.53916015793E+02  0.53916015793E+02  0.00000000000E+00 0. -1.
          5    1    1    2  502    0 -0.34794215497E+02 -0.31968543952E+02  0.70269465856E+02  0.84808685086E+02  0.47000000000E+01 0. -1.
         -5    1    1    2    0  502  0.40183848606E+02  0.48196995459E+02  0.74741710374E+01  0.63369119393E+02  0.47000000000E+01 0. -1.
        -11    1    1    2    0    0  0.38628623713E+02 -0.16275956868E+02  0.75935898679E+02  0.86737178016E+02  0.00000000000E+00 0.  1.
         11    1    1    2    0    0 -0.44018256822E+02  0.47505361142E-01  0.23127609998E+02  0.49724194660E+02  0.00000000000E+00 0. -1.
<mgrwt>
<rscale>  0 0.11715566E+03</rscale>
<asrwt>0</asrwt>
<pdfrwt beam="2">  1        2 0.82947718E-02 0.12614511E+03</pdfrwt>
<pdfrwt beam="1">  1       -2 0.35495870E-01 0.12614511E+03</pdfrwt>
<totfact> 0.57243230E+03</totfact>
</mgrwt>
</event>
<event>
 6    1  0.6101889E-006  0.1803212E+03  0.7546771E-02  0.1173076E+00
         -1   -1    0    0    0  501 -0.00000000000E+00  0.00000000000E+00  0.66127182899E+03  0.66127182899E+03  0.00000000000E+00 0.  1.
          1   -1    0    0  501    0  0.00000000000E+00 -0.00000000000E+00 -0.45395475891E+02  0.45395475891E+02  0.00000000000E+00 0. -1.
          5    1    1    2  502    0 -0.15002381039E+02 -0.22735199834E+02  0.74181176745E+02  0.79163740005E+02  0.47000000000E+01 0.  1.
         -5    1    1    2    0  502  0.14496910333E+03  0.24566131179E+02  0.17964638566E+03  0.23219485266E+03  0.47000000000E+01 0.  1.
        -11    1    1    2    0    0 -0.16618135780E+01  0.20245462253E+02  0.16907275762E+02  0.26429081329E+02  0.00000000000E+00 0. -1.
         11    1    1    2    0    0 -0.12830490871E+03 -0.22076393599E+02  0.34514151493E+03  0.36887963088E+03  0.00000000000E+00 0.  1.
<mgrwt>
<rscale>  0 0.17465776E+03</rscale>
<asrwt>0</asrwt>
<pdfrwt beam="2">  1        1 0.69839198E-02 0.18032122E+03</pdfrwt>
<pdfrwt beam="1">  1       -1 0.10173412E+00 0.18032122E+03</pdfrwt>
<totfact> 0.10070720E+03</totfact>
</mgrwt>
</event>
<event>
 6    1  0.6101889E-006  0.1285832E+03  0.7546771E-02  0.1242154E+00
          1   -1    0    0  501    0  0.00000000000E+00  0.00000000000E+00  0.53526544474E+03  0.53526544474E+03  0.00000000000E+00 0. -1.
         -1   -1    0    0    0  501 -0.00000000000E+00 -0.00000000000E+00 -0.29192735891E+02  0.29192735891E+02  0.00000000000E+00 0.  1.
          5    1    1    2  502    0  0.48757374158E+02  0.73219937395E+01  0.26244296233E+03  0.26707544178E+03  0.47000000000E+01 0. -1.
         -5    1    1    2    0  502 -0.63629807194E+02  0.18914533529E+02  0.13251404366E+03  0.14828544672E+03  0.47000000000E+01 0. -1.
        -11    1    1    2    0    0  0.37048291485E+02 -0.14401099853E+02  0.50200261732E+01  0.40064550936E+02  0.00000000000E+00 0.  1.
         11    1    1    2    0    0 -0.22175858449E+02 -0.11835427416E+02  0.10609567669E+03  0.10903274120E+03  0.00000000000E+00 0. -1.
<mgrwt>
<rscale>  0 0.12057322E+03</rscale>
<asrwt>0</asrwt>
<pdfrwt beam="1">  1        1 0.82348522E-01 0.12858317E+03</pdfrwt>
<pdfrwt beam="2">  1       -1 0.44911906E-02 0.12858317E+03</pdfrwt>
<totfact> 0.81193412E+03</totfact>
</mgrwt>
</event>
<event>
 6    1  0.6101889E-006  0.1470974E+03  0.7546771E-02  0.1213428E+00
          2   -1    0    0  501    0  0.00000000000E+00  0.00000000000E+00  0.66940218601E+03  0.66940218601E+03  0.00000000000E+00 0. -1.
         -2   -1    0    0    0  501 -0.00000000000E+00 -0.00000000000E+00 -0.36785444719E+02  0.36785444719E+02  0.00000000000E+00 0.  1.
          5    1    1    2  502    0  0.60940445430E+02 -0.74605028621E+02  0.22698448969E+03  0.24662460693E+03  0.47000000000E+01 0. -1.
         -5    1    1    2    0  502 -0.98593065381E+01  0.16264564755E+02  0.29614874317E+03  0.29679607490E+03  0.47000000000E+01 0. -1.
        -11    1    1    2    0    0 -0.29907214804E+02  0.75220234435E+02  0.10888976452E+03  0.13568163466E+03  0.00000000000E+00 0. -1.
         11    1    1    2    0    0 -0.21173924088E+02 -0.16879770569E+02  0.59374390742E+00  0.27085314242E+02  0.00000000000E+00 0.  1.
<mgrwt>
<rscale>  0 0.13992617E+03</rscale>
<asrwt>0</asrwt>
<pdfrwt beam="1">  1        2 0.10298494E+00 0.14709744E+03</pdfrwt>
<pdfrwt beam="2">  1       -2 0.56592997E-02 0.14709744E+03</pdfrwt>
<totfact> 0.69372056E+03</totfact>
</mgrwt>
</event>
<event>
 6    1  0.6101889E-006  0.1547723E+03  0.7546771E-02  0.1201854E+00
          2   -1    0    0  501    0  0.00000000000E+00  0.00000000000E+00  0.13161656434E+04  0.13161656434E+04  0.00000000000E+00 0. -1.
         -2   -1    0    0    0  501 -0.00000000000E+00 -0.00000000000E+00 -0.18101827025E+02  0.18101827025E+02  0.00000000000E+00 0.  1.
          5    1    1    2  502    0 -0.26882677677E+02  0.17057132542E+01  0.38705193242E+03  0.38801659270E+03  0.47000000000E+01 0.  1.
         -5    1    1    2    0  502  0.10357953792E+03  0.47779227723E+02  0.54902711143E+03  0.56077128525E+03  0.47000000000E+01 0.  1.
        -11    1    1    2    0    0 -0.22805045609E+02  0.17802320349E+02  0.26975118668E+02  0.39555653732E+02  0.00000000000E+00 0.  1.
         11    1    1    2    0    0 -0.53891814630E+02 -0.67287261326E+02  0.33500965391E+03  0.34592393879E+03  0.00000000000E+00 0. -1.
<mgrwt>
<rscale>  0 0.14888133E+03</rscale>
<asrwt>0</asrwt>
<pdfrwt beam="1">  1        2 0.20248695E+00 0.15477229E+03</pdfrwt>
<pdfrwt beam="2">  1       -2 0.27848975E-02 0.15477229E+03</pdfrwt>
<totfact> 0.79733211E+03</totfact>
</mgrwt>
</event>
<event>
 6    1  0.6101889E-006  0.1326135E+03  0.7546771E-02  0.1236961E+00
         -1   -1    0    0    0  501 -0.00000000000E+00  0.00000000000E+00  0.16674465841E+02  0.16674465841E+02  0.00000000000E+00 0.  1.
          1   -1    0    0  501    0  0.00000000000E+00 -0.00000000000E+00 -0.82567609737E+03  0.82567609737E+03  0.00000000000E+00 0. -1.
          5    1    1    2  502    0 -0.58641485059E+02 -0.39856276512E+02 -0.36540198920E+03  0.37224729718E+03  0.47000000000E+01 0. -1.
         -5    1    1    2    0  502  0.54059772694E+02 -0.41823673966E+01 -0.13841335337E+03  0.14872894006E+03  0.47000000000E+01 0. -1.
        -11    1    1    2    0    0 -0.23181805398E+02  0.43236849145E+02 -0.27873360252E+03  0.28301809553E+03  0.00000000000E+00 0. -1.
         11    1    1    2    0    0  0.27763517764E+02  0.80179476448E+00 -0.26452686447E+02  0.38356230442E+02  0.00000000000E+00 0.  1.
<mgrwt>
<rscale>  0 0.12379710E+03</rscale>
<asrwt>0</asrwt>
<pdfrwt beam="2">  1        1 0.12702709E+00 0.13261350E+03</pdfrwt>
<pdfrwt beam="1">  1       -1 0.25653024E-02 0.13261350E+03</pdfrwt>
<totfact> 0.10005035E+04</totfact>
</mgrwt>
</event>
<event>
 6    1  0.6101889E-006  0.1254523E+03  0.7546771E-02  0.1249100E+00
          2   -1    0    0  501    0  0.00000000000E+00  0.00000000000E+00  0.15077190079E+04  0.15077190079E+04  0.00000000000E+00 0. -1.
         -2   -1    0    0    0  501 -0.00000000000E+00 -0.00000000000E+00 -0.10609483145E+02  0.10609483145E+02  0.00000000000E+00 0.  1.
          5    1    1    2  502    0  0.38056008602E+02  0.32693710958E+02  0.10597650155E+04  0.10609623540E+04  0.47000000000E+01 0.  1.
         -5    1    1    2    0  502 -0.28526531939E+02 -0.28027140716E+02  0.15071841059E+03  0.15600452856E+03  0.47000000000E+01 0.  1.
        -11    1    1    2    0    0 -0.17151405275E+02 -0.45441629997E+02  0.19189602441E+03  0.19794745925E+03  0.00000000000E+00 0. -1.
         11    1    1    2    0    0  0.76219286125E+01  0.40775059755E+02  0.94730074302E+02  0.10341414928E+03  0.00000000000E+00 0.  1.
<mgrwt>
<rscale>  0 0.11643285E+03</rscale>
<asrwt>0</asrwt>
<pdfrwt beam="1">  1        2 0.23195660E+00 0.12545226E+03</pdfrwt>
<pdfrwt beam="2">  1       -2 0.16322294E-02 0.12545226E+03</pdfrwt>
<totfact> 0.13614999E+04</totfact>
</mgrwt>
</event>
<event>
 6    1  0.6101889E-006  0.1250445E+03  0.7546771E-02  0.1250596E+00
          1   -1    0    0  501    0  0.00000000000E+00  0.00000000000E+00  0.19534158431E+03  0.19534158431E+03  0.00000000000E+00 0. -1.
         -1   -1    0    0    0  501 -0.00000000000E+00 -0.00000000000E+00 -0.61399830418E+02  0.61399830418E+02  0.00000000000E+00 0.  1.
          5    1    1    2  502    0 -0.52999987854E+02  0.34124221071E+02  0.60102251032E+02  0.87222885502E+02  0.47000000000E+01 0. -1.
         -5    1    1    2    0  502  0.49531478499E+02 -0.34816917118E+02  0.37151253415E+02  0.71189119325E+02  0.47000000000E+01 0. -1.
        -11    1    1    2    0    0 -0.18737470584E+02 -0.84400899779E+00  0.61910700767E+02  0.64689566582E+02  0.00000000000E+00 0. -1.
         11    1    1    2    0    0  0.22205979939E+02  0.15367050448E+01 -0.25222451325E+02  0.33639843316E+02  0.00000000000E+00 0.  1.
<mgrwt>
<rscale>  0 0.11556625E+03</rscale>
<asrwt>0</asrwt>
<pdfrwt beam="1">  1        1 0.30052551E-01 0.12504447E+03</pdfrwt>
<pdfrwt beam="2">  1       -1 0.94461279E-02 0.12504447E+03</pdfrwt>
<totfact> 0.94357741E+03</totfact>
</mgrwt>
</event>
<event>
 6    1  0.6101889E-006  0.1329051E+03  0.7546771E-02  0.1237276E+00
          2   -1    0    0  501    0  0.00000000000E+00  0.00000000000E+00  0.37164959553E+03  0.37164959553E+03  0.00000000000E+00 0. -1.
         -2   -1    0    0    0  501 -0.00000000000E+00 -0.00000000000E+00 -0.36559934772E+02  0.36559934772E+02  0.00000000000E+00 0.  1.
          5    1    1    2  502    0  0.74355465859E+02  0.30488241018E+02  0.69686848381E+02  0.10647354122E+03  0.47000000000E+01 0.  1.
         -5    1    1    2    0  502 -0.41572415994E+02  0.55558943566E+00  0.10496029389E+03  0.11299260039E+03  0.47000000000E+01 0.  1.
        -11    1    1    2    0    0 -0.14021622156E+02 -0.56003045267E+02  0.13996333656E+03  0.15140238621E+03  0.00000000000E+00 0. -1.
         11    1    1    2    0    0 -0.18761427709E+02  0.24959214813E+02  0.20479181933E+02  0.37341002483E+02  0.00000000000E+00 0.  1.
<mgrwt>
<rscale>  0 0.12359852E+03</rscale>
<asrwt>0</asrwt>
<pdfrwt beam="1">  1        2 0.57176858E-01 0.13290509E+03</pdfrwt>
<pdfrwt beam="2">  1       -2 0.56246056E-02 0.13290509E+03</pdfrwt>
<totfact> 0.13327788E+04</totfact>
</mgrwt>
</event>
<event>
 6    1  0.6101889E-006  0.1823130E+03  0.7546771E-02  0.1167391E+00
          2   -1    0    0  501    0  0.00000000000E+00  0.00000000000E+00  0.84348019076E+03  0.84348019076E+03  0.00000000000E+00 0. -1.
         -2   -1    0    0    0  501 -0.00000000000E+00 -0.00000000000E+00 -0.41094018223E+02  0.41094018223E+02  0.00000000000E+00 0.  1.
          5    1    1    2  502    0  0.86789149271E+02  0.23856348872E+02  0.16441347267E+03  0.18749763147E+03  0.47000000000E+01 0. -1.
         -5    1    1    2    0  502  0.20063161139E+02  0.70289899890E+02  0.36933744236E+03  0.37653079129E+03  0.47000000000E+01 0.  1.
        -11    1    1    2    0    0 -0.87624565766E+02 -0.58430940431E+02  0.93694526908E+02  0.14096419296E+03  0.00000000000E+00 0.  1.
         11    1    1    2    0    0 -0.19227744644E+02 -0.35715308332E+02  0.17494073060E+03  0.17958159325E+03  0.00000000000E+00 0. -1.
<mgrwt>
<rscale>  0 0.18042687E+03</rscale>
<asrwt>0</asrwt>
<pdfrwt beam="1">  1        2 0.12976617E+00 0.18231298E+03</pdfrwt>
<pdfrwt beam="2">  1       -2 0.63221573E-02 0.18231298E+03</pdfrwt>
<totfact> 0.44544718E+03</totfact>
</mgrwt>
</event>
<event>
 6    1  0.6101889E-006  0.1524061E+03  0.7546771E-02  0.1217245E+00
          1   -1    0    0  501    0  0.00000000000E+00  0.00000000000E+00  0.13874612167E+03  0.13874612167E+03  0.00000000000E+00 0. -1.
         -1   -1    0    0    0  501 -0.00000000000E+00 -0.00000000000E+00 -0.16913956420E+03  0.16913956420E+03  0.00000000000E+00 0.  1.
          5    1    1    2  502    0 -0.67834474614E+02 -0.55256104412E+02  0.57557514406E+02  0.10483182001E+03  0.47000000000E+01 0. -1.
         -5    1    1    2    0  502  0.32869414937E+02  0.51577080524E+02  0.11150476593E+02  0.62345944550E+02  0.47000000000E+01 0.  1.
        -11    1    1    2    0    0  0.26329761977E+00 -0.37614272254E+02 -0.14373139813E+02  0.40267728405E+02  0.00000000000E+00 0. -1.
         11    1    1    2    0    0  0.34701762058E+02  0.41293296142E+02 -0.84728293714E+02  0.10044019291E+03  0.00000000000E+00 0.  1.
<mgrwt>
<rscale>  0 0.13712926E+03</rscale>
<asrwt>0</asrwt>
<pdfrwt beam="1">  1        1 0.21345557E-01 0.15240609E+03</pdfrwt>
<pdfrwt beam="2">  1       -1 0.26021471E-01 0.15240609E+03</pdfrwt>
<totfact> 0.29676475E+03</totfact>
</mgrwt>
</event>
<event>
 6    1  0.6101889E-006  0.1141033E+03  0.7546771E-02  0.1263098E+00
         -3   -1    0    0    0  501 -0.00000000000E+00  0.00000000000E+00  0.11951247135E+03  0.11951247135E+03  0.00000000000E+00 0.  1.
          3   -1    0    0  501    0  0.00000000000E+00 -0.00000000000E+00 -0.25891311846E+03  0.25891311846E+03  0.00000000000E+00 0. -1.
          5    1    1    2  502    0 -0.33382131387E+02 -0.12794995922E+02 -0.21995781546E+03  0.22289371727E+03  0.47000000000E+01 0. -1.
         -5    1    1    2    0  502  0.23118652898E+02  0.16090408205E+02 -0.45096592122E+01  0.28910212282E+02  0.47000000000E+01 0.  1.
        -11    1    1    2    0    0  0.34844961590E+02  0.23523052672E+02  0.10015942687E+02  0.43218334803E+02  0.00000000000E+00 0.  1.
         11    1    1    2    0    0 -0.24581483100E+02 -0.26818464955E+02  0.75050884878E+02  0.83403325442E+02  0.00000000000E+00 0. -1.
<mgrwt>
<rscale>  0 0.10864597E+03</rscale>
<asrwt>0</asrwt>
<pdfrwt beam="2">  1        3 0.39832787E-01 0.11410334E+03</pdfrwt>
<pdfrwt beam="1">  1       -3 0.18386534E-01 0.11410334E+03</pdfrwt>
<totfact> 0.36997200E+02</totfact>
</mgrwt>
</event>
<event>
 6    1  0.6101889E-006  0.3158846E+03  0.7546771E-02  0.1077559E+00
          1   -1    0    0  501    0  0.00000000000E+00  0.00000000000E+00  0.49178648881E+03  0.49178648881E+03  0.00000000000E+00 0. -1.
         -1   -1    0    0    0  501 -0.00000000000E+00 -0.00000000000E+00 -0.50724800338E+02  0.50724800338E+02  0.00000000000E+00 0.  1.
          5    1    1    2  502    0  0.70074799680E+02 -0.56942056563E+02  0.30755660707E+03  0.32057141467E+03  0.47000000000E+01 0. -1.
         -5    1    1    2    0  502  0.17741306394E+02 -0.22696946505E+00 -0.83840838174E+01  0.20178908027E+02  0.47000000000E+01 0. -1.
        -11    1    1    2    0    0 -0.13998975443E+02  0.66044941875E+02  0.52691996749E+02  0.85640832447E+02  0.00000000000E+00 0.  1.
         11    1    1    2    0    0 -0.73817130630E+02 -0.88759158474E+01  0.89197168478E+02  0.11612013400E+03  0.00000000000E+00 0. -1.
<mgrwt>
<rscale>  0 0.31588461E+03</rscale>
<asrwt>0</asrwt>
<pdfrwt beam="1">  1        1 0.75659456E-01 0.31588461E+03</pdfrwt>
<pdfrwt beam="2">  1       -1 0.78038158E-02 0.31588461E+03</pdfrwt>
<totfact> 0.41318282E+03</totfact>
</mgrwt>
</event>
<event>
 6    1  0.2185001E-005  0.3249270E+03  0.7546771E-02  0.1074568E+00
          1   -1    0    0  501    0  0.00000000000E+00  0.00000000000E+00  0.36407466206E+03  0.36407466206E+03  0.00000000000E+00 0. -1.
         -1   -1    0    0    0  501 -0.00000000000E+00 -0.00000000000E+00 -0.28129370260E+03  0.28129370260E+03  0.00000000000E+00 0.  1.
          5    1    1    2  502    0  0.85864300500E+01  0.32863124335E+02 -0.32342302325E+02  0.47136251885E+02  0.47000000000E+01 0.  1.
         -5    1    1    2    0  502 -0.99982092064E+02  0.25279253254E+03  0.64085462044E+02  0.27933764460E+03  0.47000000000E+01 0.  1.
        -11    1    1    2    0    0  0.18481469840E+02 -0.20564214855E+03  0.30518661236E+02  0.20871427041E+03  0.00000000000E+00 0.  1.
         11    1    1    2    0    0  0.72914192174E+02 -0.80013508326E+02  0.20519138508E+02  0.11018019777E+03  0.00000000000E+00 0. -1.
<mgrwt>
<rscale>  0 0.32236098E+03</rscale>
<asrwt>0</asrwt>
<pdfrwt beam="1">  1        1 0.56011486E-01 0.32492703E+03</pdfrwt>
<pdfrwt beam="2">  1       -1 0.43275954E-01 0.32492703E+03</pdfrwt>
<totfact> 0.36775666E+02</totfact>
</mgrwt>
</event>
<event>
 6    1  0.6101889E-006  0.1428765E+03  0.7546771E-02  0.1220125E+00
          2   -1    0    0  501    0  0.00000000000E+00  0.00000000000E+00  0.40646693516E+03  0.40646693516E+03  0.00000000000E+00 0. -1.
         -2   -1    0    0    0  501 -0.00000000000E+00 -0.00000000000E+00 -0.62466102224E+02  0.62466102224E+02  0.00000000000E+00 0.  1.
          5    1    1    2  502    0 -0.69603331178E+02 -0.17022561717E+02  0.85444452559E+02  0.11161198767E+03  0.47000000000E+01 0.  1.
         -5    1    1    2    0  502  0.56200157035E+01  0.43428003118E+02  0.23717342465E+03  0.24122789928E+03  0.47000000000E+01 0.  1.
        -11    1    1    2    0    0  0.25768510969E+00 -0.22851784716E+02  0.43009467650E+02  0.48704052951E+02  0.00000000000E+00 0. -1.
         11    1    1    2    0    0  0.63725630365E+02 -0.35536566848E+01 -0.21626511925E+02  0.67389097481E+02  0.00000000000E+00 0.  1.
<mgrwt>
<rscale>  0 0.13506679E+03</rscale>
<asrwt>0</asrwt>
<pdfrwt beam="1">  1        2 0.62533373E-01 0.14287649E+03</pdfrwt>
<pdfrwt beam="2">  1       -2 0.96101698E-02 0.14287649E+03</pdfrwt>
<totfact> 0.53429669E+03</totfact>
</mgrwt>
</event>
<event>
 6    1  0.6101889E-006  0.1392529E+03  0.7546771E-02  0.1224959E+00
          1   -1    0    0  501    0  0.00000000000E+00  0.00000000000E+00  0.54553494494E+03  0.54553494494E+03  0.00000000000E+00 0. -1.
         -1   -1    0    0    0  501 -0.00000000000E+00 -0.00000000000E+00 -0.28899055665E+02  0.28899055665E+02  0.00000000000E+00 0.  1.
          5    1    1    2  502    0  0.81246410040E+02  0.30553609070E+02  0.11816081914E+03  0.14669209710E+03  0.47000000000E+01 0.  1.
         -5    1    1    2    0  502 -0.22846892611E+02 -0.11643120261E+02  0.18614936206E+03  0.18796600157E+03  0.47000000000E+01 0.  1.
        -11    1    1    2    0    0  0.18902135406E+01  0.31642659487E+02  0.76499245485E+02  0.82806795412E+02  0.00000000000E+00 0. -1.
         11    1    1    2    0    0 -0.60289730969E+02 -0.50553148296E+02  0.13582646259E+03  0.15696910652E+03  0.00000000000E+00 0.  1.
<mgrwt>
<rscale>  0 0.13169696E+03</rscale>
<asrwt>0</asrwt>
<pdfrwt beam="1">  1        1 0.83928445E-01 0.13925285E+03</pdfrwt>
<pdfrwt beam="2">  1       -1 0.44460090E-02 0.13925285E+03</pdfrwt>
<totfact> 0.80771277E+03</totfact>
</mgrwt>
</event>
<event>
 6    1  0.6101889E-006  0.1328094E+03  0.7546771E-02  0.1235606E+00
          2   -1    0    0  501    0  0.00000000000E+00  0.00000000000E+00  0.24010332608E+03  0.24010332608E+03  0.00000000000E+00 0. -1.
         -2   -1    0    0    0  501 -0.00000000000E+00 -0.00000000000E+00 -0.60774766785E+02  0.60774766785E+02  0.00000000000E+00 0.  1.
          5    1    1    2  502    0  0.69886616288E+02  0.23406725052E+02  0.13942480244E+03  0.15777635897E+03  0.47000000000E+01 0. -1.
         -5    1    1    2    0  502 -0.27168784565E+02 -0.95995531592E+01 -0.67323747425E+01  0.29961794761E+02  0.47000000000E+01 0. -1.
        -11    1    1    2    0    0  0.19800460718E+02 -0.23031999110E+02  0.39079060346E+02  0.49494486412E+02  0.00000000000E+00 0. -1.
         11    1    1    2    0    0 -0.62518292440E+02  0.92248272177E+01  0.75570712555E+01  0.63645452727E+02  0.00000000000E+00 0.  1.
<mgrwt>
<rscale>  0 0.12465691E+03</rscale>
<asrwt>0</asrwt>
<pdfrwt beam="1">  1        2 0.36938973E-01 0.13280939E+03</pdfrwt>
<pdfrwt beam="2">  1       -2 0.93499642E-02 0.13280939E+03</pdfrwt>
<totfact> 0.97152960E+03</totfact>
</mgrwt>
</event>
<event>
 6    1  0.6101889E-006  0.1809625E+03  0.7546771E-02  0.1172177E+00
          3   -1    0    0  501    0  0.00000000000E+00  0.00000000000E+00  0.41982367944E+03  0.41982367944E+03  0.00000000000E+00 0. -1.
         -3   -1    0    0    0  501 -0.00000000000E+00 -0.00000000000E+00 -0.70299487493E+02  0.70299487493E+02  0.00000000000E+00 0.  1.
          5    1    1    2  502    0 -0.54855902070E+01 -0.92363479481E+02  0.48213996989E+02  0.10444033487E+03  0.47000000000E+01 0. -1.
         -5    1    1    2    0  502  0.49702371148E+02 -0.30785576370E+02  0.16556357957E+03  0.17564585475E+03  0.47000000000E+01 0. -1.
        -11    1    1    2    0    0 -0.25539533142E+02  0.13301321080E+03  0.99417256095E+02  0.16801360900E+03  0.00000000000E+00 0. -1.
         11    1    1    2    0    0 -0.18677247799E+02 -0.98641549447E+01  0.36329359293E+02  0.42023368318E+02  0.00000000000E+00 0.  1.
<mgrwt>
<rscale>  0 0.17555311E+03</rscale>
<asrwt>0</asrwt>
<pdfrwt beam="1">  1        3 0.64588257E-01 0.18096249E+03</pdfrwt>
<pdfrwt beam="2">  1       -3 0.10815306E-01 0.18096249E+03</pdfrwt>
<totfact> 0.36886743E+02</totfact>
</mgrwt>
</event>
<event>
 6    1  0.6101889E-006  0.1347769E+03  0.7546771E-02  0.1235918E+00
          1   -1    0    0  501    0  0.00000000000E+00  0.00000000000E+00  0.51023125683E+02  0.51023125683E+02  0.00000000000E+00 0. -1.
         -1   -1    0    0    0  501 -0.00000000000E+00 -0.00000000000E+00 -0.35658736896E+03  0.35658736896E+03  0.00000000000E+00 0.  1.
          5    1    1    2  502    0  0.58259888176E+01 -0.87294380706E+02 -0.70841911090E+02  0.11267172412E+03  0.47000000000E+01 0. -1.
         -5    1    1    2    0  502 -0.95983000938E+01  0.37039309863E+02  0.21315619126E+01  0.38609213874E+02  0.47000000000E+01 0. -1.
        -11    1    1    2    0    0  0.42407938574E+02  0.16607036621E+02 -0.91446209833E+02  0.10215985617E+03  0.00000000000E+00 0.  1.
         11    1    1    2    0    0 -0.38635627298E+02  0.33648034223E+02 -0.14540768427E+03  0.15416970049E+03  0.00000000000E+00 0. -1.
<mgrwt>
<rscale>  0 0.12445839E+03</rscale>
<asrwt>0</asrwt>
<pdfrwt beam="1">  1        1 0.78497118E-02 0.13477689E+03</pdfrwt>
<pdfrwt beam="2">  1       -1 0.54859594E-01 0.13477689E+03</pdfrwt>
<totfact> 0.29681800E+03</totfact>
</mgrwt>
</event>
<event>
 6    1  0.6101889E-006  0.2211451E+03  0.7546771E-02  0.1136207E+00
          2   -1    0    0  501    0  0.00000000000E+00  0.00000000000E+00  0.25063966621E+03  0.25063966621E+03  0.00000000000E+00 0. -1.
         -2   -1    0    0    0  501 -0.00000000000E+00 -0.00000000000E+00 -0.20986358650E+03  0.20986358650E+03  0.00000000000E+00 0.  1.
          5    1    1    2  502    0 -0.11393370002E+03 -0.64043090218E+02  0.13123117176E+03  0.18527308452E+03  0.47000000000E+01 0. -1.
         -5    1    1    2    0  502 -0.54382148282E+02 -0.63079292784E+01 -0.24640138221E+02  0.60219884051E+02  0.47000000000E+01 0. -1.
        -11    1    1    2    0    0  0.11030622237E+03  0.28874536619E+02  0.55031047975E+01  0.11415553303E+03  0.00000000000E+00 0. -1.
         11    1    1    2    0    0  0.58009625937E+02  0.41476482878E+02 -0.71318058638E+02  0.10085475111E+03  0.00000000000E+00 0.  1.
<mgrwt>
<rscale>  0 0.21691116E+03</rscale>
<asrwt>0</asrwt>
<pdfrwt beam="1">  1        2 0.38559948E-01 0.22114509E+03</pdfrwt>
<pdfrwt beam="2">  1       -2 0.32286706E-01 0.22114509E+03</pdfrwt>
<totfact> 0.11837515E+03</totfact>
</mgrwt>
</event>
<event>
 6    1  0.6101889E-006  0.1413560E+03  0.7546771E-02  0.1221827E+00
          3   -1    0    0  501    0  0.00000000000E+00  0.00000000000E+00  0.51872797000E+03  0.51872797000E+03  0.00000000000E+00 0. -1.
         -3   -1    0    0    0  501 -0.00000000000E+00 -0.00000000000E+00 -0.33505927249E+02  0.33505927249E+02  0.00000000000E+00 0.  1.
          5    1    1    2  502    0  0.26058534235E+02  0.34074210577E+02  0.10117789604E+03  0.10999616211E+03  0.47000000000E+01 0.  1.
         -5    1    1    2    0  502 -0.92073802430E+02 -0.33804859732E+02  0.23566419084E+03  0.25530384737E+03  0.47000000000E+01 0.  1.
        -11    1    1    2    0    0  0.47385800452E+02  0.74341486707E+01  0.15762084797E+03  0.16475743493E+03  0.00000000000E+00 0. -1.
         11    1    1    2    0    0  0.18629467743E+02 -0.77034995155E+01 -0.92408921062E+01  0.22176452829E+02  0.00000000000E+00 0.  1.
<mgrwt>
<rscale>  0 0.13386764E+03</rscale>
<asrwt>0</asrwt>
<pdfrwt beam="1">  1        3 0.79804297E-01 0.14135595E+03</pdfrwt>
<pdfrwt beam="2">  1       -3 0.51547584E-02 0.14135595E+03</pdfrwt>
<totfact> 0.75827275E+02</totfact>
</mgrwt>
</event>
<event>
 6    1  0.6101889E-006  0.1326857E+03  0.7546771E-02  0.1235774E+00
          2   -1    0    0  501    0  0.00000000000E+00  0.00000000000E+00  0.14559574945E+04  0.14559574945E+04  0.00000000000E+00 0. -1.
         -2   -1    0    0    0  501 -0.00000000000E+00 -0.00000000000E+00 -0.10509367824E+02  0.10509367824E+02  0.00000000000E+00 0.  1.
          5    1    1    2  502    0 -0.35021385619E+02 -0.75734420843E+02  0.72405722833E+03  0.72886429454E+03  0.47000000000E+01 0. -1.
         -5    1    1    2    0  502  0.35709924037E+02  0.31217336161E+02  0.30240084817E+03  0.30613409435E+03  0.47000000000E+01 0. -1.
        -11    1    1    2    0    0 -0.45588424399E+02  0.22428389271E+02  0.16697351313E+03  0.17453220669E+03  0.00000000000E+00 0.  1.
         11    1    1    2    0    0  0.44899885981E+02  0.22088695411E+02  0.25201653708E+03  0.25693626678E+03  0.00000000000E+00 0. -1.
<mgrwt>
<rscale>  0 0.12455024E+03</rscale>
<asrwt>0</asrwt>
<pdfrwt beam="1">  1        2 0.22399330E+00 0.13268565E+03</pdfrwt>
<pdfrwt beam="2">  1       -2 0.16168270E-02 0.13268565E+03</pdfrwt>
<totfact> 0.14730233E+04</totfact>
</mgrwt>
</event>
<event>
 6    1  0.6101889E-006  0.3772141E+03  0.7546771E-02  0.1052913E+00
         -2   -1    0    0    0  501 -0.00000000000E+00  0.00000000000E+00  0.11545244925E+03  0.11545244925E+03  0.00000000000E+00 0. -1.
          2   -1    0    0  501    0  0.00000000000E+00 -0.00000000000E+00 -0.16173933394E+04  0.16173933394E+04  0.00000000000E+00 0.  1.
          5    1    1    2  502    0  0.62181300143E+02 -0.14680480082E+03 -0.62285753975E+03  0.64295549492E+03  0.47000000000E+01 0. -1.
         -5    1    1    2    0  502  0.17730372026E+03 -0.11647214357E+03 -0.57566489076E+03  0.61352630416E+03  0.47000000000E+01 0. -1.
        -11    1    1    2    0    0 -0.16444316101E+03  0.20838838055E+03 -0.17549276742E+03  0.31822159224E+03  0.00000000000E+00 0.  1.
         11    1    1    2    0    0 -0.75041859389E+02  0.54888563844E+02 -0.12792569222E+03  0.15814239732E+03  0.00000000000E+00 0. -1.
<mgrwt>
<rscale>  0 0.37469363E+03</rscale>
<asrwt>0</asrwt>
<pdfrwt beam="2">  1        2 0.24882972E+00 0.37721412E+03</pdfrwt>
<pdfrwt beam="1">  1       -2 0.17761917E-01 0.37721412E+03</pdfrwt>
<totfact> 0.30106600E+02</totfact>
</mgrwt>
</event>
<event>
 6    1  0.6101889E-006  0.3123770E+03  0.7546771E-02  0.1079212E+00
          1   -1    0    0  501    0  0.00000000000E+00  0.00000000000E+00  0.12037169847E+03  0.12037169847E+03  0.00000000000E+00 0. -1.
         -1   -1    0    0    0  501 -0.00000000000E+00 -0.00000000000E+00 -0.20266266901E+03  0.20266266901E+03  0.00000000000E+00 0.  1.
          5    1    1    2  502    0  0.18568887869E+02 -0.16067468372E+02 -0.41624283029E+02  0.48555515384E+02  0.47000000000E+01 0. -1.
         -5    1    1    2    0  502 -0.11730277082E+03 -0.40841101952E+02  0.54561276039E+01  0.12441782421E+03  0.47000000000E+01 0. -1.
        -11    1    1    2    0    0  0.37585187241E+02  0.43459293525E+02 -0.62949485591E+02  0.85229069160E+02  0.00000000000E+00 0.  1.
         11    1    1    2    0    0  0.61148695714E+02  0.13449276799E+02  0.16826670468E+02  0.64831958732E+02  0.00000000000E+00 0. -1.
<mgrwt>
<rscale>  0 0.31237701E+03</rscale>
<asrwt>0</asrwt>
<pdfrwt beam="1">  1        1 0.18518723E-01 0.31237701E+03</pdfrwt>
<pdfrwt beam="2">  1       -1 0.31178872E-01 0.31237701E+03</pdfrwt>
<totfact> 0.27005156E+03</totfact>
</mgrwt>
</event>
<event>
 6    1  0.6101889E-006  0.1556304E+03  0.7546771E-02  0.1202134E+00
          1   -1    0    0  501    0  0.00000000000E+00  0.00000000000E+00  0.14525045590E+03  0.14525045590E+03  0.00000000000E+00 0. -1.
         -1   -1    0    0    0  501 -0.00000000000E+00 -0.00000000000E+00 -0.14769323325E+03  0.14769323325E+03  0.00000000000E+00 0.  1.
          5    1    1    2  502    0  0.86771324350E+01  0.10580500696E+03  0.29196108025E+02  0.11020206372E+03  0.47000000000E+01 0. -1.
         -5    1    1    2    0  502 -0.44003547837E+02 -0.20099909632E+02  0.28127988413E+01  0.48685936643E+02  0.47000000000E+01 0. -1.
        -11    1    1    2    0    0  0.59803127387E+01 -0.34349013866E+02 -0.60182154359E+02  0.69552214899E+02  0.00000000000E+00 0.  1.
         11    1    1    2    0    0  0.29346102664E+02 -0.51356083457E+02  0.25730470139E+02  0.64503473885E+02  0.00000000000E+00 0. -1.
<mgrwt>
<rscale>  0 0.14865613E+03</rscale>
<asrwt>0</asrwt>
<pdfrwt beam="1">  1        1 0.22346224E-01 0.15563042E+03</pdfrwt>
<pdfrwt beam="2">  1       -1 0.22722036E-01 0.15563042E+03</pdfrwt>
<totfact> 0.35023104E+03</totfact>
</mgrwt>
</event>
<event>
 6    1  0.6101889E-006  0.2789979E+03  0.7546771E-02  0.1098093E+00
         -2   -1    0    0    0  501 -0.00000000000E+00  0.00000000000E+00  0.88635733411E+02  0.88635733411E+02  0.00000000000E+00 0.  1.
          2   -1    0    0  501    0  0.00000000000E+00 -0.00000000000E+00 -0.84925694581E+03  0.84925694581E+03  0.00000000000E+00 0. -1.
          5    1    1    2  502    0  0.20496246898E+01  0.22418482035E+02 -0.10004187761E+03  0.10265114015E+03  0.47000000000E+01 0. -1.
         -5    1    1    2    0  502 -0.23399399982E+03  0.69325877897E+02 -0.34518643274E+03  0.42277066200E+03  0.47000000000E+01 0. -1.
        -11    1    1    2    0    0  0.93674156647E+02 -0.84677277571E+02 -0.16917479092E+03  0.21110471061E+03  0.00000000000E+00 0. -1.
         11    1    1    2    0    0  0.13827021849E+03 -0.70670823606E+01 -0.14621811113E+03  0.20136616646E+03  0.00000000000E+00 0.  1.
<mgrwt>
<rscale>  0 0.27564305E+03</rscale>
<asrwt>0</asrwt>
<pdfrwt beam="2">  1        2 0.13065492E+00 0.27899789E+03</pdfrwt>
<pdfrwt beam="1">  1       -2 0.13636266E-01 0.27899789E+03</pdfrwt>
<totfact> 0.13169164E+03</totfact>
</mgrwt>
</event>
<event>
 6    1  0.6101889E-006  0.1264713E+03  0.7546771E-02  0.1247106E+00
          1   -1    0    0  501    0  0.00000000000E+00  0.00000000000E+00  0.12413058823E+04  0.12413058823E+04  0.00000000000E+00 0. -1.
         -1   -1    0    0    0  501 -0.00000000000E+00 -0.00000000000E+00 -0.11179298063E+02  0.11179298063E+02  0.00000000000E+00 0.  1.
          5    1    1    2  502    0  0.54081387196E+00  0.60174480862E+02  0.43608314641E+03  0.44024068555E+03  0.47000000000E+01 0. -1.
         -5    1    1    2    0  502 -0.19590186262E+02 -0.62964501957E+02  0.47198577794E+03  0.47659308481E+03  0.47000000000E+01 0. -1.
        -11    1    1    2    0    0 -0.33906430743E+02  0.19345875277E+02  0.13750940098E+03  0.14294315056E+03  0.00000000000E+00 0.  1.
         11    1    1    2    0    0  0.52955803134E+02 -0.16555854182E+02  0.18454825889E+03  0.19270825943E+03  0.00000000000E+00 0. -1.
<mgrwt>
<rscale>  0 0.11760225E+03</rscale>
<asrwt>0</asrwt>
<pdfrwt beam="1">  1        1 0.19097003E+00 0.12647131E+03</pdfrwt>
<pdfrwt beam="2">  1       -1 0.17198930E-02 0.12647131E+03</pdfrwt>
<totfact> 0.88614393E+03</totfact>
</mgrwt>
</event>
<event>
 6    1  0.6101889E-006  0.1528373E+03  0.7546771E-02  0.1217100E+00
          1   -1    0    0  501    0  0.00000000000E+00  0.00000000000E+00  0.58307256130E+02  0.58307256130E+02  0.00000000000E+00 0. -1.
         -1   -1    0    0    0  501 -0.00000000000E+00 -0.00000000000E+00 -0.28224934458E+03  0.28224934458E+03  0.00000000000E+00 0.  1.
          5    1    1    2  502    0 -0.43769059597E+01  0.50424028939E+02  0.83162715616E+01  0.51507187585E+02  0.47000000000E+01 0. -1.
         -5    1    1    2    0  502 -0.39236859750E+02 -0.59905553590E+02 -0.11257326161E+03  0.13350294283E+03  0.47000000000E+01 0.  1.
        -11    1    1    2    0    0  0.67709423149E+02 -0.61462576193E+01 -0.66503544815E+02  0.95105541053E+02  0.00000000000E+00 0. -1.
         11    1    1    2    0    0 -0.24095657440E+02  0.15627782270E+02 -0.53181553580E+02  0.60440929240E+02  0.00000000000E+00 0.  1.
<mgrwt>
<rscale>  0 0.13723427E+03</rscale>
<asrwt>0</asrwt>
<pdfrwt beam="1">  1        1 0.89703472E-02 0.15283726E+03</pdfrwt>
<pdfrwt beam="2">  1       -1 0.43422975E-01 0.15283726E+03</pdfrwt>
<totfact> 0.38250382E+03</totfact>
</mgrwt>
</event>
<event>
 6    1  0.6101889E-006  0.2303484E+03  0.7546771E-02  0.1126395E+00
         -2   -1    0    0    0  501 -0.00000000000E+00  0.00000000000E+00  0.13875127414E+03  0.13875127414E+03  0.00000000000E+00 0.  1.
          2   -1    0    0  501    0  0.00000000000E+00 -0.00000000000E+00 -0.95603456884E+02  0.95603456884E+02  0.00000000000E+00 0. -1.
          5    1    1    2  502    0  0.84186091995E+01  0.65978000861E+01  0.55554849148E+02  0.56770020351E+02  0.47000000000E+01 0. -1.
         -5    1    1    2    0  502 -0.87039875174E+01 -0.29784781272E+02 -0.63229198103E+02  0.70589759079E+02  0.47000000000E+01 0. -1.
        -11    1    1    2    0    0  0.43618673021E+02 -0.12769827479E+01  0.17024938189E+02  0.46840877889E+02  0.00000000000E+00 0. -1.
         11    1    1    2    0    0 -0.43333294703E+02  0.24463963934E+02  0.33797228017E+02  0.60154073701E+02  0.00000000000E+00 0.  1.
<mgrwt>
<rscale>  0 0.23034844E+03</rscale>
<asrwt>0</asrwt>
<pdfrwt beam="2">  1        2 0.14708224E-01 0.23034844E+03</pdfrwt>
<pdfrwt beam="1">  1       -2 0.21346350E-01 0.23034844E+03</pdfrwt>
<totfact> 0.73474115E+03</totfact>
</mgrwt>
</event>
<event>
 6    1  0.6101889E-006  0.1997995E+03  0.7546771E-02  0.1154905E+00
          1   -1    0    0  501    0  0.00000000000E+00  0.00000000000E+00  0.19887923588E+03  0.19887923588E+03  0.00000000000E+00 0. -1.
         -1   -1    0    0    0  501 -0.00000000000E+00 -0.00000000000E+00 -0.18305366989E+03  0.18305366989E+03  0.00000000000E+00 0.  1.
          5    1    1    2  502    0  0.83023668574E+02 -0.73401513094E+02 -0.61789234132E+01  0.11108996697E+03  0.47000000000E+01 0.  1.
         -5    1    1    2    0  502  0.71407957227E+02  0.52308128098E+02 -0.13736401924E+02  0.89699583936E+02  0.47000000000E+01 0.  1.
        -11    1    1    2    0    0 -0.87031822529E+02 -0.21164458063E+02  0.46412592318E+02  0.10087914127E+03  0.00000000000E+00 0. -1.
         11    1    1    2    0    0 -0.67399803272E+02  0.42257843059E+02 -0.10671700989E+02  0.80264213589E+02  0.00000000000E+00 0.  1.
<mgrwt>
<rscale>  0 0.19399731E+03</rscale>
<asrwt>0</asrwt>
<pdfrwt beam="1">  1        1 0.30596805E-01 0.19979946E+03</pdfrwt>
<pdfrwt beam="2">  1       -1 0.28162103E-01 0.19979946E+03</pdfrwt>
<totfact> 0.16667268E+03</totfact>
</mgrwt>
</event>
<event>
 6    1  0.6101889E-006  0.1335317E+03  0.7546771E-02  0.1235358E+00
         -3   -1    0    0    0  501 -0.00000000000E+00  0.00000000000E+00  0.10429937647E+03  0.10429937647E+03  0.00000000000E+00 0.  1.
          3   -1    0    0  501    0  0.00000000000E+00 -0.00000000000E+00 -0.28650772029E+03  0.28650772029E+03  0.00000000000E+00 0. -1.
          5    1    1    2  502    0 -0.26385629670E+02  0.46829212279E+00 -0.14822381009E+01  0.26846001199E+02  0.47000000000E+01 0. -1.
         -5    1    1    2    0  502  0.56496937199E+02 -0.36512062387E+02 -0.23777244900E+03  0.24714947323E+03  0.47000000000E+01 0. -1.
        -11    1    1    2    0    0 -0.88366693519E+01  0.52244591689E+02 -0.89828208492E+00  0.52994254375E+02  0.00000000000E+00 0. -1.
         11    1    1    2    0    0 -0.21274638176E+02 -0.16200821425E+02  0.57944625369E+02  0.63817367962E+02  0.00000000000E+00 0.  1.
<mgrwt>
<rscale>  0 0.12481556E+03</rscale>
<asrwt>0</asrwt>
<pdfrwt beam="2">  1        3 0.44078110E-01 0.13353170E+03</pdfrwt>
<pdfrwt beam="1">  1       -3 0.16046058E-01 0.13353170E+03</pdfrwt>
<totfact> 0.39357632E+02</totfact>
</mgrwt>
</event>
<event>
 6    1  0.6101889E-006  0.1709102E+03  0.7546771E-02  0.1183404E+00
         -1   -1    0    0    0  501 -0.00000000000E+00  0.00000000000E+00  0.56304205406E+03  0.56304205406E+03  0.00000000000E+00 0.  1.
          1   -1    0    0  501    0  0.00000000000E+00 -0.00000000000E+00 -0.48977148200E+02  0.48977148200E+02  0.00000000000E+00 0. -1.
          5    1    1    2  502    0  0.46913636342E+01  0.54795952844E+02  0.19032528228E+03  0.19816762706E+03  0.47000000000E+01 0. -1.
         -5    1    1    2    0  502 -0.10645929363E+03  0.20235020263E+01  0.17021442466E+03  0.20083006777E+03  0.47000000000E+01 0. -1.
        -11    1    1    2    0    0  0.22867281416E+02 -0.16554575247E+02 -0.75264757368E+01  0.29216679448E+02  0.00000000000E+00 0. -1.
         11    1    1    2    0    0  0.78900648578E+02 -0.40264879624E+02  0.16105167466E+03  0.18380482798E+03  0.00000000000E+00 0.  1.
<mgrwt>
<rscale>  0 0.16477955E+03</rscale>
<asrwt>0</asrwt>
<pdfrwt beam="2">  1        1 0.75349463E-02 0.17091015E+03</pdfrwt>
<pdfrwt beam="1">  1       -1 0.86621850E-01 0.17091015E+03</pdfrwt>
<totfact> 0.12850409E+03</totfact>
</mgrwt>
</event>
<event>
 6    1  0.6101889E-006  0.1437461E+03  0.7546771E-02  0.1219422E+00
         -1   -1    0    0    0  501 -0.00000000000E+00  0.00000000000E+00  0.20762111112E+02  0.20762111112E+02  0.00000000000E+00 0.  1.
          1   -1    0    0  501    0  0.00000000000E+00 -0.00000000000E+00 -0.86178334537E+03  0.86178334537E+03  0.00000000000E+00 0. -1.
          5    1    1    2  502    0 -0.13292884971E+02 -0.39245806403E+02 -0.93682905074E+02  0.10254516475E+03  0.47000000000E+01 0. -1.
         -5    1    1    2    0  502  0.84217478482E+02  0.36724222548E+02 -0.49138834966E+03  0.49992584689E+03  0.47000000000E+01 0. -1.
        -11    1    1    2    0    0 -0.49669892879E+02  0.42551215562E+02 -0.18137636261E+03  0.19280842595E+03  0.00000000000E+00 0. -1.
         11    1    1    2    0    0 -0.21254700633E+02 -0.40029631707E+02 -0.74573616922E+02  0.87266018898E+02  0.00000000000E+00 0.  1.
<mgrwt>
<rscale>  0 0.13556650E+03</rscale>
<asrwt>0</asrwt>
<pdfrwt beam="2">  1        1 0.13258204E+00 0.14374612E+03</pdfrwt>
<pdfrwt beam="1">  1       -1 0.31941713E-02 0.14374612E+03</pdfrwt>
<totfact> 0.68377276E+03</totfact>
</mgrwt>
</event>
<event>
 6    1  0.6101889E-006  0.1861054E+03  0.7546771E-02  0.1170143E+00
         -2   -1    0    0    0  501 -0.00000000000E+00  0.00000000000E+00  0.17363767990E+03  0.17363767990E+03  0.00000000000E+00 0.  1.
          2   -1    0    0  501    0  0.00000000000E+00 -0.00000000000E+00 -0.18211337377E+03  0.18211337377E+03  0.00000000000E+00 0. -1.
          5    1    1    2  502    0 -0.15406589016E+03 -0.27512620379E+01 -0.39696966683E+02  0.15919110251E+03  0.47000000000E+01 0. -1.
         -5    1    1    2    0  502  0.29670076664E+02  0.83667173084E+01 -0.16124886182E+02  0.35105802400E+02  0.47000000000E+01 0.  1.
        -11    1    1    2    0    0  0.91911537972E+01 -0.34206718283E+02  0.14681540412E+02  0.38342202763E+02  0.00000000000E+00 0.  1.
         11    1    1    2    0    0  0.11520465970E+03  0.28591263013E+02  0.32664618584E+02  0.12311194599E+03  0.00000000000E+00 0. -1.
<mgrwt>
<rscale>  0 0.17760291E+03</rscale>
<asrwt>0</asrwt>
<pdfrwt beam="2">  1        2 0.28017442E-01 0.18610537E+03</pdfrwt>
<pdfrwt beam="1">  1       -2 0.26713489E-01 0.18610537E+03</pdfrwt>
<totfact> 0.23490659E+03</totfact>
</mgrwt>
</event>
<event>
 6    1  0.6101889E-006  0.1553499E+03  0.7546771E-02  0.1202799E+00
         -1   -1    0    0    0  501 -0.00000000000E+00  0.00000000000E+00  0.43065651397E+02  0.43065651397E+02  0.00000000000E+00 0.  1.
          1   -1    0    0  501    0  0.00000000000E+00 -0.00000000000E+00 -0.50234192268E+03  0.50234192268E+03  0.00000000000E+00 0. -1.
          5    1    1    2  502    0  0.69980106166E+02  0.18941703516E+02 -0.31177620963E+03  0.32012887762E+03  0.47000000000E+01 0.  1.
         -5    1    1    2    0  502  0.48012624275E+01  0.35043397328E+02 -0.97962895003E+01  0.37002014879E+02  0.47000000000E+01 0.  1.
        -11    1    1    2    0    0 -0.80494956206E+02 -0.30647613138E+02 -0.13975230428E+03  0.16416278725E+03  0.00000000000E+00 0. -1.
         11    1    1    2    0    0  0.57135876129E+01 -0.23337487706E+02  0.20485321330E+01  0.24113894330E+02  0.00000000000E+00 0.  1.
<mgrwt>
<rscale>  0 0.14812283E+03</rscale>
<asrwt>0</asrwt>
<pdfrwt beam="2">  1        1 0.77283376E-01 0.15534993E+03</pdfrwt>
<pdfrwt beam="1">  1       -1 0.66254846E-02 0.15534993E+03</pdfrwt>
<totfact> 0.50070466E+03</totfact>
</mgrwt>
</event>
<event>
 6    1  0.6101889E-006  0.1406936E+03  0.7546771E-02  0.1222424E+00
          1   -1    0    0  501    0  0.00000000000E+00  0.00000000000E+00  0.15099514246E+03  0.15099514246E+03  0.00000000000E+00 0. -1.
         -1   -1    0    0    0  501 -0.00000000000E+00 -0.00000000000E+00 -0.12078210349E+03  0.12078210349E+03  0.00000000000E+00 0.  1.
          5    1    1    2  502    0 -0.19805454891E+02 -0.24555768169E+02 -0.16519488593E+02  0.35919706251E+02  0.47000000000E+01 0. -1.
         -5    1    1    2    0  502  0.84366374613E+02  0.24449422418E+02  0.78210223953E+02  0.11770466666E+03  0.47000000000E+01 0. -1.
        -11    1    1    2    0    0 -0.43086921000E+02 -0.12685607264E+02 -0.63344567193E+02  0.77652698510E+02  0.00000000000E+00 0.  1.
         11    1    1    2    0    0 -0.21473998723E+02  0.12791953015E+02  0.31866870805E+02  0.40500174543E+02  0.00000000000E+00 0. -1.
<mgrwt>
<rscale>  0 0.13345051E+03</rscale>
<asrwt>0</asrwt>
<pdfrwt beam="1">  1        1 0.23230022E-01 0.14069364E+03</pdfrwt>
<pdfrwt beam="2">  1       -1 0.18581862E-01 0.14069364E+03</pdfrwt>
<totfact> 0.45878533E+03</totfact>
</mgrwt>
</event>
<event>
 6    1  0.6101889E-006  0.1548987E+03  0.7546771E-02  0.1203075E+00
         -1   -1    0    0    0  501 -0.00000000000E+00  0.00000000000E+00  0.97215790472E+03  0.97215790472E+03  0.00000000000E+00 0.  1.
          1   -1    0    0  501    0  0.00000000000E+00 -0.00000000000E+00 -0.21306907263E+02  0.21306907263E+02  0.00000000000E+00 0. -1.
          5    1    1    2  502    0  0.55341926963E+02  0.77301738084E+02  0.17646257642E+03  0.20049792634E+03  0.47000000000E+01 0.  1.
         -5    1    1    2    0  502 -0.35718343473E+02  0.12036885411E+02  0.25738379919E+03  0.26017147568E+03  0.47000000000E+01 0.  1.
        -11    1    1    2    0    0  0.29974575823E+02 -0.68274820552E+01  0.91150333679E+02  0.96194974072E+02  0.00000000000E+00 0. -1.
         11    1    1    2    0    0 -0.49598159313E+02 -0.82511141439E+02  0.42585428817E+03  0.43660043589E+03  0.00000000000E+00 0.  1.
<mgrwt>
<rscale>  0 0.14790223E+03</rscale>
<asrwt>0</asrwt>
<pdfrwt beam="2">  1        1 0.32779865E-02 0.15489874E+03</pdfrwt>
<pdfrwt beam="1">  1       -1 0.14956272E+00 0.15489874E+03</pdfrwt>
<totfact> 0.11279183E+03</totfact>
</mgrwt>
</event>
<event>
 6    1  0.6101889E-006  0.1763946E+03  0.7546771E-02  0.1196023E+00
         -2   -1    0    0    0  501 -0.00000000000E+00  0.00000000000E+00  0.96164179446E+01  0.96164179446E+01  0.00000000000E+00 0. -1.
          2   -1    0    0  501    0  0.00000000000E+00 -0.00000000000E+00 -0.21095935477E+04  0.21095935477E+04  0.00000000000E+00 0.  1.
          5    1    1    2  502    0  0.92716224773E+02  0.10244601949E+01 -0.48220357216E+03  0.49105979560E+03  0.47000000000E+01 0. -1.
         -5    1    1    2    0  502 -0.49239489106E+02 -0.10108796650E+02 -0.10594886296E+04  0.10606907944E+04  0.47000000000E+01 0.  1.
        -11    1    1    2    0    0  0.13154155774E+01 -0.36785093730E+02 -0.17249652537E+03  0.17638005756E+03  0.00000000000E+00 0.  1.
         11    1    1    2    0    0 -0.44792151244E+02  0.45869430185E+02 -0.38578840260E+03  0.39107931807E+03  0.00000000000E+00 0. -1.
<mgrwt>
<rscale>  0 0.15367966E+03</rscale>
<asrwt>0</asrwt>
<pdfrwt beam="2">  1        2 0.32455303E+00 0.17639458E+03</pdfrwt>
<pdfrwt beam="1">  1       -2 0.14794481E-02 0.17639458E+03</pdfrwt>
<totfact> 0.77795110E+03</totfact>
</mgrwt>
</event>
<event>
 6    1  0.6101889E-006  0.1524348E+03  0.7546771E-02  0.1210508E+00
         -1   -1    0    0    0  501 -0.00000000000E+00  0.00000000000E+00  0.73378435068E+02  0.73378435068E+02  0.00000000000E+00 0.  1.
          1   -1    0    0  501    0  0.00000000000E+00 -0.00000000000E+00 -0.33383980570E+03  0.33383980570E+03  0.00000000000E+00 0. -1.
          5    1    1    2  502    0 -0.64284979042E+01  0.73726473407E+02 -0.49619888083E+02  0.89225230510E+02  0.47000000000E+01 0. -1.
         -5    1    1    2    0  502 -0.35163911913E+02 -0.11022372919E+02 -0.19874882200E+03  0.20219094354E+03  0.47000000000E+01 0.  1.
        -11    1    1    2    0    0 -0.20312998279E+02 -0.30840751997E+00  0.13337577207E+02  0.24302345155E+02  0.00000000000E+00 0.  1.
         11    1    1    2    0    0  0.61905408096E+02 -0.62395692968E+02 -0.25430237755E+02  0.91499721556E+02  0.00000000000E+00 0. -1.
<mgrwt>
<rscale>  0 0.14211730E+03</rscale>
<asrwt>0</asrwt>
<pdfrwt beam="2">  1        1 0.51359971E-01 0.15243481E+03</pdfrwt>
<pdfrwt beam="1">  1       -1 0.11288990E-01 0.15243481E+03</pdfrwt>
<totfact> 0.37441917E+03</totfact>
</mgrwt>
</event>
<event>
 6    1  0.6101889E-006  0.1262093E+03  0.7546771E-02  0.1247852E+00
         -2   -1    0    0    0  501 -0.00000000000E+00  0.00000000000E+00  0.99479794027E+01  0.99479794027E+01  0.00000000000E+00 0.  1.
          2   -1    0    0  501    0  0.00000000000E+00 -0.00000000000E+00 -0.13461057260E+04  0.13461057260E+04  0.00000000000E+00 0. -1.
          5    1    1    2  502    0 -0.55687142936E+02  0.11213495191E+02 -0.24116111203E+03  0.24780551309E+03  0.47000000000E+01 0. -1.
         -5    1    1    2    0  502  0.42041057936E+02 -0.21931737487E+02 -0.72497748089E+03  0.72654173277E+03  0.47000000000E+01 0. -1.
        -11    1    1    2    0    0  0.47098999885E+02  0.23829380745E+02 -0.27709542045E+03  0.28207805163E+03  0.00000000000E+00 0. -1.
         11    1    1    2    0    0 -0.33452914885E+02 -0.13111138449E+02 -0.92923733220E+02  0.99628407903E+02  0.00000000000E+00 0.  1.
<mgrwt>
<rscale>  0 0.11716290E+03</rscale>
<asrwt>0</asrwt>
<pdfrwt beam="2">  1        2 0.20709318E+00 0.12620925E+03</pdfrwt>
<pdfrwt beam="1">  1       -2 0.15304585E-02 0.12620925E+03</pdfrwt>
<totfact> 0.18165079E+04</totfact>
</mgrwt>
</event>
<event>
 6    1  0.6101889E-006  0.1743523E+03  0.7546771E-02  0.1190181E+00
          1   -1    0    0  501    0  0.00000000000E+00  0.00000000000E+00  0.81832249454E+03  0.81832249454E+03  0.00000000000E+00 0. -1.
         -1   -1    0    0    0  501 -0.00000000000E+00 -0.00000000000E+00 -0.32255401863E+02  0.32255401863E+02  0.00000000000E+00 0.  1.
          5    1    1    2  502    0 -0.79885637945E+02 -0.12534984992E+02  0.12812669890E+03  0.15158292110E+03  0.47000000000E+01 0. -1.
         -5    1    1    2    0  502  0.14402854966E+01  0.12307862948E+02  0.50326178766E+03  0.50343626690E+03  0.47000000000E+01 0.  1.
        -11    1    1    2    0    0  0.70625008855E+02 -0.18541612732E+02  0.48985499258E+02  0.87927597579E+02  0.00000000000E+00 0.  1.
         11    1    1    2    0    0  0.78203435935E+01  0.18768734777E+02  0.10569310686E+03  0.10763111082E+03  0.00000000000E+00 0. -1.
<mgrwt>
<rscale>  0 0.15869199E+03</rscale>
<asrwt>0</asrwt>
<pdfrwt beam="1">  1        1 0.12589575E+00 0.17435227E+03</pdfrwt>
<pdfrwt beam="2">  1       -1 0.49623701E-02 0.17435227E+03</pdfrwt>
<totfact> 0.39006438E+03</totfact>
</mgrwt>
</event>
<event>
 6    1  0.6101889E-006  0.1337302E+03  0.7546771E-02  0.1234760E+00
         -2   -1    0    0    0  501 -0.00000000000E+00  0.00000000000E+00  0.38032829014E+02  0.38032829014E+02  0.00000000000E+00 0.  1.
          2   -1    0    0  501    0  0.00000000000E+00 -0.00000000000E+00 -0.44307589144E+03  0.44307589144E+03  0.00000000000E+00 0. -1.
          5    1    1    2  502    0 -0.70858738700E+02  0.24371310877E+02 -0.10775444799E+03  0.13133176579E+03  0.47000000000E+01 0. -1.
         -5    1    1    2    0  502  0.23407777375E+02 -0.27044154718E+02 -0.21540613184E+03  0.21840604840E+03  0.47000000000E+01 0. -1.
        -11    1    1    2    0    0  0.25610737605E+02 -0.39404435314E+01 -0.99324496471E+02  0.10264888005E+03  0.00000000000E+00 0. -1.
         11    1    1    2    0    0  0.21840223720E+02  0.66132873734E+01  0.17442013870E+02  0.28722026214E+02  0.00000000000E+00 0.  1.
<mgrwt>
<rscale>  0 0.12519794E+03</rscale>
<asrwt>0</asrwt>
<pdfrwt beam="2">  1        2 0.68165521E-01 0.13373024E+03</pdfrwt>
<pdfrwt beam="1">  1       -2 0.58512045E-02 0.13373024E+03</pdfrwt>
<totfact> 0.10407577E+04</totfact>
</mgrwt>
</event>
<event>
 6    1  0.6101889E-006  0.1309987E+03  0.7546771E-02  0.1239431E+00
         -3   -1    0    0    0  501 -0.00000000000E+00  0.00000000000E+00  0.23201054957E+02  0.23201054957E+02  0.00000000000E+00 0.  1.
          3   -1    0    0  501    0  0.00000000000E+00 -0.00000000000E+00 -0.58175254397E+03  0.58175254397E+03  0.00000000000E+00 0. -1.
          5    1    1    2  502    0 -0.53559106833E+02 -0.45714692295E+02 -0.10673820964E+03  0.12795915917E+03  0.47000000000E+01 0.  1.
         -5    1    1    2    0  502  0.20469049933E+02  0.24750646344E+02 -0.24947789041E+03  0.25158077094E+03  0.47000000000E+01 0.  1.
        -11    1    1    2    0    0  0.31992772522E+02  0.47156981093E+02 -0.68827756310E+02  0.89356468138E+02  0.00000000000E+00 0.  1.
         11    1    1    2    0    0  0.10972843777E+01 -0.26192935142E+02 -0.13350763264E+03  0.13605720069E+03  0.00000000000E+00 0. -1.
<mgrwt>
<rscale>  0 0.12225009E+03</rscale>
<asrwt>0</asrwt>
<pdfrwt beam="2">  1        3 0.89500395E-01 0.13099866E+03</pdfrwt>
<pdfrwt beam="1">  1       -3 0.35693929E-02 0.13099866E+03</pdfrwt>
<totfact> 0.10381482E+03</totfact>
</mgrwt>
</event>
<event>
 6    1  0.6101889E-006  0.1294486E+03  0.7546771E-02  0.1241678E+00
          1   -1    0    0  501    0  0.00000000000E+00  0.00000000000E+00  0.16482557026E+03  0.16482557026E+03  0.00000000000E+00 0. -1.
         -1   -1    0    0    0  501 -0.00000000000E+00 -0.00000000000E+00 -0.79775923976E+02  0.79775923976E+02  0.00000000000E+00 0.  1.
          5    1    1    2  502    0  0.17843648045E+02 -0.19987979545E+02  0.80062592237E+02  0.84557813226E+02  0.47000000000E+01 0. -1.
         -5    1    1    2    0  502 -0.54970682333E+02  0.10938797328E+02 -0.17924332090E+02  0.59032235973E+02  0.47000000000E+01 0.  1.
        -11    1    1    2    0    0 -0.19422906004E+02  0.27107319072E+02  0.24894977472E+02  0.41615092554E+02  0.00000000000E+00 0.  1.
         11    1    1    2    0    0  0.56549940291E+02 -0.18058136855E+02 -0.19835913352E+01  0.59396352482E+02  0.00000000000E+00 0. -1.
<mgrwt>
<rscale>  0 0.12086438E+03</rscale>
<asrwt>0</asrwt>
<pdfrwt beam="1">  1        1 0.25357780E-01 0.12944860E+03</pdfrwt>
<pdfrwt beam="2">  1       -1 0.12273219E-01 0.12944860E+03</pdfrwt>
<totfact> 0.78320365E+03</totfact>
</mgrwt>
</event>
<event>
 6    1  0.6101889E-006  0.1453153E+03  0.7546771E-02  0.1214748E+00
          1   -1    0    0  501    0  0.00000000000E+00  0.00000000000E+00  0.78369500425E+02  0.78369500425E+02  0.00000000000E+00 0. -1.
         -1   -1    0    0    0  501 -0.00000000000E+00 -0.00000000000E+00 -0.22824441752E+03  0.22824441752E+03  0.00000000000E+00 0.  1.
          5    1    1    2  502    0  0.45866043082E+02  0.56398123683E+02  0.14521830973E+01  0.72860422032E+02  0.47000000000E+01 0. -1.
         -5    1    1    2    0  502  0.31794775973E+02 -0.40507795441E+02 -0.72079333925E+02  0.88709129461E+02  0.47000000000E+01 0.  1.
        -11    1    1    2    0    0 -0.97675027507E+02 -0.20193625237E+02 -0.57287163026E+02  0.11502179162E+03  0.00000000000E+00 0.  1.
         11    1    1    2    0    0  0.20014208453E+02  0.43032969953E+01 -0.21960603237E+02  0.30022574833E+02  0.00000000000E+00 0. -1.
<mgrwt>
<rscale>  0 0.13895066E+03</rscale>
<asrwt>0</asrwt>
<pdfrwt beam="1">  1        1 0.12056847E-01 0.14531526E+03</pdfrwt>
<pdfrwt beam="2">  1       -1 0.35114525E-01 0.14531526E+03</pdfrwt>
<totfact> 0.37367321E+03</totfact>
</mgrwt>
</event>
<event>
 6    1  0.6101889E-006  0.1524675E+03  0.7546771E-02  0.1206550E+00
          2   -1    0    0  501    0  0.00000000000E+00  0.00000000000E+00  0.14783081866E+04  0.14783081866E+04  0.00000000000E+00 0. -1.
         -2   -1    0    0    0  501 -0.00000000000E+00 -0.00000000000E+00 -0.20632748581E+02  0.20632748581E+02  0.00000000000E+00 0.  1.
          5    1    1    2  502    0 -0.76768342948E+02  0.51479238873E+02  0.56186045008E+03  0.56943195017E+03  0.47000000000E+01 0.  1.
         -5    1    1    2    0  502  0.40800625474E+02  0.28235303976E+02  0.66521821295E+03  0.66708266674E+03  0.47000000000E+01 0.  1.
        -11    1    1    2    0    0  0.38908598565E+02 -0.51003503321E+01  0.13800704993E+03  0.14347765835E+03  0.00000000000E+00 0. -1.
         11    1    1    2    0    0 -0.29408810905E+01 -0.74614192517E+02  0.92589725029E+02  0.11894865988E+03  0.00000000000E+00 0.  1.
<mgrwt>
<rscale>  0 0.14515943E+03</rscale>
<asrwt>0</asrwt>
<pdfrwt beam="1">  1        2 0.22743194E+00 0.15246755E+03</pdfrwt>
<pdfrwt beam="2">  1       -2 0.31742702E-02 0.15246755E+03</pdfrwt>
<totfact> 0.53876532E+03</totfact>
</mgrwt>
</event>
<event>
 6    1  0.6101889E-006  0.1507093E+03  0.7546771E-02  0.1208168E+00
          1   -1    0    0  501    0  0.00000000000E+00  0.00000000000E+00  0.36450498206E+03  0.36450498206E+03  0.00000000000E+00 0. -1.
         -1   -1    0    0    0  501 -0.00000000000E+00 -0.00000000000E+00 -0.52251973088E+02  0.52251973088E+02  0.00000000000E+00 0.  1.
          5    1    1    2  502    0  0.15642503757E+02 -0.43346907287E+02  0.11500813326E+03  0.12398630171E+03  0.47000000000E+01 0.  1.
         -5    1    1    2    0  502 -0.87980383779E+02  0.25525064383E+00  0.58118942388E+02  0.10554863593E+03  0.47000000000E+01 0.  1.
        -11    1    1    2    0    0  0.51026066304E+02  0.42108660974E+02  0.14951103561E+03  0.16349418503E+03  0.00000000000E+00 0. -1.
         11    1    1    2    0    0  0.21311813718E+02  0.98299566876E+00 -0.10385102285E+02  0.23727832474E+02  0.00000000000E+00 0.  1.
<mgrwt>
<rscale>  0 0.14390601E+03</rscale>
<asrwt>0</asrwt>
<pdfrwt beam="1">  1        1 0.56077688E-01 0.15070933E+03</pdfrwt>
<pdfrwt beam="2">  1       -1 0.80387653E-02 0.15070933E+03</pdfrwt>
<totfact> 0.56293357E+03</totfact>
</mgrwt>
</event>
<event>
 6    1  0.6101889E-006  0.1391722E+03  0.7546771E-02  0.1293655E+00
         -2   -1    0    0    0  501 -0.00000000000E+00  0.00000000000E+00  0.36747180915E+02  0.36747180915E+02  0.00000000000E+00 0.  1.
          2   -1    0    0  501    0  0.00000000000E+00 -0.00000000000E+00 -0.50598994659E+03  0.50598994659E+03  0.00000000000E+00 0. -1.
          5    1    1    2  502    0  0.15322291208E+02  0.51178752016E+02 -0.33158282997E+03  0.33589179865E+03  0.47000000000E+01 0. -1.
         -5    1    1    2    0  502 -0.38690662923E+02 -0.58814499010E+02 -0.15699090649E+03  0.17211724903E+03  0.47000000000E+01 0.  1.
        -11    1    1    2    0    0  0.10191779420E+02  0.78054071929E+01  0.20562330660E+01  0.13000955488E+02  0.00000000000E+00 0.  1.
         11    1    1    2    0    0  0.13176592295E+02 -0.16966019840E+00  0.17274737720E+02  0.21727124347E+02  0.00000000000E+00 0. -1.
<mgrwt>
<rscale>  0 0.93908041E+02</rscale>
<asrwt>0</asrwt>
<pdfrwt beam="2">  1        2 0.77844605E-01 0.13917218E+03</pdfrwt>
<pdfrwt beam="1">  1       -2 0.56534126E-02 0.13917218E+03</pdfrwt>
<totfact> 0.95124698E+03</totfact>
</mgrwt>
</event>
<event>
 6    1  0.6101889E-006  0.1437990E+03  0.7546771E-02  0.1218430E+00
          2   -1    0    0  501    0  0.00000000000E+00  0.00000000000E+00  0.16446697497E+04  0.16446697497E+04  0.00000000000E+00 0. -1.
         -2   -1    0    0    0  501 -0.00000000000E+00 -0.00000000000E+00 -0.11327801406E+02  0.11327801406E+02  0.00000000000E+00 0.  1.
          5    1    1    2  502    0 -0.29859533415E+02 -0.68591828766E+02  0.11350529222E+04  0.11375252336E+04  0.47000000000E+01 0. -1.
         -5    1    1    2    0  502  0.14117051873E+02 -0.72717096700E+00  0.13845524067E+02  0.20337366297E+02  0.47000000000E+01 0. -1.
        -11    1    1    2    0    0 -0.27131498398E+02 -0.36425333081E+01  0.70472544150E+02  0.75602683373E+02  0.00000000000E+00 0.  1.
         11    1    1    2    0    0  0.42873979940E+02  0.72961533041E+02  0.41397095781E+03  0.42253226785E+03  0.00000000000E+00 0. -1.
<mgrwt>
<rscale>  0 0.13627590E+03</rscale>
<asrwt>0</asrwt>
<pdfrwt beam="1">  1        2 0.25302593E+00 0.14379903E+03</pdfrwt>
<pdfrwt beam="2">  1       -2 0.17427400E-02 0.14379903E+03</pdfrwt>
<totfact> 0.10589399E+04</totfact>
</mgrwt>
</event>
<event>
 6    1  0.6101889E-006  0.1393047E+03  0.7546771E-02  0.1224051E+00
         -2   -1    0    0    0  501 -0.00000000000E+00  0.00000000000E+00  0.30870136509E+02  0.30870136509E+02  0.00000000000E+00 0.  1.
          2   -1    0    0  501    0  0.00000000000E+00 -0.00000000000E+00 -0.52061255756E+03  0.52061255756E+03  0.00000000000E+00 0. -1.
          5    1    1    2  502    0  0.73033957401E+02  0.56075990250E+02 -0.19606813608E+03  0.21666397855E+03  0.47000000000E+01 0.  1.
         -5    1    1    2    0  502 -0.43161311030E+02 -0.23521764686E+01 -0.51444657376E+02  0.67357807836E+02  0.47000000000E+01 0.  1.
        -11    1    1    2    0    0 -0.17951392838E+02  0.45486297044E+01 -0.50457051010E+00  0.18525580379E+02  0.00000000000E+00 0.  1.
         11    1    1    2    0    0 -0.11921253534E+02 -0.58272443486E+02 -0.24172505708E+03  0.24893532730E+03  0.00000000000E+00 0. -1.
<mgrwt>
<rscale>  0 0.13232137E+03</rscale>
<asrwt>0</asrwt>
<pdfrwt beam="2">  1        2 0.80094238E-01 0.13930467E+03</pdfrwt>
<pdfrwt beam="1">  1       -2 0.47492518E-02 0.13930467E+03</pdfrwt>
<totfact> 0.11983546E+04</totfact>
</mgrwt>
</event>
<event>
 6    1  0.6101889E-006  0.1760042E+03  0.7546771E-02  0.1177998E+00
         -2   -1    0    0    0  501 -0.00000000000E+00  0.00000000000E+00  0.22221680802E+02  0.22221680802E+02  0.00000000000E+00 0.  1.
          2   -1    0    0  501    0  0.00000000000E+00 -0.00000000000E+00 -0.17596279357E+04  0.17596279357E+04  0.00000000000E+00 0. -1.
          5    1    1    2  502    0  0.72663137748E+02 -0.28929924485E+02 -0.38908450806E+03  0.39689509512E+03  0.47000000000E+01 0. -1.
         -5    1    1    2    0  502 -0.12163661687E+02 -0.79202521764E+02 -0.10168577629E+04  0.10200209772E+04  0.47000000000E+01 0. -1.
        -11    1    1    2    0    0 -0.70190645327E+02  0.43433807857E+02 -0.13906847969E+03  0.16171970937E+03  0.00000000000E+00 0. -1.
         11    1    1    2    0    0  0.96911692662E+01  0.64698638393E+02 -0.19239550430E+03  0.20321383478E+03  0.00000000000E+00 0.  1.
<mgrwt>
<rscale>  0 0.16985593E+03</rscale>
<asrwt>0</asrwt>
<pdfrwt beam="2">  1        2 0.27071206E+00 0.17600422E+03</pdfrwt>
<pdfrwt beam="1">  1       -2 0.34187192E-02 0.17600422E+03</pdfrwt>
<totfact> 0.34546719E+03</totfact>
</mgrwt>
</event>
<event>
 6    1  0.6101889E-006  0.1462258E+03  0.7546771E-02  0.1206481E+00
         -1   -1    0    0    0  501 -0.00000000000E+00  0.00000000000E+00  0.99121196637E+02  0.99121196637E+02  0.00000000000E+00 0.  1.
          1   -1    0    0  501    0  0.00000000000E+00 -0.00000000000E+00 -0.21223316884E+03  0.21223316884E+03  0.00000000000E+00 0. -1.
          5    1    1    2  502    0  0.27851031981E+02  0.26437849909E+02  0.22697932511E+01  0.38754120447E+02  0.47000000000E+01 0.  1.
         -5    1    1    2    0  502 -0.16954100603E+02 -0.93381489029E+02 -0.74557176272E+02  0.12078247619E+03  0.47000000000E+01 0.  1.
        -11    1    1    2    0    0 -0.19229913746E+01  0.10260530582E+03 -0.87047308763E+01  0.10299183957E+03  0.00000000000E+00 0.  1.
         11    1    1    2    0    0 -0.89739400039E+01 -0.35661666704E+02 -0.32119858301E+02  0.48825929265E+02  0.00000000000E+00 0. -1.
<mgrwt>
<rscale>  0 0.14521384E+03</rscale>
<asrwt>0</asrwt>
<pdfrwt beam="2">  1        1 0.32651257E-01 0.14622581E+03</pdfrwt>
<pdfrwt beam="1">  1       -1 0.15249415E-01 0.14622581E+03</pdfrwt>
<totfact> 0.41065323E+03</totfact>
</mgrwt>
</event>
<event>
 6    1  0.6101889E-006  0.1465585E+03  0.7546771E-02  0.1214133E+00
         -1   -1    0    0    0  501 -0.00000000000E+00  0.00000000000E+00  0.50307303536E+02  0.50307303536E+02  0.00000000000E+00 0.  1.
          1   -1    0    0  501    0  0.00000000000E+00 -0.00000000000E+00 -0.49005696389E+03  0.49005696389E+03  0.00000000000E+00 0. -1.
          5    1    1    2  502    0 -0.74249734071E+02 -0.71029874437E+02 -0.25862478742E+03  0.27832918773E+03  0.47000000000E+01 0. -1.
         -5    1    1    2    0  502  0.43333352740E+02  0.10368316895E+01 -0.11941314428E+03  0.12712373306E+03  0.47000000000E+01 0. -1.
        -11    1    1    2    0    0  0.13828288661E+02  0.88012089792E+02 -0.64403698197E+02  0.10993264237E+03  0.00000000000E+00 0. -1.
         11    1    1    2    0    0  0.17088092670E+02 -0.18019047045E+02  0.26919695364E+01  0.24978704280E+02  0.00000000000E+00 0.  1.
<mgrwt>
<rscale>  0 0.13940430E+03</rscale>
<asrwt>0</asrwt>
<pdfrwt beam="2">  1        1 0.75393381E-01 0.14655850E+03</pdfrwt>
<pdfrwt beam="1">  1       -1 0.77395850E-02 0.14655850E+03</pdfrwt>
<totfact> 0.40817367E+03</totfact>
</mgrwt>
</event>
<event>
 6    1  0.6101889E-006  0.1391842E+03  0.7546771E-02  0.1293321E+00
          2   -1    0    0  501    0  0.00000000000E+00  0.00000000000E+00  0.55498061056E+03  0.55498061056E+03  0.00000000000E+00 0. -1.
         -2   -1    0    0    0  501 -0.00000000000E+00 -0.00000000000E+00 -0.19742927529E+02  0.19742927529E+02  0.00000000000E+00 0.  1.
          5    1    1    2  502    0 -0.75304636198E+02 -0.24580841592E+02  0.39906906953E+03  0.40688231500E+03  0.47000000000E+01 0. -1.
         -5    1    1    2    0  502  0.47410949288E+02  0.21236808007E+02  0.12717523836E+03  0.13745701647E+03  0.47000000000E+01 0.  1.
        -11    1    1    2    0    0  0.10024355011E+02 -0.48895104000E+00  0.47479049393E-01  0.10036384845E+02  0.00000000000E+00 0. -1.
         11    1    1    2    0    0  0.17869331900E+02  0.38329846251E+01  0.89458960918E+01  0.20347821765E+02  0.00000000000E+00 0.  1.
<mgrwt>
<rscale>  0 0.94053941E+02</rscale>
<asrwt>0</asrwt>
<pdfrwt beam="1">  1        2 0.85381621E-01 0.13918418E+03</pdfrwt>
<pdfrwt beam="2">  1       -2 0.30373739E-02 0.13918418E+03</pdfrwt>
<totfact> 0.21666152E+04</totfact>
</mgrwt>
</event>
<event>
 6    1  0.6101889E-006  0.2511594E+03  0.7546771E-02  0.1112574E+00
          2   -1    0    0  501    0  0.00000000000E+00  0.00000000000E+00  0.43091994355E+03  0.43091994355E+03  0.00000000000E+00 0. -1.
         -2   -1    0    0    0  501 -0.00000000000E+00 -0.00000000000E+00 -0.36596743046E+02  0.36596743046E+02  0.00000000000E+00 0.  1.
          5    1    1    2  502    0  0.27436193393E+02 -0.26071528705E+02  0.31463037634E+03  0.31693348361E+03  0.47000000000E+01 0. -1.
         -5    1    1    2    0  502  0.19453386908E-01 -0.97078608316E+01 -0.10441627241E+02  0.15012012516E+02  0.47000000000E+01 0. -1.
        -11    1    1    2    0    0 -0.44672790469E+01  0.63208499255E+02  0.70340774425E+02  0.94673626247E+02  0.00000000000E+00 0.  1.
         11    1    1    2    0    0 -0.22988367733E+02 -0.27429109718E+02  0.19793676980E+02  0.40897564223E+02  0.00000000000E+00 0. -1.
<mgrwt>
<rscale>  0 0.25115944E+03</rscale>
<asrwt>0</asrwt>
<pdfrwt beam="1">  1        2 0.66295372E-01 0.25115944E+03</pdfrwt>
<pdfrwt beam="2">  1       -2 0.56302685E-02 0.25115944E+03</pdfrwt>
<totfact> 0.11857491E+04</totfact>
</mgrwt>
</event>
<event>
 6    1  0.6101889E-006  0.1544215E+03  0.7546771E-02  0.1203814E+00
          2   -1    0    0  501    0  0.00000000000E+00  0.00000000000E+00  0.51143206607E+03  0.51143206607E+03  0.00000000000E+00 0. -1.
         -2   -1    0    0    0  501 -0.00000000000E+00 -0.00000000000E+00 -0.42105683561E+02  0.42105683561E+02  0.00000000000E+00 0.  1.
          5    1    1    2  502    0  0.94808170377E+02 -0.29168767683E+02  0.28411680297E+03  0.30097151677E+03  0.47000000000E+01 0. -1.
         -5    1    1    2    0  502 -0.52530708471E+01  0.43248458942E+02  0.46292709632E+02  0.63742677377E+02  0.47000000000E+01 0. -1.
        -11    1    1    2    0    0 -0.94483299419E+02  0.48565434205E+01  0.14028843780E+03  0.16920852716E+03  0.00000000000E+00 0. -1.
         11    1    1    2    0    0  0.49281998883E+01 -0.18936234679E+02 -0.13715678824E+01  0.19615028331E+02  0.00000000000E+00 0.  1.
<mgrwt>
<rscale>  0 0.14731328E+03</rscale>
<asrwt>0</asrwt>
<pdfrwt beam="1">  1        2 0.78681852E-01 0.15442149E+03</pdfrwt>
<pdfrwt beam="2">  1       -2 0.64777979E-02 0.15442149E+03</pdfrwt>
<totfact> 0.76939546E+03</totfact>
</mgrwt>
</event>
<event>
 6    1  0.6101889E-006  0.2806926E+03  0.7546771E-02  0.1138331E+00
          4   -1    0    0  501    0  0.00000000000E+00  0.00000000000E+00  0.87774953364E+02  0.87774953364E+02  0.00000000000E+00 0. -1.
         -4   -1    0    0    0  501 -0.00000000000E+00 -0.00000000000E+00 -0.44438391730E+03  0.44438391730E+03  0.00000000000E+00 0.  1.
          5    1    1    2  502    0 -0.40787979360E+02  0.99553263118E+02  0.21838325189E+02  0.10987954270E+03  0.47000000000E+01 0. -1.
         -5    1    1    2    0  502  0.26412460732E+01 -0.91076475924E+02 -0.20746565952E+03  0.22664066388E+03  0.47000000000E+01 0.  1.
        -11    1    1    2    0    0 -0.26778641639E+02 -0.45939386099E+01 -0.74330267529E+02  0.79140309520E+02  0.00000000000E+00 0.  1.
         11    1    1    2    0    0  0.64925374926E+02 -0.38828485846E+01 -0.96651362076E+02  0.11649835455E+03  0.00000000000E+00 0. -1.
<mgrwt>
<rscale>  0 0.21413759E+03</rscale>
<asrwt>0</asrwt>
<pdfrwt beam="1">  1        4 0.13503839E-01 0.28069261E+03</pdfrwt>
<pdfrwt beam="2">  1       -4 0.68366755E-01 0.28069261E+03</pdfrwt>
<totfact> 0.16916743E+02</totfact>
</mgrwt>
</event>
<event>
 6    1  0.6101889E-006  0.1255514E+03  0.7546771E-02  0.1248962E+00
         -2   -1    0    0    0  501 -0.00000000000E+00  0.00000000000E+00  0.98124194418E+02  0.98124194418E+02  0.00000000000E+00 0.  1.
          2   -1    0    0  501    0  0.00000000000E+00 -0.00000000000E+00 -0.15793853620E+03  0.15793853620E+03  0.00000000000E+00 0. -1.
          5    1    1    2  502    0 -0.24918905760E+02  0.10971194643E+02 -0.11202919678E+03  0.11538609062E+03  0.47000000000E+01 0. -1.
         -5    1    1    2    0  502  0.30287733861E+02 -0.21360749108E+02  0.18002957407E+02  0.41470771639E+02  0.47000000000E+01 0. -1.
        -11    1    1    2    0    0  0.34077698128E+02  0.84619981339E+01  0.46111688668E+02  0.57958457139E+02  0.00000000000E+00 0.  1.
         11    1    1    2    0    0 -0.39446526229E+02  0.19275563315E+01 -0.11899791072E+02  0.41247411222E+02  0.00000000000E+00 0. -1.
<mgrwt>
<rscale>  0 0.11651367E+03</rscale>
<asrwt>0</asrwt>
<pdfrwt beam="2">  1        2 0.24298236E-01 0.12555135E+03</pdfrwt>
<pdfrwt beam="1">  1       -2 0.15096030E-01 0.12555135E+03</pdfrwt>
<totfact> 0.70933676E+03</totfact>
</mgrwt>
</event>
<event>
 6    1  0.6101889E-006  0.1523652E+03  0.7546771E-02  0.1206194E+00
          1   -1    0    0  501    0  0.00000000000E+00  0.00000000000E+00  0.25704959394E+03  0.25704959394E+03  0.00000000000E+00 0. -1.
         -1   -1    0    0    0  501 -0.00000000000E+00 -0.00000000000E+00 -0.90857508082E+02  0.90857508082E+02  0.00000000000E+00 0.  1.
          5    1    1    2  502    0 -0.95303467022E+02 -0.21364442289E+02  0.52866050964E+02  0.11115799371E+03  0.47000000000E+01 0. -1.
         -5    1    1    2    0  502  0.16486705558E+02 -0.15942924684E+02  0.10761532578E+03  0.11013235969E+03  0.47000000000E+01 0. -1.
        -11    1    1    2    0    0  0.59047148540E+02  0.33894511619E+02 -0.38394185918E+02  0.78163400521E+02  0.00000000000E+00 0.  1.
         11    1    1    2    0    0  0.19769612924E+02  0.34128553528E+01  0.44104895026E+02  0.48453348100E+02  0.00000000000E+00 0. -1.
<mgrwt>
<rscale>  0 0.14543755E+03</rscale>
<asrwt>0</asrwt>
<pdfrwt beam="1">  1        1 0.39546091E-01 0.15236518E+03</pdfrwt>
<pdfrwt beam="2">  1       -1 0.13978078E-01 0.15236518E+03</pdfrwt>
<totfact> 0.37183676E+03</totfact>
</mgrwt>
</event>
<event>
 6    1  0.6101889E-006  0.1519421E+03  0.7546771E-02  0.1206693E+00
         -2   -1    0    0    0  501 -0.00000000000E+00  0.00000000000E+00  0.23892019192E+02  0.23892019192E+02  0.00000000000E+00 0.  1.
          2   -1    0    0  501    0  0.00000000000E+00 -0.00000000000E+00 -0.86338538153E+03  0.86338538153E+03  0.00000000000E+00 0. -1.
          5    1    1    2  502    0  0.29206517802E+02  0.41175680343E+01 -0.77642355619E+01  0.30860142619E+02  0.47000000000E+01 0.  1.
         -5    1    1    2    0  502  0.20402562541E+02 -0.74834991101E+02 -0.33796957756E+03  0.34678821463E+03  0.47000000000E+01 0.  1.
        -11    1    1    2    0    0 -0.36460572100E+02 -0.13841908363E+02 -0.19465715313E+03  0.19852551224E+03  0.00000000000E+00 0.  1.
         11    1    1    2    0    0 -0.13148508243E+02  0.84559331430E+02 -0.29910239609E+03  0.31110353124E+03  0.00000000000E+00 0. -1.
<mgrwt>
<rscale>  0 0.14504832E+03</rscale>
<asrwt>0</asrwt>
<pdfrwt beam="2">  1        2 0.13282852E+00 0.15194213E+03</pdfrwt>
<pdfrwt beam="1">  1       -2 0.36756952E-02 0.15194213E+03</pdfrwt>
<totfact> 0.97095526E+03</totfact>
</mgrwt>
</event>
<event>
 6    1  0.6101889E-006  0.1506881E+03  0.7546771E-02  0.1208521E+00
          2   -1    0    0  501    0  0.00000000000E+00  0.00000000000E+00  0.23500056979E+04  0.23500056979E+04  0.00000000000E+00 0.  1.
         -2   -1    0    0    0  501 -0.00000000000E+00 -0.00000000000E+00 -0.13383562122E+02  0.13383562122E+02  0.00000000000E+00 0. -1.
          5    1    1    2  502    0 -0.22968078470E+02 -0.27114927981E+02  0.18664881185E+03  0.19005951940E+03  0.47000000000E+01 0.  1.
         -5    1    1    2    0  502 -0.41718845494E+02  0.80929967411E+02  0.17927673766E+04  0.17950841424E+04  0.47000000000E+01 0.  1.
        -11    1    1    2    0    0  0.64828528277E+02 -0.71897563223E+02  0.33913070873E+03  0.35267780661E+03  0.00000000000E+00 0.  1.
         11    1    1    2    0    0 -0.14160431288E+00  0.18082523793E+02  0.18075238672E+02  0.25567791683E+02  0.00000000000E+00 0. -1.
<mgrwt>
<rscale>  0 0.14363436E+03</rscale>
<asrwt>0</asrwt>
<pdfrwt beam="1">  1        2 0.36153901E+00 0.15068812E+03</pdfrwt>
<pdfrwt beam="2">  1       -2 0.20590114E-02 0.15068812E+03</pdfrwt>
<totfact> 0.35974125E+03</totfact>
</mgrwt>
</event>
<event>
 6    1  0.6101889E-006  0.2025998E+03  0.7546771E-02  0.1151737E+00
         -1   -1    0    0    0  501 -0.00000000000E+00  0.00000000000E+00  0.10090702752E+03  0.10090702752E+03  0.00000000000E+00 0.  1.
          1   -1    0    0  501    0  0.00000000000E+00 -0.00000000000E+00 -0.68082885423E+03  0.68082885423E+03  0.00000000000E+00 0. -1.
          5    1    1    2  502    0  0.82460005500E+02  0.83236330674E+02 -0.53025322876E+03  0.54306400715E+03  0.47000000000E+01 0. -1.
         -5    1    1    2    0  502  0.19785755297E+02  0.39101122246E+02 -0.31683909981E+02  0.54280143932E+02  0.47000000000E+01 0. -1.
        -11    1    1    2    0    0 -0.61573200207E+02 -0.12814663062E+03 -0.98801756561E+01  0.14251468624E+03  0.00000000000E+00 0.  1.
         11    1    1    2    0    0 -0.40672560591E+02  0.58091776987E+01 -0.81045123075E+01  0.41877044431E+02  0.00000000000E+00 0. -1.
<mgrwt>
<rscale>  0 0.19764951E+03</rscale>
<asrwt>0</asrwt>
<pdfrwt beam="2">  1        1 0.10474290E+00 0.20259982E+03</pdfrwt>
<pdfrwt beam="1">  1       -1 0.15524158E-01 0.20259982E+03</pdfrwt>
<totfact> 0.89599650E+02</totfact>
</mgrwt>
</event>
<event>
 6    1  0.6101889E-006  0.1734571E+03  0.7546771E-02  0.1179707E+00
          2   -1    0    0  501    0  0.00000000000E+00  0.00000000000E+00  0.17362793075E+04  0.17362793075E+04  0.00000000000E+00 0. -1.
         -2   -1    0    0    0  501 -0.00000000000E+00 -0.00000000000E+00 -0.16117241180E+02  0.16117241180E+02  0.00000000000E+00 0.  1.
          5    1    1    2  502    0 -0.93233791960E+02 -0.45923164895E+02  0.58397657663E+03  0.59317131513E+03  0.47000000000E+01 0. -1.
         -5    1    1    2    0  502  0.33588961444E+02 -0.58500756229E+02  0.51212914933E+03  0.51657420803E+03  0.47000000000E+01 0. -1.
        -11    1    1    2    0    0  0.13144546278E+02 -0.15645889144E+02  0.44556819204E+02  0.49019211352E+02  0.00000000000E+00 0. -1.
         11    1    1    2    0    0  0.46500284238E+02  0.12006981027E+03  0.57949952113E+03  0.59363181414E+03  0.00000000000E+00 0.  1.
<mgrwt>
<rscale>  0 0.16822951E+03</rscale>
<asrwt>0</asrwt>
<pdfrwt beam="1">  1        2 0.26711975E+00 0.17345709E+03</pdfrwt>
<pdfrwt beam="2">  1       -2 0.24795769E-02 0.17345709E+03</pdfrwt>
<totfact> 0.57083052E+03</totfact>
</mgrwt>
</event>
<event>
 6    1  0.6101889E-006  0.1660444E+03  0.7546771E-02  0.1189337E+00
         -4   -1    0    0    0  501 -0.00000000000E+00  0.00000000000E+00  0.32179369049E+03  0.32179369049E+03  0.00000000000E+00 0.  1.
          4   -1    0    0  501    0  0.00000000000E+00 -0.00000000000E+00 -0.73322213014E+02  0.73322213014E+02  0.00000000000E+00 0. -1.
          5    1    1    2  502    0  0.29167802677E+01  0.11579848108E+03  0.10424850534E+03  0.15590906546E+03  0.47000000000E+01 0.  1.
         -5    1    1    2    0  502 -0.46839949672E+02 -0.15286429991E+02  0.32660753865E+02  0.59299837016E+02  0.47000000000E+01 0.  1.
        -11    1    1    2    0    0  0.27638740938E+02 -0.65756813850E+02  0.10876202164E+02  0.72153657855E+02  0.00000000000E+00 0. -1.
         11    1    1    2    0    0  0.16284428466E+02 -0.34755237234E+02  0.10068601611E+03  0.10775334318E+03  0.00000000000E+00 0.  1.
<mgrwt>
<rscale>  0 0.15943378E+03</rscale>
<asrwt>0</asrwt>
<pdfrwt beam="2">  1        4 0.11280341E-01 0.16604435E+03</pdfrwt>
<pdfrwt beam="1">  1       -4 0.49506721E-01 0.16604435E+03</pdfrwt>
<totfact> 0.42175308E+02</totfact>
</mgrwt>
</event>
<event>
 6    1  0.6101889E-006  0.2846352E+03  0.7546771E-02  0.1093184E+00
         -2   -1    0    0    0  501 -0.00000000000E+00  0.00000000000E+00  0.22149056143E+03  0.22149056143E+03  0.00000000000E+00 0.  1.
          2   -1    0    0  501    0  0.00000000000E+00 -0.00000000000E+00 -0.91445444171E+02  0.91445444171E+02  0.00000000000E+00 0. -1.
          5    1    1    2  502    0 -0.38715198433E+02 -0.44391057021E+02 -0.31595017366E+02  0.67005728527E+02  0.47000000000E+01 0. -1.
         -5    1    1    2    0  502 -0.12244665881E+02 -0.19453970904E+02  0.87900645411E+02  0.90978031909E+02  0.47000000000E+01 0.  1.
        -11    1    1    2    0    0  0.73882279735E+02  0.60823828604E+01  0.40756824902E+02  0.84597313292E+02  0.00000000000E+00 0.  1.
         11    1    1    2    0    0 -0.22922415421E+02  0.57762645064E+02  0.32982664312E+02  0.70354931872E+02  0.00000000000E+00 0. -1.
<mgrwt>
<rscale>  0 0.28463522E+03</rscale>
<asrwt>0</asrwt>
<pdfrwt beam="2">  1        2 0.14068530E-01 0.28463522E+03</pdfrwt>
<pdfrwt beam="1">  1       -2 0.34075471E-01 0.28463522E+03</pdfrwt>
<totfact> 0.33891187E+03</totfact>
</mgrwt>
</event>
<event>
 6    1  0.6101889E-006  0.1435578E+03  0.7546771E-02  0.1218971E+00
          2   -1    0    0  501    0  0.00000000000E+00  0.00000000000E+00  0.43071710656E+03  0.43071710656E+03  0.00000000000E+00 0. -1.
         -2   -1    0    0    0  501 -0.00000000000E+00 -0.00000000000E+00 -0.39606923269E+02  0.39606923269E+02  0.00000000000E+00 0.  1.
          5    1    1    2  502    0  0.98114573025E+01  0.20511258056E+02 -0.70944823950E+01  0.24277522153E+02  0.47000000000E+01 0.  1.
         -5    1    1    2    0  502  0.59879836755E+02 -0.96642581743E+01  0.25534960807E+03  0.26249667631E+03  0.47000000000E+01 0.  1.
        -11    1    1    2    0    0  0.17425750659E+01 -0.26469390561E+02  0.42855293356E+01  0.26870633900E+02  0.00000000000E+00 0. -1.
         11    1    1    2    0    0 -0.71433869123E+02  0.15622390680E+02  0.13856952829E+03  0.15667919746E+03  0.00000000000E+00 0.  1.
<mgrwt>
<rscale>  0 0.13588826E+03</rscale>
<asrwt>0</asrwt>
<pdfrwt beam="1">  1        2 0.66264167E-01 0.14355777E+03</pdfrwt>
<pdfrwt beam="2">  1       -2 0.60933731E-02 0.14355777E+03</pdfrwt>
<totfact> 0.10140225E+04</totfact>
</mgrwt>
</event>
<event>
 6    1  0.6101889E-006  0.4318139E+03  0.7546771E-02  0.1033288E+00
         -2   -1    0    0    0  501 -0.00000000000E+00  0.00000000000E+00  0.12374790824E+03  0.12374790824E+03  0.00000000000E+00 0.  1.
          2   -1    0    0  501    0  0.00000000000E+00 -0.00000000000E+00 -0.37669984921E+03  0.37669984921E+03  0.00000000000E+00 0. -1.
          5    1    1    2  502    0  0.24469829713E+02 -0.34784762145E+02 -0.71007282915E+02  0.82902813406E+02  0.47000000000E+01 0. -1.
         -5    1    1    2    0  502 -0.65730368624E+01  0.91580117378E+02 -0.26589792740E+03  0.28134306550E+03  0.47000000000E+01 0. -1.
        -11    1    1    2    0    0  0.21945057192E+02 -0.38553513042E+02  0.33879403530E+01  0.44490864712E+02  0.00000000000E+00 0. -1.
         11    1    1    2    0    0 -0.39841850043E+02 -0.18241842192E+02  0.80565328991E+02  0.91711013825E+02  0.00000000000E+00 0.  1.
<mgrwt>
<rscale>  0 0.43181393E+03</rscale>
<asrwt>0</asrwt>
<pdfrwt beam="2">  1        2 0.57953821E-01 0.43181393E+03</pdfrwt>
<pdfrwt beam="1">  1       -2 0.19038140E-01 0.43181393E+03</pdfrwt>
<totfact> 0.19641326E+03</totfact>
</mgrwt>
</event>
<event>
 6    1  0.6101889E-006  0.3334575E+03  0.7546771E-02  0.1069617E+00
          2   -1    0    0  501    0  0.00000000000E+00  0.00000000000E+00  0.84543100456E+03  0.84543100456E+03  0.00000000000E+00 0. -1.
         -2   -1    0    0    0  501 -0.00000000000E+00 -0.00000000000E+00 -0.32880840654E+02  0.32880840654E+02  0.00000000000E+00 0.  1.
          5    1    1    2  502    0  0.49988791644E+01 -0.14592432981E+02  0.47362448724E+03  0.47389890568E+03  0.47000000000E+01 0. -1.
         -5    1    1    2    0  502 -0.13294750371E+02 -0.82288130254E+02  0.13820649345E+03  0.16146582177E+03  0.47000000000E+01 0.  1.
        -11    1    1    2    0    0 -0.40855007150E+02  0.27584752367E+02  0.51861211236E+02  0.71551627537E+02  0.00000000000E+00 0.  1.
         11    1    1    2    0    0  0.49150878356E+02  0.69295810868E+02  0.14885797197E+03  0.17139549022E+03  0.00000000000E+00 0. -1.
<mgrwt>
<rscale>  0 0.33345754E+03</rscale>
<asrwt>0</asrwt>
<pdfrwt beam="1">  1        2 0.13006629E+00 0.33345754E+03</pdfrwt>
<pdfrwt beam="2">  1       -2 0.50585915E-02 0.33345754E+03</pdfrwt>
<totfact> 0.63727109E+03</totfact>
</mgrwt>
</event>
<event>
 6    1  0.7239827E-006  0.2678236E+03  0.7546771E-02  0.1102532E+00
         -3   -1    0    0    0  501 -0.00000000000E+00  0.00000000000E+00  0.25467536252E+03  0.25467536252E+03  0.00000000000E+00 0.  1.
          3   -1    0    0  501    0  0.00000000000E+00 -0.00000000000E+00 -0.70412684724E+02  0.70412684724E+02  0.00000000000E+00 0. -1.
          5    1    1    2  502    0  0.97389817175E+01  0.29782714067E+02 -0.63594155940E+01  0.32317023204E+02  0.47000000000E+01 0. -1.
         -5    1    1    2    0  502 -0.62863769567E+02 -0.82600431427E+02  0.78901106124E+02  0.13046899763E+03  0.47000000000E+01 0. -1.
        -11    1    1    2    0    0 -0.74439756933E+01  0.39013614955E+02  0.66930221731E+01  0.40277431296E+02  0.00000000000E+00 0.  1.
         11    1    1    2    0    0  0.60568763543E+02  0.13804102405E+02  0.10502796510E+03  0.12202459511E+03  0.00000000000E+00 0. -1.
<mgrwt>
<rscale>  0 0.26782364E+03</rscale>
<asrwt>0</asrwt>
<pdfrwt beam="2">  1        3 0.10832721E-01 0.26782364E+03</pdfrwt>
<pdfrwt beam="1">  1       -3 0.39180824E-01 0.26782364E+03</pdfrwt>
<totfact> 0.10581327E+03</totfact>
</mgrwt>
</event>
<event>
 6    1  0.6101889E-006  0.1427802E+03  0.7546771E-02  0.1220180E+00
         -2   -1    0    0    0  501 -0.00000000000E+00  0.00000000000E+00  0.17410669600E+02  0.17410669600E+02  0.00000000000E+00 0.  1.
          2   -1    0    0  501    0  0.00000000000E+00 -0.00000000000E+00 -0.10087052811E+04  0.10087052811E+04  0.00000000000E+00 0. -1.
          5    1    1    2  502    0  0.85234836060E+01 -0.31991615094E+02 -0.29238990062E+03  0.29429586677E+03  0.47000000000E+01 0. -1.
         -5    1    1    2    0  502 -0.97274877858E-02  0.10046731934E+03 -0.37987452489E+03  0.39296364591E+03  0.47000000000E+01 0. -1.
        -11    1    1    2    0    0  0.29440829063E+02  0.56030228617E+01 -0.10558641750E+03  0.10975722228E+03  0.00000000000E+00 0.  1.
         11    1    1    2    0    0 -0.37954585181E+02 -0.74078727111E+02 -0.21344376844E+03  0.22909921570E+03  0.00000000000E+00 0. -1.
<mgrwt>
<rscale>  0 0.13502833E+03</rscale>
<asrwt>0</asrwt>
<pdfrwt beam="2">  1        2 0.15518546E+00 0.14278018E+03</pdfrwt>
<pdfrwt beam="1">  1       -2 0.26785640E-02 0.14278018E+03</pdfrwt>
<totfact> 0.12537915E+04</totfact>
</mgrwt>
</event>
<event>
 6    1  0.6101889E-006  0.3697415E+03  0.7546771E-02  0.1054792E+00
          1   -1    0    0  501    0  0.00000000000E+00  0.00000000000E+00  0.17234558937E+04  0.17234558937E+04  0.00000000000E+00 0. -1.
         -1   -1    0    0    0  501 -0.00000000000E+00 -0.00000000000E+00 -0.19830612511E+02  0.19830612511E+02  0.00000000000E+00 0.  1.
          5    1    1    2  502    0 -0.90672339886E+01  0.35345467022E+02  0.74303802483E+03  0.74394832691E+03  0.47000000000E+01 0. -1.
         -5    1    1    2    0  502  0.84611158136E+02 -0.24430697159E+02  0.76900176151E+03  0.77404244474E+03  0.47000000000E+01 0.  1.
        -11    1    1    2    0    0 -0.27258155404E+02 -0.45222455314E+02  0.54117227569E+02  0.75609204601E+02  0.00000000000E+00 0. -1.
         11    1    1    2    0    0 -0.48285768743E+02  0.34307685451E+02  0.13746826729E+03  0.14968652998E+03  0.00000000000E+00 0.  1.
<mgrwt>
<rscale>  0 0.36974146E+03</rscale>
<asrwt>0</asrwt>
<pdfrwt beam="1">  1        1 0.26514694E+00 0.36974146E+03</pdfrwt>
<pdfrwt beam="2">  1       -1 0.30508648E-02 0.36974146E+03</pdfrwt>
<totfact> 0.18717664E+03</totfact>
</mgrwt>
</event>
<event>
 6    1  0.6101889E-006  0.1291055E+03  0.7546771E-02  0.1243372E+00
          2   -1    0    0  501    0  0.00000000000E+00  0.00000000000E+00  0.78733854168E+02  0.78733854168E+02  0.00000000000E+00 0.  1.
         -2   -1    0    0    0  501 -0.00000000000E+00 -0.00000000000E+00 -0.19159846732E+03  0.19159846732E+03  0.00000000000E+00 0. -1.
          5    1    1    2  502    0 -0.38905780648E+02 -0.64432019227E+02 -0.29833585187E+02  0.81100417228E+02  0.47000000000E+01 0.  1.
         -5    1    1    2    0  502  0.17660296142E+02  0.39947916017E+02  0.20225775033E+02  0.48362113576E+02  0.47000000000E+01 0.  1.
        -11    1    1    2    0    0  0.54759381542E+02  0.13877664293E+02 -0.82686972356E+02  0.10014147408E+03  0.00000000000E+00 0.  1.
         11    1    1    2    0    0 -0.33513897036E+02  0.10606438917E+02 -0.20569830647E+02  0.40728316610E+02  0.00000000000E+00 0. -1.
<mgrwt>
<rscale>  0 0.11983336E+03</rscale>
<asrwt>0</asrwt>
<pdfrwt beam="1">  1        2 0.12112901E-01 0.12910553E+03</pdfrwt>
<pdfrwt beam="2">  1       -2 0.29476688E-01 0.12910553E+03</pdfrwt>
<totfact> 0.50580805E+03</totfact>
</mgrwt>
</event>
<event>
 6    1  0.6101889E-006  0.1834910E+03  0.7546771E-02  0.1170704E+00
         -2   -1    0    0    0  501 -0.00000000000E+00  0.00000000000E+00  0.47675964000E+02  0.47675964000E+02  0.00000000000E+00 0.  1.
          2   -1    0    0  501    0  0.00000000000E+00 -0.00000000000E+00 -0.66899852977E+03  0.66899852977E+03  0.00000000000E+00 0. -1.
          5    1    1    2  502    0  0.16725920455E+02  0.50762518798E+02 -0.34859892088E+03  0.35270368210E+03  0.47000000000E+01 0.  1.
         -5    1    1    2    0  502  0.41136331848E+02  0.70462896105E+02 -0.83982138790E+02  0.11718492719E+03  0.47000000000E+01 0.  1.
        -11    1    1    2    0    0 -0.22441329497E+02 -0.47169630052E+02 -0.14556822041E+02  0.54226269803E+02  0.00000000000E+00 0.  1.
         11    1    1    2    0    0 -0.35420922805E+02 -0.74055784851E+02 -0.17418468406E+03  0.19255961468E+03  0.00000000000E+00 0. -1.
<mgrwt>
<rscale>  0 0.17703452E+03</rscale>
<asrwt>0</asrwt>
<pdfrwt beam="2">  1        2 0.10292285E+00 0.18349096E+03</pdfrwt>
<pdfrwt beam="1">  1       -2 0.73347637E-02 0.18349096E+03</pdfrwt>
<totfact> 0.47163259E+03</totfact>
</mgrwt>
</event>
<event>
 6    1  0.6101889E-006  0.3570438E+03  0.7546771E-02  0.1069049E+00
         -1   -1    0    0    0  501 -0.00000000000E+00  0.00000000000E+00  0.74180647092E+03  0.74180647092E+03  0.00000000000E+00 0.  1.
          1   -1    0    0  501    0  0.00000000000E+00 -0.00000000000E+00 -0.29184119992E+03  0.29184119992E+03  0.00000000000E+00 0. -1.
          5    1    1    2  502    0 -0.13864238707E+03 -0.88154907853E+02 -0.17484553069E+03  0.23997093339E+03  0.47000000000E+01 0. -1.
         -5    1    1    2    0  502 -0.12101519289E+03  0.67546302565E+02  0.35760521652E+02  0.14320644122E+03  0.47000000000E+01 0.  1.
        -11    1    1    2    0    0  0.12522355277E+03 -0.32371618321E+02  0.31828615879E+03  0.34356213225E+03  0.00000000000E+00 0. -1.
         11    1    1    2    0    0  0.13443402719E+03  0.52980223609E+02  0.27076412125E+03  0.30690816398E+03  0.00000000000E+00 0.  1.
<mgrwt>
<rscale>  0 0.33476231E+03</rscale>
<asrwt>0</asrwt>
<pdfrwt beam="2">  1        1 0.44898647E-01 0.35704378E+03</pdfrwt>
<pdfrwt beam="1">  1       -1 0.11412407E+00 0.35704378E+03</pdfrwt>
<totfact> 0.67324431E+01</totfact>
</mgrwt>
</event>
<event>
 6    1  0.6101889E-006  0.1301125E+03  0.7546771E-02  0.1239891E+00
          2   -1    0    0  501    0  0.00000000000E+00  0.00000000000E+00  0.25279890148E+03  0.25279890148E+03  0.00000000000E+00 0. -1.
         -2   -1    0    0    0  501 -0.00000000000E+00 -0.00000000000E+00 -0.98993191322E+02  0.98993191322E+02  0.00000000000E+00 0.  1.
          5    1    1    2  502    0 -0.14368878631E+02 -0.49539260151E+02  0.70453140053E+02  0.87443341158E+02  0.47000000000E+01 0. -1.
         -5    1    1    2    0  502  0.48791669372E+02  0.60419492881E+02  0.13162161850E+03  0.15289696719E+03  0.47000000000E+01 0. -1.
        -11    1    1    2    0    0  0.28940792666E+02 -0.18463200280E+02 -0.28577878187E+02  0.44667150865E+02  0.00000000000E+00 0.  1.
         11    1    1    2    0    0 -0.63363583406E+02  0.75829675502E+01 -0.19691170210E+02  0.66784633586E+02  0.00000000000E+00 0. -1.
<mgrwt>
<rscale>  0 0.12196471E+03</rscale>
<asrwt>0</asrwt>
<pdfrwt beam="1">  1        2 0.38892139E-01 0.13011247E+03</pdfrwt>
<pdfrwt beam="2">  1       -2 0.15229722E-01 0.13011247E+03</pdfrwt>
<totfact> 0.42155295E+03</totfact>
</mgrwt>
</event>
<event>
 6    1  0.6101889E-006  0.3023757E+03  0.7546771E-02  0.1084059E+00
         -1   -1    0    0    0  501 -0.00000000000E+00  0.00000000000E+00  0.37311205709E+02  0.37311205709E+02  0.00000000000E+00 0.  1.
          1   -1    0    0  501    0  0.00000000000E+00 -0.00000000000E+00 -0.61262467380E+03  0.61262467380E+03  0.00000000000E+00 0. -1.
          5    1    1    2  502    0 -0.27863380059E+02 -0.66037064153E+02 -0.12626195173E+03  0.14526332037E+03  0.47000000000E+01 0. -1.
         -5    1    1    2    0  502  0.59947178562E+01  0.88350872132E+01 -0.36855889096E+03  0.36874346301E+03  0.47000000000E+01 0. -1.
        -11    1    1    2    0    0  0.56336762411E+02  0.39285252305E+02 -0.63464834101E+02  0.93514421428E+02  0.00000000000E+00 0. -1.
         11    1    1    2    0    0 -0.34468100208E+02  0.17916724635E+02 -0.17027791307E+02  0.42414674706E+02  0.00000000000E+00 0.  1.
<mgrwt>
<rscale>  0 0.30237569E+03</rscale>
<asrwt>0</asrwt>
<pdfrwt beam="2">  1        1 0.94249947E-01 0.30237569E+03</pdfrwt>
<pdfrwt beam="1">  1       -1 0.57401857E-02 0.30237569E+03</pdfrwt>
<totfact> 0.48796210E+03</totfact>
</mgrwt>
</event>
<event>
 6    1  0.6101889E-006  0.1690891E+03  0.7546771E-02  0.1185179E+00
          2   -1    0    0  501    0  0.00000000000E+00  0.00000000000E+00  0.79933054058E+03  0.79933054058E+03  0.00000000000E+00 0. -1.
         -2   -1    0    0    0  501 -0.00000000000E+00 -0.00000000000E+00 -0.31166421816E+02  0.31166421816E+02  0.00000000000E+00 0.  1.
          5    1    1    2  502    0 -0.18992252125E+02  0.36429409803E+02  0.26521165866E+03  0.26841594854E+03  0.47000000000E+01 0. -1.
         -5    1    1    2    0  502 -0.94449478793E+02 -0.26519605521E+02  0.14349691192E+03  0.17388918095E+03  0.47000000000E+01 0. -1.
        -11    1    1    2    0    0  0.71899293199E+01 -0.31054683089E+02  0.41778532784E+02  0.52550301873E+02  0.00000000000E+00 0.  1.
         11    1    1    2    0    0  0.10625180160E+03  0.21144878807E+02  0.31767701540E+03  0.33564153104E+03  0.00000000000E+00 0. -1.
<mgrwt>
<rscale>  0 0.16315586E+03</rscale>
<asrwt>0</asrwt>
<pdfrwt beam="1">  1        2 0.12297391E+00 0.16908912E+03</pdfrwt>
<pdfrwt beam="2">  1       -2 0.47948347E-02 0.16908912E+03</pdfrwt>
<totfact> 0.72364267E+03</totfact>
</mgrwt>
</event>
<event>
 6    1  0.6101889E-006  0.1476334E+03  0.7546771E-02  0.1212728E+00
         -3   -1    0    0    0  501 -0.00000000000E+00  0.00000000000E+00  0.52620221785E+03  0.52620221785E+03  0.00000000000E+00 0.  1.
          3   -1    0    0  501    0  0.00000000000E+00 -0.00000000000E+00 -0.35452368639E+02  0.35452368639E+02  0.00000000000E+00 0. -1.
          5    1    1    2  502    0  0.88682159230E+02 -0.79464000935E+01  0.19760628465E+03  0.21679023127E+03  0.47000000000E+01 0. -1.
         -5    1    1    2    0  502 -0.16164676721E+02  0.38157089384E+02  0.20211048561E+02  0.46344759442E+02  0.47000000000E+01 0. -1.
        -11    1    1    2    0    0 -0.40436835306E+02 -0.62695512083E+02  0.18408273519E+03  0.19862607653E+03  0.00000000000E+00 0.  1.
         11    1    1    2    0    0 -0.32080647203E+02  0.32484822792E+02  0.88849780806E+02  0.99893519240E+02  0.00000000000E+00 0. -1.
<mgrwt>
<rscale>  0 0.14044737E+03</rscale>
<asrwt>0</asrwt>
<pdfrwt beam="2">  1        3 0.54542109E-02 0.14763344E+03</pdfrwt>
<pdfrwt beam="1">  1       -3 0.80954182E-01 0.14763344E+03</pdfrwt>
<totfact> 0.67534308E+02</totfact>
</mgrwt>
</event>
<event>
 6    1  0.6101889E-006  0.2608903E+03  0.7546771E-02  0.1106610E+00
          3   -1    0    0  501    0  0.00000000000E+00  0.00000000000E+00  0.18879339381E+03  0.18879339381E+03  0.00000000000E+00 0. -1.
         -3   -1    0    0    0  501 -0.00000000000E+00 -0.00000000000E+00 -0.90129928087E+02  0.90129928087E+02  0.00000000000E+00 0.  1.
          5    1    1    2  502    0  0.57127681862E+02 -0.18513241103E+02  0.90934626751E+02  0.10907570065E+03  0.47000000000E+01 0.  1.
         -5    1    1    2    0  502  0.15883814972E+02  0.11670474130E+02 -0.39751893085E+02  0.44618365595E+02  0.47000000000E+01 0.  1.
        -11    1    1    2    0    0 -0.43498965611E+02  0.25821628740E+02 -0.15693934242E+02  0.52964290725E+02  0.00000000000E+00 0.  1.
         11    1    1    2    0    0 -0.29512531223E+02 -0.18978861767E+02  0.63174666300E+02  0.72264964923E+02  0.00000000000E+00 0. -1.
<mgrwt>
<rscale>  0 0.26089028E+03</rscale>
<asrwt>0</asrwt>
<pdfrwt beam="1">  1        3 0.29045137E-01 0.26089028E+03</pdfrwt>
<pdfrwt beam="2">  1       -3 0.13866143E-01 0.26089028E+03</pdfrwt>
<totfact> 0.12253560E+03</totfact>
</mgrwt>
</event>
<event>
 6    1  0.6101889E-006  0.1482181E+03  0.7546771E-02  0.1210736E+00
          1   -1    0    0  501    0  0.00000000000E+00  0.00000000000E+00  0.42115629164E+02  0.42115629164E+02  0.00000000000E+00 0. -1.
         -1   -1    0    0    0  501 -0.00000000000E+00 -0.00000000000E+00 -0.44241725884E+03  0.44241725884E+03  0.00000000000E+00 0.  1.
          5    1    1    2  502    0  0.13773185634E+02 -0.75579738446E+02 -0.41418906029E+02  0.87404881344E+02  0.47000000000E+01 0. -1.
         -5    1    1    2    0  502 -0.16940787774E+02 -0.40034985954E+01 -0.16909310037E+03  0.17005171238E+03  0.47000000000E+01 0. -1.
        -11    1    1    2    0    0  0.15416266817E+02  0.98169156681E+02 -0.17174562616E+03  0.19842228884E+03  0.00000000000E+00 0.  1.
         11    1    1    2    0    0 -0.12248664677E+02 -0.18585919639E+02 -0.18043997113E+02  0.28654005428E+02  0.00000000000E+00 0. -1.
<mgrwt>
<rscale>  0 0.14194483E+03</rscale>
<asrwt>0</asrwt>
<pdfrwt beam="1">  1        1 0.64793279E-02 0.14821806E+03</pdfrwt>
<pdfrwt beam="2">  1       -1 0.68064191E-01 0.14821806E+03</pdfrwt>
<totfact> 0.25593277E+03</totfact>
</mgrwt>
</event>
<event>
 6    1  0.6101889E-006  0.1252433E+03  0.7546771E-02  0.1268768E+00
          2   -1    0    0  501    0  0.00000000000E+00  0.00000000000E+00  0.12700257735E+04  0.12700257735E+04  0.00000000000E+00 0. -1.
         -2   -1    0    0    0  501 -0.00000000000E+00 -0.00000000000E+00 -0.73187060717E+01  0.73187060717E+01  0.00000000000E+00 0.  1.
          5    1    1    2  502    0  0.35842197472E+02 -0.23217289118E+02  0.87598123457E+03  0.87703416065E+03  0.47000000000E+01 0. -1.
         -5    1    1    2    0  502 -0.33432585537E+02 -0.29662899083E+01  0.76828362130E+02  0.83971565897E+02  0.47000000000E+01 0.  1.
        -11    1    1    2    0    0 -0.71650999783E+01 -0.17667563731E+02  0.79190591155E+02  0.81453245444E+02  0.00000000000E+00 0. -1.
         11    1    1    2    0    0  0.47554880432E+01  0.43851142757E+02  0.23070687955E+03  0.23488550755E+03  0.00000000000E+00 0.  1.
<mgrwt>
<rscale>  0 0.10568896E+03</rscale>
<asrwt>0</asrwt>
<pdfrwt beam="1">  1        2 0.19538841E+00 0.12524328E+03</pdfrwt>
<pdfrwt beam="2">  1       -2 0.11259558E-02 0.12524328E+03</pdfrwt>
<totfact> 0.30981381E+04</totfact>
</mgrwt>
</event>
<event>
 6    1  0.6101889E-006  0.4005294E+03  0.7546771E-02  0.1043597E+00
          1   -1    0    0  501    0  0.00000000000E+00  0.00000000000E+00  0.20949677027E+04  0.20949677027E+04  0.00000000000E+00 0. -1.
         -1   -1    0    0    0  501 -0.00000000000E+00 -0.00000000000E+00 -0.19143943909E+02  0.19143943909E+02  0.00000000000E+00 0.  1.
          5    1    1    2  502    0  0.60614694224E+02  0.12501160506E+03  0.13905233951E+04  0.13974546307E+04  0.47000000000E+01 0.  1.
         -5    1    1    2    0  502  0.86393489755E+01 -0.30676226436E+02  0.33257559060E+03  0.33413213357E+03  0.47000000000E+01 0.  1.
        -11    1    1    2    0    0 -0.46985035270E+02  0.91052766658E+00  0.15435423121E+03  0.16134946945E+03  0.00000000000E+00 0. -1.
         11    1    1    2    0    0 -0.22269007929E+02 -0.95245906286E+02  0.19837054186E+03  0.22117541287E+03  0.00000000000E+00 0.  1.
<mgrwt>
<rscale>  0 0.40052937E+03</rscale>
<asrwt>0</asrwt>
<pdfrwt beam="1">  1        1 0.32230254E+00 0.40052937E+03</pdfrwt>
<pdfrwt beam="2">  1       -1 0.29452238E-02 0.40052937E+03</pdfrwt>
<totfact> 0.11227771E+03</totfact>
</mgrwt>
</event>
<event>
 6    1  0.6101889E-006  0.1473074E+03  0.7546771E-02  0.1214063E+00
         -3   -1    0    0    0  501 -0.00000000000E+00  0.00000000000E+00  0.14449653815E+03  0.14449653815E+03  0.00000000000E+00 0.  1.
          3   -1    0    0  501    0  0.00000000000E+00 -0.00000000000E+00 -0.16096261807E+03  0.16096261807E+03  0.00000000000E+00 0. -1.
          5    1    1    2  502    0  0.40365712297E+02  0.13457108502E+02 -0.78268070117E+02  0.89210230906E+02  0.47000000000E+01 0.  1.
         -5    1    1    2    0  502  0.43894429554E+00 -0.79866876116E+02 -0.53725328111E+01  0.80186437017E+02  0.47000000000E+01 0.  1.
        -11    1    1    2    0    0 -0.55527663810E+01  0.16977310264E+02  0.72920704319E+02  0.75076570225E+02  0.00000000000E+00 0.  1.
         11    1    1    2    0    0 -0.35251890212E+02  0.49432457350E+02 -0.57461813126E+01  0.60985918070E+02  0.00000000000E+00 0. -1.
<mgrwt>
<rscale>  0 0.13945586E+03</rscale>
<asrwt>0</asrwt>
<pdfrwt beam="2">  1        3 0.24763480E-01 0.14730744E+03</pdfrwt>
<pdfrwt beam="1">  1       -3 0.22230237E-01 0.14730744E+03</pdfrwt>
<totfact> 0.66509051E+02</totfact>
</mgrwt>
</event>
<event>
 6    1  0.1376368E-005  0.2350103E+03  0.7546771E-02  0.1126115E+00
          1   -1    0    0  501    0  0.00000000000E+00  0.00000000000E+00  0.19817644707E+03  0.19817644707E+03  0.00000000000E+00 0. -1.
         -1   -1    0    0    0  501 -0.00000000000E+00 -0.00000000000E+00 -0.28091380375E+03  0.28091380375E+03  0.00000000000E+00 0.  1.
          5    1    1    2  502    0 -0.56195383895E+02  0.14178977761E+03 -0.56294136775E+01  0.15269591515E+03  0.47000000000E+01 0. -1.
         -5    1    1    2    0  502  0.53160120824E+02  0.57197376897E+02  0.29173178128E+02  0.83490734168E+02  0.47000000000E+01 0. -1.
        -11    1    1    2    0    0  0.35603856675E+02 -0.35633745261E+02 -0.37001435446E+02  0.62502037058E+02  0.00000000000E+00 0.  1.
         11    1    1    2    0    0 -0.32568593603E+02 -0.16335340925E+03 -0.69279685687E+02  0.18040156444E+03  0.00000000000E+00 0. -1.
<mgrwt>
<rscale>  0 0.23074766E+03</rscale>
<asrwt>0</asrwt>
<pdfrwt beam="1">  1        1 0.30488684E-01 0.23501026E+03</pdfrwt>
<pdfrwt beam="2">  1       -1 0.43217508E-01 0.23501026E+03</pdfrwt>
<totfact> 0.79778329E+02</totfact>
</mgrwt>
</event>
<event>
 6    1  0.6101889E-006  0.1302913E+03  0.7546771E-02  0.1240697E+00
         -1   -1    0    0    0  501 -0.00000000000E+00  0.00000000000E+00  0.66785251583E+02  0.66785251583E+02  0.00000000000E+00 0.  1.
          1   -1    0    0  501    0  0.00000000000E+00 -0.00000000000E+00 -0.21695918499E+03  0.21695918499E+03  0.00000000000E+00 0. -1.
          5    1    1    2  502    0  0.14011337180E+02 -0.44945050389E+01  0.20449848028E+02  0.25628195986E+02  0.47000000000E+01 0.  1.
         -5    1    1    2    0  502 -0.41752748558E+02  0.28607985338E+02 -0.14888772791E+03  0.15732563160E+03  0.47000000000E+01 0.  1.
        -11    1    1    2    0    0 -0.17718189312E+02  0.18851966968E+02  0.13306377268E+02  0.29092792356E+02  0.00000000000E+00 0. -1.
         11    1    1    2    0    0  0.45459600690E+02 -0.42965447267E+02 -0.35042430800E+02  0.71697816634E+02  0.00000000000E+00 0.  1.
<mgrwt>
<rscale>  0 0.12146640E+03</rscale>
<asrwt>0</asrwt>
<pdfrwt beam="2">  1        1 0.33378336E-01 0.13029127E+03</pdfrwt>
<pdfrwt beam="1">  1       -1 0.10274654E-01 0.13029127E+03</pdfrwt>
<totfact> 0.73123088E+03</totfact>
</mgrwt>
</event>
<event>
 6    1  0.6101889E-006  0.1306979E+03  0.7546771E-02  0.1238807E+00
         -2   -1    0    0    0  501 -0.00000000000E+00  0.00000000000E+00  0.91069025788E+02  0.91069025788E+02  0.00000000000E+00 0.  1.
          2   -1    0    0  501    0  0.00000000000E+00 -0.00000000000E+00 -0.23384700205E+03  0.23384700205E+03  0.00000000000E+00 0. -1.
          5    1    1    2  502    0 -0.23293631278E+02 -0.40467163491E+02 -0.71442675702E+02  0.85477075819E+02  0.47000000000E+01 0.  1.
         -5    1    1    2    0  502  0.28205695491E+02  0.78312051801E+02 -0.10371621678E+03  0.13306946434E+03  0.47000000000E+01 0.  1.
        -11    1    1    2    0    0 -0.23448623692E+02 -0.26863377331E+02  0.60933527852E+02  0.70600097812E+02  0.00000000000E+00 0.  1.
         11    1    1    2    0    0  0.18536559479E+02 -0.10981510979E+02 -0.28552611630E+02  0.35769389869E+02  0.00000000000E+00 0. -1.
<mgrwt>
<rscale>  0 0.12263839E+03</rscale>
<asrwt>0</asrwt>
<pdfrwt beam="2">  1        2 0.35976462E-01 0.13069794E+03</pdfrwt>
<pdfrwt beam="1">  1       -2 0.14010619E-01 0.13069794E+03</pdfrwt>
<totfact> 0.52483605E+03</totfact>
</mgrwt>
</event>
<event>
 6    1  0.6101889E-006  0.1280868E+03  0.7546771E-02  0.1246173E+00
         -1   -1    0    0    0  501 -0.00000000000E+00  0.00000000000E+00  0.44832571625E+02  0.44832571625E+02  0.00000000000E+00 0.  1.
          1   -1    0    0  501    0  0.00000000000E+00 -0.00000000000E+00 -0.46508924183E+03  0.46508924183E+03  0.00000000000E+00 0. -1.
          5    1    1    2  502    0 -0.17810159077E+02  0.62254215592E+02 -0.11234229911E+03  0.12975234600E+03  0.47000000000E+01 0.  1.
         -5    1    1    2    0  502  0.29930132781E+00 -0.40467979391E+02 -0.28052131890E+03  0.28346436689E+03  0.47000000000E+01 0.  1.
        -11    1    1    2    0    0  0.39630004295E+02 -0.11948438164E+02  0.18096554215E+02  0.45175078189E+02  0.00000000000E+00 0.  1.
         11    1    1    2    0    0 -0.22119146546E+02 -0.98377980375E+01 -0.45489606411E+02  0.51530022371E+02  0.00000000000E+00 0. -1.
<mgrwt>
<rscale>  0 0.11815444E+03</rscale>
<asrwt>0</asrwt>
<pdfrwt beam="2">  1        1 0.71552185E-01 0.12808680E+03</pdfrwt>
<pdfrwt beam="1">  1       -1 0.68973193E-02 0.12808680E+03</pdfrwt>
<totfact> 0.51579184E+03</totfact>
</mgrwt>
</event>
<event>
 6    1  0.6101889E-006  0.2337349E+03  0.7546771E-02  0.1124038E+00
          2   -1    0    0  501    0  0.00000000000E+00  0.00000000000E+00  0.49729541352E+03  0.49729541352E+03  0.00000000000E+00 0. -1.
         -2   -1    0    0    0  501 -0.00000000000E+00 -0.00000000000E+00 -0.27464573588E+02  0.27464573588E+02  0.00000000000E+00 0.  1.
          5    1    1    2  502    0 -0.38655794998E+01 -0.27821694609E+01  0.26772974329E+03  0.26781334659E+03  0.47000000000E+01 0. -1.
         -5    1    1    2    0  502 -0.32512872781E+02 -0.32271833645E+02  0.29316299427E+02  0.54590233150E+02  0.47000000000E+01 0.  1.
        -11    1    1    2    0    0  0.24566573557E+02 -0.28384015370E+02  0.40800608532E+02  0.55442389211E+02  0.00000000000E+00 0.  1.
         11    1    1    2    0    0  0.11811878723E+02  0.63438018476E+02  0.13198418868E+03  0.14691401815E+03  0.00000000000E+00 0. -1.
<mgrwt>
<rscale>  0 0.23373495E+03</rscale>
<asrwt>0</asrwt>
<pdfrwt beam="1">  1        2 0.76506980E-01 0.23373495E+03</pdfrwt>
<pdfrwt beam="2">  1       -2 0.42253194E-02 0.23373495E+03</pdfrwt>
<totfact> 0.15583619E+04</totfact>
</mgrwt>
</event>
<event>
 6    1  0.6101889E-006  0.1562530E+03  0.7546771E-02  0.1201736E+00
          2   -1    0    0  501    0  0.00000000000E+00  0.00000000000E+00  0.83315648734E+03  0.83315648734E+03  0.00000000000E+00 0. -1.
         -2   -1    0    0    0  501 -0.00000000000E+00 -0.00000000000E+00 -0.43047824764E+02  0.43047824764E+02  0.00000000000E+00 0.  1.
          5    1    1    2  502    0  0.82562422657E+02 -0.24300091581E+02  0.37328199797E+03  0.38310388682E+03  0.47000000000E+01 0. -1.
         -5    1    1    2    0  502 -0.38264006909E+02 -0.58332131916E+02  0.33042121474E+03  0.33773812487E+03  0.47000000000E+01 0. -1.
        -11    1    1    2    0    0 -0.63113988011E+02  0.47938269982E+02  0.84495002533E+02  0.11584842970E+03  0.00000000000E+00 0. -1.
         11    1    1    2    0    0  0.18815572264E+02  0.34693953515E+02  0.19104473345E+01  0.39513870718E+02  0.00000000000E+00 0.  1.
<mgrwt>
<rscale>  0 0.14897665E+03</rscale>
<asrwt>0</asrwt>
<pdfrwt beam="1">  1        2 0.12817791E+00 0.15625298E+03</pdfrwt>
<pdfrwt beam="2">  1       -2 0.66227429E-02 0.15625298E+03</pdfrwt>
<totfact> 0.41924728E+03</totfact>
</mgrwt>
</event>
<event>
 6    1  0.6101889E-006  0.1292447E+03  0.7546771E-02  0.1240767E+00
          2   -1    0    0  501    0  0.00000000000E+00  0.00000000000E+00  0.60690098991E+03  0.60690098991E+03  0.00000000000E+00 0. -1.
         -2   -1    0    0    0  501 -0.00000000000E+00 -0.00000000000E+00 -0.21898810041E+02  0.21898810041E+02  0.00000000000E+00 0.  1.
          5    1    1    2  502    0 -0.36713159898E+02  0.43968142012E+02  0.13292838488E+03  0.14482092089E+03  0.47000000000E+01 0.  1.
         -5    1    1    2    0  502  0.64969986796E+02 -0.27163885094E+02  0.21884864411E+03  0.22994737413E+03  0.47000000000E+01 0.  1.
        -11    1    1    2    0    0  0.35090821579E+02 -0.20023362792E+01  0.94044740066E+02  0.10039814861E+03  0.00000000000E+00 0.  1.
         11    1    1    2    0    0 -0.63347648477E+02 -0.14801920639E+02  0.13918041081E+03  0.15363335633E+03  0.00000000000E+00 0. -1.
<mgrwt>
<rscale>  0 0.12142380E+03</rscale>
<asrwt>0</asrwt>
<pdfrwt beam="1">  1        2 0.93369370E-01 0.12924472E+03</pdfrwt>
<pdfrwt beam="2">  1       -2 0.33690482E-02 0.12924472E+03</pdfrwt>
<totfact> 0.16710413E+04</totfact>
</mgrwt>
</event>
<event>
 6    1  0.6101889E-006  0.3565262E+03  0.7546771E-02  0.1059968E+00
          1   -1    0    0  501    0  0.00000000000E+00  0.00000000000E+00  0.52490338682E+03  0.52490338682E+03  0.00000000000E+00 0. -1.
         -1   -1    0    0    0  501 -0.00000000000E+00 -0.00000000000E+00 -0.60540161988E+02  0.60540161988E+02  0.00000000000E+00 0.  1.
          5    1    1    2  502    0  0.12920990792E+03 -0.88119186715E+02  0.24599509320E+03  0.29154050704E+03  0.47000000000E+01 0.  1.
         -5    1    1    2    0  502 -0.28362107815E+02 -0.56051312942E+01  0.39482842763E+02  0.49161077380E+02  0.47000000000E+01 0.  1.
        -11    1    1    2    0    0 -0.44992534095E+02  0.99104760974E+02  0.13557381462E+03  0.17385724312E+03  0.00000000000E+00 0. -1.
         11    1    1    2    0    0 -0.55855266010E+02 -0.53804429653E+01  0.43311474248E+02  0.70884721267E+02  0.00000000000E+00 0.  1.
<mgrwt>
<rscale>  0 0.35652622E+03</rscale>
<asrwt>0</asrwt>
<pdfrwt beam="1">  1        1 0.80754364E-01 0.35652622E+03</pdfrwt>
<pdfrwt beam="2">  1       -1 0.93138714E-02 0.35652622E+03</pdfrwt>
<totfact> 0.28881486E+03</totfact>
</mgrwt>
</event>
<event>
 6    1  0.6101889E-006  0.1364113E+03  0.7546771E-02  0.1227045E+00
          4   -1    0    0  501    0  0.00000000000E+00  0.00000000000E+00  0.25091886486E+03  0.25091886486E+03  0.00000000000E+00 0. -1.
         -4   -1    0    0    0  501 -0.00000000000E+00 -0.00000000000E+00 -0.67526932473E+02  0.67526932473E+02  0.00000000000E+00 0.  1.
          5    1    1    2  502    0 -0.75707362130E+01 -0.78489669712E+02  0.82789011833E+02  0.11442925666E+03  0.47000000000E+01 0.  1.
         -5    1    1    2    0  502  0.43411151473E+02  0.37281176107E+02  0.61132542955E+02  0.83867109002E+02  0.47000000000E+01 0.  1.
        -11    1    1    2    0    0  0.27637974443E+02  0.25591191323E+02  0.39771868038E+02  0.54777442363E+02  0.00000000000E+00 0.  1.
         11    1    1    2    0    0 -0.63478389703E+02  0.15617302283E+02 -0.30149044156E+00  0.65371989311E+02  0.00000000000E+00 0. -1.
<mgrwt>
<rscale>  0 0.13027727E+03</rscale>
<asrwt>0</asrwt>
<pdfrwt beam="1">  1        4 0.38602902E-01 0.13641127E+03</pdfrwt>
<pdfrwt beam="2">  1       -4 0.10388759E-01 0.13641127E+03</pdfrwt>
<totfact> 0.76850176E+02</totfact>
</mgrwt>
</event>
<event>
 6    1  0.6101889E-006  0.3189980E+03  0.7546771E-02  0.1076111E+00
         -1   -1    0    0    0  501 -0.00000000000E+00  0.00000000000E+00  0.24500224989E+02  0.24500224989E+02  0.00000000000E+00 0.  1.
          1   -1    0    0  501    0  0.00000000000E+00 -0.00000000000E+00 -0.10383550301E+04  0.10383550301E+04  0.00000000000E+00 0. -1.
          5    1    1    2  502    0  0.40044303510E+02  0.11965392039E+03 -0.44439686413E+03  0.46198622247E+03  0.47000000000E+01 0. -1.
         -5    1    1    2    0  502  0.11532219856E+02 -0.25901388471E+02 -0.24967557002E+03  0.25132420154E+03  0.47000000000E+01 0. -1.
        -11    1    1    2    0    0 -0.57379087106E+02 -0.20564551537E+02 -0.93175629915E+02  0.11134162935E+03  0.00000000000E+00 0.  1.
         11    1    1    2    0    0  0.58025637409E+01 -0.73187980379E+02 -0.22660674104E+03  0.23820320170E+03  0.00000000000E+00 0. -1.
<mgrwt>
<rscale>  0 0.31899801E+03</rscale>
<asrwt>0</asrwt>
<pdfrwt beam="2">  1        1 0.15974694E+00 0.31899801E+03</pdfrwt>
<pdfrwt beam="1">  1       -1 0.37692650E-02 0.31899801E+03</pdfrwt>
<totfact> 0.40321305E+03</totfact>
</mgrwt>
</event>
<event>
 6    1  0.6101889E-006  0.1677848E+03  0.7546771E-02  0.1186508E+00
          2   -1    0    0  501    0  0.00000000000E+00  0.00000000000E+00  0.13346024843E+04  0.13346024843E+04  0.00000000000E+00 0. -1.
         -2   -1    0    0    0  501 -0.00000000000E+00 -0.00000000000E+00 -0.18698997182E+02  0.18698997182E+02  0.00000000000E+00 0.  1.
          5    1    1    2  502    0  0.53991040290E+02  0.59729933979E+01  0.59667738680E+03  0.59916333583E+03  0.47000000000E+01 0. -1.
         -5    1    1    2    0  502  0.24689777874E+02  0.73625206375E+02  0.19197315257E+03  0.20713772581E+03  0.47000000000E+01 0. -1.
        -11    1    1    2    0    0 -0.60366042989E+02 -0.12694769761E+02  0.13194270940E+03  0.14565059179E+03  0.00000000000E+00 0.  1.
         11    1    1    2    0    0 -0.18314775175E+02 -0.66903430012E+02  0.39531023836E+03  0.40134982807E+03  0.00000000000E+00 0. -1.
<mgrwt>
<rscale>  0 0.16195400E+03</rscale>
<asrwt>0</asrwt>
<pdfrwt beam="1">  1        2 0.20532338E+00 0.16778477E+03</pdfrwt>
<pdfrwt beam="2">  1       -2 0.28767699E-02 0.16778477E+03</pdfrwt>
<totfact> 0.74507163E+03</totfact>
</mgrwt>
</event>
<event>
 6    1  0.6101889E-006  0.1278293E+03  0.7546771E-02  0.1245495E+00
          1   -1    0    0  501    0  0.00000000000E+00  0.00000000000E+00  0.15138973357E+03  0.15138973357E+03  0.00000000000E+00 0. -1.
         -1   -1    0    0    0  501 -0.00000000000E+00 -0.00000000000E+00 -0.10989157194E+03  0.10989157194E+03  0.00000000000E+00 0.  1.
          5    1    1    2  502    0 -0.24715441198E+02  0.61821230832E+02  0.77603905947E+02  0.10235806677E+03  0.47000000000E+01 0. -1.
         -5    1    1    2    0  502  0.35818701856E+02 -0.37479233226E+02  0.11078490873E+02  0.53221192075E+02  0.47000000000E+01 0. -1.
        -11    1    1    2    0    0  0.23039331758E+01  0.17503019061E+02  0.19206503856E+02  0.26087421772E+02  0.00000000000E+00 0. -1.
         11    1    1    2    0    0 -0.13407193834E+02 -0.41845016667E+02 -0.66390739047E+02  0.79614624897E+02  0.00000000000E+00 0.  1.
<mgrwt>
<rscale>  0 0.11855775E+03</rscale>
<asrwt>0</asrwt>
<pdfrwt beam="1">  1        1 0.23290728E-01 0.12782933E+03</pdfrwt>
<pdfrwt beam="2">  1       -1 0.16906396E-01 0.12782933E+03</pdfrwt>
<totfact> 0.52816908E+03</totfact>
</mgrwt>
</event>
<event>
 6    1  0.7875724E-006  0.2216629E+03  0.7546771E-02  0.1135851E+00
          2   -1    0    0  501    0  0.00000000000E+00  0.00000000000E+00  0.22442956756E+04  0.22442956756E+04  0.00000000000E+00 0.  1.
         -2   -1    0    0    0  501 -0.00000000000E+00 -0.00000000000E+00 -0.20633873320E+02  0.20633873320E+02  0.00000000000E+00 0. -1.
          5    1    1    2  502    0  0.11725220285E+03 -0.16750450195E+02  0.43506722936E+03  0.45092598141E+03  0.47000000000E+01 0. -1.
         -5    1    1    2    0  502  0.65581816749E+02  0.25704920567E+02  0.86745275853E+03  0.87032068567E+03  0.47000000000E+01 0. -1.
        -11    1    1    2    0    0 -0.76902453419E+02  0.41826322205E+02  0.39783137992E+03  0.40734903390E+03  0.00000000000E+00 0. -1.
         11    1    1    2    0    0 -0.10593156618E+03 -0.50780792577E+02  0.52331043447E+03  0.53633384793E+03  0.00000000000E+00 0.  1.
<mgrwt>
<rscale>  0 0.21738086E+03</rscale>
<asrwt>0</asrwt>
<pdfrwt beam="1">  1        2 0.34527606E+00 0.22166289E+03</pdfrwt>
<pdfrwt beam="2">  1       -2 0.31744438E-02 0.22166289E+03</pdfrwt>
<totfact> 0.21531199E+03</totfact>
</mgrwt>
</event>
<event>
 6    1  0.6101889E-006  0.1857811E+03  0.7546771E-02  0.1167206E+00
         -1   -1    0    0    0  501 -0.00000000000E+00  0.00000000000E+00  0.96924359687E+02  0.96924359687E+02  0.00000000000E+00 0.  1.
          1   -1    0    0  501    0  0.00000000000E+00 -0.00000000000E+00 -0.54886691728E+03  0.54886691728E+03  0.00000000000E+00 0. -1.
          5    1    1    2  502    0 -0.49055369402E+02  0.54090389711E+01 -0.47531378364E+02  0.68680484120E+02  0.47000000000E+01 0.  1.
         -5    1    1    2    0  502 -0.45669994072E+02 -0.10498261523E+03 -0.39454260833E+03  0.41084432289E+03  0.47000000000E+01 0.  1.
        -11    1    1    2    0    0  0.40745935237E+02  0.10353707186E+03 -0.93976999358E-01  0.11126619127E+03  0.00000000000E+00 0.  1.
         11    1    1    2    0    0  0.53979428237E+02 -0.39634956073E+01 -0.97745939005E+01  0.55000278691E+02  0.00000000000E+00 0. -1.
<mgrwt>
<rscale>  0 0.18061790E+03</rscale>
<asrwt>0</asrwt>
<pdfrwt beam="2">  1        1 0.84441064E-01 0.18578114E+03</pdfrwt>
<pdfrwt beam="1">  1       -1 0.14911440E-01 0.18578114E+03</pdfrwt>
<totfact> 0.12872709E+03</totfact>
</mgrwt>
</event>
<event>
 6    1  0.6101889E-006  0.1433259E+03  0.7546771E-02  0.1235805E+00
          2   -1    0    0  501    0  0.00000000000E+00  0.00000000000E+00  0.48132917483E+03  0.48132917483E+03  0.00000000000E+00 0. -1.
         -2   -1    0    0    0  501 -0.00000000000E+00 -0.00000000000E+00 -0.29843190507E+02  0.29843190507E+02  0.00000000000E+00 0.  1.
          5    1    1    2  502    0  0.55708194136E+02 -0.43101753481E+02  0.27640783184E+03  0.28527976365E+03  0.47000000000E+01 0. -1.
         -5    1    1    2    0  502 -0.48567989952E+02  0.34586428661E+02  0.88978563307E+02  0.10721168511E+03  0.47000000000E+01 0.  1.
        -11    1    1    2    0    0 -0.37742299522E+02 -0.87027795227E+01  0.70111435444E+02  0.80098894653E+02  0.00000000000E+00 0. -1.
         11    1    1    2    0    0  0.30602095339E+02  0.17218104343E+02  0.15988153738E+02  0.38582021930E+02  0.00000000000E+00 0.  1.
<mgrwt>
<rscale>  0 0.12453050E+03</rscale>
<asrwt>0</asrwt>
<pdfrwt beam="1">  1        2 0.74050636E-01 0.14332592E+03</pdfrwt>
<pdfrwt beam="2">  1       -2 0.45912604E-02 0.14332592E+03</pdfrwt>
<totfact> 0.13771719E+04</totfact>
</mgrwt>
</event>
<event>
 6    1  0.6101889E-006  0.1392774E+03  0.7546771E-02  0.1225256E+00
         -1   -1    0    0    0  501 -0.00000000000E+00  0.00000000000E+00  0.46757204546E+02  0.46757204546E+02  0.00000000000E+00 0.  1.
          1   -1    0    0  501    0  0.00000000000E+00 -0.00000000000E+00 -0.41270068344E+03  0.41270068344E+03  0.00000000000E+00 0. -1.
          5    1    1    2  502    0  0.20582854092E+02 -0.26593046749E+02 -0.17945787970E+03  0.18264190266E+03  0.47000000000E+01 0. -1.
         -5    1    1    2    0  502 -0.82003786356E+02  0.25539863545E+02 -0.12026033400E+03  0.14785649645E+03  0.47000000000E+01 0. -1.
        -11    1    1    2    0    0  0.59498253341E+02  0.12741583358E+02  0.84308482168E+00  0.60853109116E+02  0.00000000000E+00 0.  1.
         11    1    1    2    0    0  0.19226789231E+01 -0.11688400154E+02 -0.67068350006E+02  0.68106379766E+02  0.00000000000E+00 0. -1.
<mgrwt>
<rscale>  0 0.13149348E+03</rscale>
<asrwt>0</asrwt>
<pdfrwt beam="2">  1        1 0.63492414E-01 0.13927736E+03</pdfrwt>
<pdfrwt beam="1">  1       -1 0.71934159E-02 0.13927736E+03</pdfrwt>
<totfact> 0.56664229E+03</totfact>
</mgrwt>
</event>
<event>
 6    1  0.6101889E-006  0.4171613E+03  0.7546771E-02  0.1086494E+00
          1   -1    0    0  501    0  0.00000000000E+00  0.00000000000E+00  0.33097476321E+04  0.33097476321E+04  0.00000000000E+00 0. -1.
         -1   -1    0    0    0  501 -0.00000000000E+00 -0.00000000000E+00 -0.29813760576E+02  0.29813760576E+02  0.00000000000E+00 0.  1.
          5    1    1    2  502    0  0.97244376400E+02 -0.21465303292E+03  0.19379895855E+04  0.19522699907E+04  0.47000000000E+01 0. -1.
         -5    1    1    2    0  502 -0.81529499729E+02  0.15920683302E+03  0.11747335169E+04  0.11882822900E+04  0.47000000000E+01 0.  1.
        -11    1    1    2    0    0  0.35300792806E+01  0.73092681049E+02  0.15223222425E+03  0.16890722774E+03  0.00000000000E+00 0. -1.
         11    1    1    2    0    0 -0.19244955951E+02 -0.17646481149E+02  0.14978544935E+02  0.30101884241E+02  0.00000000000E+00 0.  1.
<mgrwt>
<rscale>  0 0.29750638E+03</rscale>
<asrwt>0</asrwt>
<pdfrwt beam="1">  1        1 0.50919165E+00 0.41716126E+03</pdfrwt>
<pdfrwt beam="2">  1       -1 0.45867350E-02 0.41716126E+03</pdfrwt>
<totfact> 0.83760086E+01</totfact>
</mgrwt>
</event>
<event>
 6    1  0.6101889E-006  0.2322105E+03  0.7546771E-02  0.1125094E+00
         -2   -1    0    0    0  501 -0.00000000000E+00  0.00000000000E+00  0.22329885617E+03  0.22329885617E+03  0.00000000000E+00 0.  1.
          2   -1    0    0  501    0  0.00000000000E+00 -0.00000000000E+00 -0.60369444299E+02  0.60369444299E+02  0.00000000000E+00 0. -1.
          5    1    1    2  502    0  0.12588499266E+02  0.20535850736E+02 -0.20633583490E+02  0.32062848389E+02  0.47000000000E+01 0. -1.
         -5    1    1    2    0  502 -0.43312736556E+02 -0.30491026581E+02  0.86336118317E+02  0.10139877305E+03  0.47000000000E+01 0.  1.
        -11    1    1    2    0    0  0.39991504355E+02  0.54572028917E+02  0.46947915106E+02  0.82350066748E+02  0.00000000000E+00 0.  1.
         11    1    1    2    0    0 -0.92672670643E+01 -0.44616853072E+02  0.50278961936E+02  0.67856612281E+02  0.00000000000E+00 0. -1.
<mgrwt>
<rscale>  0 0.23221049E+03</rscale>
<asrwt>0</asrwt>
<pdfrwt beam="2">  1        2 0.92876069E-02 0.23221049E+03</pdfrwt>
<pdfrwt beam="1">  1       -2 0.34353670E-01 0.23221049E+03</pdfrwt>
<totfact> 0.55044516E+03</totfact>
</mgrwt>
</event>
<event>
 6    1  0.6101889E-006  0.1523141E+03  0.7546771E-02  0.1204722E+00
          2   -1    0    0  501    0  0.00000000000E+00  0.00000000000E+00  0.11657393711E+04  0.11657393711E+04  0.00000000000E+00 0. -1.
         -2   -1    0    0    0  501 -0.00000000000E+00 -0.00000000000E+00 -0.20514506593E+02  0.20514506593E+02  0.00000000000E+00 0.  1.
          5    1    1    2  502    0  0.58316954466E+02  0.76500349929E+02  0.82589478493E+03  0.83149110428E+03  0.47000000000E+01 0. -1.
         -5    1    1    2    0  502  0.67165292732E+01 -0.18650374967E+02  0.22032820203E+02  0.30008055884E+02  0.47000000000E+01 0. -1.
        -11    1    1    2    0    0 -0.66803233037E+02 -0.79860008433E+02  0.20589224505E+03  0.23072041405E+03  0.00000000000E+00 0.  1.
         11    1    1    2    0    0  0.17697492977E+01  0.22010033471E+02  0.91405014289E+02  0.94034303439E+02  0.00000000000E+00 0. -1.
<mgrwt>
<rscale>  0 0.14659391E+03</rscale>
<asrwt>0</asrwt>
<pdfrwt beam="1">  1        2 0.17934447E+00 0.15231408E+03</pdfrwt>
<pdfrwt beam="2">  1       -2 0.31560788E-02 0.15231408E+03</pdfrwt>
<totfact> 0.80183453E+03</totfact>
</mgrwt>
</event>
<event>
 6    1  0.6101889E-006  0.1629120E+03  0.7546771E-02  0.1192364E+00
         -1   -1    0    0    0  501 -0.00000000000E+00  0.00000000000E+00  0.14293742730E+03  0.14293742730E+03  0.00000000000E+00 0.  1.
          1   -1    0    0  501    0  0.00000000000E+00 -0.00000000000E+00 -0.16477604467E+03  0.16477604467E+03  0.00000000000E+00 0. -1.
          5    1    1    2  502    0  0.10891561960E+03 -0.21382354994E+02 -0.19758875892E+02  0.11283758449E+03  0.47000000000E+01 0. -1.
         -5    1    1    2    0  502 -0.27026350577E+02 -0.43461574247E+02 -0.17381452232E+02  0.54254372573E+02  0.47000000000E+01 0. -1.
        -11    1    1    2    0    0 -0.57952030902E+02  0.86830470666E+02  0.23704097997E+02  0.10705070193E+03  0.00000000000E+00 0.  1.
         11    1    1    2    0    0 -0.23937238116E+02 -0.21986541424E+02 -0.84023872464E+01  0.33570812976E+02  0.00000000000E+00 0. -1.
<mgrwt>
<rscale>  0 0.15679460E+03</rscale>
<asrwt>0</asrwt>
<pdfrwt beam="2">  1        1 0.25350161E-01 0.16291200E+03</pdfrwt>
<pdfrwt beam="1">  1       -1 0.21990373E-01 0.16291200E+03</pdfrwt>
<totfact> 0.31566041E+03</totfact>
</mgrwt>
</event>
<event>
 6    1  0.6101889E-006  0.1364972E+03  0.7546771E-02  0.1230403E+00
          2   -1    0    0  501    0  0.00000000000E+00  0.00000000000E+00  0.10808072884E+03  0.10808072884E+03  0.00000000000E+00 0.  1.
         -2   -1    0    0    0  501 -0.00000000000E+00 -0.00000000000E+00 -0.16386928646E+03  0.16386928646E+03  0.00000000000E+00 0. -1.
          5    1    1    2  502    0  0.17129006985E+02  0.26704997912E+02  0.40910192377E+02  0.51983590046E+02  0.47000000000E+01 0. -1.
         -5    1    1    2    0  502 -0.61176292990E+02 -0.59392618173E+02 -0.15691793180E+02  0.86823639009E+02  0.47000000000E+01 0. -1.
        -11    1    1    2    0    0  0.58269457394E+02  0.37607466941E+02 -0.22771795980E+02  0.72994560940E+02  0.00000000000E+00 0.  1.
         11    1    1    2    0    0 -0.14222171388E+02 -0.49198466797E+01 -0.58235160830E+02  0.60148225304E+02  0.00000000000E+00 0. -1.
<mgrwt>
<rscale>  0 0.12803375E+03</rscale>
<asrwt>0</asrwt>
<pdfrwt beam="1">  1        2 0.16627804E-01 0.13649718E+03</pdfrwt>
<pdfrwt beam="2">  1       -2 0.25210659E-01 0.13649718E+03</pdfrwt>
<totfact> 0.46099998E+03</totfact>
</mgrwt>
</event>
<event>
 6    1  0.6101889E-006  0.1369659E+03  0.7546771E-02  0.1224370E+00
         -1   -1    0    0    0  501 -0.00000000000E+00  0.00000000000E+00  0.26348992144E+02  0.26348992144E+02  0.00000000000E+00 0.  1.
          1   -1    0    0  501    0  0.00000000000E+00 -0.00000000000E+00 -0.62345403146E+03  0.62345403146E+03  0.00000000000E+00 0. -1.
          5    1    1    2  502    0  0.29020348070E+02 -0.26556601373E+02 -0.13264228452E+03  0.13843229147E+03  0.47000000000E+01 0. -1.
         -5    1    1    2    0  502 -0.69920377800E+02  0.64666103150E+02 -0.21370782628E+03  0.23401642922E+03  0.47000000000E+01 0. -1.
        -11    1    1    2    0    0 -0.18658798448E+02 -0.26523180527E+02 -0.18524625543E+03  0.18806330056E+03  0.00000000000E+00 0. -1.
         11    1    1    2    0    0  0.59558828179E+02 -0.11586321250E+02 -0.65508673079E+02  0.89291002361E+02  0.00000000000E+00 0.  1.
<mgrwt>
<rscale>  0 0.13210178E+03</rscale>
<asrwt>0</asrwt>
<pdfrwt beam="2">  1        1 0.95915996E-01 0.13696587E+03</pdfrwt>
<pdfrwt beam="1">  1       -1 0.40536915E-02 0.13696587E+03</pdfrwt>
<totfact> 0.77172354E+03</totfact>
</mgrwt>
</event>
<event>
 6    1  0.6101889E-006  0.1431446E+03  0.7546771E-02  0.1218410E+00
         -2   -1    0    0    0  501 -0.00000000000E+00  0.00000000000E+00  0.26318353192E+02  0.26318353192E+02  0.00000000000E+00 0.  1.
          2   -1    0    0  501    0  0.00000000000E+00 -0.00000000000E+00 -0.66686418923E+03  0.66686418923E+03  0.00000000000E+00 0. -1.
          5    1    1    2  502    0 -0.12907238859E+02 -0.41003325054E+02 -0.40166835461E+03  0.40398938919E+03  0.47000000000E+01 0.  1.
         -5    1    1    2    0  502  0.85685181639E+01 -0.28616610593E+02 -0.99904153049E+01  0.31846951241E+02  0.47000000000E+01 0.  1.
        -11    1    1    2    0    0  0.52139730685E+00  0.50090127765E+02 -0.23187462345E+03  0.23722380520E+03  0.00000000000E+00 0. -1.
         11    1    1    2    0    0  0.38173233880E+01  0.19529807882E+02  0.29875573285E+01  0.20122396789E+02  0.00000000000E+00 0.  1.
<mgrwt>
<rscale>  0 0.13629016E+03</rscale>
<asrwt>0</asrwt>
<pdfrwt beam="2">  1        2 0.10259449E+00 0.14314459E+03</pdfrwt>
<pdfrwt beam="1">  1       -2 0.40489773E-02 0.14314459E+03</pdfrwt>
<totfact> 0.11499861E+04</totfact>
</mgrwt>
</event>
<event>
 6    1  0.6101889E-006  0.1364290E+03  0.7546771E-02  0.1230625E+00
          2   -1    0    0  501    0  0.00000000000E+00  0.00000000000E+00  0.24106711657E+04  0.24106711657E+04  0.00000000000E+00 0.  1.
         -2   -1    0    0    0  501 -0.00000000000E+00 -0.00000000000E+00 -0.83840203472E+01  0.83840203472E+01  0.00000000000E+00 0. -1.
          5    1    1    2  502    0 -0.54301500587E+02  0.18376683019E+02  0.36880310097E+03  0.37326153395E+03  0.47000000000E+01 0. -1.
         -5    1    1    2    0  502  0.20016897477E+02  0.24158880005E+02  0.15767626925E+04  0.15770818007E+04  0.47000000000E+01 0. -1.
        -11    1    1    2    0    0  0.56409941437E+02 -0.54547557148E+02  0.30593060640E+03  0.31583390163E+03  0.00000000000E+00 0. -1.
         11    1    1    2    0    0 -0.22125338328E+02  0.12011994124E+02  0.15079074546E+03  0.15287794973E+03  0.00000000000E+00 0.  1.
<mgrwt>
<rscale>  0 0.12788740E+03</rscale>
<asrwt>0</asrwt>
<pdfrwt beam="1">  1        2 0.37087193E+00 0.13642898E+03</pdfrwt>
<pdfrwt beam="2">  1       -2 0.12898512E-02 0.13642898E+03</pdfrwt>
<totfact> 0.65710728E+03</totfact>
</mgrwt>
</event>
<event>
 6    1  0.6101889E-006  0.1581883E+03  0.7546771E-02  0.1198676E+00
          2   -1    0    0  501    0  0.00000000000E+00  0.00000000000E+00  0.22923233163E+03  0.22923233163E+03  0.00000000000E+00 0. -1.
         -2   -1    0    0    0  501 -0.00000000000E+00 -0.00000000000E+00 -0.92701555663E+02  0.92701555663E+02  0.00000000000E+00 0.  1.
          5    1    1    2  502    0  0.10415648370E+02 -0.33935286628E+02  0.94575073446E+02  0.10112677156E+03  0.47000000000E+01 0. -1.
         -5    1    1    2    0  502  0.44911714255E+02 -0.45668819513E+02 -0.28553907354E+02  0.70285978532E+02  0.47000000000E+01 0. -1.
        -11    1    1    2    0    0 -0.11406645823E+02  0.85973794751E+02  0.58268782778E+02  0.10448375950E+03  0.00000000000E+00 0.  1.
         11    1    1    2    0    0 -0.43920716802E+02 -0.63696886107E+01  0.12240827099E+02  0.46037377699E+02  0.00000000000E+00 0. -1.
<mgrwt>
<rscale>  0 0.15147167E+03</rscale>
<asrwt>0</asrwt>
<pdfrwt beam="1">  1        2 0.35266512E-01 0.15818829E+03</pdfrwt>
<pdfrwt beam="2">  1       -2 0.14261778E-01 0.15818829E+03</pdfrwt>
<totfact> 0.52687760E+03</totfact>
</mgrwt>
</event>
<event>
 6    1  0.6101889E-006  0.1187238E+03  0.7546771E-02  0.1320257E+00
         -2   -1    0    0    0  501 -0.00000000000E+00  0.00000000000E+00  0.10712621389E+02  0.10712621389E+02  0.00000000000E+00 0.  1.
          2   -1    0    0  501    0  0.00000000000E+00 -0.00000000000E+00 -0.53067867217E+03  0.53067867217E+03  0.00000000000E+00 0. -1.
          5    1    1    2  502    0  0.20035214227E+02  0.23729277974E+02 -0.37955718997E+03  0.38085461648E+03  0.47000000000E+01 0. -1.
         -5    1    1    2    0  502 -0.39883137605E+02 -0.27403123356E+02 -0.78478624472E+02  0.92317822406E+02  0.47000000000E+01 0.  1.
        -11    1    1    2    0    0  0.86597019132E+01 -0.73937194933E+01 -0.15781616367E+02  0.19460651076E+02  0.00000000000E+00 0. -1.
         11    1    1    2    0    0  0.11188221464E+02  0.11067564875E+02 -0.46148619977E+02  0.48758203592E+02  0.00000000000E+00 0.  1.
<mgrwt>
<rscale>  0 0.83181738E+02</rscale>
<asrwt>0</asrwt>
<pdfrwt beam="2">  1        2 0.81642876E-01 0.11872384E+03</pdfrwt>
<pdfrwt beam="1">  1       -2 0.16480955E-02 0.11872384E+03</pdfrwt>
<totfact> 0.54531326E+04</totfact>
</mgrwt>
</event>
<event>
 6    1  0.6101889E-006  0.1633178E+03  0.7546771E-02  0.1192424E+00
         -1   -1    0    0    0  501 -0.00000000000E+00  0.00000000000E+00  0.72564479545E+02  0.72564479545E+02  0.00000000000E+00 0.  1.
          1   -1    0    0  501    0  0.00000000000E+00 -0.00000000000E+00 -0.32590740102E+03  0.32590740102E+03  0.00000000000E+00 0. -1.
          5    1    1    2  502    0  0.51566952663E+02 -0.40452365773E+02 -0.13321493875E+03  0.14853906695E+03  0.47000000000E+01 0.  1.
         -5    1    1    2    0  502 -0.47902724012E+02 -0.64591737417E+02 -0.41474875940E+02  0.90603635935E+02  0.47000000000E+01 0.  1.
        -11    1    1    2    0    0  0.42691236478E+02  0.59288690191E+02 -0.35769009120E+02  0.81345635839E+02  0.00000000000E+00 0.  1.
         11    1    1    2    0    0 -0.46355465129E+02  0.45755412999E+02 -0.42884097665E+02  0.77983541844E+02  0.00000000000E+00 0. -1.
<mgrwt>
<rscale>  0 0.15674233E+03</rscale>
<asrwt>0</asrwt>
<pdfrwt beam="2">  1        1 0.50139601E-01 0.16331779E+03</pdfrwt>
<pdfrwt beam="1">  1       -1 0.11163766E-01 0.16331779E+03</pdfrwt>
<totfact> 0.39380622E+03</totfact>
</mgrwt>
</event>
<event>
 6    1  0.6101889E-006  0.1556338E+03  0.7546771E-02  0.1207901E+00
          2   -1    0    0  501    0  0.00000000000E+00  0.00000000000E+00  0.14519006443E+04  0.14519006443E+04  0.00000000000E+00 0. -1.
         -2   -1    0    0    0  501 -0.00000000000E+00 -0.00000000000E+00 -0.15875791747E+02  0.15875791747E+02  0.00000000000E+00 0.  1.
          5    1    1    2  502    0  0.55834474019E+01  0.52979294461E+02  0.11125903578E+04  0.11138749368E+04  0.47000000000E+01 0. -1.
         -5    1    1    2    0  502 -0.18232439008E+02  0.13763241538E+02  0.24533980551E+02  0.33850477862E+02  0.47000000000E+01 0.  1.
        -11    1    1    2    0    0  0.31335137416E+02 -0.22215735396E+01  0.18635209786E+03  0.18898129696E+03  0.00000000000E+00 0. -1.
         11    1    1    2    0    0 -0.18686145811E+02 -0.64520962459E+02  0.11254841633E+03  0.13106972443E+03  0.00000000000E+00 0.  1.
<mgrwt>
<rscale>  0 0.14411196E+03</rscale>
<asrwt>0</asrwt>
<pdfrwt beam="1">  1        2 0.22336923E+00 0.15563376E+03</pdfrwt>
<pdfrwt beam="2">  1       -2 0.24424306E-02 0.15563376E+03</pdfrwt>
<totfact> 0.81841590E+03</totfact>
</mgrwt>
</event>
<event>
 6    1  0.7255503E-006  0.2076473E+03  0.7546771E-02  0.1147334E+00
          1   -1    0    0  501    0  0.00000000000E+00  0.00000000000E+00  0.44213333988E+03  0.44213333988E+03  0.00000000000E+00 0. -1.
         -1   -1    0    0    0  501 -0.00000000000E+00 -0.00000000000E+00 -0.89187469368E+02  0.89187469368E+02  0.00000000000E+00 0.  1.
          5    1    1    2  502    0  0.24013232962E+02  0.67586029778E+01  0.26002646842E+00  0.25386446881E+02  0.47000000000E+01 0. -1.
         -5    1    1    2    0  502 -0.40980843784E+01 -0.17136651203E+03  0.19459205535E+03  0.25936737217E+03  0.47000000000E+01 0. -1.
        -11    1    1    2    0    0 -0.21310875250E+02  0.15573811775E+01  0.30856809618E+01  0.21589355410E+02  0.00000000000E+00 0. -1.
         11    1    1    2    0    0  0.13957266661E+01  0.16305052787E+03  0.15500810773E+03  0.22497763479E+03  0.00000000000E+00 0.  1.
<mgrwt>
<rscale>  0 0.20287689E+03</rscale>
<asrwt>0</asrwt>
<pdfrwt beam="1">  1        1 0.68020512E-01 0.20764731E+03</pdfrwt>
<pdfrwt beam="2">  1       -1 0.13721149E-01 0.20764731E+03</pdfrwt>
<totfact> 0.19553340E+03</totfact>
</mgrwt>
</event>
<event>
 6    1  0.6101889E-006  0.1341430E+03  0.7546771E-02  0.1235620E+00
          1   -1    0    0  501    0  0.00000000000E+00  0.00000000000E+00  0.11281340769E+04  0.11281340769E+04  0.00000000000E+00 0. -1.
         -1   -1    0    0    0  501 -0.00000000000E+00 -0.00000000000E+00 -0.13118110936E+02  0.13118110936E+02  0.00000000000E+00 0.  1.
          5    1    1    2  502    0  0.41285786847E+02 -0.87011782325E+01  0.28994725339E+03  0.29303877977E+03  0.47000000000E+01 0.  1.
         -5    1    1    2    0  502 -0.89164940515E+02  0.17445556457E+02  0.49632380385E+03  0.50459304625E+03  0.47000000000E+01 0.  1.
        -11    1    1    2    0    0  0.33131697019E+02 -0.44844663396E+02  0.24465957574E+03  0.25093238369E+03  0.00000000000E+00 0.  1.
         11    1    1    2    0    0  0.14747456649E+02  0.36100285172E+02  0.84085332996E+02  0.92687978143E+02  0.00000000000E+00 0. -1.
<mgrwt>
<rscale>  0 0.12464806E+03</rscale>
<asrwt>0</asrwt>
<pdfrwt beam="1">  1        1 0.17355901E+00 0.13414304E+03</pdfrwt>
<pdfrwt beam="2">  1       -1 0.20181718E-02 0.13414304E+03</pdfrwt>
<totfact> 0.84430358E+03</totfact>
</mgrwt>
</event>
<event>
 6    1  0.6101889E-006  0.1557764E+03  0.7546771E-02  0.1200904E+00
         -3   -1    0    0    0  501 -0.00000000000E+00  0.00000000000E+00  0.59748169627E+02  0.59748169627E+02  0.00000000000E+00 0.  1.
          3   -1    0    0  501    0  0.00000000000E+00 -0.00000000000E+00 -0.73866779770E+03  0.73866779770E+03  0.00000000000E+00 0. -1.
          5    1    1    2  502    0 -0.50185050694E+02 -0.10871983162E+03 -0.53391384496E+03  0.54719706225E+03  0.47000000000E+01 0.  1.
         -5    1    1    2    0  502  0.28787806987E+02  0.18267817345E+02 -0.10818437751E+03  0.11352709156E+03  0.47000000000E+01 0.  1.
        -11    1    1    2    0    0 -0.33505869649E+02  0.10346110667E+02 -0.15086331426E+02  0.38174372329E+02  0.00000000000E+00 0.  1.
         11    1    1    2    0    0  0.54903113355E+02  0.80105903609E+02 -0.21735074177E+02  0.99517441178E+02  0.00000000000E+00 0. -1.
<mgrwt>
<rscale>  0 0.14964948E+03</rscale>
<asrwt>0</asrwt>
<pdfrwt beam="2">  1        3 0.11364121E+00 0.15577638E+03</pdfrwt>
<pdfrwt beam="1">  1       -3 0.91920255E-02 0.15577638E+03</pdfrwt>
<totfact> 0.13625274E+02</totfact>
</mgrwt>
</event>
<event>
 6    1  0.6101889E-006  0.1972371E+03  0.7546771E-02  0.1155226E+00
          1   -1    0    0  501    0  0.00000000000E+00  0.00000000000E+00  0.79663495549E+03  0.79663495549E+03  0.00000000000E+00 0. -1.
         -1   -1    0    0    0  501 -0.00000000000E+00 -0.00000000000E+00 -0.48977309384E+02  0.48977309384E+02  0.00000000000E+00 0.  1.
          5    1    1    2  502    0  0.69091366528E+02  0.51527118839E+01  0.73012594923E+02  0.10076257433E+03  0.47000000000E+01 0. -1.
         -5    1    1    2    0  502  0.85214346774E+02  0.33399360902E+02  0.42744968108E+03  0.43716395329E+03  0.47000000000E+01 0.  1.
        -11    1    1    2    0    0 -0.11983943787E+03  0.12839031799E+02  0.14935361223E+03  0.19191881902E+03  0.00000000000E+00 0. -1.
         11    1    1    2    0    0 -0.34466275428E+02 -0.51391104585E+02  0.97841757867E+02  0.11576691822E+03  0.00000000000E+00 0.  1.
<mgrwt>
<rscale>  0 0.19363202E+03</rscale>
<asrwt>0</asrwt>
<pdfrwt beam="1">  1        1 0.12255921E+00 0.19723706E+03</pdfrwt>
<pdfrwt beam="2">  1       -1 0.75349713E-02 0.19723706E+03</pdfrwt>
<totfact> 0.21764762E+03</totfact>
</mgrwt>
</event>
<event>
 6    1  0.6101889E-006  0.1318860E+03  0.7546771E-02  0.1238471E+00
          2   -1    0    0  501    0  0.00000000000E+00  0.00000000000E+00  0.36252684949E+03  0.36252684949E+03  0.00000000000E+00 0. -1.
         -2   -1    0    0    0  501 -0.00000000000E+00 -0.00000000000E+00 -0.38159036721E+02  0.38159036721E+02  0.00000000000E+00 0.  1.
          5    1    1    2  502    0  0.43701773622E+02  0.60014399863E+02  0.11199872461E+03  0.13445213841E+03  0.47000000000E+01 0.  1.
         -5    1    1    2    0  502 -0.17991583517E+01 -0.56570030201E+02  0.10899076581E+03  0.12290029422E+03  0.47000000000E+01 0.  1.
        -11    1    1    2    0    0  0.88562227032E+01  0.33204023682E+02  0.52073296776E+02  0.62390448839E+02  0.00000000000E+00 0.  1.
         11    1    1    2    0    0 -0.50758837974E+02 -0.36648393344E+02  0.51305025566E+02  0.80943004735E+02  0.00000000000E+00 0. -1.
<mgrwt>
<rscale>  0 0.12284836E+03</rscale>
<asrwt>0</asrwt>
<pdfrwt beam="1">  1        2 0.55773359E-01 0.13188601E+03</pdfrwt>
<pdfrwt beam="2">  1       -2 0.58706213E-02 0.13188601E+03</pdfrwt>
<totfact> 0.12819480E+04</totfact>
</mgrwt>
</event>
<event>
 6    1  0.6101889E-006  0.1663787E+03  0.7546771E-02  0.1187495E+00
         -1   -1    0    0    0  501 -0.00000000000E+00  0.00000000000E+00  0.51935899460E+02  0.51935899460E+02  0.00000000000E+00 0.  1.
          1   -1    0    0  501    0  0.00000000000E+00 -0.00000000000E+00 -0.54105027540E+03  0.54105027540E+03  0.00000000000E+00 0. -1.
          5    1    1    2  502    0 -0.56479138748E+01  0.32115225220E+02 -0.22967166693E+03  0.23202252307E+03  0.47000000000E+01 0.  1.
         -5    1    1    2    0  502 -0.10116982996E+03 -0.66699280295E+01 -0.13580495253E+03  0.16954320265E+03  0.47000000000E+01 0.  1.
        -11    1    1    2    0    0  0.99930522339E+01 -0.41890958146E+02 -0.61928700587E+02  0.75431276164E+02  0.00000000000E+00 0. -1.
         11    1    1    2    0    0  0.96824691601E+02  0.16445660956E+02 -0.61709055899E+02  0.11598917298E+03  0.00000000000E+00 0.  1.
<mgrwt>
<rscale>  0 0.16106901E+03</rscale>
<asrwt>0</asrwt>
<pdfrwt beam="2">  1        1 0.83238508E-01 0.16637870E+03</pdfrwt>
<pdfrwt beam="1">  1       -1 0.79901380E-02 0.16637870E+03</pdfrwt>
<totfact> 0.34317288E+03</totfact>
</mgrwt>
</event>
<event>
 6    1  0.6101889E-006  0.2280895E+03  0.7546771E-02  0.1130878E+00
          1   -1    0    0  501    0  0.00000000000E+00  0.00000000000E+00  0.63385501470E+03  0.63385501470E+03  0.00000000000E+00 0. -1.
         -1   -1    0    0    0  501 -0.00000000000E+00 -0.00000000000E+00 -0.77627109984E+02  0.77627109984E+02  0.00000000000E+00 0.  1.
          5    1    1    2  502    0 -0.67284545269E+02 -0.76080630323E+02  0.20481968358E+03  0.22866714920E+03  0.47000000000E+01 0.  1.
         -5    1    1    2    0  502 -0.11317973697E+02 -0.97773576909E+02  0.41161518933E+02  0.10679011898E+03  0.47000000000E+01 0.  1.
        -11    1    1    2    0    0 -0.99909320170E+01  0.73751547561E+02  0.14915957436E+03  0.16669639502E+03  0.00000000000E+00 0. -1.
         11    1    1    2    0    0  0.88593450983E+02  0.10010265967E+03  0.16108712785E+03  0.20932846149E+03  0.00000000000E+00 0.  1.
<mgrwt>
<rscale>  0 0.22407902E+03</rscale>
<asrwt>0</asrwt>
<pdfrwt beam="1">  1        1 0.97516153E-01 0.22808951E+03</pdfrwt>
<pdfrwt beam="2">  1       -1 0.11942633E-01 0.22808951E+03</pdfrwt>
<totfact> 0.14996499E+03</totfact>
</mgrwt>
</event>
<event>
 6    1  0.6101889E-006  0.1325537E+03  0.7546771E-02  0.1238746E+00
         -1   -1    0    0    0  501 -0.00000000000E+00  0.00000000000E+00  0.57789648707E+03  0.57789648707E+03  0.00000000000E+00 0.  1.
          1   -1    0    0  501    0  0.00000000000E+00 -0.00000000000E+00 -0.23326403921E+02  0.23326403921E+02  0.00000000000E+00 0. -1.
          5    1    1    2  502    0  0.90401269418E+01  0.21367101934E+02  0.27851754627E+03  0.27952171744E+03  0.47000000000E+01 0.  1.
         -5    1    1    2    0  502  0.25831528927E+02  0.56297651047E+01 -0.22026886403E+01  0.26942605276E+02  0.47000000000E+01 0.  1.
        -11    1    1    2    0    0 -0.55826038821E+02  0.74930098806E+01  0.17745425534E+03  0.18617922695E+03  0.00000000000E+00 0.  1.
         11    1    1    2    0    0  0.20954382952E+02 -0.34489876919E+02  0.10080097018E+03  0.10857934133E+03  0.00000000000E+00 0. -1.
<mgrwt>
<rscale>  0 0.12267639E+03</rscale>
<asrwt>0</asrwt>
<pdfrwt beam="2">  1        1 0.35886780E-02 0.13255369E+03</pdfrwt>
<pdfrwt beam="1">  1       -1 0.88907141E-01 0.13255369E+03</pdfrwt>
<totfact> 0.33176546E+03</totfact>
</mgrwt>
</event>
<event>
 6    1  0.6101889E-006  0.1296221E+03  0.7546771E-02  0.1242097E+00
          1   -1    0    0  501    0  0.00000000000E+00  0.00000000000E+00  0.57450759490E+03  0.57450759490E+03  0.00000000000E+00 0. -1.
         -1   -1    0    0    0  501 -0.00000000000E+00 -0.00000000000E+00 -0.30435198536E+02  0.30435198536E+02  0.00000000000E+00 0.  1.
          5    1    1    2  502    0  0.49901749367E+02  0.15458169373E+02  0.25184167819E+03  0.25724591438E+03  0.47000000000E+01 0. -1.
         -5    1    1    2    0  502 -0.53325594584E+02 -0.49562716867E+02  0.20327018692E+03  0.21596513800E+03  0.47000000000E+01 0. -1.
        -11    1    1    2    0    0 -0.42742150071E+02  0.17719210437E+02  0.56213928203E+02  0.72807056905E+02  0.00000000000E+00 0.  1.
         11    1    1    2    0    0  0.46165995289E+02  0.16385337057E+02  0.32746603055E+02  0.58924684158E+02  0.00000000000E+00 0. -1.
<mgrwt>
<rscale>  0 0.12060814E+03</rscale>
<asrwt>0</asrwt>
<pdfrwt beam="1">  1        1 0.88385776E-01 0.12962211E+03</pdfrwt>
<pdfrwt beam="2">  1       -1 0.46823387E-02 0.12962211E+03</pdfrwt>
<totfact> 0.69529186E+03</totfact>
</mgrwt>
</event>
<event>
 6    1  0.6101889E-006  0.1890369E+03  0.7546771E-02  0.1164140E+00
          1   -1    0    0  501    0  0.00000000000E+00  0.00000000000E+00  0.13053843069E+04  0.13053843069E+04  0.00000000000E+00 0. -1.
         -1   -1    0    0    0  501 -0.00000000000E+00 -0.00000000000E+00 -0.25082353803E+02  0.25082353803E+02  0.00000000000E+00 0.  1.
          5    1    1    2  502    0 -0.81590990902E+02  0.72624746631E+02  0.30056601759E+03  0.31983349504E+03  0.47000000000E+01 0.  1.
         -5    1    1    2    0  502  0.19127113177E+02  0.54647781653E+02  0.47024263853E+03  0.47381690091E+03  0.47000000000E+01 0.  1.
        -11    1    1    2    0    0  0.40306243289E+02 -0.15307678078E+02  0.65721064843E+02  0.78601377980E+02  0.00000000000E+00 0.  1.
         11    1    1    2    0    0  0.22157634435E+02 -0.11196485021E+03  0.44377223214E+03  0.45821488677E+03  0.00000000000E+00 0. -1.
<mgrwt>
<rscale>  0 0.18383725E+03</rscale>
<asrwt>0</asrwt>
<pdfrwt beam="1">  1        1 0.20082830E+00 0.18903695E+03</pdfrwt>
<pdfrwt beam="2">  1       -1 0.38588247E-02 0.18903695E+03</pdfrwt>
<totfact> 0.25033929E+03</totfact>
</mgrwt>
</event>
<event>
 6    1  0.6101889E-006  0.2767278E+03  0.7546771E-02  0.1097490E+00
         -2   -1    0    0    0  501 -0.00000000000E+00  0.00000000000E+00  0.14617966547E+02  0.14617966547E+02  0.00000000000E+00 0.  1.
          2   -1    0    0  501    0  0.00000000000E+00 -0.00000000000E+00 -0.13096603251E+04  0.13096603251E+04  0.00000000000E+00 0. -1.
          5    1    1    2  502    0  0.98699424234E+01 -0.20379659848E+00 -0.43910298899E+01  0.11782548111E+02  0.47000000000E+01 0. -1.
         -5    1    1    2    0  502  0.47696783150E+01 -0.39034964775E+02 -0.10603172373E+04  0.10610566488E+04  0.47000000000E+01 0. -1.
        -11    1    1    2    0    0  0.30495683218E+02  0.25066116896E+02 -0.43643406332E+02  0.58847632301E+02  0.00000000000E+00 0.  1.
         11    1    1    2    0    0 -0.45135303956E+02  0.14172644477E+02 -0.18669068500E+03  0.19259146238E+03  0.00000000000E+00 0. -1.
<mgrwt>
<rscale>  0 0.27672781E+03</rscale>
<asrwt>0</asrwt>
<pdfrwt beam="2">  1        2 0.20148626E+00 0.27672781E+03</pdfrwt>
<pdfrwt beam="1">  1       -2 0.22489173E-02 0.27672781E+03</pdfrwt>
<totfact> 0.11260456E+04</totfact>
</mgrwt>
</event>
<event>
 6    1  0.6101889E-006  0.1282258E+03  0.7546771E-02  0.1243852E+00
         -2   -1    0    0    0  501 -0.00000000000E+00  0.00000000000E+00  0.17162368524E+03  0.17162368524E+03  0.00000000000E+00 0.  1.
          2   -1    0    0  501    0  0.00000000000E+00 -0.00000000000E+00 -0.77693641970E+02  0.77693641970E+02  0.00000000000E+00 0. -1.
          5    1    1    2  502    0 -0.42593895656E+02  0.11289988626E+02  0.39954369123E+02  0.59666954023E+02  0.47000000000E+01 0.  1.
         -5    1    1    2    0  502  0.69432129159E+02 -0.14444346402E+01 -0.14401188214E+02  0.71080174260E+02  0.47000000000E+01 0.  1.
        -11    1    1    2    0    0  0.14162305444E+02  0.10532798475E+01  0.74379625536E+02  0.75723239423E+02  0.00000000000E+00 0.  1.
         11    1    1    2    0    0 -0.41000538946E+02 -0.10898833833E+02 -0.60027631763E+01  0.42846959502E+02  0.00000000000E+00 0. -1.
<mgrwt>
<rscale>  0 0.11954380E+03</rscale>
<asrwt>0</asrwt>
<pdfrwt beam="2">  1        2 0.11952868E-01 0.12822576E+03</pdfrwt>
<pdfrwt beam="1">  1       -2 0.26403644E-01 0.12822576E+03</pdfrwt>
<totfact> 0.62453844E+03</totfact>
</mgrwt>
</event>
<event>
 6    1  0.6101889E-006  0.3201464E+03  0.7546771E-02  0.1075582E+00
         -2   -1    0    0    0  501 -0.00000000000E+00  0.00000000000E+00  0.83676936911E+02  0.83676936911E+02  0.00000000000E+00 0. -1.
          2   -1    0    0  501    0  0.00000000000E+00 -0.00000000000E+00 -0.30621861099E+03  0.30621861099E+03  0.00000000000E+00 0.  1.
          5    1    1    2  502    0  0.33042255783E+01 -0.32940330764E+02 -0.18351392053E+02  0.38142455188E+02  0.47000000000E+01 0. -1.
         -5    1    1    2    0  502 -0.84876506949E+02  0.76147780175E+02 -0.19241079434E+03  0.22371077228E+03  0.47000000000E+01 0. -1.
        -11    1    1    2    0    0  0.51861597651E+02  0.60997253609E+01  0.26848292293E+02  0.58716801339E+02  0.00000000000E+00 0. -1.
         11    1    1    2    0    0  0.29710683720E+02 -0.49307174772E+02 -0.38627779983E+02  0.69325519093E+02  0.00000000000E+00 0.  1.
<mgrwt>
<rscale>  0 0.32014644E+03</rscale>
<asrwt>0</asrwt>
<pdfrwt beam="2">  1        2 0.47110556E-01 0.32014644E+03</pdfrwt>
<pdfrwt beam="1">  1       -2 0.12873375E-01 0.32014644E+03</pdfrwt>
<totfact> 0.47139513E+03</totfact>
</mgrwt>
</event>
<event>
 6    1  0.6101889E-006  0.1341128E+03  0.7546771E-02  0.1234271E+00
          1   -1    0    0  501    0  0.00000000000E+00  0.00000000000E+00  0.41983722494E+03  0.41983722494E+03  0.00000000000E+00 0. -1.
         -1   -1    0    0    0  501 -0.00000000000E+00 -0.00000000000E+00 -0.35621061661E+02  0.35621061661E+02  0.00000000000E+00 0.  1.
          5    1    1    2  502    0 -0.83609495649E+02 -0.33212178894E+02  0.18114518828E+03  0.20230982632E+03  0.47000000000E+01 0.  1.
         -5    1    1    2    0  502  0.43326441513E+02  0.62000939652E+01  0.90557765808E+02  0.10068972464E+03  0.47000000000E+01 0.  1.
        -11    1    1    2    0    0  0.64158364621E+02  0.26016268471E+02  0.10777718134E+03  0.12809786413E+03  0.00000000000E+00 0. -1.
         11    1    1    2    0    0 -0.23875310485E+02  0.99581645744E+00  0.47360278506E+01  0.24360871515E+02  0.00000000000E+00 0.  1.
<mgrwt>
<rscale>  0 0.12551224E+03</rscale>
<asrwt>0</asrwt>
<pdfrwt beam="1">  1        1 0.64590339E-01 0.13411276E+03</pdfrwt>
<pdfrwt beam="2">  1       -1 0.54801636E-02 0.13411276E+03</pdfrwt>
<totfact> 0.83027748E+03</totfact>
</mgrwt>
</event>
<event>
 6    1  0.6101889E-006  0.1268748E+03  0.7546771E-02  0.1249700E+00
         -1   -1    0    0    0  501 -0.00000000000E+00  0.00000000000E+00  0.13526214953E+02  0.13526214953E+02  0.00000000000E+00 0.  1.
          1   -1    0    0  501    0  0.00000000000E+00 -0.00000000000E+00 -0.99008969559E+03  0.99008969559E+03  0.00000000000E+00 0. -1.
          5    1    1    2  502    0 -0.50531819359E+02 -0.78517877358E+01 -0.21133781498E+03  0.21748764880E+03  0.47000000000E+01 0.  1.
         -5    1    1    2    0  502  0.66084684212E+02  0.23127665886E+02 -0.53060245969E+03  0.53522250948E+03  0.47000000000E+01 0.  1.
        -11    1    1    2    0    0 -0.13555459182E+02  0.35263598794E+02 -0.86673423900E+02  0.94549216200E+02  0.00000000000E+00 0.  1.
         11    1    1    2    0    0 -0.19974056707E+01 -0.50539476944E+02 -0.14794978206E+03  0.15635653606E+03  0.00000000000E+00 0. -1.
<mgrwt>
<rscale>  0 0.11608435E+03</rscale>
<asrwt>0</asrwt>
<pdfrwt beam="2">  1        1 0.15232158E+00 0.12687479E+03</pdfrwt>
<pdfrwt beam="1">  1       -1 0.20809549E-02 0.12687479E+03</pdfrwt>
<totfact> 0.10105975E+04</totfact>
</mgrwt>
</event>
<event>
 6    1  0.6101889E-006  0.1304863E+03  0.7546771E-02  0.1241193E+00
          2   -1    0    0  501    0  0.00000000000E+00  0.00000000000E+00  0.12721446705E+03  0.12721446705E+03  0.00000000000E+00 0. -1.
         -2   -1    0    0    0  501 -0.00000000000E+00 -0.00000000000E+00 -0.12262060401E+03  0.12262060401E+03  0.00000000000E+00 0.  1.
          5    1    1    2  502    0  0.44072949081E+02  0.18708341440E+02 -0.64568429150E+01  0.48540783889E+02  0.47000000000E+01 0.  1.
         -5    1    1    2    0  502 -0.42228428542E+02 -0.56064175595E+02  0.60168958850E+02  0.92567951103E+02  0.47000000000E+01 0.  1.
        -11    1    1    2    0    0 -0.54764591259E+01  0.56832732106E+02 -0.14608947146E+01  0.57114667613E+02  0.00000000000E+00 0. -1.
         11    1    1    2    0    0  0.36319385867E+01 -0.19476897951E+02 -0.47657358180E+02  0.51611668452E+02  0.00000000000E+00 0.  1.
<mgrwt>
<rscale>  0 0.12116178E+03</rscale>
<asrwt>0</asrwt>
<pdfrwt beam="1">  1        2 0.19571457E-01 0.13048634E+03</pdfrwt>
<pdfrwt beam="2">  1       -2 0.18864708E-01 0.13048634E+03</pdfrwt>
<totfact> 0.62661382E+03</totfact>
</mgrwt>
</event>
<event>
 6    1  0.6101889E-006  0.1336371E+03  0.7546771E-02  0.1235162E+00
         -1   -1    0    0    0  501 -0.00000000000E+00  0.00000000000E+00  0.82648753981E+02  0.82648753981E+02  0.00000000000E+00 0.  1.
          1   -1    0    0  501    0  0.00000000000E+00 -0.00000000000E+00 -0.17326751256E+03  0.17326751256E+03  0.00000000000E+00 0. -1.
          5    1    1    2  502    0 -0.32655963086E+02  0.15205060581E+02  0.12346859138E+02  0.38368486065E+02  0.47000000000E+01 0. -1.
         -5    1    1    2    0  502  0.43924107395E+02 -0.61101868290E+02 -0.85442878291E+02  0.11395324028E+03  0.47000000000E+01 0. -1.
        -11    1    1    2    0    0  0.39284930119E+02  0.26458334632E+02 -0.13664882471E+02  0.49295823544E+02  0.00000000000E+00 0. -1.
         11    1    1    2    0    0 -0.50553074428E+02  0.19438473078E+02 -0.38578569523E+01  0.54298716651E+02  0.00000000000E+00 0.  1.
<mgrwt>
<rscale>  0 0.12494064E+03</rscale>
<asrwt>0</asrwt>
<pdfrwt beam="2">  1        1 0.26656540E-01 0.13363712E+03</pdfrwt>
<pdfrwt beam="1">  1       -1 0.12715193E-01 0.13363712E+03</pdfrwt>
<totfact> 0.69821246E+03</totfact>
</mgrwt>
</event>
<event>
 6    1  0.6101889E-006  0.1427814E+03  0.7546771E-02  0.1219670E+00
         -2   -1    0    0    0  501 -0.00000000000E+00  0.00000000000E+00  0.57684331972E+02  0.57684331972E+02  0.00000000000E+00 0. -1.
          2   -1    0    0  501    0  0.00000000000E+00 -0.00000000000E+00 -0.29268580152E+03  0.29268580152E+03  0.00000000000E+00 0.  1.
          5    1    1    2  502    0 -0.14424798787E+02 -0.62942409036E+02 -0.19574218538E+02  0.67639202439E+02  0.47000000000E+01 0.  1.
         -5    1    1    2    0  502 -0.42934815253E+02  0.24582421111E+02 -0.12984767004E+03  0.13903309391E+03  0.47000000000E+01 0.  1.
        -11    1    1    2    0    0  0.26217793811E+02  0.35294500648E+02 -0.10000304021E+03  0.10924139572E+03  0.00000000000E+00 0.  1.
         11    1    1    2    0    0  0.31141820229E+02  0.30654872771E+01  0.14423459231E+02  0.34456441424E+02  0.00000000000E+00 0. -1.
<mgrwt>
<rscale>  0 0.13539045E+03</rscale>
<asrwt>0</asrwt>
<pdfrwt beam="2">  1        2 0.45028585E-01 0.14278143E+03</pdfrwt>
<pdfrwt beam="1">  1       -2 0.88745126E-02 0.14278143E+03</pdfrwt>
<totfact> 0.85831810E+03</totfact>
</mgrwt>
</event>
<event>
 6    1  0.6101889E-006  0.1345508E+03  0.7546771E-02  0.1232633E+00
         -1   -1    0    0    0  501 -0.00000000000E+00  0.00000000000E+00  0.22801273265E+02  0.22801273265E+02  0.00000000000E+00 0.  1.
          1   -1    0    0  501    0  0.00000000000E+00 -0.00000000000E+00 -0.63627292750E+03  0.63627292750E+03  0.00000000000E+00 0. -1.
          5    1    1    2  502    0 -0.50960234482E+02 -0.21788554501E+02 -0.36296544097E+03  0.36720251626E+03  0.47000000000E+01 0.  1.
         -5    1    1    2    0  502  0.14819627030E+01  0.27276824974E+02 -0.10295012235E+02  0.29568541916E+02  0.47000000000E+01 0.  1.
        -11    1    1    2    0    0 -0.43377459269E+00  0.15864480373E+02  0.16664403215E+00  0.15871284388E+02  0.00000000000E+00 0.  1.
         11    1    1    2    0    0  0.49912046372E+02 -0.21352750846E+02 -0.24037784506E+03  0.24643185821E+03  0.00000000000E+00 0. -1.
<mgrwt>
<rscale>  0 0.12657193E+03</rscale>
<asrwt>0</asrwt>
<pdfrwt beam="2">  1        1 0.97888134E-01 0.13455076E+03</pdfrwt>
<pdfrwt beam="1">  1       -1 0.35078885E-02 0.13455076E+03</pdfrwt>
<totfact> 0.92646806E+03</totfact>
</mgrwt>
</event>
<event>
 6    1  0.6101889E-006  0.1513037E+03  0.7546771E-02  0.1221818E+00
          2   -1    0    0  501    0  0.00000000000E+00  0.00000000000E+00  0.12438429860E+04  0.12438429860E+04  0.00000000000E+00 0. -1.
         -2   -1    0    0    0  501 -0.00000000000E+00 -0.00000000000E+00 -0.13613581242E+03  0.13613581242E+03  0.00000000000E+00 0.  1.
          5    1    1    2  502    0  0.12084155450E+00 -0.63551810592E+02  0.10490051231E+04  0.10509389542E+04  0.47000000000E+01 0. -1.
         -5    1    1    2    0  502  0.10268384418E+02  0.49966274553E+02  0.17382326274E+03  0.18121447233E+03  0.47000000000E+01 0.  1.
        -11    1    1    2    0    0  0.37360269145E+02  0.98347141526E+01 -0.25748512916E+02  0.46427332795E+02  0.00000000000E+00 0. -1.
         11    1    1    2    0    0 -0.47749495118E+02  0.37508218869E+01 -0.89372699317E+02  0.10139803909E+03  0.00000000000E+00 0.  1.
<mgrwt>
<rscale>  0 0.13387391E+03</rscale>
<asrwt>0</asrwt>
<pdfrwt beam="1">  1        2 0.19136045E+00 0.15130369E+03</pdfrwt>
<pdfrwt beam="2">  1       -2 0.20943972E-01 0.15130369E+03</pdfrwt>
<totfact> 0.37604012E+02</totfact>
</mgrwt>
</event>
<event>
 6    1  0.6101889E-006  0.1424840E+03  0.7546771E-02  0.1220535E+00
         -2   -1    0    0    0  501 -0.00000000000E+00  0.00000000000E+00  0.13650997037E+02  0.13650997037E+02  0.00000000000E+00 0. -1.
          2   -1    0    0  501    0  0.00000000000E+00 -0.00000000000E+00 -0.14282747386E+04  0.14282747386E+04  0.00000000000E+00 0.  1.
          5    1    1    2  502    0 -0.39009691123E+01  0.53924257032E+02 -0.15328994756E+03  0.16261285644E+03  0.47000000000E+01 0. -1.
         -5    1    1    2    0  502 -0.16872045110E+02  0.11227427684E+02 -0.90346544995E+03  0.90370494648E+03  0.47000000000E+01 0. -1.
        -11    1    1    2    0    0  0.15822763050E+02  0.10510393322E+02 -0.14311559294E+02  0.23783375029E+02  0.00000000000E+00 0. -1.
         11    1    1    2    0    0  0.49502511729E+01 -0.75662078038E+02 -0.34355678478E+03  0.35182455771E+03  0.00000000000E+00 0.  1.
<mgrwt>
<rscale>  0 0.13477699E+03</rscale>
<asrwt>0</asrwt>
<pdfrwt beam="2">  1        2 0.21973455E+00 0.14248399E+03</pdfrwt>
<pdfrwt beam="1">  1       -2 0.21001536E-02 0.14248399E+03</pdfrwt>
<totfact> 0.10462759E+04</totfact>
</mgrwt>
</event>
<event>
 6    1  0.6101889E-006  0.1355012E+03  0.7546771E-02  0.1231200E+00
          2   -1    0    0  501    0  0.00000000000E+00  0.00000000000E+00  0.82644271427E+02  0.82644271427E+02  0.00000000000E+00 0.  1.
         -2   -1    0    0    0  501 -0.00000000000E+00 -0.00000000000E+00 -0.18548697214E+03  0.18548697214E+03  0.00000000000E+00 0. -1.
          5    1    1    2  502    0  0.23071575469E+02  0.56570673321E+00  0.48962126576E+02  0.54332287432E+02  0.47000000000E+01 0.  1.
         -5    1    1    2    0  502  0.25341349721E+02 -0.20249494915E+02 -0.77493515039E+02  0.84140126712E+02  0.47000000000E+01 0.  1.
        -11    1    1    2    0    0 -0.46860091312E+02  0.39256739009E+02 -0.86964490619E+02  0.10630043435E+03  0.00000000000E+00 0. -1.
         11    1    1    2    0    0 -0.15528338781E+01 -0.19572950827E+02  0.12653178372E+02  0.23358395065E+02  0.00000000000E+00 0.  1.
<mgrwt>
<rscale>  0 0.12750887E+03</rscale>
<asrwt>0</asrwt>
<pdfrwt beam="1">  1        2 0.12714503E-01 0.13550118E+03</pdfrwt>
<pdfrwt beam="2">  1       -2 0.28536457E-01 0.13550118E+03</pdfrwt>
<totfact> 0.50747378E+03</totfact>
</mgrwt>
</event>
<event>
 6    1  0.6101889E-006  0.4659610E+03  0.7546771E-02  0.1023066E+00
         -1   -1    0    0    0  501 -0.00000000000E+00  0.00000000000E+00  0.22585759308E+02  0.22585759308E+02  0.00000000000E+00 0.  1.
          1   -1    0    0  501    0  0.00000000000E+00 -0.00000000000E+00 -0.24032806711E+04  0.24032806711E+04  0.00000000000E+00 0. -1.
          5    1    1    2  502    0 -0.13493767156E+03  0.86329301419E+02 -0.15565513056E+04  0.15647795309E+04  0.47000000000E+01 0. -1.
         -5    1    1    2    0  502  0.61485245915E+01 -0.24763842731E+02 -0.44501889928E+03  0.44577456519E+03  0.47000000000E+01 0. -1.
        -11    1    1    2    0    0  0.86872248341E+02 -0.82241097041E+02 -0.23331992529E+03  0.26219949106E+03  0.00000000000E+00 0.  1.
         11    1    1    2    0    0  0.41916898629E+02  0.20675638352E+02 -0.14580478166E+03  0.15311284325E+03  0.00000000000E+00 0. -1.
<mgrwt>
<rscale>  0 0.46596102E+03</rscale>
<asrwt>0</asrwt>
<pdfrwt beam="2">  1        1 0.36973563E+00 0.46596102E+03</pdfrwt>
<pdfrwt beam="1">  1       -1 0.34747309E-02 0.46596102E+03</pdfrwt>
<totfact> 0.54416410E+02</totfact>
</mgrwt>
</event>
<event>
 6    1  0.6101889E-006  0.1413445E+03  0.7546771E-02  0.1222405E+00
         -1   -1    0    0    0  501 -0.00000000000E+00  0.00000000000E+00  0.46817948030E+02  0.46817948030E+02  0.00000000000E+00 0.  1.
          1   -1    0    0  501    0  0.00000000000E+00 -0.00000000000E+00 -0.34935306978E+03  0.34935306978E+03  0.00000000000E+00 0. -1.
          5    1    1    2  502    0  0.30407726821E+02 -0.19031562176E+02  0.67577042044E+01  0.36804711321E+02  0.47000000000E+01 0. -1.
         -5    1    1    2    0  502  0.31916827927E+02 -0.26665261601E+01 -0.20005684651E+03  0.20265889101E+03  0.47000000000E+01 0. -1.
        -11    1    1    2    0    0 -0.40280812929E+02  0.47429304113E+02 -0.10567969248E+03  0.12263882004E+03  0.00000000000E+00 0. -1.
         11    1    1    2    0    0 -0.22043741819E+02 -0.25731215777E+02 -0.35562869662E+01  0.34068595447E+02  0.00000000000E+00 0.  1.
<mgrwt>
<rscale>  0 0.13346328E+03</rscale>
<asrwt>0</asrwt>
<pdfrwt beam="2">  1        1 0.53746624E-01 0.14134447E+03</pdfrwt>
<pdfrwt beam="1">  1       -1 0.72027615E-02 0.14134447E+03</pdfrwt>
<totfact> 0.69787840E+03</totfact>
</mgrwt>
</event>
<event>
 6    1  0.6101889E-006  0.2501984E+03  0.7546771E-02  0.1152411E+00
         -2   -1    0    0    0  501 -0.00000000000E+00  0.00000000000E+00  0.32438385558E+03  0.32438385558E+03  0.00000000000E+00 0.  1.
          2   -1    0    0  501    0  0.00000000000E+00 -0.00000000000E+00 -0.94491299200E+02  0.94491299200E+02  0.00000000000E+00 0. -1.
          5    1    1    2  502    0 -0.79509848080E+02 -0.75289120650E+02 -0.16954858636E+02  0.11090457547E+03  0.47000000000E+01 0. -1.
         -5    1    1    2    0  502  0.63488596201E+02  0.52079604409E+02  0.15345212753E+03  0.17410552112E+03  0.47000000000E+01 0.  1.
        -11    1    1    2    0    0  0.22171535954E+01 -0.32455503350E+02  0.57915404736E+02  0.66426422254E+02  0.00000000000E+00 0.  1.
         11    1    1    2    0    0  0.13804098283E+02  0.55665019591E+02  0.35479882751E+02  0.67438635926E+02  0.00000000000E+00 0. -1.
<mgrwt>
<rscale>  0 0.19686578E+03</rscale>
<asrwt>0</asrwt>
<pdfrwt beam="2">  1        2 0.14537123E-01 0.25019842E+03</pdfrwt>
<pdfrwt beam="1">  1       -2 0.49905208E-01 0.25019842E+03</pdfrwt>
<totfact> 0.15532110E+03</totfact>
</mgrwt>
</event>
<event>
 6    1  0.6101889E-006  0.2614700E+03  0.7546771E-02  0.1107521E+00
         -1   -1    0    0    0  501 -0.00000000000E+00  0.00000000000E+00  0.72846764004E+03  0.72846764004E+03  0.00000000000E+00 0.  1.
          1   -1    0    0  501    0  0.00000000000E+00 -0.00000000000E+00 -0.13270561363E+03  0.13270561363E+03  0.00000000000E+00 0. -1.
          5    1    1    2  502    0  0.14202101745E+03  0.69191521977E+02 -0.99266097940E+01  0.15836054968E+03  0.47000000000E+01 0. -1.
         -5    1    1    2    0  502  0.84833606055E+02 -0.38954084994E+01  0.69433836047E+02  0.10979554869E+03  0.47000000000E+01 0.  1.
        -11    1    1    2    0    0 -0.11048473018E+03  0.11076536248E+02  0.19381897768E+03  0.22337269611E+03  0.00000000000E+00 0. -1.
         11    1    1    2    0    0 -0.11636989333E+03 -0.76372649726E+02  0.34243582247E+03  0.36964445919E+03  0.00000000000E+00 0.  1.
<mgrwt>
<rscale>  0 0.25937244E+03</rscale>
<asrwt>0</asrwt>
<pdfrwt beam="2">  1        1 0.20416249E-01 0.26147004E+03</pdfrwt>
<pdfrwt beam="1">  1       -1 0.11207194E+00 0.26147004E+03</pdfrwt>
<totfact> 0.19424210E+02</totfact>
</mgrwt>
</event>
<event>
 6    1  0.6101889E-006  0.2783256E+03  0.7546771E-02  0.1096607E+00
          4   -1    0    0  501    0  0.00000000000E+00  0.00000000000E+00  0.32720987926E+03  0.32720987926E+03  0.00000000000E+00 0.  1.
         -4   -1    0    0    0  501 -0.00000000000E+00 -0.00000000000E+00 -0.59186114437E+02  0.59186114437E+02  0.00000000000E+00 0. -1.
          5    1    1    2  502    0 -0.10340930595E+03  0.49522128460E+02  0.12678569268E+03  0.17100475910E+03  0.47000000000E+01 0.  1.
         -5    1    1    2    0  502  0.32435483028E+02 -0.96416506385E+01  0.45439875325E+02  0.56849751590E+02  0.47000000000E+01 0.  1.
        -11    1    1    2    0    0  0.63749022855E+02 -0.79288024347E+01  0.10624616756E+03  0.12415736766E+03  0.00000000000E+00 0.  1.
         11    1    1    2    0    0  0.72248000693E+01 -0.31951675387E+02 -0.10447970741E+02  0.34384115354E+02  0.00000000000E+00 0. -1.
<mgrwt>
<rscale>  0 0.27832557E+03</rscale>
<asrwt>0</asrwt>
<pdfrwt beam="1">  1        4 0.50339980E-01 0.27832557E+03</pdfrwt>
<pdfrwt beam="2">  1       -4 0.91055563E-02 0.27832557E+03</pdfrwt>
<totfact> 0.63838294E+02</totfact>
</mgrwt>
</event>
<event>
 6    1  0.6101889E-006  0.1249680E+03  0.7546771E-02  0.1288013E+00
         -2   -1    0    0    0  501 -0.00000000000E+00  0.00000000000E+00  0.11862557378E+02  0.11862557378E+02  0.00000000000E+00 0.  1.
          2   -1    0    0  501    0  0.00000000000E+00 -0.00000000000E+00 -0.63294082346E+03  0.63294082346E+03  0.00000000000E+00 0. -1.
          5    1    1    2  502    0  0.22542078375E+02  0.61892723453E+02 -0.27405098653E+03  0.28189517153E+03  0.47000000000E+01 0. -1.
         -5    1    1    2    0  502 -0.11426376109E+02 -0.57613024315E+02 -0.23900872741E+03  0.24616475057E+03  0.47000000000E+01 0.  1.
        -11    1    1    2    0    0  0.10199347648E+02  0.78483465930E+01 -0.72174231452E+02  0.73312638217E+02  0.00000000000E+00 0. -1.
         11    1    1    2    0    0 -0.21315049913E+02 -0.12128045730E+02 -0.35844320694E+02  0.43430820532E+02  0.00000000000E+00 0.  1.
<mgrwt>
<rscale>  0 0.96418347E+02</rscale>
<asrwt>0</asrwt>
<pdfrwt beam="2">  1        2 0.97375518E-01 0.12496804E+03</pdfrwt>
<pdfrwt beam="1">  1       -2 0.18250087E-02 0.12496804E+03</pdfrwt>
<totfact> 0.38826657E+04</totfact>
</mgrwt>
</event>
<event>
 6    1  0.6101889E-006  0.1471769E+03  0.7546771E-02  0.1213085E+00
          2   -1    0    0  501    0  0.00000000000E+00  0.00000000000E+00  0.11146083279E+04  0.11146083279E+04  0.00000000000E+00 0. -1.
         -2   -1    0    0    0  501 -0.00000000000E+00 -0.00000000000E+00 -0.18385910440E+02  0.18385910440E+02  0.00000000000E+00 0.  1.
          5    1    1    2  502    0 -0.84786637910E+02  0.47901817225E+02  0.56936612222E+03  0.57765320842E+03  0.47000000000E+01 0. -1.
         -5    1    1    2    0  502  0.44758121011E+02  0.18681913277E+02  0.22237736606E+03  0.22765343445E+03  0.47000000000E+01 0. -1.
        -11    1    1    2    0    0  0.51937066152E+02 -0.15809997620E+01  0.98469646519E+02  0.11133835676E+03  0.00000000000E+00 0.  1.
         11    1    1    2    0    0 -0.11908549252E+02 -0.65002730740E+02  0.20600928262E+03  0.21634923868E+03  0.00000000000E+00 0. -1.
<mgrwt>
<rscale>  0 0.14018125E+03</rscale>
<asrwt>0</asrwt>
<pdfrwt beam="1">  1        2 0.17147815E+00 0.14717689E+03</pdfrwt>
<pdfrwt beam="2">  1       -2 0.28286025E-02 0.14717689E+03</pdfrwt>
<totfact> 0.10056576E+04</totfact>
</mgrwt>
</event>
<event>
 6    1  0.6101889E-006  0.1540838E+03  0.7546771E-02  0.1207752E+00
          2   -1    0    0  501    0  0.00000000000E+00  0.00000000000E+00  0.18446803953E+03  0.18446803953E+03  0.00000000000E+00 0. -1.
         -2   -1    0    0    0  501 -0.00000000000E+00 -0.00000000000E+00 -0.10458721325E+03  0.10458721325E+03  0.00000000000E+00 0.  1.
          5    1    1    2  502    0  0.26166176527E+02  0.11188766665E+03 -0.52760065732E+00  0.11500385692E+03  0.47000000000E+01 0.  1.
         -5    1    1    2    0  502 -0.28376649478E+02 -0.21734787934E+02  0.17307426544E+02  0.39990902161E+02  0.47000000000E+01 0.  1.
        -11    1    1    2    0    0  0.76304616144E+01 -0.61700291058E+02 -0.26351884660E+01  0.62226152696E+02  0.00000000000E+00 0.  1.
         11    1    1    2    0    0 -0.54199886633E+01 -0.28452587663E+02  0.65736188863E+02  0.71834341008E+02  0.00000000000E+00 0. -1.
<mgrwt>
<rscale>  0 0.14422707E+03</rscale>
<asrwt>0</asrwt>
<pdfrwt beam="1">  1        2 0.28379698E-01 0.15408378E+03</pdfrwt>
<pdfrwt beam="2">  1       -2 0.16090341E-01 0.15408378E+03</pdfrwt>
<totfact> 0.54609023E+03</totfact>
</mgrwt>
</event>
<event>
 6    1  0.6101889E-006  0.1401096E+03  0.7546771E-02  0.1222850E+00
         -2   -1    0    0    0  501 -0.00000000000E+00  0.00000000000E+00  0.14469671021E+02  0.14469671021E+02  0.00000000000E+00 0.  1.
          2   -1    0    0  501    0  0.00000000000E+00 -0.00000000000E+00 -0.11198311571E+04  0.11198311571E+04  0.00000000000E+00 0. -1.
          5    1    1    2  502    0  0.35774452487E+02  0.33115467122E+01 -0.39514394596E+03  0.39680172104E+03  0.47000000000E+01 0. -1.
         -5    1    1    2    0  502 -0.61820928749E+02  0.52930028353E+02 -0.23522731006E+03  0.24895259093E+03  0.47000000000E+01 0. -1.
        -11    1    1    2    0    0 -0.35650397025E+02 -0.10715076170E+02 -0.13693364392E+03  0.14190344077E+03  0.00000000000E+00 0.  1.
         11    1    1    2    0    0  0.61696873287E+02 -0.45526498895E+02 -0.33805658612E+03  0.34664307536E+03  0.00000000000E+00 0. -1.
<mgrwt>
<rscale>  0 0.13315336E+03</rscale>
<asrwt>0</asrwt>
<pdfrwt beam="2">  1        2 0.17228177E+00 0.14010964E+03</pdfrwt>
<pdfrwt beam="1">  1       -2 0.22261026E-02 0.14010964E+03</pdfrwt>
<totfact> 0.14142251E+04</totfact>
</mgrwt>
</event>
<event>
 6    1  0.6101889E-006  0.3284397E+03  0.7546771E-02  0.1071829E+00
         -1   -1    0    0    0  501 -0.00000000000E+00  0.00000000000E+00  0.61994770096E+03  0.61994770096E+03  0.00000000000E+00 0.  1.
          1   -1    0    0  501    0  0.00000000000E+00 -0.00000000000E+00 -0.43500688173E+02  0.43500688173E+02  0.00000000000E+00 0. -1.
          5    1    1    2  502    0 -0.39777085144E+02 -0.13754888978E+03  0.24798995327E+03  0.28639661399E+03  0.47000000000E+01 0.  1.
         -5    1    1    2    0  502  0.26099509646E+02  0.16428918482E+02  0.60687621762E+02  0.68236142926E+02  0.47000000000E+01 0.  1.
        -11    1    1    2    0    0  0.16322257825E+02  0.35191095358E+02  0.18657332246E+03  0.19056346435E+03  0.00000000000E+00 0.  1.
         11    1    1    2    0    0 -0.26446823272E+01  0.85928875941E+02  0.81196115291E+02  0.11825216786E+03  0.00000000000E+00 0. -1.
<mgrwt>
<rscale>  0 0.32843965E+03</rscale>
<asrwt>0</asrwt>
<pdfrwt beam="2">  1        1 0.66924140E-02 0.32843965E+03</pdfrwt>
<pdfrwt beam="1">  1       -1 0.95376563E-01 0.32843965E+03</pdfrwt>
<totfact> 0.12472187E+03</totfact>
</mgrwt>
</event>
<event>
 6    1  0.6101889E-006  0.1270884E+03  0.7546771E-02  0.1244902E+00
         -1   -1    0    0    0  501 -0.00000000000E+00  0.00000000000E+00  0.14550997533E+02  0.14550997533E+02  0.00000000000E+00 0.  1.
          1   -1    0    0  501    0  0.00000000000E+00 -0.00000000000E+00 -0.93544734996E+03  0.93544734996E+03  0.00000000000E+00 0. -1.
          5    1    1    2  502    0 -0.26657661843E+02 -0.21733667107E+02 -0.50515434015E+03  0.50634571253E+03  0.47000000000E+01 0.  1.
         -5    1    1    2    0  502  0.40511800771E+02  0.40026487235E+02 -0.14011089120E+03  0.15131582043E+03  0.47000000000E+01 0.  1.
        -11    1    1    2    0    0 -0.31039290054E+02 -0.36477973285E+02 -0.25625006027E+03  0.26068788513E+03  0.00000000000E+00 0. -1.
         11    1    1    2    0    0  0.17185151127E+02  0.18185153156E+02 -0.19381060809E+02  0.31648929408E+02  0.00000000000E+00 0.  1.
<mgrwt>
<rscale>  0 0.11891266E+03</rscale>
<asrwt>0</asrwt>
<pdfrwt beam="2">  1        1 0.14391498E+00 0.12708845E+03</pdfrwt>
<pdfrwt beam="1">  1       -1 0.22386150E-02 0.12708845E+03</pdfrwt>
<totfact> 0.99871614E+03</totfact>
</mgrwt>
</event>
<event>
 6    1  0.6101889E-006  0.1514672E+03  0.7546771E-02  0.1207826E+00
          1   -1    0    0  501    0  0.00000000000E+00  0.00000000000E+00  0.69715311159E+03  0.69715311159E+03  0.00000000000E+00 0. -1.
         -1   -1    0    0    0  501 -0.00000000000E+00 -0.00000000000E+00 -0.29492886770E+02  0.29492886770E+02  0.00000000000E+00 0.  1.
          5    1    1    2  502    0  0.32442264451E+02  0.38269713233E+01  0.58320162247E+02  0.67011025635E+02  0.47000000000E+01 0.  1.
         -5    1    1    2    0  502 -0.10467982134E+03  0.41991272396E+02  0.40509612488E+03  0.42053072700E+03  0.47000000000E+01 0.  1.
        -11    1    1    2    0    0 -0.14297006768E+02 -0.28417253751E+02  0.29744058619E+02  0.43550588244E+02  0.00000000000E+00 0.  1.
         11    1    1    2    0    0  0.86534563659E+02 -0.17400989968E+02  0.17449987907E+03  0.19555365748E+03  0.00000000000E+00 0. -1.
<mgrwt>
<rscale>  0 0.14416951E+03</rscale>
<asrwt>0</asrwt>
<pdfrwt beam="1">  1        1 0.10725431E+00 0.15146718E+03</pdfrwt>
<pdfrwt beam="2">  1       -1 0.45373677E-02 0.15146718E+03</pdfrwt>
<totfact> 0.56171819E+03</totfact>
</mgrwt>
</event>
<event>
 6    1  0.6101889E-006  0.3401928E+03  0.7546771E-02  0.1067961E+00
          2   -1    0    0  501    0  0.00000000000E+00  0.00000000000E+00  0.17338479944E+04  0.17338479944E+04  0.00000000000E+00 0. -1.
         -2   -1    0    0    0  501 -0.00000000000E+00 -0.00000000000E+00 -0.96075804601E+02  0.96075804601E+02  0.00000000000E+00 0.  1.
          5    1    1    2  502    0 -0.20316947618E+02 -0.32650805919E+03  0.12914415315E+04  0.13322400723E+04  0.47000000000E+01 0. -1.
         -5    1    1    2    0  502  0.57013932120E+01  0.10451770823E+02  0.61314052731E+02  0.62635840061E+02  0.47000000000E+01 0. -1.
        -11    1    1    2    0    0 -0.34682191362E+02  0.83028778195E+02  0.67474290176E+02  0.11246960585E+03  0.00000000000E+00 0. -1.
         11    1    1    2    0    0  0.49297745768E+02  0.23302751018E+03  0.21754231548E+03  0.32257828083E+03  0.00000000000E+00 0.  1.
<mgrwt>
<rscale>  0 0.33727798E+03</rscale>
<asrwt>0</asrwt>
<pdfrwt beam="1">  1        2 0.26674582E+00 0.34019280E+03</pdfrwt>
<pdfrwt beam="2">  1       -2 0.14780894E-01 0.34019280E+03</pdfrwt>
<totfact> 0.35728660E+02</totfact>
</mgrwt>
</event>
<event>
 6    1  0.6101889E-006  0.3960570E+03  0.7546771E-02  0.1045154E+00
          3   -1    0    0  501    0  0.00000000000E+00  0.00000000000E+00  0.43051259665E+03  0.43051259665E+03  0.00000000000E+00 0.  1.
         -3   -1    0    0    0  501 -0.00000000000E+00 -0.00000000000E+00 -0.91089769320E+02  0.91089769320E+02  0.00000000000E+00 0. -1.
          5    1    1    2  502    0  0.29812392313E+02  0.86685542400E+02  0.80518564748E+02  0.12210033278E+03  0.47000000000E+01 0. -1.
         -5    1    1    2    0  502 -0.97651976617E+01  0.34090322745E+02  0.24374522278E+03  0.24635610976E+03  0.47000000000E+01 0. -1.
        -11    1    1    2    0    0 -0.32783036000E+02 -0.67229653774E+02  0.48169809529E+02  0.88965635759E+02  0.00000000000E+00 0.  1.
         11    1    1    2    0    0  0.12735841349E+02 -0.53546211371E+02 -0.33010769725E+02  0.64180287666E+02  0.00000000000E+00 0. -1.
<mgrwt>
<rscale>  0 0.39605703E+03</rscale>
<asrwt>0</asrwt>
<pdfrwt beam="1">  1        3 0.66232706E-01 0.39605703E+03</pdfrwt>
<pdfrwt beam="2">  1       -3 0.14013811E-01 0.39605703E+03</pdfrwt>
<totfact> 0.24311416E+02</totfact>
</mgrwt>
</event>
<event>
 6    1  0.6101889E-006  0.1353484E+03  0.7546771E-02  0.1231459E+00
          1   -1    0    0  501    0  0.00000000000E+00  0.00000000000E+00  0.60885707545E+02  0.60885707545E+02  0.00000000000E+00 0. -1.
         -1   -1    0    0    0  501 -0.00000000000E+00 -0.00000000000E+00 -0.27553191756E+03  0.27553191756E+03  0.00000000000E+00 0.  1.
          5    1    1    2  502    0 -0.25955069742E+02 -0.14927352056E+02  0.23482260688E+02  0.38340553618E+02  0.47000000000E+01 0.  1.
         -5    1    1    2    0  502  0.71396230404E+02 -0.10150114114E+02 -0.81480127611E+02  0.10891073284E+03  0.47000000000E+01 0.  1.
        -11    1    1    2    0    0 -0.37853255437E+02  0.32072437360E+02 -0.16720066579E+03  0.17440634400E+03  0.00000000000E+00 0.  1.
         11    1    1    2    0    0 -0.75879052259E+01 -0.69949711899E+01  0.10552322701E+02  0.14759994649E+02  0.00000000000E+00 0. -1.
<mgrwt>
<rscale>  0 0.12733880E+03</rscale>
<asrwt>0</asrwt>
<pdfrwt beam="1">  1        1 0.93670320E-02 0.13534840E+03</pdfrwt>
<pdfrwt beam="2">  1       -1 0.42389525E-01 0.13534840E+03</pdfrwt>
<totfact> 0.37421111E+03</totfact>
</mgrwt>
</event>
<event>
 6    1  0.6101889E-006  0.1796072E+03  0.7546771E-02  0.1173928E+00
         -2   -1    0    0    0  501 -0.00000000000E+00  0.00000000000E+00  0.42782830682E+02  0.42782830682E+02  0.00000000000E+00 0.  1.
          2   -1    0    0  501    0  0.00000000000E+00 -0.00000000000E+00 -0.70400784514E+03  0.70400784514E+03  0.00000000000E+00 0. -1.
          5    1    1    2  502    0  0.52343243346E+02 -0.11765349036E+03 -0.38419748540E+03  0.40523074502E+03  0.47000000000E+01 0. -1.
         -5    1    1    2    0  502  0.35104314421E+02  0.22975414065E+02 -0.55473923544E+02  0.69711037403E+02  0.47000000000E+01 0. -1.
        -11    1    1    2    0    0 -0.13739480921E+02  0.71277799459E+01  0.64230788622E+01  0.16758118182E+02  0.00000000000E+00 0. -1.
         11    1    1    2    0    0 -0.73708076846E+02  0.87550296352E+02 -0.22797668437E+03  0.25509077522E+03  0.00000000000E+00 0.  1.
<mgrwt>
<rscale>  0 0.17381366E+03</rscale>
<asrwt>0</asrwt>
<pdfrwt beam="2">  1        2 0.10830889E+00 0.17960721E+03</pdfrwt>
<pdfrwt beam="1">  1       -2 0.65819744E-02 0.17960721E+03</pdfrwt>
<totfact> 0.52388700E+03</totfact>
</mgrwt>
</event>
<event>
 6    1  0.6101889E-006  0.1358018E+03  0.7546771E-02  0.1231772E+00
         -2   -1    0    0    0  501 -0.00000000000E+00  0.00000000000E+00  0.80622561162E+02  0.80622561162E+02  0.00000000000E+00 0.  1.
          2   -1    0    0  501    0  0.00000000000E+00 -0.00000000000E+00 -0.17888029426E+03  0.17888029426E+03  0.00000000000E+00 0. -1.
          5    1    1    2  502    0  0.29203156767E+02 -0.16319642125E+02  0.35004200384E+02  0.48647087568E+02  0.47000000000E+01 0. -1.
         -5    1    1    2    0  502 -0.20563536228E+02 -0.36051464257E+02 -0.87481008049E+02  0.96941136091E+02  0.47000000000E+01 0. -1.
        -11    1    1    2    0    0 -0.21345293947E+02  0.20014358601E+02  0.22754754204E+02  0.37067168259E+02  0.00000000000E+00 0.  1.
         11    1    1    2    0    0  0.12705673407E+02  0.32356747781E+02 -0.68535679641E+02  0.76847463507E+02  0.00000000000E+00 0. -1.
<mgrwt>
<rscale>  0 0.12713376E+03</rscale>
<asrwt>0</asrwt>
<pdfrwt beam="2">  1        2 0.27520045E-01 0.13580175E+03</pdfrwt>
<pdfrwt beam="1">  1       -2 0.12403471E-01 0.13580175E+03</pdfrwt>
<totfact> 0.85494671E+03</totfact>
</mgrwt>
</event>
<event>
 6    1  0.6101889E-006  0.4276094E+03  0.7546771E-02  0.1035287E+00
          1   -1    0    0  501    0  0.00000000000E+00  0.00000000000E+00  0.15400251554E+04  0.15400251554E+04  0.00000000000E+00 0. -1.
         -1   -1    0    0    0  501 -0.00000000000E+00 -0.00000000000E+00 -0.14476547934E+03  0.14476547934E+03  0.00000000000E+00 0.  1.
          5    1    1    2  502    0 -0.26515974779E+03  0.78762473855E+02  0.86454531776E+03  0.90773008962E+03  0.47000000000E+01 0. -1.
         -5    1    1    2    0  502 -0.12020523041E+03  0.58049221233E+02  0.21126960803E+03  0.24995188893E+03  0.47000000000E+01 0. -1.
        -11    1    1    2    0    0  0.26844527303E+03 -0.13143333984E+03  0.19850175374E+03  0.35880431111E+03  0.00000000000E+00 0.  1.
         11    1    1    2    0    0  0.11691970517E+03 -0.53783552511E+01  0.12094299648E+03  0.16830434504E+03  0.00000000000E+00 0. -1.
<mgrwt>
<rscale>  0 0.42551254E+03</rscale>
<asrwt>0</asrwt>
<pdfrwt beam="1">  1        1 0.23692694E+00 0.42760941E+03</pdfrwt>
<pdfrwt beam="2">  1       -1 0.22271613E-01 0.42760941E+03</pdfrwt>
<totfact> 0.11120574E+02</totfact>
</mgrwt>
</event>
<event>
 6    1  0.6101889E-006  0.2637182E+03  0.7546771E-02  0.1104930E+00
          1   -1    0    0  501    0  0.00000000000E+00  0.00000000000E+00  0.10528900553E+04  0.10528900553E+04  0.00000000000E+00 0. -1.
         -1   -1    0    0    0  501 -0.00000000000E+00 -0.00000000000E+00 -0.16513421615E+02  0.16513421615E+02  0.00000000000E+00 0.  1.
          5    1    1    2  502    0  0.42144863064E+02  0.30389096671E+02  0.78281736692E+03  0.78455389020E+03  0.47000000000E+01 0.  1.
         -5    1    1    2    0  502  0.46072983739E+01 -0.96241266311E+01  0.19992929652E+01  0.11829547078E+02  0.47000000000E+01 0.  1.
        -11    1    1    2    0    0 -0.18190632585E+02  0.24612844600E+02  0.23078544715E+02  0.38331585661E+02  0.00000000000E+00 0.  1.
         11    1    1    2    0    0 -0.28561528854E+02 -0.45377814640E+02  0.22848142913E+03  0.23468845402E+03  0.00000000000E+00 0. -1.
<mgrwt>
<rscale>  0 0.26371816E+03</rscale>
<asrwt>0</asrwt>
<pdfrwt beam="1">  1        1 0.16198303E+00 0.26371816E+03</pdfrwt>
<pdfrwt beam="2">  1       -1 0.25405272E-02 0.26371816E+03</pdfrwt>
<totfact> 0.70298459E+03</totfact>
</mgrwt>
</event>
<event>
 6    1  0.6101889E-006  0.1709461E+03  0.7546771E-02  0.1183453E+00
         -1   -1    0    0    0  501 -0.00000000000E+00  0.00000000000E+00  0.36749076169E+02  0.36749076169E+02  0.00000000000E+00 0.  1.
          1   -1    0    0  501    0  0.00000000000E+00 -0.00000000000E+00 -0.95619674049E+03  0.95619674049E+03  0.00000000000E+00 0. -1.
          5    1    1    2  502    0 -0.11132933958E+03  0.86193728312E+02 -0.57842263176E+03  0.59533050618E+03  0.47000000000E+01 0. -1.
         -5    1    1    2    0  502  0.11608999058E+02 -0.25750567181E+02 -0.16747039643E+03  0.16990080709E+03  0.47000000000E+01 0. -1.
        -11    1    1    2    0    0  0.74406935971E+02 -0.65424644058E+02 -0.70813990185E+02  0.12178422466E+03  0.00000000000E+00 0.  1.
         11    1    1    2    0    0  0.25313404555E+02  0.49814829278E+01 -0.10274064595E+03  0.10593027873E+03  0.00000000000E+00 0. -1.
<mgrwt>
<rscale>  0 0.16473409E+03</rscale>
<asrwt>0</asrwt>
<pdfrwt beam="2">  1        1 0.14710718E+00 0.17094605E+03</pdfrwt>
<pdfrwt beam="1">  1       -1 0.56537046E-02 0.17094605E+03</pdfrwt>
<totfact> 0.25038360E+03</totfact>
</mgrwt>
</event>
<event>
 6    1  0.6101889E-006  0.1252240E+03  0.7546771E-02  0.1249925E+00
          2   -1    0    0  501    0  0.00000000000E+00  0.00000000000E+00  0.47279731863E+02  0.47279731863E+02  0.00000000000E+00 0. -1.
         -2   -1    0    0    0  501 -0.00000000000E+00 -0.00000000000E+00 -0.26817470598E+03  0.26817470598E+03  0.00000000000E+00 0.  1.
          5    1    1    2  502    0  0.12370886656E+02  0.68301039262E+02 -0.11441761546E+03  0.13390874329E+03  0.47000000000E+01 0. -1.
         -5    1    1    2    0  502 -0.43897599994E+01 -0.52865224314E+02 -0.52728218427E+02  0.74942357536E+02  0.47000000000E+01 0. -1.
        -11    1    1    2    0    0 -0.29585971831E+02  0.29737853088E+02 -0.26043643661E+02  0.49375510231E+02  0.00000000000E+00 0. -1.
         11    1    1    2    0    0  0.21604845174E+02 -0.45173668036E+02 -0.27705496568E+02  0.57227826788E+02  0.00000000000E+00 0.  1.
<mgrwt>
<rscale>  0 0.11595383E+03</rscale>
<asrwt>0</asrwt>
<pdfrwt beam="1">  1        2 0.72738051E-02 0.12522401E+03</pdfrwt>
<pdfrwt beam="2">  1       -2 0.41257646E-01 0.12522401E+03</pdfrwt>
<totfact> 0.50898421E+03</totfact>
</mgrwt>
</event>
<event>
 6    1  0.6101889E-006  0.2851970E+03  0.7546771E-02  0.1092884E+00
          1   -1    0    0  501    0  0.00000000000E+00  0.00000000000E+00  0.11179766211E+04  0.11179766211E+04  0.00000000000E+00 0. -1.
         -1   -1    0    0    0  501 -0.00000000000E+00 -0.00000000000E+00 -0.18188517065E+02  0.18188517065E+02  0.00000000000E+00 0.  1.
          5    1    1    2  502    0  0.16224084449E+02 -0.90458287103E+01  0.37564872547E+03  0.37613707990E+03  0.47000000000E+01 0.  1.
         -5    1    1    2    0  502 -0.10357452233E+03 -0.97092130277E+01  0.32935324258E+03  0.34542379607E+03  0.47000000000E+01 0.  1.
        -11    1    1    2    0    0  0.59278065203E+02 -0.23868128910E+02  0.30220458830E+03  0.30888701782E+03  0.00000000000E+00 0. -1.
         11    1    1    2    0    0  0.28072372676E+02  0.42623170648E+02  0.92581547671E+02  0.10571724435E+03  0.00000000000E+00 0.  1.
<mgrwt>
<rscale>  0 0.28519703E+03</rscale>
<asrwt>0</asrwt>
<pdfrwt beam="1">  1        1 0.17199635E+00 0.28519703E+03</pdfrwt>
<pdfrwt beam="2">  1       -1 0.27982343E-02 0.28519703E+03</pdfrwt>
<totfact> 0.54791282E+03</totfact>
</mgrwt>
</event>
<event>
 6    1  0.6101889E-006  0.3398382E+03  0.7546771E-02  0.1066865E+00
         -2   -1    0    0    0  501 -0.00000000000E+00  0.00000000000E+00  0.46188336130E+02  0.46188336130E+02  0.00000000000E+00 0.  1.
          2   -1    0    0  501    0  0.00000000000E+00 -0.00000000000E+00 -0.62510356573E+03  0.62510356573E+03  0.00000000000E+00 0. -1.
          5    1    1    2  502    0  0.20118246727E+02  0.16868713967E+02 -0.58424529640E+02  0.64224707286E+02  0.47000000000E+01 0.  1.
         -5    1    1    2    0  502 -0.13206101520E+03 -0.68058603943E+02 -0.29087295049E+03  0.32665157068E+03  0.47000000000E+01 0.  1.
        -11    1    1    2    0    0  0.17653924258E+02  0.29220476141E+02 -0.33472409431E+01  0.34303079884E+02  0.00000000000E+00 0.  1.
         11    1    1    2    0    0  0.94288844212E+02  0.21969413835E+02 -0.22627050854E+03  0.24611254401E+03  0.00000000000E+00 0. -1.
<mgrwt>
<rscale>  0 0.33983816E+03</rscale>
<asrwt>0</asrwt>
<pdfrwt beam="2">  1        2 0.96169779E-01 0.33983816E+03</pdfrwt>
<pdfrwt beam="1">  1       -2 0.71058979E-02 0.33983816E+03</pdfrwt>
<totfact> 0.54912935E+03</totfact>
</mgrwt>
</event>
<event>
 6    1  0.6101889E-006  0.4263425E+03  0.7546771E-02  0.1035022E+00
          2   -1    0    0  501    0  0.00000000000E+00  0.00000000000E+00  0.36941496333E+03  0.36941496333E+03  0.00000000000E+00 0. -1.
         -2   -1    0    0    0  501 -0.00000000000E+00 -0.00000000000E+00 -0.12301068383E+03  0.12301068383E+03  0.00000000000E+00 0.  1.
          5    1    1    2  502    0  0.15455766975E+02 -0.16363828807E+03  0.23647891755E+03  0.28802905843E+03  0.47000000000E+01 0. -1.
         -5    1    1    2    0  502  0.55995491809E+01  0.13967210405E+02 -0.20131338751E+02  0.25569488017E+02  0.47000000000E+01 0.  1.
        -11    1    1    2    0    0 -0.38788652924E+02  0.81275644183E+02  0.53052731495E+02  0.10452216154E+03  0.00000000000E+00 0.  1.
         11    1    1    2    0    0  0.17733336768E+02  0.68395433485E+02 -0.22996030784E+02  0.74304939178E+02  0.00000000000E+00 0. -1.
<mgrwt>
<rscale>  0 0.42634253E+03</rscale>
<asrwt>0</asrwt>
<pdfrwt beam="1">  1        2 0.56833071E-01 0.42634253E+03</pdfrwt>
<pdfrwt beam="2">  1       -2 0.18924721E-01 0.42634253E+03</pdfrwt>
<totfact> 0.20272696E+03</totfact>
</mgrwt>
</event>
<event>
 6    1  0.6101889E-006  0.1207193E+03  0.7546771E-02  0.1250500E+00
         -1   -1    0    0    0  501 -0.00000000000E+00  0.00000000000E+00  0.12911904272E+03  0.12911904272E+03  0.00000000000E+00 0.  1.
          1   -1    0    0  501    0  0.00000000000E+00 -0.00000000000E+00 -0.15840535887E+03  0.15840535887E+03  0.00000000000E+00 0. -1.
          5    1    1    2  502    0 -0.70291477745E+02 -0.33301271882E+02 -0.86969147252E+02  0.11677152532E+03  0.47000000000E+01 0. -1.
         -5    1    1    2    0  502  0.26771205700E+02  0.28597678811E+02 -0.18694019223E+02  0.43658688055E+02  0.47000000000E+01 0.  1.
        -11    1    1    2    0    0 -0.26450640711E+02  0.11563694111E+02  0.35545051684E+02  0.45790895544E+02  0.00000000000E+00 0.  1.
         11    1    1    2    0    0  0.69970912756E+02 -0.68601010395E+01  0.40831798641E+02  0.81303292666E+02  0.00000000000E+00 0. -1.
<mgrwt>
<rscale>  0 0.11562185E+03</rscale>
<asrwt>0</asrwt>
<pdfrwt beam="2">  1        1 0.24370055E-01 0.12071930E+03</pdfrwt>
<pdfrwt beam="1">  1       -1 0.19864468E-01 0.12071930E+03</pdfrwt>
<totfact> 0.38482500E+03</totfact>
</mgrwt>
</event>
<event>
 6    1  0.6101889E-006  0.3074704E+03  0.7546771E-02  0.1081565E+00
         -1   -1    0    0    0  501 -0.00000000000E+00  0.00000000000E+00  0.47556884670E+03  0.47556884670E+03  0.00000000000E+00 0.  1.
          1   -1    0    0  501    0  0.00000000000E+00 -0.00000000000E+00 -0.49697361273E+02  0.49697361273E+02  0.00000000000E+00 0. -1.
          5    1    1    2  502    0 -0.52519236807E+02 -0.57324571208E+02  0.78443402153E+02  0.11054335819E+03  0.47000000000E+01 0. -1.
         -5    1    1    2    0  502  0.10193286994E+01  0.30547444074E+02 -0.15628217759E+02  0.34648471262E+02  0.47000000000E+01 0.  1.
        -11    1    1    2    0    0 -0.12173245252E+02  0.37403219917E+02  0.73013605209E+02  0.82934765363E+02  0.00000000000E+00 0. -1.
         11    1    1    2    0    0  0.63673153360E+02 -0.10626092783E+02  0.29004269582E+03  0.29713961315E+03  0.00000000000E+00 0.  1.
<mgrwt>
<rscale>  0 0.30747043E+03</rscale>
<asrwt>0</asrwt>
<pdfrwt beam="2">  1        1 0.76457482E-02 0.30747043E+03</pdfrwt>
<pdfrwt beam="1">  1       -1 0.73164435E-01 0.30747043E+03</pdfrwt>
<totfact> 0.18161009E+03</totfact>
</mgrwt>
</event>
<event>
 6    1  0.6101889E-006  0.1380087E+03  0.7546771E-02  0.1228565E+00
         -2   -1    0    0    0  501 -0.00000000000E+00  0.00000000000E+00  0.37446737883E+03  0.37446737883E+03  0.00000000000E+00 0. -1.
          2   -1    0    0  501    0  0.00000000000E+00 -0.00000000000E+00 -0.41764671321E+02  0.41764671321E+02  0.00000000000E+00 0.  1.
          5    1    1    2  502    0 -0.12326078764E+01  0.90733059758E+02  0.13593673321E+03  0.16350808204E+03  0.47000000000E+01 0.  1.
         -5    1    1    2    0  502  0.86977160413E+01 -0.32710671767E+02  0.64308898807E+01  0.34771894634E+02  0.47000000000E+01 0.  1.
        -11    1    1    2    0    0 -0.21833638389E+02 -0.18733063320E+02  0.16816172093E+03  0.17060480595E+03  0.00000000000E+00 0. -1.
         11    1    1    2    0    0  0.14368530224E+02 -0.39289324672E+02  0.22173363480E+02  0.47347267524E+02  0.00000000000E+00 0.  1.
<mgrwt>
<rscale>  0 0.12925509E+03</rscale>
<asrwt>0</asrwt>
<pdfrwt beam="2">  1        2 0.64253343E-02 0.13800873E+03</pdfrwt>
<pdfrwt beam="1">  1       -2 0.57610364E-01 0.13800873E+03</pdfrwt>
<totfact> 0.31118425E+03</totfact>
</mgrwt>
</event>
<event>
 6    1  0.6101889E-006  0.1471308E+03  0.7546771E-02  0.1213622E+00
          2   -1    0    0  501    0  0.00000000000E+00  0.00000000000E+00  0.17022529735E+04  0.17022529735E+04  0.00000000000E+00 0. -1.
         -2   -1    0    0    0  501 -0.00000000000E+00 -0.00000000000E+00 -0.15726507907E+02  0.15726507907E+02  0.00000000000E+00 0.  1.
          5    1    1    2  502    0 -0.18714996479E+02 -0.67577206900E+02  0.89692693711E+03  0.89967602530E+03  0.47000000000E+01 0. -1.
         -5    1    1    2    0  502 -0.55086230101E+02  0.44041772922E+02  0.49857021103E+03  0.50355587162E+03  0.47000000000E+01 0. -1.
        -11    1    1    2    0    0 -0.88229946472E+01  0.29685267251E+02  0.41221506280E+02  0.51558441659E+02  0.00000000000E+00 0.  1.
         11    1    1    2    0    0  0.82624221227E+02 -0.61498332731E+01  0.24980781112E+03  0.26318914279E+03  0.00000000000E+00 0. -1.
<mgrwt>
<rscale>  0 0.13978228E+03</rscale>
<asrwt>0</asrwt>
<pdfrwt beam="1">  1        2 0.26188493E+00 0.14713078E+03</pdfrwt>
<pdfrwt beam="2">  1       -2 0.24194641E-02 0.14713078E+03</pdfrwt>
<totfact> 0.61399438E+03</totfact>
</mgrwt>
</event>
<event>
 6    1  0.6101889E-006  0.1687933E+03  0.7546771E-02  0.1185775E+00
         -1   -1    0    0    0  501 -0.00000000000E+00  0.00000000000E+00  0.71364039021E+03  0.71364039021E+03  0.00000000000E+00 0. -1.
          1   -1    0    0  501    0  0.00000000000E+00 -0.00000000000E+00 -0.45622077135E+02  0.45622077135E+02  0.00000000000E+00 0.  1.
          5    1    1    2  502    0  0.10059847555E+03 -0.44920272528E+02  0.94062341507E+02  0.14494032654E+03  0.47000000000E+01 0. -1.
         -5    1    1    2    0  502  0.12347388824E+02  0.55410351773E+02  0.72449092268E+02  0.92161413102E+02  0.47000000000E+01 0. -1.
        -11    1    1    2    0    0 -0.58120506045E+02 -0.44718625437E+02  0.18269790930E+03  0.19686613407E+03  0.00000000000E+00 0.  1.
         11    1    1    2    0    0 -0.54825358332E+02  0.34228546192E+02  0.31880897001E+03  0.32529459363E+03  0.00000000000E+00 0. -1.
<mgrwt>
<rscale>  0 0.16261530E+03</rscale>
<asrwt>0</asrwt>
<pdfrwt beam="2">  1        1 0.70187816E-02 0.16879330E+03</pdfrwt>
<pdfrwt beam="1">  1       -1 0.10979082E+00 0.16879330E+03</pdfrwt>
<totfact> 0.84102819E+02</totfact>
</mgrwt>
</event>
<event>
 6    1  0.6101889E-006  0.2437375E+03  0.7546771E-02  0.1117328E+00
          1   -1    0    0  501    0  0.00000000000E+00  0.00000000000E+00  0.12030144633E+03  0.12030144633E+03  0.00000000000E+00 0. -1.
         -1   -1    0    0    0  501 -0.00000000000E+00 -0.00000000000E+00 -0.12345649513E+03  0.12345649513E+03  0.00000000000E+00 0.  1.
          5    1    1    2  502    0 -0.19628155190E+02 -0.29789522357E+02 -0.13048521133E+02  0.38275762856E+02  0.47000000000E+01 0. -1.
         -5    1    1    2    0  502  0.45485579518E+01  0.91343269315E+02  0.15825726965E+02  0.92934524600E+02  0.47000000000E+01 0.  1.
        -11    1    1    2    0    0  0.46751416977E+02 -0.27441349195E+02 -0.28021429641E+02  0.61023955576E+02  0.00000000000E+00 0.  1.
         11    1    1    2    0    0 -0.31671819739E+02 -0.34112397763E+02  0.22089175009E+02  0.51523698424E+02  0.00000000000E+00 0. -1.
<mgrwt>
<rscale>  0 0.24373752E+03</rscale>
<asrwt>0</asrwt>
<pdfrwt beam="1">  1        1 0.18507915E-01 0.24373752E+03</pdfrwt>
<pdfrwt beam="2">  1       -1 0.18993307E-01 0.24373752E+03</pdfrwt>
<totfact> 0.61110575E+03</totfact>
</mgrwt>
</event>
<event>
 6    1  0.6101889E-006  0.2130544E+03  0.7546771E-02  0.1141170E+00
         -2   -1    0    0    0  501 -0.00000000000E+00  0.00000000000E+00  0.11069612793E+03  0.11069612793E+03  0.00000000000E+00 0.  1.
          2   -1    0    0  501    0  0.00000000000E+00 -0.00000000000E+00 -0.39278460382E+03  0.39278460382E+03  0.00000000000E+00 0. -1.
          5    1    1    2  502    0  0.55100160067E+02  0.14823552665E+02 -0.74904560865E+02  0.94279099440E+02  0.47000000000E+01 0. -1.
         -5    1    1    2    0  502  0.27221741447E+02  0.14727830422E+03 -0.86603513046E+02  0.17307276092E+03  0.47000000000E+01 0.  1.
        -11    1    1    2    0    0 -0.40415720479E+01 -0.95697577536E+02 -0.33358782973E+02  0.10142568241E+03  0.00000000000E+00 0.  1.
         11    1    1    2    0    0 -0.78280329466E+02 -0.66404279351E+02 -0.87221619006E+02  0.13470318897E+03  0.00000000000E+00 0. -1.
<mgrwt>
<rscale>  0 0.21050026E+03</rscale>
<asrwt>0</asrwt>
<pdfrwt beam="2">  1        2 0.60428400E-01 0.21305436E+03</pdfrwt>
<pdfrwt beam="1">  1       -2 0.17030174E-01 0.21305436E+03</pdfrwt>
<totfact> 0.22329204E+03</totfact>
</mgrwt>
</event>
<event>
 6    1  0.6101889E-006  0.1521058E+03  0.7546771E-02  0.1208304E+00
         -1   -1    0    0    0  501 -0.00000000000E+00  0.00000000000E+00  0.16248577272E+03  0.16248577272E+03  0.00000000000E+00 0.  1.
          1   -1    0    0  501    0  0.00000000000E+00 -0.00000000000E+00 -0.14798827621E+03  0.14798827621E+03  0.00000000000E+00 0. -1.
          5    1    1    2  502    0  0.71512035440E+02 -0.11375916350E+02 -0.10112523114E+03  0.12446599961E+03  0.47000000000E+01 0.  1.
         -5    1    1    2    0  502  0.11239701966E+02 -0.14400128698E+02  0.36276125118E+02  0.40886939973E+02  0.47000000000E+01 0.  1.
        -11    1    1    2    0    0 -0.70039423998E+02 -0.15190321714E+01  0.11633599151E+02  0.71015273019E+02  0.00000000000E+00 0. -1.
         11    1    1    2    0    0 -0.12712313408E+02  0.27295077220E+02  0.67713003372E+02  0.74105836330E+02  0.00000000000E+00 0.  1.
<mgrwt>
<rscale>  0 0.14380065E+03</rscale>
<asrwt>0</asrwt>
<pdfrwt beam="2">  1        1 0.22767427E-01 0.15210584E+03</pdfrwt>
<pdfrwt beam="1">  1       -1 0.24997811E-01 0.15210584E+03</pdfrwt>
<totfact> 0.29217204E+03</totfact>
</mgrwt>
</event>
<event>
 6    1  0.6101889E-006  0.1447684E+03  0.7546771E-02  0.1217388E+00
          4   -1    0    0  501    0  0.00000000000E+00  0.00000000000E+00  0.16450392062E+03  0.16450392062E+03  0.00000000000E+00 0.  1.
         -4   -1    0    0    0  501 -0.00000000000E+00 -0.00000000000E+00 -0.13298925030E+03  0.13298925030E+03  0.00000000000E+00 0. -1.
          5    1    1    2  502    0  0.27112984338E+02 -0.41957465656E+02  0.59195365820E+01  0.50523991899E+02  0.47000000000E+01 0.  1.
         -5    1    1    2    0  502 -0.86154929966E+02 -0.99950313171E+00  0.80902310176E+02  0.11828332408E+03  0.47000000000E+01 0.  1.
        -11    1    1    2    0    0 -0.16240014652E+02  0.24702579373E+02 -0.39976334435E+02  0.49719843307E+02  0.00000000000E+00 0. -1.
         11    1    1    2    0    0  0.75281960279E+02  0.18254389415E+02 -0.15330842008E+02  0.78966011632E+02  0.00000000000E+00 0.  1.
<mgrwt>
<rscale>  0 0.13702558E+03</rscale>
<asrwt>0</asrwt>
<pdfrwt beam="1">  1        4 0.25308295E-01 0.14476836E+03</pdfrwt>
<pdfrwt beam="2">  1       -4 0.20459885E-01 0.14476836E+03</pdfrwt>
<totfact> 0.53225472E+02</totfact>
</mgrwt>
</event>
<event>
 6    1  0.6101889E-006  0.1501197E+03  0.7546771E-02  0.1209343E+00
         -3   -1    0    0    0  501 -0.00000000000E+00  0.00000000000E+00  0.93817385641E+02  0.93817385641E+02  0.00000000000E+00 0.  1.
          3   -1    0    0  501    0  0.00000000000E+00 -0.00000000000E+00 -0.20768482704E+03  0.20768482704E+03  0.00000000000E+00 0. -1.
          5    1    1    2  502    0  0.24468217611E+02  0.69210714482E+01 -0.92700238851E+02  0.96239384797E+02  0.47000000000E+01 0. -1.
         -5    1    1    2    0  502 -0.22798653742E+02  0.76193144252E+02  0.99271347465E+00  0.79675901774E+02  0.47000000000E+01 0. -1.
        -11    1    1    2    0    0 -0.39036541631E+02 -0.75333805421E+02 -0.20969572414E+02  0.87399981630E+02  0.00000000000E+00 0.  1.
         11    1    1    2    0    0  0.37366977762E+02 -0.77804102787E+01 -0.11903436130E+01  0.38186944485E+02  0.00000000000E+00 0. -1.
<mgrwt>
<rscale>  0 0.14300369E+03</rscale>
<asrwt>0</asrwt>
<pdfrwt beam="2">  1        3 0.31951512E-01 0.15011968E+03</pdfrwt>
<pdfrwt beam="1">  1       -3 0.14433444E-01 0.15011968E+03</pdfrwt>
<totfact> 0.88713982E+02</totfact>
</mgrwt>
</event>
<event>
 6    1  0.6101889E-006  0.2254786E+03  0.7546771E-02  0.1133039E+00
         -1   -1    0    0    0  501 -0.00000000000E+00  0.00000000000E+00  0.48594134124E+02  0.48594134124E+02  0.00000000000E+00 0.  1.
          1   -1    0    0  501    0  0.00000000000E+00 -0.00000000000E+00 -0.99079833940E+03  0.99079833940E+03  0.00000000000E+00 0. -1.
          5    1    1    2  502    0  0.34652187899E+02 -0.72448095426E+02 -0.29580489362E+03  0.30654873307E+03  0.47000000000E+01 0. -1.
         -5    1    1    2    0  502 -0.12123666065E+02 -0.11389677615E+03 -0.11686838829E+03  0.16370635014E+03  0.47000000000E+01 0. -1.
        -11    1    1    2    0    0 -0.81791396322E+01  0.13343042122E+03 -0.24239234328E+03  0.27681153103E+03  0.00000000000E+00 0.  1.
         11    1    1    2    0    0 -0.14349382202E+02  0.52914450354E+02 -0.28713858009E+03  0.29232585927E+03  0.00000000000E+00 0. -1.
<mgrwt>
<rscale>  0 0.22113532E+03</rscale>
<asrwt>0</asrwt>
<pdfrwt beam="2">  1        1 0.15243050E+00 0.22547861E+03</pdfrwt>
<pdfrwt beam="1">  1       -1 0.74760214E-02 0.22547861E+03</pdfrwt>
<totfact> 0.15520229E+03</totfact>
</mgrwt>
</event>
<event>
 6    1  0.6101889E-006  0.1376969E+03  0.7546771E-02  0.1227755E+00
          2   -1    0    0  501    0  0.00000000000E+00  0.00000000000E+00  0.20004529413E+04  0.20004529413E+04  0.00000000000E+00 0.  1.
         -2   -1    0    0    0  501 -0.00000000000E+00 -0.00000000000E+00 -0.16469976022E+02  0.16469976022E+02  0.00000000000E+00 0. -1.
          5    1    1    2  502    0  0.35249854435E+02  0.98533241531E+01  0.85697748076E+03  0.85777160874E+03  0.47000000000E+01 0. -1.
         -5    1    1    2    0  502 -0.76173170930E+02 -0.50607844052E+02  0.92695698213E+03  0.93146918498E+03  0.47000000000E+01 0. -1.
        -11    1    1    2    0    0  0.80255893844E+01  0.61156574578E+02  0.76830362006E+02  0.98526347873E+02  0.00000000000E+00 0.  1.
         11    1    1    2    0    0  0.32897727111E+02 -0.20402054680E+02  0.12321814039E+03  0.12915577573E+03  0.00000000000E+00 0. -1.
<mgrwt>
<rscale>  0 0.12979838E+03</rscale>
<asrwt>0</asrwt>
<pdfrwt beam="1">  1        2 0.30776180E+00 0.13769695E+03</pdfrwt>
<pdfrwt beam="2">  1       -2 0.25338440E-02 0.13769695E+03</pdfrwt>
<totfact> 0.40332963E+03</totfact>
</mgrwt>
</event>
<event>
 6    1  0.6101889E-006  0.2411889E+03  0.7546771E-02  0.1121720E+00
         -2   -1    0    0    0  501 -0.00000000000E+00  0.00000000000E+00  0.34244463656E+03  0.34244463656E+03  0.00000000000E+00 0.  1.
          2   -1    0    0  501    0  0.00000000000E+00 -0.00000000000E+00 -0.16419478315E+03  0.16419478315E+03  0.00000000000E+00 0. -1.
          5    1    1    2  502    0 -0.23550356337E+02 -0.13411374003E+02 -0.18336649339E+02  0.33057630666E+02  0.47000000000E+01 0.  1.
         -5    1    1    2    0  502 -0.11357537848E+03  0.16750051638E+03  0.64949101652E+02  0.21259413301E+03  0.47000000000E+01 0.  1.
        -11    1    1    2    0    0  0.81025740457E+02 -0.47684801632E+02  0.98615286841E+02  0.13624971825E+03  0.00000000000E+00 0.  1.
         11    1    1    2    0    0  0.56099994355E+02 -0.10640434075E+03  0.33022114257E+02  0.12473793780E+03  0.00000000000E+00 0. -1.
<mgrwt>
<rscale>  0 0.23712978E+03</rscale>
<asrwt>0</asrwt>
<pdfrwt beam="2">  1        2 0.25260736E-01 0.24118886E+03</pdfrwt>
<pdfrwt beam="1">  1       -2 0.52683790E-01 0.24118886E+03</pdfrwt>
<totfact> 0.73485217E+02</totfact>
</mgrwt>
</event>
<event>
 6    1  0.6101889E-006  0.1564031E+03  0.7546771E-02  0.1201016E+00
          2   -1    0    0  501    0  0.00000000000E+00  0.00000000000E+00  0.82809409948E+03  0.82809409948E+03  0.00000000000E+00 0. -1.
         -2   -1    0    0    0  501 -0.00000000000E+00 -0.00000000000E+00 -0.33484470004E+02  0.33484470004E+02  0.00000000000E+00 0.  1.
          5    1    1    2  502    0 -0.38053643745E+02  0.35044223270E+02  0.97713813456E+02  0.11066280643E+03  0.47000000000E+01 0.  1.
         -5    1    1    2    0  502 -0.52662475991E+02 -0.59987399058E+02  0.54347041725E+03  0.54932140760E+03  0.47000000000E+01 0.  1.
        -11    1    1    2    0    0 -0.16775764612E+02  0.27162003973E+01  0.41418321537E+02  0.44769201265E+02  0.00000000000E+00 0. -1.
         11    1    1    2    0    0  0.10749188435E+03  0.22226975391E+02  0.11200707723E+03  0.15682515419E+03  0.00000000000E+00 0.  1.
<mgrwt>
<rscale>  0 0.14955867E+03</rscale>
<asrwt>0</asrwt>
<pdfrwt beam="1">  1        2 0.12739908E+00 0.15640315E+03</pdfrwt>
<pdfrwt beam="2">  1       -2 0.51514575E-02 0.15640315E+03</pdfrwt>
<totfact> 0.61890781E+03</totfact>
</mgrwt>
</event>
<event>
 6    1  0.6101889E-006  0.1265471E+03  0.7546771E-02  0.1246222E+00
          2   -1    0    0  501    0  0.00000000000E+00  0.00000000000E+00  0.12911401354E+03  0.12911401354E+03  0.00000000000E+00 0.  1.
         -2   -1    0    0    0  501 -0.00000000000E+00 -0.00000000000E+00 -0.96072947590E+02  0.96072947590E+02  0.00000000000E+00 0. -1.
          5    1    1    2  502    0  0.50730198456E+02 -0.40007088929E+02  0.40109712805E+02  0.76190545747E+02  0.47000000000E+01 0. -1.
         -5    1    1    2    0  502 -0.44176647388E+02  0.21410070809E+02 -0.17562014209E+02  0.52349609832E+02  0.47000000000E+01 0. -1.
        -11    1    1    2    0    0  0.20946640174E+02 -0.24590627373E+02 -0.19082894399E+02  0.37518229540E+02  0.00000000000E+00 0. -1.
         11    1    1    2    0    0 -0.27500191242E+02  0.43187645493E+02  0.29576261750E+02  0.59128576007E+02  0.00000000000E+00 0.  1.
<mgrwt>
<rscale>  0 0.11812513E+03</rscale>
<asrwt>0</asrwt>
<pdfrwt beam="1">  1        2 0.19863694E-01 0.12654712E+03</pdfrwt>
<pdfrwt beam="2">  1       -2 0.14780454E-01 0.12654712E+03</pdfrwt>
<totfact> 0.91993492E+03</totfact>
</mgrwt>
</event>
<event>
 6    1  0.6101889E-006  0.2303539E+03  0.7546771E-02  0.1129572E+00
          1   -1    0    0  501    0  0.00000000000E+00  0.00000000000E+00  0.75834188472E+02  0.75834188472E+02  0.00000000000E+00 0. -1.
         -1   -1    0    0    0  501 -0.00000000000E+00 -0.00000000000E+00 -0.87436343106E+03  0.87436343106E+03  0.00000000000E+00 0.  1.
          5    1    1    2  502    0 -0.31136708813E+02 -0.20522910729E+03 -0.13669249313E+03  0.24858682345E+03  0.47000000000E+01 0. -1.
         -5    1    1    2    0  502  0.12079130947E+02  0.12676981878E+02 -0.32539532411E+02  0.37249462325E+02  0.47000000000E+01 0. -1.
        -11    1    1    2    0    0 -0.31553546717E+02  0.11290647273E+03 -0.38578290964E+03  0.40320212210E+03  0.00000000000E+00 0. -1.
         11    1    1    2    0    0  0.50611124583E+02  0.79645652679E+02 -0.24351430741E+03  0.26115921166E+03  0.00000000000E+00 0.  1.
<mgrwt>
<rscale>  0 0.22588217E+03</rscale>
<asrwt>0</asrwt>
<pdfrwt beam="1">  1        1 0.11666799E-01 0.23035387E+03</pdfrwt>
<pdfrwt beam="2">  1       -1 0.13451744E+00 0.23035387E+03</pdfrwt>
<totfact> 0.26170993E+02</totfact>
</mgrwt>
</event>
<event>
 6    1  0.6101889E-006  0.1689612E+03  0.7546771E-02  0.1184973E+00
          4   -1    0    0  501    0  0.00000000000E+00  0.00000000000E+00  0.91851678951E+02  0.91851678951E+02  0.00000000000E+00 0. -1.
         -4   -1    0    0    0  501 -0.00000000000E+00 -0.00000000000E+00 -0.32154086145E+03  0.32154086145E+03  0.00000000000E+00 0.  1.
          5    1    1    2  502    0 -0.10192526887E+03 -0.67725444396E+02  0.68247664975E+01  0.12265465214E+03  0.47000000000E+01 0.  1.
         -5    1    1    2    0  502 -0.93129619300E-01  0.17609995329E+02 -0.47867178120E+02  0.51219892130E+02  0.47000000000E+01 0.  1.
        -11    1    1    2    0    0  0.99963073436E+02  0.27675517503E+02 -0.19050073186E+03  0.21690799699E+03  0.00000000000E+00 0.  1.
         11    1    1    2    0    0  0.20553250575E+01  0.22439931565E+02  0.18539609850E+01  0.22609999139E+02  0.00000000000E+00 0. -1.
<mgrwt>
<rscale>  0 0.16334302E+03</rscale>
<asrwt>0</asrwt>
<pdfrwt beam="1">  1        4 0.14131028E-01 0.16896117E+03</pdfrwt>
<pdfrwt beam="2">  1       -4 0.49467824E-01 0.16896117E+03</pdfrwt>
<totfact> 0.28717847E+02</totfact>
</mgrwt>
</event>
<event>
 6    1  0.6101889E-006  0.1940363E+03  0.7546771E-02  0.1159390E+00
          4   -1    0    0  501    0  0.00000000000E+00  0.00000000000E+00  0.21930039485E+02  0.21930039485E+02  0.00000000000E+00 0. -1.
         -4   -1    0    0    0  501 -0.00000000000E+00 -0.00000000000E+00 -0.15683749742E+04  0.15683749742E+04  0.00000000000E+00 0.  1.
          5    1    1    2  502    0  0.21467555730E+02  0.67617516908E+02 -0.65793385166E+03  0.66176432943E+03  0.47000000000E+01 0. -1.
         -5    1    1    2    0  502 -0.48209162250E+02  0.78364553904E+02 -0.24417305055E+03  0.26097451072E+03  0.47000000000E+01 0. -1.
        -11    1    1    2    0    0 -0.34136785203E+02 -0.50370270485E+02 -0.20478737842E+03  0.21363603304E+03  0.00000000000E+00 0.  1.
         11    1    1    2    0    0  0.60878391723E+02 -0.95611800327E+02 -0.43955065406E+03  0.45393014047E+03  0.00000000000E+00 0. -1.
<mgrwt>
<rscale>  0 0.18897393E+03</rscale>
<asrwt>0</asrwt>
<pdfrwt beam="1">  1        4 0.33738521E-02 0.19403635E+03</pdfrwt>
<pdfrwt beam="2">  1       -4 0.24128847E+00 0.19403635E+03</pdfrwt>
<totfact> 0.64899222E+01</totfact>
</mgrwt>
</event>
<event>
 6    1  0.6101889E-006  0.3143417E+03  0.7546771E-02  0.1078283E+00
          1   -1    0    0  501    0  0.00000000000E+00  0.00000000000E+00  0.14240798917E+04  0.14240798917E+04  0.00000000000E+00 0. -1.
         -1   -1    0    0    0  501 -0.00000000000E+00 -0.00000000000E+00 -0.17346411147E+02  0.17346411147E+02  0.00000000000E+00 0.  1.
          5    1    1    2  502    0 -0.24553921042E+02 -0.11938193037E+02  0.35882027010E+03  0.35988816558E+03  0.47000000000E+01 0. -1.
         -5    1    1    2    0  502  0.12239483108E+03  0.14913159446E+01  0.65898619313E+03  0.67027428075E+03  0.47000000000E+01 0. -1.
        -11    1    1    2    0    0 -0.71097252131E+02  0.46468692263E+02  0.29804622130E+03  0.30991242094E+03  0.00000000000E+00 0. -1.
         11    1    1    2    0    0 -0.26743657910E+02 -0.36021815171E+02  0.90880795977E+02  0.10135143553E+03  0.00000000000E+00 0.  1.
<mgrwt>
<rscale>  0 0.31434170E+03</rscale>
<asrwt>0</asrwt>
<pdfrwt beam="1">  1        1 0.21908912E+00 0.31434170E+03</pdfrwt>
<pdfrwt beam="2">  1       -1 0.26686798E-02 0.31434170E+03</pdfrwt>
<totfact> 0.36115696E+03</totfact>
</mgrwt>
</event>
<event>
 6    1  0.6101889E-006  0.1381813E+03  0.7546771E-02  0.1223297E+00
          1   -1    0    0  501    0  0.00000000000E+00  0.00000000000E+00  0.51906254112E+03  0.51906254112E+03  0.00000000000E+00 0.  1.
         -1   -1    0    0    0  501 -0.00000000000E+00 -0.00000000000E+00 -0.35203053731E+02  0.35203053731E+02  0.00000000000E+00 0. -1.
          5    1    1    2  502    0 -0.48115319201E+02 -0.14906686305E+02  0.57435326954E+02  0.76538879144E+02  0.47000000000E+01 0.  1.
         -5    1    1    2    0  502  0.48696402082E+02 -0.44042312192E+02  0.28977349886E+03  0.29715624759E+03  0.47000000000E+01 0.  1.
        -11    1    1    2    0    0  0.90823411966E+01  0.49727381517E+02  0.15202214474E+03  0.16020622300E+03  0.00000000000E+00 0.  1.
         11    1    1    2    0    0 -0.96634240773E+01  0.92216169803E+01 -0.15371483169E+02  0.20364245123E+02  0.00000000000E+00 0. -1.
<mgrwt>
<rscale>  0 0.13284335E+03</rscale>
<asrwt>0</asrwt>
<pdfrwt beam="1">  1        1 0.79855770E-01 0.13818133E+03</pdfrwt>
<pdfrwt beam="2">  1       -1 0.54158548E-02 0.13818133E+03</pdfrwt>
<totfact> 0.64395626E+03</totfact>
</mgrwt>
</event>
<event>
 6    1  0.6101889E-006  0.2231998E+03  0.7546771E-02  0.1134728E+00
          1   -1    0    0  501    0  0.00000000000E+00  0.00000000000E+00  0.96166176658E+03  0.96166176658E+03  0.00000000000E+00 0. -1.
         -1   -1    0    0    0  501 -0.00000000000E+00 -0.00000000000E+00 -0.52066075510E+02  0.52066075510E+02  0.00000000000E+00 0.  1.
          5    1    1    2  502    0  0.51436886285E+02  0.36973908666E+02  0.70220712686E+02  0.94688234131E+02  0.47000000000E+01 0. -1.
         -5    1    1    2    0  502  0.12761305395E+03  0.92515955414E+01  0.54297378149E+03  0.55786494866E+03  0.47000000000E+01 0. -1.
        -11    1    1    2    0    0 -0.10624567997E+03  0.15328047361E+02  0.19064537671E+03  0.21878928952E+03  0.00000000000E+00 0. -1.
         11    1    1    2    0    0 -0.72804260269E+02 -0.61553551568E+02  0.10575582018E+03  0.14238536978E+03  0.00000000000E+00 0.  1.
<mgrwt>
<rscale>  0 0.21887103E+03</rscale>
<asrwt>0</asrwt>
<pdfrwt beam="1">  1        1 0.14794795E+00 0.22319984E+03</pdfrwt>
<pdfrwt beam="2">  1       -1 0.80101662E-02 0.22319984E+03</pdfrwt>
<totfact> 0.14694090E+03</totfact>
</mgrwt>
</event>
<event>
 6    1  0.6101889E-006  0.1278791E+03  0.7546771E-02  0.1243661E+00
          2   -1    0    0  501    0  0.00000000000E+00  0.00000000000E+00  0.26436465243E+03  0.26436465243E+03  0.00000000000E+00 0. -1.
         -2   -1    0    0    0  501 -0.00000000000E+00 -0.00000000000E+00 -0.56021582539E+02  0.56021582539E+02  0.00000000000E+00 0.  1.
          5    1    1    2  502    0  0.49952842726E+02  0.55344997080E+02  0.12219770433E+03  0.14322263837E+03  0.47000000000E+01 0. -1.
         -5    1    1    2    0  502 -0.25475262121E+02 -0.44144796594E+02  0.52993149314E+02  0.73675748525E+02  0.47000000000E+01 0. -1.
        -11    1    1    2    0    0 -0.34255945085E+02  0.11739809363E+02 -0.22410626157E+02  0.42585549924E+02  0.00000000000E+00 0.  1.
         11    1    1    2    0    0  0.97783644799E+01 -0.22940009849E+02  0.55562842403E+02  0.60902298147E+02  0.00000000000E+00 0. -1.
<mgrwt>
<rscale>  0 0.11965861E+03</rscale>
<asrwt>0</asrwt>
<pdfrwt beam="1">  1        2 0.40671484E-01 0.12787914E+03</pdfrwt>
<pdfrwt beam="2">  1       -2 0.86187051E-02 0.12787914E+03</pdfrwt>
<totfact> 0.99253553E+03</totfact>
</mgrwt>
</event>
<event>
 6    1  0.6101889E-006  0.3258267E+03  0.7546771E-02  0.1072999E+00
         -1   -1    0    0    0  501 -0.00000000000E+00  0.00000000000E+00  0.30896420450E+02  0.30896420450E+02  0.00000000000E+00 0.  1.
          1   -1    0    0  501    0  0.00000000000E+00 -0.00000000000E+00 -0.85902368635E+03  0.85902368635E+03  0.00000000000E+00 0. -1.
          5    1    1    2  502    0  0.11489334136E+03  0.12620172501E+02 -0.27644793178E+03  0.29967532035E+03  0.47000000000E+01 0.  1.
         -5    1    1    2    0  502 -0.76901638898E+01 -0.74976219612E+00 -0.29508997611E+03  0.29522852973E+03  0.47000000000E+01 0.  1.
        -11    1    1    2    0    0 -0.92867252539E+02  0.29753087563E+02 -0.14198892549E+03  0.17225106030E+03  0.00000000000E+00 0.  1.
         11    1    1    2    0    0 -0.14335924927E+02 -0.41623497867E+02 -0.11460043252E+03  0.12276519642E+03  0.00000000000E+00 0. -1.
<mgrwt>
<rscale>  0 0.32582668E+03</rscale>
<asrwt>0</asrwt>
<pdfrwt beam="2">  1        1 0.13215748E+00 0.32582668E+03</pdfrwt>
<pdfrwt beam="1">  1       -1 0.47532958E-02 0.32582668E+03</pdfrwt>
<totfact> 0.39206544E+03</totfact>
</mgrwt>
</event>
<event>
 6    1  0.6101889E-006  0.2422350E+03  0.7546771E-02  0.1120936E+00
          1   -1    0    0  501    0  0.00000000000E+00  0.00000000000E+00  0.65876199837E+03  0.65876199837E+03  0.00000000000E+00 0. -1.
         -1   -1    0    0    0  501 -0.00000000000E+00 -0.00000000000E+00 -0.91564720048E+02  0.91564720048E+02  0.00000000000E+00 0.  1.
          5    1    1    2  502    0  0.19983769096E+02  0.20294008067E+02  0.71665482495E+02  0.77260786768E+02  0.47000000000E+01 0.  1.
         -5    1    1    2    0  502 -0.17659768480E+03  0.11581282679E+03  0.33168447905E+03  0.39323788827E+03  0.47000000000E+01 0.  1.
        -11    1    1    2    0    0  0.21579361320E+02 -0.13598085874E+02  0.70547742129E+02  0.75017069351E+02  0.00000000000E+00 0. -1.
         11    1    1    2    0    0  0.13503455438E+03 -0.12250874898E+03  0.93299574641E+02  0.20481097403E+03  0.00000000000E+00 0.  1.
<mgrwt>
<rscale>  0 0.23829181E+03</rscale>
<asrwt>0</asrwt>
<pdfrwt beam="1">  1        1 0.10134800E+00 0.24223503E+03</pdfrwt>
<pdfrwt beam="2">  1       -1 0.14086880E-01 0.24223503E+03</pdfrwt>
<totfact> 0.10956237E+03</totfact>
</mgrwt>
</event>
<event>
 6    1  0.6101889E-006  0.1526086E+03  0.7546771E-02  0.1206095E+00
          2   -1    0    0  501    0  0.00000000000E+00  0.00000000000E+00  0.25063641009E+03  0.25063641009E+03  0.00000000000E+00 0. -1.
         -2   -1    0    0    0  501 -0.00000000000E+00 -0.00000000000E+00 -0.82731217264E+02  0.82731217264E+02  0.00000000000E+00 0.  1.
          5    1    1    2  502    0  0.55425684310E+00  0.29013365044E+02  0.60360388738E+02  0.67138283270E+02  0.47000000000E+01 0.  1.
         -5    1    1    2    0  502  0.38515013894E+02 -0.10735820177E+03  0.72751135311E+02  0.13536619767E+03  0.47000000000E+01 0.  1.
        -11    1    1    2    0    0 -0.67394966894E+02  0.55138901553E+02  0.12438493669E+02  0.87960764844E+02  0.00000000000E+00 0.  1.
         11    1    1    2    0    0  0.28325696157E+02  0.23205935176E+02  0.22355175106E+02  0.42902381568E+02  0.00000000000E+00 0. -1.
<mgrwt>
<rscale>  0 0.14551528E+03</rscale>
<asrwt>0</asrwt>
<pdfrwt beam="1">  1        2 0.38559447E-01 0.15260861E+03</pdfrwt>
<pdfrwt beam="2">  1       -2 0.12727880E-01 0.15260861E+03</pdfrwt>
<totfact> 0.57448749E+03</totfact>
</mgrwt>
</event>
<event>
 6    1  0.6101889E-006  0.1654279E+03  0.7546771E-02  0.1189615E+00
         -3   -1    0    0    0  501 -0.00000000000E+00  0.00000000000E+00  0.61918242894E+02  0.61918242894E+02  0.00000000000E+00 0.  1.
          3   -1    0    0  501    0  0.00000000000E+00 -0.00000000000E+00 -0.38210294003E+03  0.38210294003E+03  0.00000000000E+00 0. -1.
          5    1    1    2  502    0 -0.85498399215E+00  0.38099193951E+02 -0.47477638127E+02  0.61061409249E+02  0.47000000000E+01 0. -1.
         -5    1    1    2    0  502 -0.10058411158E+03 -0.76196324994E+02 -0.11429516552E+03  0.17031887243E+03  0.47000000000E+01 0. -1.
        -11    1    1    2    0    0  0.38164117933E+02 -0.62300502407E+01 -0.26354562636E+01  0.38758986742E+02  0.00000000000E+00 0.  1.
         11    1    1    2    0    0  0.63274977641E+02  0.44327181284E+02 -0.15577643722E+03  0.17388191450E+03  0.00000000000E+00 0. -1.
<mgrwt>
<rscale>  0 0.15918972E+03</rscale>
<asrwt>0</asrwt>
<pdfrwt beam="2">  1        3 0.58785069E-01 0.16542791E+03</pdfrwt>
<pdfrwt beam="1">  1       -3 0.95258834E-02 0.16542791E+03</pdfrwt>
<totfact> 0.54775953E+02</totfact>
</mgrwt>
</event>
<event>
 6    1  0.6101889E-006  0.1477126E+03  0.7546771E-02  0.1212770E+00
          2   -1    0    0  501    0  0.00000000000E+00  0.00000000000E+00  0.34415815192E+03  0.34415815192E+03  0.00000000000E+00 0. -1.
         -2   -1    0    0    0  501 -0.00000000000E+00 -0.00000000000E+00 -0.52308378471E+02  0.52308378471E+02  0.00000000000E+00 0.  1.
          5    1    1    2  502    0 -0.53046617107E+00  0.28455956694E+02  0.37156505340E+01  0.29084685396E+02  0.47000000000E+01 0.  1.
         -5    1    1    2    0  502 -0.26039593948E+02 -0.10258348971E+03  0.15485617587E+03  0.18762717825E+03  0.47000000000E+01 0.  1.
        -11    1    1    2    0    0 -0.16587284387E+02  0.20998520714E+02 -0.33216348741E+01  0.26964961223E+02  0.00000000000E+00 0.  1.
         11    1    1    2    0    0  0.43157344506E+02  0.53129012298E+02  0.13659958192E+03  0.15278970552E+03  0.00000000000E+00 0. -1.
<mgrwt>
<rscale>  0 0.14041589E+03</rscale>
<asrwt>0</asrwt>
<pdfrwt beam="1">  1        2 0.52947406E-01 0.14771258E+03</pdfrwt>
<pdfrwt beam="2">  1       -2 0.80474431E-02 0.14771258E+03</pdfrwt>
<totfact> 0.84311416E+03</totfact>
</mgrwt>
</event>
<event>
 6    1  0.6101889E-006  0.2406527E+03  0.7546771E-02  0.1119359E+00
          1   -1    0    0  501    0  0.00000000000E+00  0.00000000000E+00  0.32467552665E+03  0.32467552665E+03  0.00000000000E+00 0. -1.
         -1   -1    0    0    0  501 -0.00000000000E+00 -0.00000000000E+00 -0.44593554770E+02  0.44593554770E+02  0.00000000000E+00 0.  1.
          5    1    1    2  502    0  0.86831956406E+01  0.19256611752E+02  0.24671065679E+03  0.24765793578E+03  0.47000000000E+01 0. -1.
         -5    1    1    2    0  502  0.36191614968E+01 -0.33118372654E+01 -0.14925558112E+02  0.16399051222E+02  0.47000000000E+01 0. -1.
        -11    1    1    2    0    0 -0.48425285602E+02  0.94119847050E+01  0.24886316711E+02  0.55253257833E+02  0.00000000000E+00 0. -1.
         11    1    1    2    0    0  0.36122928465E+02 -0.25356759191E+02  0.23410556494E+02  0.49958836585E+02  0.00000000000E+00 0.  1.
<mgrwt>
<rscale>  0 0.24065274E+03</rscale>
<asrwt>0</asrwt>
<pdfrwt beam="1">  1        1 0.49950080E-01 0.24065274E+03</pdfrwt>
<pdfrwt beam="2">  1       -1 0.68605471E-02 0.24065274E+03</pdfrwt>
<totfact> 0.85044920E+03</totfact>
</mgrwt>
</event>
<event>
 6    1  0.6101889E-006  0.3349293E+03  0.7546771E-02  0.1070001E+00
          4   -1    0    0  501    0  0.00000000000E+00  0.00000000000E+00  0.36496323163E+03  0.36496323163E+03  0.00000000000E+00 0. -1.
         -4   -1    0    0    0  501 -0.00000000000E+00 -0.00000000000E+00 -0.29984250200E+03  0.29984250200E+03  0.00000000000E+00 0.  1.
          5    1    1    2  502    0  0.35513673244E+01 -0.53650121472E+01 -0.10886896105E+02  0.13491110852E+02  0.47000000000E+01 0. -1.
         -5    1    1    2    0  502 -0.16094006566E+03  0.27741640429E+03  0.25219062122E+02  0.32174470811E+03  0.47000000000E+01 0.  1.
        -11    1    1    2    0    0  0.33686298102E+02 -0.13598699161E+02 -0.76890869591E+01  0.37132376128E+02  0.00000000000E+00 0.  1.
         11    1    1    2    0    0  0.12370240023E+03 -0.25845269298E+03  0.58477650570E+02  0.29243753854E+03  0.00000000000E+00 0. -1.
<mgrwt>
<rscale>  0 0.33258064E+03</rscale>
<asrwt>0</asrwt>
<pdfrwt beam="1">  1        4 0.56148190E-01 0.33492931E+03</pdfrwt>
<pdfrwt beam="2">  1       -4 0.46129616E-01 0.33492931E+03</pdfrwt>
<totfact> 0.25997285E+01</totfact>
</mgrwt>
</event>
<event>
 6    1  0.6101889E-006  0.1696640E+03  0.7546771E-02  0.1184656E+00
         -2   -1    0    0    0  501 -0.00000000000E+00  0.00000000000E+00  0.38060941987E+02  0.38060941987E+02  0.00000000000E+00 0.  1.
          2   -1    0    0  501    0  0.00000000000E+00 -0.00000000000E+00 -0.81538773214E+03  0.81538773214E+03  0.00000000000E+00 0. -1.
          5    1    1    2  502    0  0.51779869056E+02  0.65262921708E+02 -0.40892990028E+03  0.41735615143E+03  0.47000000000E+01 0. -1.
         -5    1    1    2    0  502  0.61425193469E+02 -0.46709818920E+02 -0.18959753448E+03  0.20475394174E+03  0.47000000000E+01 0. -1.
        -11    1    1    2    0    0 -0.12072376761E+03  0.70118713562E-01 -0.17199300943E+03  0.21013288242E+03  0.00000000000E+00 0. -1.
         11    1    1    2    0    0  0.75187050843E+01 -0.18623221502E+02 -0.68063459651E+01  0.21205698542E+02  0.00000000000E+00 0.  1.
<mgrwt>
<rscale>  0 0.16363229E+03</rscale>
<asrwt>0</asrwt>
<pdfrwt beam="2">  1        2 0.12544427E+00 0.16966401E+03</pdfrwt>
<pdfrwt beam="1">  1       -2 0.58555295E-02 0.16966401E+03</pdfrwt>
<totfact> 0.52152977E+03</totfact>
</mgrwt>
</event>
<event>
 6    1  0.6101889E-006  0.1966154E+03  0.7546771E-02  0.1160848E+00
          2   -1    0    0  501    0  0.00000000000E+00  0.00000000000E+00  0.29747587970E+04  0.29747587970E+04  0.00000000000E+00 0. -1.
         -2   -1    0    0    0  501 -0.00000000000E+00 -0.00000000000E+00 -0.70576389363E+02  0.70576389363E+02  0.00000000000E+00 0.  1.
          5    1    1    2  502    0  0.65084850741E+02  0.72529429199E+02  0.27350581549E+04  0.27367977193E+04  0.47000000000E+01 0. -1.
         -5    1    1    2    0  502  0.30957062242E+02  0.20581675863E+02  0.13850616531E+03  0.14348516618E+03  0.47000000000E+01 0.  1.
        -11    1    1    2    0    0 -0.99545780312E+02 -0.10522278478E+03  0.15972117593E+02  0.14572681755E+03  0.00000000000E+00 0.  1.
         11    1    1    2    0    0  0.35038673288E+01  0.12111679714E+02  0.14645969797E+02  0.19325483255E+02  0.00000000000E+00 0. -1.
<mgrwt>
<rscale>  0 0.18737750E+03</rscale>
<asrwt>0</asrwt>
<pdfrwt beam="1">  1        2 0.45765510E+00 0.19661536E+03</pdfrwt>
<pdfrwt beam="2">  1       -2 0.10857908E-01 0.19661536E+03</pdfrwt>
<totfact> 0.12962261E+02</totfact>
</mgrwt>
</event>
<event>
 6    1  0.6101889E-006  0.1343356E+03  0.7546771E-02  0.1232982E+00
         -2   -1    0    0    0  501 -0.00000000000E+00  0.00000000000E+00  0.44275775380E+03  0.44275775380E+03  0.00000000000E+00 0.  1.
          2   -1    0    0  501    0  0.00000000000E+00 -0.00000000000E+00 -0.32534745114E+02  0.32534745114E+02  0.00000000000E+00 0. -1.
          5    1    1    2  502    0  0.53457467034E+02  0.38934770409E+02  0.12620480659E+03  0.14256002363E+03  0.47000000000E+01 0. -1.
         -5    1    1    2    0  502 -0.67296161633E+02  0.82966581589E+01  0.12038790852E+03  0.13824958020E+03  0.47000000000E+01 0. -1.
        -11    1    1    2    0    0  0.44374621330E+02 -0.36428883684E+02  0.14753852713E+03  0.15831546852E+03  0.00000000000E+00 0.  1.
         11    1    1    2    0    0 -0.30535926732E+02 -0.10802544885E+02  0.16091766436E+02  0.36167426565E+02  0.00000000000E+00 0. -1.
<mgrwt>
<rscale>  0 0.12634483E+03</rscale>
<asrwt>0</asrwt>
<pdfrwt beam="2">  1        2 0.50053457E-02 0.13433565E+03</pdfrwt>
<pdfrwt beam="1">  1       -2 0.68116573E-01 0.13433565E+03</pdfrwt>
<totfact> 0.30317181E+03</totfact>
</mgrwt>
</event>
<event>
 6    1  0.6101889E-006  0.1285901E+03  0.7546771E-02  0.1243665E+00
         -1   -1    0    0    0  501 -0.00000000000E+00  0.00000000000E+00  0.35813249810E+02  0.35813249810E+02  0.00000000000E+00 0.  1.
          1   -1    0    0  501    0  0.00000000000E+00 -0.00000000000E+00 -0.67651191073E+03  0.67651191073E+03  0.00000000000E+00 0. -1.
          5    1    1    2  502    0 -0.33173404732E+02 -0.35725932427E+02 -0.25573707306E+03  0.26038501794E+03  0.47000000000E+01 0. -1.
         -5    1    1    2    0  502  0.55948627304E+02  0.55516808899E+02 -0.33337345281E+03  0.34259643023E+03  0.47000000000E+01 0. -1.
        -11    1    1    2    0    0  0.29242542317E+02 -0.25039835883E+02 -0.41031307880E+01  0.38716344669E+02  0.00000000000E+00 0.  1.
         11    1    1    2    0    0 -0.52017764890E+02  0.52489594113E+01 -0.47485004259E+02  0.70627367702E+02  0.00000000000E+00 0. -1.
<mgrwt>
<rscale>  0 0.11965619E+03</rscale>
<asrwt>0</asrwt>
<pdfrwt beam="2">  1        1 0.10407875E+00 0.12859011E+03</pdfrwt>
<pdfrwt beam="1">  1       -1 0.55097311E-02 0.12859011E+03</pdfrwt>
<totfact> 0.43646399E+03</totfact>
</mgrwt>
</event>
<event>
 6    1  0.6101889E-006  0.2119737E+03  0.7546771E-02  0.1143480E+00
         -2   -1    0    0    0  501 -0.00000000000E+00  0.00000000000E+00  0.30220039439E+02  0.30220039439E+02  0.00000000000E+00 0. -1.
          2   -1    0    0  501    0  0.00000000000E+00 -0.00000000000E+00 -0.14056404845E+04  0.14056404845E+04  0.00000000000E+00 0.  1.
          5    1    1    2  502    0  0.55890664907E+00 -0.11490895266E+03 -0.54581417182E+03  0.55779887050E+03  0.47000000000E+01 0. -1.
         -5    1    1    2    0  502 -0.86011315056E+02 -0.33434974742E+02 -0.28355609155E+03  0.29823143850E+03  0.47000000000E+01 0. -1.
        -11    1    1    2    0    0  0.57057366586E+02  0.15598886285E+02 -0.17518422891E+03  0.18490100701E+03  0.00000000000E+00 0. -1.
         11    1    1    2    0    0  0.28395041822E+02  0.13274504111E+03 -0.37086595280E+03  0.39492920794E+03  0.00000000000E+00 0.  1.
<mgrwt>
<rscale>  0 0.20760153E+03</rscale>
<asrwt>0</asrwt>
<pdfrwt beam="2">  1        2 0.21625236E+00 0.21197372E+03</pdfrwt>
<pdfrwt beam="1">  1       -2 0.46492373E-02 0.21197372E+03</pdfrwt>
<totfact> 0.33488263E+03</totfact>
</mgrwt>
</event>
<event>
 6    1  0.6101889E-006  0.1492577E+03  0.7546771E-02  0.1205276E+00
          2   -1    0    0  501    0  0.00000000000E+00  0.00000000000E+00  0.26231816993E+04  0.26231816993E+04  0.00000000000E+00 0.  1.
         -2   -1    0    0    0  501 -0.00000000000E+00 -0.00000000000E+00 -0.11400297296E+02  0.11400297296E+02  0.00000000000E+00 0. -1.
          5    1    1    2  502    0 -0.14841891683E+02  0.30445600235E+02  0.42143872101E+03  0.42282372437E+03  0.47000000000E+01 0.  1.
         -5    1    1    2    0  502  0.68286365699E+02 -0.92070531367E+02  0.16595554510E+04  0.16635162745E+04  0.47000000000E+01 0.  1.
        -11    1    1    2    0    0  0.14230543809E+02  0.51079633314E+01  0.62738785879E+01  0.16369521038E+02  0.00000000000E+00 0.  1.
         11    1    1    2    0    0 -0.67675017825E+02  0.56516967801E+02  0.52451335138E+03  0.53187247669E+03  0.00000000000E+00 0. -1.
<mgrwt>
<rscale>  0 0.14615742E+03</rscale>
<asrwt>0</asrwt>
<pdfrwt beam="1">  1        2 0.40356594E+00 0.14925765E+03</pdfrwt>
<pdfrwt beam="2">  1       -2 0.17538940E-02 0.14925765E+03</pdfrwt>
<totfact> 0.32434331E+03</totfact>
</mgrwt>
</event>
<event>
 6    1  0.6101889E-006  0.1396569E+03  0.7546771E-02  0.1226744E+00
          2   -1    0    0  501    0  0.00000000000E+00  0.00000000000E+00  0.26695623911E+03  0.26695623911E+03  0.00000000000E+00 0. -1.
         -2   -1    0    0    0  501 -0.00000000000E+00 -0.00000000000E+00 -0.67830567984E+02  0.67830567984E+02  0.00000000000E+00 0.  1.
          5    1    1    2  502    0  0.40433699009E+01 -0.38553798370E+02  0.37039737217E+02  0.53821708835E+02  0.47000000000E+01 0. -1.
         -5    1    1    2    0  502 -0.33861498336E+02  0.93227563817E+02  0.14104246376E+03  0.17249071369E+03  0.47000000000E+01 0. -1.
        -11    1    1    2    0    0  0.55992930688E+02 -0.37535448290E+02 -0.52392310341E+01  0.67613369293E+02  0.00000000000E+00 0.  1.
         11    1    1    2    0    0 -0.26174802253E+02 -0.17138317158E+02  0.26282701179E+02  0.40861015274E+02  0.00000000000E+00 0. -1.
<mgrwt>
<rscale>  0 0.13048064E+03</rscale>
<asrwt>0</asrwt>
<pdfrwt beam="1">  1        2 0.41070190E-01 0.13965687E+03</pdfrwt>
<pdfrwt beam="2">  1       -2 0.10435472E-01 0.13965687E+03</pdfrwt>
<totfact> 0.73296618E+03</totfact>
</mgrwt>
</event>
<event>
 6    1  0.6101889E-006  0.1396478E+03  0.7546771E-02  0.1224793E+00
          2   -1    0    0  501    0  0.00000000000E+00  0.00000000000E+00  0.23138402173E+03  0.23138402173E+03  0.00000000000E+00 0. -1.
         -2   -1    0    0    0  501 -0.00000000000E+00 -0.00000000000E+00 -0.67794073495E+02  0.67794073495E+02  0.00000000000E+00 0.  1.
          5    1    1    2  502    0 -0.60389670213E+02 -0.54742517528E+02  0.45831776175E+02  0.93628506349E+02  0.47000000000E+01 0. -1.
         -5    1    1    2    0  502 -0.18315630920E+01  0.57110806319E+02  0.46028709483E+02  0.73523675904E+02  0.47000000000E+01 0. -1.
        -11    1    1    2    0    0  0.17973718186E+02  0.24153850910E+02 -0.13026484116E+02  0.32804761051E+02  0.00000000000E+00 0.  1.
         11    1    1    2    0    0  0.44247515119E+02 -0.26522139701E+02  0.84755946689E+02  0.99221151917E+02  0.00000000000E+00 0. -1.
<mgrwt>
<rscale>  0 0.13181069E+03</rscale>
<asrwt>0</asrwt>
<pdfrwt beam="1">  1        2 0.35597541E-01 0.13964778E+03</pdfrwt>
<pdfrwt beam="2">  1       -2 0.10429858E-01 0.13964778E+03</pdfrwt>
<totfact> 0.85447880E+03</totfact>
</mgrwt>
</event>
<event>
 6    1  0.6101889E-006  0.1254711E+03  0.7546771E-02  0.1250352E+00
          1   -1    0    0  501    0  0.00000000000E+00  0.00000000000E+00  0.36423279962E+03  0.36423279962E+03  0.00000000000E+00 0. -1.
         -1   -1    0    0    0  501 -0.00000000000E+00 -0.00000000000E+00 -0.78568787930E+02  0.78568787930E+02  0.00000000000E+00 0.  1.
          5    1    1    2  502    0 -0.43050215625E+02 -0.40135937558E+02  0.10377667472E+03  0.11939808526E+03  0.47000000000E+01 0.  1.
         -5    1    1    2    0  502  0.49879028827E+02  0.32153205154E+02  0.21781868193E+03  0.22580702893E+03  0.47000000000E+01 0.  1.
        -11    1    1    2    0    0  0.37364699302E+02  0.75394795863E+01  0.36174683311E+01  0.38289039992E+02  0.00000000000E+00 0. -1.
         11    1    1    2    0    0 -0.44193512503E+02  0.44325281826E+00 -0.39548813283E+02  0.59307433366E+02  0.00000000000E+00 0.  1.
<mgrwt>
<rscale>  0 0.11570689E+03</rscale>
<asrwt>0</asrwt>
<pdfrwt beam="1">  1        1 0.56035814E-01 0.12547110E+03</pdfrwt>
<pdfrwt beam="2">  1       -1 0.12087506E-01 0.12547110E+03</pdfrwt>
<totfact> 0.29961184E+03</totfact>
</mgrwt>
</event>
<event>
 6    1  0.6101889E-006  0.1339730E+03  0.7546771E-02  0.1234824E+00
         -3   -1    0    0    0  501 -0.00000000000E+00  0.00000000000E+00  0.86666146797E+02  0.86666146797E+02  0.00000000000E+00 0.  1.
          3   -1    0    0  501    0  0.00000000000E+00 -0.00000000000E+00 -0.19208952415E+03  0.19208952415E+03  0.00000000000E+00 0. -1.
          5    1    1    2  502    0  0.14367433220E+02 -0.34342621239E+02 -0.74672249656E+02  0.83569573648E+02  0.47000000000E+01 0.  1.
         -5    1    1    2    0  502 -0.13052904176E+02  0.82537819142E+02 -0.39930972576E+02  0.92733178890E+02  0.47000000000E+01 0.  1.
        -11    1    1    2    0    0 -0.12253033431E+01  0.14211460896E+02  0.32767247687E+02  0.35737368538E+02  0.00000000000E+00 0.  1.
         11    1    1    2    0    0 -0.89225701078E-01 -0.62406658799E+02 -0.23587402810E+02  0.66715549874E+02  0.00000000000E+00 0. -1.
<mgrwt>
<rscale>  0 0.12515737E+03</rscale>
<asrwt>0</asrwt>
<pdfrwt beam="2">  1        3 0.29552234E-01 0.13397299E+03</pdfrwt>
<pdfrwt beam="1">  1       -3 0.13333254E-01 0.13397299E+03</pdfrwt>
<totfact> 0.11530323E+03</totfact>
</mgrwt>
</event>
<event>
 6    1  0.6101889E-006  0.1282558E+03  0.7546771E-02  0.1245501E+00
          2   -1    0    0  501    0  0.00000000000E+00  0.00000000000E+00  0.11429746760E+03  0.11429746760E+03  0.00000000000E+00 0. -1.
         -2   -1    0    0    0  501 -0.00000000000E+00 -0.00000000000E+00 -0.11765718198E+03  0.11765718198E+03  0.00000000000E+00 0.  1.
          5    1    1    2  502    0  0.11297077486E+01  0.30670763852E+02  0.69159158353E+02  0.75809307997E+02  0.47000000000E+01 0. -1.
         -5    1    1    2    0  502 -0.29792186037E+02 -0.28851692966E+02 -0.37704967313E+02  0.56247214117E+02  0.47000000000E+01 0. -1.
        -11    1    1    2    0    0  0.24524677985E+02  0.23145273231E+02 -0.57010816923E+02  0.66237427104E+02  0.00000000000E+00 0.  1.
         11    1    1    2    0    0  0.41378003039E+01 -0.24964344117E+02  0.22196911503E+02  0.33660700361E+02  0.00000000000E+00 0. -1.
<mgrwt>
<rscale>  0 0.11855452E+03</rscale>
<asrwt>0</asrwt>
<pdfrwt beam="1">  1        2 0.17584226E-01 0.12825583E+03</pdfrwt>
<pdfrwt beam="2">  1       -2 0.18101105E-01 0.12825583E+03</pdfrwt>
<totfact> 0.75759072E+03</totfact>
</mgrwt>
</event>
<event>
 6    1  0.6101889E-006  0.1210269E+03  0.7546771E-02  0.1249352E+00
          1   -1    0    0  501    0  0.00000000000E+00  0.00000000000E+00  0.61442655562E+03  0.61442655562E+03  0.00000000000E+00 0. -1.
         -1   -1    0    0    0  501 -0.00000000000E+00 -0.00000000000E+00 -0.23669728694E+02  0.23669728694E+02  0.00000000000E+00 0.  1.
          5    1    1    2  502    0 -0.78532836177E+02  0.22246774696E+02  0.33784924184E+03  0.34760110120E+03  0.47000000000E+01 0. -1.
         -5    1    1    2    0  502  0.36229586659E+02 -0.39046610614E+01  0.95254568122E+02  0.10209481904E+03  0.47000000000E+01 0.  1.
        -11    1    1    2    0    0  0.69632843140E+02 -0.20107862911E+02  0.90969541360E+02  0.11631215091E+03  0.00000000000E+00 0.  1.
         11    1    1    2    0    0 -0.27329593621E+02  0.17657492760E+01  0.66683475601E+02  0.72088213157E+02  0.00000000000E+00 0. -1.
<mgrwt>
<rscale>  0 0.11628676E+03</rscale>
<asrwt>0</asrwt>
<pdfrwt beam="1">  1        1 0.94527150E-01 0.12102690E+03</pdfrwt>
<pdfrwt beam="2">  1       -1 0.36414972E-02 0.12102690E+03</pdfrwt>
<totfact> 0.91391446E+03</totfact>
</mgrwt>
</event>
<event>
 6    1  0.6101889E-006  0.1387285E+03  0.7546771E-02  0.1229195E+00
          2   -1    0    0  501    0  0.00000000000E+00  0.00000000000E+00  0.15235619565E+03  0.15235619565E+03  0.00000000000E+00 0. -1.
         -2   -1    0    0    0  501 -0.00000000000E+00 -0.00000000000E+00 -0.13318897503E+03  0.13318897503E+03  0.00000000000E+00 0.  1.
          5    1    1    2  502    0 -0.71727223103E+02  0.21565283565E+02  0.47572964799E+02  0.88854560767E+02  0.47000000000E+01 0. -1.
         -5    1    1    2    0  502  0.35315883646E+02 -0.52760208281E+02  0.37846322876E+02  0.74062712419E+02  0.47000000000E+01 0.  1.
        -11    1    1    2    0    0 -0.26796208214E+02 -0.68483892816E+01 -0.84880629878E+01  0.28930683084E+02  0.00000000000E+00 0. -1.
         11    1    1    2    0    0  0.63207547672E+02  0.38043313998E+02 -0.57764004071E+02  0.93697214414E+02  0.00000000000E+00 0.  1.
<mgrwt>
<rscale>  0 0.12883504E+03</rscale>
<asrwt>0</asrwt>
<pdfrwt beam="1">  1        2 0.23439415E-01 0.13872845E+03</pdfrwt>
<pdfrwt beam="2">  1       -2 0.20490612E-01 0.13872845E+03</pdfrwt>
<totfact> 0.44695789E+03</totfact>
</mgrwt>
</event>
<event>
 6    1  0.6101889E-006  0.1353841E+03  0.7546771E-02  0.1232167E+00
         -3   -1    0    0    0  501 -0.00000000000E+00  0.00000000000E+00  0.51453087548E+03  0.51453087548E+03  0.00000000000E+00 0.  1.
          3   -1    0    0  501    0  0.00000000000E+00 -0.00000000000E+00 -0.28461331995E+02  0.28461331995E+02  0.00000000000E+00 0. -1.
          5    1    1    2  502    0  0.35142220483E+02  0.75675398858E+01  0.30947300850E+03  0.31158927503E+03  0.47000000000E+01 0. -1.
         -5    1    1    2    0  502  0.14849768859E+02 -0.21869236188E+02  0.71743670727E+00  0.26858589725E+02  0.47000000000E+01 0. -1.
        -11    1    1    2    0    0  0.14230387563E+02 -0.25022705795E+02  0.41561534236E+02  0.50556907179E+02  0.00000000000E+00 0. -1.
         11    1    1    2    0    0 -0.64222376904E+02  0.39324402097E+02  0.13431756404E+03  0.15398743554E+03  0.00000000000E+00 0.  1.
<mgrwt>
<rscale>  0 0.12687572E+03</rscale>
<asrwt>0</asrwt>
<pdfrwt beam="2">  1        3 0.43786669E-02 0.13538406E+03</pdfrwt>
<pdfrwt beam="1">  1       -3 0.79158589E-01 0.13538406E+03</pdfrwt>
<totfact> 0.99059490E+02</totfact>
</mgrwt>
</event>
<event>
 6    1  0.6101889E-006  0.4299372E+03  0.7546771E-02  0.1033880E+00
         -2   -1    0    0    0  501 -0.00000000000E+00  0.00000000000E+00  0.77147547371E+02  0.77147547371E+02  0.00000000000E+00 0.  1.
          2   -1    0    0  501    0  0.00000000000E+00 -0.00000000000E+00 -0.59900160090E+03  0.59900160090E+03  0.00000000000E+00 0. -1.
          5    1    1    2  502    0  0.16514920525E+01  0.15505828199E+02 -0.10266754777E+03  0.10395130350E+03  0.47000000000E+01 0.  1.
         -5    1    1    2    0  502 -0.11741069536E+03  0.12462036247E+03 -0.11749148323E+03  0.20770615003E+03  0.47000000000E+01 0.  1.
        -11    1    1    2    0    0  0.44881728785E+01 -0.58517969796E+02 -0.14071673133E+03  0.15246538939E+03  0.00000000000E+00 0. -1.
         11    1    1    2    0    0  0.11127103043E+03 -0.81608220872E+02 -0.16097829119E+03  0.21202630536E+03  0.00000000000E+00 0.  1.
<mgrwt>
<rscale>  0 0.42993723E+03</rscale>
<asrwt>0</asrwt>
<pdfrwt beam="2">  1        2 0.92154096E-01 0.42993723E+03</pdfrwt>
<pdfrwt beam="1">  1       -2 0.11868853E-01 0.42993723E+03</pdfrwt>
<totfact> 0.25592185E+03</totfact>
</mgrwt>
</event>
<event>
 6    1  0.6101889E-006  0.1301874E+03  0.7546771E-02  0.1240803E+00
          2   -1    0    0  501    0  0.00000000000E+00  0.00000000000E+00  0.39206161925E+03  0.39206161925E+03  0.00000000000E+00 0. -1.
         -2   -1    0    0    0  501 -0.00000000000E+00 -0.00000000000E+00 -0.33335731900E+02  0.33335731900E+02  0.00000000000E+00 0.  1.
          5    1    1    2  502    0 -0.34291985430E+02  0.43451401990E+02  0.25470847334E+02  0.61113162768E+02  0.47000000000E+01 0.  1.
         -5    1    1    2    0  502  0.24987574523E+02 -0.82686640742E+01  0.18107546781E+03  0.18303869736E+03  0.47000000000E+01 0.  1.
        -11    1    1    2    0    0  0.46276931064E+02 -0.31595886356E+02  0.11860173845E+03  0.13117250758E+03  0.00000000000E+00 0. -1.
         11    1    1    2    0    0 -0.36972520158E+02 -0.35868515602E+01  0.33577833758E+02  0.50072983443E+02  0.00000000000E+00 0.  1.
<mgrwt>
<rscale>  0 0.12140160E+03</rscale>
<asrwt>0</asrwt>
<pdfrwt beam="1">  1        2 0.60317169E-01 0.13018737E+03</pdfrwt>
<pdfrwt beam="2">  1       -2 0.51285744E-02 0.13018737E+03</pdfrwt>
<totfact> 0.14443920E+04</totfact>
</mgrwt>
</event>
<event>
 6    1  0.6101889E-006  0.1545519E+03  0.7546771E-02  0.1208904E+00
         -2   -1    0    0    0  501 -0.00000000000E+00  0.00000000000E+00  0.32844862207E+03  0.32844862207E+03  0.00000000000E+00 0.  1.
          2   -1    0    0  501    0  0.00000000000E+00 -0.00000000000E+00 -0.55150352293E+02  0.55150352293E+02  0.00000000000E+00 0. -1.
          5    1    1    2  502    0 -0.19803101577E+02  0.30889691153E+02 -0.84216588350E+01  0.37938768946E+02  0.47000000000E+01 0.  1.
         -5    1    1    2    0  502  0.64208044854E+02  0.48417055827E+02  0.15694286766E+03  0.17640872435E+03  0.47000000000E+01 0.  1.
        -11    1    1    2    0    0  0.11592629614E+02 -0.26003286930E+02  0.86719710371E+01  0.29761772027E+02  0.00000000000E+00 0. -1.
         11    1    1    2    0    0 -0.55997572891E+02 -0.53303460050E+02  0.11610508991E+03  0.13948970903E+03  0.00000000000E+00 0.  1.
<mgrwt>
<rscale>  0 0.14334029E+03</rscale>
<asrwt>0</asrwt>
<pdfrwt beam="2">  1        2 0.84846698E-02 0.15455193E+03</pdfrwt>
<pdfrwt beam="1">  1       -2 0.50530556E-01 0.15455193E+03</pdfrwt>
<totfact> 0.28682360E+03</totfact>
</mgrwt>
</event>
<event>
 6    1  0.6101889E-006  0.1313249E+03  0.7546771E-02  0.1238893E+00
         -1   -1    0    0    0  501 -0.00000000000E+00  0.00000000000E+00  0.16546509169E+02  0.16546509169E+02  0.00000000000E+00 0.  1.
          1   -1    0    0  501    0  0.00000000000E+00 -0.00000000000E+00 -0.85901591979E+03  0.85901591979E+03  0.00000000000E+00 0. -1.
          5    1    1    2  502    0  0.48331847019E+01 -0.56388017032E+02 -0.32002661901E+03  0.32502629896E+03  0.47000000000E+01 0.  1.
         -5    1    1    2    0  502  0.34947307780E+02  0.62456013139E+02 -0.26270498021E+03  0.27231978357E+03  0.47000000000E+01 0.  1.
        -11    1    1    2    0    0  0.15551827461E+02 -0.13809156488E+01 -0.34606050724E+01  0.15991937120E+02  0.00000000000E+00 0.  1.
         11    1    1    2    0    0 -0.55332319943E+02 -0.46870804584E+01 -0.25627720634E+03  0.26222440932E+03  0.00000000000E+00 0. -1.
<mgrwt>
<rscale>  0 0.12258487E+03</rscale>
<asrwt>0</asrwt>
<pdfrwt beam="2">  1        1 0.13215629E+00 0.13132489E+03</pdfrwt>
<pdfrwt beam="1">  1       -1 0.25456168E-02 0.13132489E+03</pdfrwt>
<totfact> 0.95131626E+03</totfact>
</mgrwt>
</event>
<event>
 6    1  0.6101889E-006  0.1265508E+03  0.7546771E-02  0.1249694E+00
         -1   -1    0    0    0  501 -0.00000000000E+00  0.00000000000E+00  0.32610993102E+02  0.32610993102E+02  0.00000000000E+00 0.  1.
          1   -1    0    0  501    0  0.00000000000E+00 -0.00000000000E+00 -0.59632093018E+03  0.59632093018E+03  0.00000000000E+00 0. -1.
          5    1    1    2  502    0 -0.36351735871E+01 -0.46431801514E+02 -0.40814312294E+03  0.41081872582E+03  0.47000000000E+01 0. -1.
         -5    1    1    2    0  502 -0.15886101815E+02  0.49521071534E+02 -0.99611850965E+02  0.11246917626E+03  0.47000000000E+01 0. -1.
        -11    1    1    2    0    0  0.37243835183E+02 -0.19718572156E+02 -0.66839259267E+02  0.79015263882E+02  0.00000000000E+00 0. -1.
         11    1    1    2    0    0 -0.17722559781E+02  0.16629302136E+02  0.10884296096E+02  0.26628757317E+02  0.00000000000E+00 0.  1.
<mgrwt>
<rscale>  0 0.11608770E+03</rscale>
<asrwt>0</asrwt>
<pdfrwt beam="2">  1        1 0.91741672E-01 0.12655084E+03</pdfrwt>
<pdfrwt beam="1">  1       -1 0.50170764E-02 0.12655084E+03</pdfrwt>
<totfact> 0.59631517E+03</totfact>
</mgrwt>
</event>
<event>
 6    1  0.6101889E-006  0.1657883E+03  0.7546771E-02  0.1191233E+00
          4   -1    0    0  501    0  0.00000000000E+00  0.00000000000E+00  0.38210593633E+03  0.38210593633E+03  0.00000000000E+00 0. -1.
         -4   -1    0    0    0  501 -0.00000000000E+00 -0.00000000000E+00 -0.91117112700E+02  0.91117112700E+02  0.00000000000E+00 0.  1.
          5    1    1    2  502    0 -0.94534892582E+02 -0.29853948991E+02  0.22910499068E+03  0.24967837499E+03  0.47000000000E+01 0. -1.
         -5    1    1    2    0  502  0.24558435225E+02 -0.53589521263E+02  0.64540303047E+02  0.87535674141E+02  0.47000000000E+01 0. -1.
        -11    1    1    2    0    0  0.33477316590E+02  0.75479410989E+02  0.28513855514E+02  0.87355092385E+02  0.00000000000E+00 0. -1.
         11    1    1    2    0    0  0.36499140767E+02  0.79640592652E+01 -0.31170325614E+02  0.48653907506E+02  0.00000000000E+00 0.  1.
<mgrwt>
<rscale>  0 0.15777442E+03</rscale>
<asrwt>0</asrwt>
<pdfrwt beam="1">  1        4 0.58785528E-01 0.16578829E+03</pdfrwt>
<pdfrwt beam="2">  1       -4 0.14018018E-01 0.16578829E+03</pdfrwt>
<totfact> 0.20306577E+02</totfact>
</mgrwt>
</event>
<event>
 6    1  0.6101889E-006  0.3110110E+03  0.7546771E-02  0.1081311E+00
          2   -1    0    0  501    0  0.00000000000E+00  0.00000000000E+00  0.19611632289E+04  0.19611632289E+04  0.00000000000E+00 0. -1.
         -2   -1    0    0    0  501 -0.00000000000E+00 -0.00000000000E+00 -0.50780977072E+02  0.50780977072E+02  0.00000000000E+00 0.  1.
          5    1    1    2  502    0  0.98883621242E+01  0.24631975430E+02  0.29721059886E+03  0.29843046760E+03  0.47000000000E+01 0. -1.
         -5    1    1    2    0  502  0.25412473402E+03  0.82142916336E+02  0.93282024801E+03  0.97031054010E+03  0.47000000000E+01 0. -1.
        -11    1    1    2    0    0 -0.19733090985E+03 -0.10478319810E+03  0.43606074571E+03  0.48996732599E+03  0.00000000000E+00 0.  1.
         11    1    1    2    0    0 -0.66682186293E+02 -0.19916936682E+01  0.24429065925E+03  0.25323587228E+03  0.00000000000E+00 0. -1.
<mgrwt>
<rscale>  0 0.30799475E+03</rscale>
<asrwt>0</asrwt>
<pdfrwt beam="1">  1        2 0.30171736E+00 0.31101103E+03</pdfrwt>
<pdfrwt beam="2">  1       -2 0.78124595E-02 0.31101103E+03</pdfrwt>
<totfact> 0.76094660E+02</totfact>
</mgrwt>
</event>
<event>
 6    1  0.6101889E-006  0.1253209E+03  0.7546771E-02  0.1241590E+00
          2   -1    0    0  501    0  0.00000000000E+00  0.00000000000E+00  0.34774285165E+03  0.34774285165E+03  0.00000000000E+00 0. -1.
         -2   -1    0    0    0  501 -0.00000000000E+00 -0.00000000000E+00 -0.45730669936E+02  0.45730669936E+02  0.00000000000E+00 0.  1.
          5    1    1    2  502    0 -0.27813952804E+02 -0.55422133898E+02  0.11932933464E+03  0.13456154354E+03  0.47000000000E+01 0. -1.
         -5    1    1    2    0  502 -0.31794408529E+02  0.54293334579E+02  0.11431507876E+03  0.13057058560E+03  0.47000000000E+01 0.  1.
        -11    1    1    2    0    0  0.16870217646E+02  0.37410367580E+01  0.81690941217E+02  0.83498559726E+02  0.00000000000E+00 0. -1.
         11    1    1    2    0    0  0.42738143687E+02 -0.26122374387E+01 -0.13323172891E+02  0.44842832717E+02  0.00000000000E+00 0.  1.
<mgrwt>
<rscale>  0 0.12091796E+03</rscale>
<asrwt>0</asrwt>
<pdfrwt beam="1">  1        2 0.53498899E-01 0.12532092E+03</pdfrwt>
<pdfrwt beam="2">  1       -2 0.70354879E-02 0.12532092E+03</pdfrwt>
<totfact> 0.10134116E+04</totfact>
</mgrwt>
</event>
<event>
 6    1  0.6101889E-006  0.1290741E+03  0.7546771E-02  0.1240223E+00
         -2   -1    0    0    0  501 -0.00000000000E+00  0.00000000000E+00  0.11196427691E+03  0.11196427691E+03  0.00000000000E+00 0.  1.
          2   -1    0    0  501    0  0.00000000000E+00 -0.00000000000E+00 -0.12942198335E+03  0.12942198335E+03  0.00000000000E+00 0. -1.
          5    1    1    2  502    0  0.31305274758E+02 -0.55552884677E+00 -0.84002290189E+02  0.89770839346E+02  0.47000000000E+01 0.  1.
         -5    1    1    2    0  502 -0.63762662969E+01 -0.19875033352E+02  0.41026092564E+02  0.46269903757E+02  0.47000000000E+01 0.  1.
        -11    1    1    2    0    0 -0.49986631977E+02  0.18033687331E+02  0.47989925695E+02  0.71602445652E+02  0.00000000000E+00 0.  1.
         11    1    1    2    0    0  0.25057623516E+02  0.23968748686E+01 -0.22471434512E+02  0.33743071503E+02  0.00000000000E+00 0. -1.
<mgrwt>
<rscale>  0 0.12175889E+03</rscale>
<asrwt>0</asrwt>
<pdfrwt beam="2">  1        2 0.19911074E-01 0.12907413E+03</pdfrwt>
<pdfrwt beam="1">  1       -2 0.17225273E-01 0.12907413E+03</pdfrwt>
<totfact> 0.71456363E+03</totfact>
</mgrwt>
</event>
<event>
 6    1  0.6101889E-006  0.1271624E+03  0.7546771E-02  0.1247559E+00
         -2   -1    0    0    0  501 -0.00000000000E+00  0.00000000000E+00  0.19948855960E+02  0.19948855960E+02  0.00000000000E+00 0.  1.
          2   -1    0    0  501    0  0.00000000000E+00 -0.00000000000E+00 -0.60443720406E+03  0.60443720406E+03  0.00000000000E+00 0. -1.
          5    1    1    2  502    0 -0.56450285960E+01 -0.46442680811E+02 -0.25728324142E+03  0.26154453782E+03  0.47000000000E+01 0. -1.
         -5    1    1    2    0  502 -0.13108930279E+02  0.59900603697E+02 -0.96829586414E+02  0.11470826117E+03  0.47000000000E+01 0. -1.
        -11    1    1    2    0    0 -0.29824524131E+02 -0.28392242175E+02 -0.11087224765E+03  0.11827204638E+03  0.00000000000E+00 0.  1.
         11    1    1    2    0    0  0.48578483006E+02  0.14934319289E+02 -0.11950327262E+03  0.12986121465E+03  0.00000000000E+00 0. -1.
<mgrwt>
<rscale>  0 0.11733531E+03</rscale>
<asrwt>0</asrwt>
<pdfrwt beam="2">  1        2 0.92990339E-01 0.12716239E+03</pdfrwt>
<pdfrwt beam="1">  1       -2 0.30690548E-02 0.12716239E+03</pdfrwt>
<totfact> 0.19230871E+04</totfact>
</mgrwt>
</event>
<event>
 6    1  0.6101889E-006  0.1324046E+03  0.7546771E-02  0.1234039E+00
          2   -1    0    0  501    0  0.00000000000E+00  0.00000000000E+00  0.89502196112E+03  0.89502196112E+03  0.00000000000E+00 0. -1.
         -2   -1    0    0    0  501 -0.00000000000E+00 -0.00000000000E+00 -0.19142614409E+02  0.19142614409E+02  0.00000000000E+00 0.  1.
          5    1    1    2  502    0 -0.64754570990E+01  0.41342510105E+02  0.35297257671E+03  0.35547554711E+03  0.47000000000E+01 0.  1.
         -5    1    1    2    0  502 -0.74524099162E+01 -0.81002555993E+02  0.30565841641E+03  0.31633227785E+03  0.47000000000E+01 0.  1.
        -11    1    1    2    0    0 -0.12829160708E+02  0.42411271870E+00 -0.59598201616E+01  0.14152268102E+02  0.00000000000E+00 0.  1.
         11    1    1    2    0    0  0.26757027723E+02  0.39235933169E+02  0.22320817376E+03  0.22820448246E+03  0.00000000000E+00 0. -1.
<mgrwt>
<rscale>  0 0.12566163E+03</rscale>
<asrwt>0</asrwt>
<pdfrwt beam="1">  1        2 0.13769565E+00 0.13240456E+03</pdfrwt>
<pdfrwt beam="2">  1       -2 0.29450183E-02 0.13240456E+03</pdfrwt>
<totfact> 0.12749125E+04</totfact>
</mgrwt>
</event>
<event>
 6    1  0.6101889E-006  0.1358491E+03  0.7546771E-02  0.1231664E+00
          2   -1    0    0  501    0  0.00000000000E+00  0.00000000000E+00  0.20092185098E+03  0.20092185098E+03  0.00000000000E+00 0.  1.
         -2   -1    0    0    0  501 -0.00000000000E+00 -0.00000000000E+00 -0.14714427197E+03  0.14714427197E+03  0.00000000000E+00 0. -1.
          5    1    1    2  502    0  0.58048919453E+02 -0.41489311764E+02  0.15859400537E+03  0.17396892993E+03  0.47000000000E+01 0. -1.
         -5    1    1    2    0  502 -0.64204238021E+01  0.28642661953E+02 -0.60082268336E+01  0.30328414321E+02  0.47000000000E+01 0. -1.
        -11    1    1    2    0    0 -0.65111330523E+02  0.13663329392E+02 -0.28844839639E+02  0.72513424318E+02  0.00000000000E+00 0.  1.
         11    1    1    2    0    0  0.13482834872E+02 -0.81667958069E+00 -0.69963359887E+02  0.71255354385E+02  0.00000000000E+00 0. -1.
<mgrwt>
<rscale>  0 0.12720460E+03</rscale>
<asrwt>0</asrwt>
<pdfrwt beam="1">  1        2 0.30911054E-01 0.13584913E+03</pdfrwt>
<pdfrwt beam="2">  1       -2 0.22637580E-01 0.13584913E+03</pdfrwt>
<totfact> 0.27809595E+03</totfact>
</mgrwt>
</event>
<event>
 6    1  0.6101889E-006  0.1284690E+03  0.7546771E-02  0.1242294E+00
         -1   -1    0    0    0  501 -0.00000000000E+00  0.00000000000E+00  0.11993331947E+03  0.11993331947E+03  0.00000000000E+00 0.  1.
          1   -1    0    0  501    0  0.00000000000E+00 -0.00000000000E+00 -0.13331547919E+03  0.13331547919E+03  0.00000000000E+00 0. -1.
          5    1    1    2  502    0  0.99922514275E+01  0.41695005169E+02 -0.84444684173E+02  0.94822535453E+02  0.47000000000E+01 0.  1.
         -5    1    1    2    0  502 -0.34064701298E+02 -0.24412409706E+02  0.22502398108E+02  0.47799765091E+02  0.47000000000E+01 0.  1.
        -11    1    1    2    0    0  0.43809997185E+01 -0.21155699575E+02  0.74648557502E+02  0.77712057753E+02  0.00000000000E+00 0.  1.
         11    1    1    2    0    0  0.19691450152E+02  0.38731041125E+01 -0.26088431155E+02  0.32914440367E+02  0.00000000000E+00 0. -1.
<mgrwt>
<rscale>  0 0.12048806E+03</rscale>
<asrwt>0</asrwt>
<pdfrwt beam="2">  1        1 0.20510074E-01 0.12846896E+03</pdfrwt>
<pdfrwt beam="1">  1       -1 0.18451280E-01 0.12846896E+03</pdfrwt>
<totfact> 0.54002477E+03</totfact>
</mgrwt>
</event>
<event>
 6    1  0.6101889E-006  0.1791206E+03  0.7546771E-02  0.1175490E+00
         -2   -1    0    0    0  501 -0.00000000000E+00  0.00000000000E+00  0.98043724891E+03  0.98043724891E+03  0.00000000000E+00 0.  1.
          2   -1    0    0  501    0  0.00000000000E+00 -0.00000000000E+00 -0.35847207330E+02  0.35847207330E+02  0.00000000000E+00 0. -1.
          5    1    1    2  502    0  0.33600058563E+02 -0.61011529032E+01  0.20148848578E+03  0.20441596783E+03  0.47000000000E+01 0.  1.
         -5    1    1    2    0  502  0.77521744172E+02 -0.58009620412E+02  0.65132759416E+02  0.11678657127E+03  0.47000000000E+01 0.  1.
        -11    1    1    2    0    0 -0.11146940442E+03  0.26087215887E+02  0.47682218197E+03  0.49037267886E+03  0.00000000000E+00 0. -1.
         11    1    1    2    0    0  0.34760168344E+00  0.38023557428E+02  0.20114661441E+03  0.20470923827E+03  0.00000000000E+00 0.  1.
<mgrwt>
<rscale>  0 0.17228049E+03</rscale>
<asrwt>0</asrwt>
<pdfrwt beam="2">  1        2 0.55149557E-02 0.17912058E+03</pdfrwt>
<pdfrwt beam="1">  1       -2 0.15083648E+00 0.17912058E+03</pdfrwt>
<totfact> 0.42738915E+02</totfact>
</mgrwt>
</event>
<event>
 6    1  0.6101889E-006  0.1963006E+03  0.7546771E-02  0.1157370E+00
          2   -1    0    0  501    0  0.00000000000E+00  0.00000000000E+00  0.96021941183E+03  0.96021941183E+03  0.00000000000E+00 0. -1.
         -2   -1    0    0    0  501 -0.00000000000E+00 -0.00000000000E+00 -0.38498686945E+02  0.38498686945E+02  0.00000000000E+00 0.  1.
          5    1    1    2  502    0 -0.13422339804E+03 -0.13233802359E+02  0.30397732459E+03  0.33258887229E+03  0.47000000000E+01 0.  1.
         -5    1    1    2    0  502 -0.15574063143E+02  0.34892568216E+02  0.30068110807E+03  0.30313571467E+03  0.47000000000E+01 0.  1.
        -11    1    1    2    0    0  0.13302379986E+03 -0.12560494777E+02  0.31689321172E+03  0.34391046072E+03  0.00000000000E+00 0. -1.
         11    1    1    2    0    0  0.16773661325E+02 -0.90982710798E+01  0.16908050380E+00  0.19083051096E+02  0.00000000000E+00 0.  1.
<mgrwt>
<rscale>  0 0.19121537E+03</rscale>
<asrwt>0</asrwt>
<pdfrwt beam="1">  1        2 0.14772604E+00 0.19630061E+03</pdfrwt>
<pdfrwt beam="2">  1       -2 0.59228757E-02 0.19630061E+03</pdfrwt>
<totfact> 0.41542031E+03</totfact>
</mgrwt>
</event>
<event>
 6    1  0.6101889E-006  0.1301509E+03  0.7546771E-02  0.1241011E+00
          1   -1    0    0  501    0  0.00000000000E+00  0.00000000000E+00  0.13704650791E+03  0.13704650791E+03  0.00000000000E+00 0. -1.
         -1   -1    0    0    0  501 -0.00000000000E+00 -0.00000000000E+00 -0.12004937810E+03  0.12004937810E+03  0.00000000000E+00 0.  1.
          5    1    1    2  502    0  0.44543572787E+02 -0.60028211779E+02  0.76106388045E+02  0.10677915708E+03  0.47000000000E+01 0.  1.
         -5    1    1    2    0  502 -0.25150392189E+02  0.29428388294E+02 -0.84584540401E+01  0.39902477487E+02  0.47000000000E+01 0.  1.
        -11    1    1    2    0    0  0.85053064054E+01  0.88374830699E+01  0.24473239897E+02  0.27374820824E+02  0.00000000000E+00 0. -1.
         11    1    1    2    0    0 -0.27898487003E+02  0.21762340415E+02 -0.75124044086E+02  0.83039430617E+02  0.00000000000E+00 0.  1.
<mgrwt>
<rscale>  0 0.12127325E+03</rscale>
<asrwt>0</asrwt>
<pdfrwt beam="1">  1        1 0.21084078E-01 0.13015091E+03</pdfrwt>
<pdfrwt beam="2">  1       -1 0.18469135E-01 0.13015091E+03</pdfrwt>
<totfact> 0.52112542E+03</totfact>
</mgrwt>
</event>
<event>
 6    1  0.6101889E-006  0.3338403E+03  0.7546771E-02  0.1069450E+00
          2   -1    0    0  501    0  0.00000000000E+00  0.00000000000E+00  0.59494174352E+03  0.59494174352E+03  0.00000000000E+00 0. -1.
         -2   -1    0    0    0  501 -0.00000000000E+00 -0.00000000000E+00 -0.46832040013E+02  0.46832040013E+02  0.00000000000E+00 0.  1.
          5    1    1    2  502    0  0.79283176674E+02  0.54892596726E+02  0.25177801697E+03  0.26965399888E+03  0.47000000000E+01 0. -1.
         -5    1    1    2    0  502 -0.25857721875E+02 -0.49864201323E+00  0.23928128527E+03  0.24072077996E+03  0.47000000000E+01 0.  1.
        -11    1    1    2    0    0 -0.34618013631E+02  0.21109250103E+02  0.18690787953E+02  0.44646980435E+02  0.00000000000E+00 0. -1.
         11    1    1    2    0    0 -0.18807441167E+02 -0.75503204816E+02  0.38359613319E+02  0.86752024268E+02  0.00000000000E+00 0.  1.
<mgrwt>
<rscale>  0 0.33384029E+03</rscale>
<asrwt>0</asrwt>
<pdfrwt beam="1">  1        2 0.91529494E-01 0.33384029E+03</pdfrwt>
<pdfrwt beam="2">  1       -2 0.72049297E-02 0.33384029E+03</pdfrwt>
<totfact> 0.56935193E+03</totfact>
</mgrwt>
</event>
<event>
 6    1  0.6101889E-006  0.3765429E+03  0.7546771E-02  0.1052219E+00
         -1   -1    0    0    0  501 -0.00000000000E+00  0.00000000000E+00  0.18203815858E+03  0.18203815858E+03  0.00000000000E+00 0.  1.
          1   -1    0    0  501    0  0.00000000000E+00 -0.00000000000E+00 -0.19471821282E+03  0.19471821282E+03  0.00000000000E+00 0. -1.
          5    1    1    2  502    0 -0.67527996039E+02  0.11512603697E+03 -0.45325737487E+02  0.14103385096E+03  0.47000000000E+01 0. -1.
         -5    1    1    2    0  502  0.33953051045E+01  0.21898835291E+02  0.50419619787E+02  0.55274905186E+02  0.47000000000E+01 0. -1.
        -11    1    1    2    0    0 -0.22654780468E+02 -0.57716680991E+02 -0.62160982292E+01  0.62314478412E+02  0.00000000000E+00 0.  1.
         11    1    1    2    0    0  0.86787471402E+02 -0.79308191268E+02 -0.11557838306E+02  0.11813313685E+03  0.00000000000E+00 0. -1.
<mgrwt>
<rscale>  0 0.37654293E+03</rscale>
<asrwt>0</asrwt>
<pdfrwt beam="2">  1        1 0.29956648E-01 0.37654293E+03</pdfrwt>
<pdfrwt beam="1">  1       -1 0.28005871E-01 0.37654293E+03</pdfrwt>
<totfact> 0.17520832E+03</totfact>
</mgrwt>
</event>
<event>
 6    1  0.6101889E-006  0.1479138E+03  0.7546771E-02  0.1213930E+00
         -2   -1    0    0    0  501 -0.00000000000E+00  0.00000000000E+00  0.62580058582E+02  0.62580058582E+02  0.00000000000E+00 0.  1.
          2   -1    0    0  501    0  0.00000000000E+00 -0.00000000000E+00 -0.29120914672E+03  0.29120914672E+03  0.00000000000E+00 0. -1.
          5    1    1    2  502    0  0.14211815697E+02 -0.28016975727E+02 -0.12403085274E+02  0.34100632818E+02  0.47000000000E+01 0. -1.
         -5    1    1    2    0  502 -0.26616664872E+02  0.10609972499E+03 -0.14791534504E+03  0.18402890477E+03  0.47000000000E+01 0. -1.
        -11    1    1    2    0    0  0.81107828769E+01 -0.89870462389E+02 -0.78418459038E+02  0.11954890015E+03  0.00000000000E+00 0. -1.
         11    1    1    2    0    0  0.42940662982E+01  0.11787713127E+02  0.10107801216E+02  0.16110767566E+02  0.00000000000E+00 0.  1.
<mgrwt>
<rscale>  0 0.13955449E+03</rscale>
<asrwt>0</asrwt>
<pdfrwt beam="2">  1        2 0.44801407E-01 0.14791381E+03</pdfrwt>
<pdfrwt beam="1">  1       -2 0.96277014E-02 0.14791381E+03</pdfrwt>
<totfact> 0.76153528E+03</totfact>
</mgrwt>
</event>
<event>
 6    1  0.6101889E-006  0.2281089E+03  0.7546771E-02  0.1127978E+00
         -1   -1    0    0    0  501 -0.00000000000E+00  0.00000000000E+00  0.11962672243E+02  0.11962672243E+02  0.00000000000E+00 0.  1.
          1   -1    0    0  501    0  0.00000000000E+00 -0.00000000000E+00 -0.10874170998E+04  0.10874170998E+04  0.00000000000E+00 0. -1.
          5    1    1    2  502    0 -0.70200255088E+01  0.79068597500E+01 -0.45525891843E+00  0.11580002156E+02  0.47000000000E+01 0. -1.
         -5    1    1    2    0  502  0.11519277137E+01 -0.36945350872E+02 -0.67226375686E+03  0.67329557750E+03  0.47000000000E+01 0. -1.
        -11    1    1    2    0    0  0.48470786105E+02  0.15736540492E+02 -0.26024088553E+03  0.26518366147E+03  0.00000000000E+00 0. -1.
         11    1    1    2    0    0 -0.42602688310E+02  0.13301950630E+02 -0.14249452624E+03  0.14932053091E+03  0.00000000000E+00 0.  1.
<mgrwt>
<rscale>  0 0.22810887E+03</rscale>
<asrwt>0</asrwt>
<pdfrwt beam="2">  1        1 0.16729496E+00 0.22810887E+03</pdfrwt>
<pdfrwt beam="1">  1       -1 0.18404109E-02 0.22810887E+03</pdfrwt>
<totfact> 0.10582049E+04</totfact>
</mgrwt>
</event>
<event>
 6    1  0.6101889E-006  0.2986303E+03  0.7546771E-02  0.1085927E+00
          1   -1    0    0  501    0  0.00000000000E+00  0.00000000000E+00  0.56484812987E+03  0.56484812987E+03  0.00000000000E+00 0. -1.
         -1   -1    0    0    0  501 -0.00000000000E+00 -0.00000000000E+00 -0.39470809714E+02  0.39470809714E+02  0.00000000000E+00 0.  1.
          5    1    1    2  502    0  0.27771725719E+02  0.24031214007E+02  0.30191751127E+03  0.30417929188E+03  0.47000000000E+01 0. -1.
         -5    1    1    2    0  502 -0.76208473225E+02  0.68652111520E+01  0.15384469600E+03  0.17188700649E+03  0.47000000000E+01 0. -1.
        -11    1    1    2    0    0  0.48220194608E+02  0.22306578083E+02  0.24546248636E+02  0.58525967877E+02  0.00000000000E+00 0.  1.
         11    1    1    2    0    0  0.21655289771E+00 -0.53203003242E+02  0.45068864251E+02  0.69726673332E+02  0.00000000000E+00 0. -1.
<mgrwt>
<rscale>  0 0.29863029E+03</rscale>
<asrwt>0</asrwt>
<pdfrwt beam="1">  1        1 0.86899707E-01 0.29863029E+03</pdfrwt>
<pdfrwt beam="2">  1       -1 0.60724327E-02 0.29863029E+03</pdfrwt>
<totfact> 0.50143792E+03</totfact>
</mgrwt>
</event>
<event>
 6    1  0.6101889E-006  0.4555271E+03  0.7546771E-02  0.1086487E+00
          2   -1    0    0  501    0  0.00000000000E+00  0.00000000000E+00  0.15645160578E+04  0.15645160578E+04  0.00000000000E+00 0. -1.
         -2   -1    0    0    0  501 -0.00000000000E+00 -0.00000000000E+00 -0.46616705206E+02  0.46616705206E+02  0.00000000000E+00 0.  1.
          5    1    1    2  502    0 -0.27855594826E+02  0.19800141914E+03  0.95809817618E+03  0.97875160350E+03  0.47000000000E+01 0. -1.
         -5    1    1    2    0  502  0.96869038483E+01 -0.19272844321E+03  0.27657888041E+03  0.33727741700E+03  0.47000000000E+01 0.  1.
        -11    1    1    2    0    0  0.23066629565E+02 -0.40429362077E+02  0.13939706777E+03  0.14696307434E+03  0.00000000000E+00 0. -1.
         11    1    1    2    0    0 -0.48979385873E+01  0.35156386152E+02  0.14382522828E+03  0.14814066821E+03  0.00000000000E+00 0.  1.
<mgrwt>
<rscale>  0 0.29751984E+03</rscale>
<asrwt>0</asrwt>
<pdfrwt beam="1">  1        2 0.24069474E+00 0.45552711E+03</pdfrwt>
<pdfrwt beam="2">  1       -2 0.71718020E-02 0.45552711E+03</pdfrwt>
<totfact> 0.14018049E+03</totfact>
</mgrwt>
</event>
<event>
 6    1  0.6101889E-006  0.2839791E+03  0.7546771E-02  0.1095346E+00
          2   -1    0    0  501    0  0.00000000000E+00  0.00000000000E+00  0.14857152675E+04  0.14857152675E+04  0.00000000000E+00 0. -1.
         -2   -1    0    0    0  501 -0.00000000000E+00 -0.00000000000E+00 -0.53476364368E+02  0.53476364368E+02  0.00000000000E+00 0.  1.
          5    1    1    2  502    0  0.13521861048E+03 -0.40562083099E+02  0.55986605857E+03  0.57740925585E+03  0.47000000000E+01 0. -1.
         -5    1    1    2    0  502  0.65816812173E+02 -0.11631299791E+03  0.30924434279E+03  0.33691945595E+03  0.47000000000E+01 0. -1.
        -11    1    1    2    0    0 -0.85377505763E+02  0.44652881518E+02  0.31143213257E+03  0.32599566180E+03  0.00000000000E+00 0.  1.
         11    1    1    2    0    0 -0.11565791689E+03  0.11222219950E+03  0.25169636925E+03  0.29886725831E+03  0.00000000000E+00 0. -1.
<mgrwt>
<rscale>  0 0.28062885E+03</rscale>
<asrwt>0</asrwt>
<pdfrwt beam="1">  1        2 0.22857155E+00 0.28397905E+03</pdfrwt>
<pdfrwt beam="2">  1       -2 0.82271341E-02 0.28397905E+03</pdfrwt>
<totfact> 0.12568518E+03</totfact>
</mgrwt>
</event>
<event>
 6    1  0.6101889E-006  0.1732124E+03  0.7546771E-02  0.1180841E+00
         -1   -1    0    0    0  501 -0.00000000000E+00  0.00000000000E+00  0.21718716044E+03  0.21718716044E+03  0.00000000000E+00 0.  1.
          1   -1    0    0  501    0  0.00000000000E+00 -0.00000000000E+00 -0.12668683443E+03  0.12668683443E+03  0.00000000000E+00 0. -1.
          5    1    1    2  502    0 -0.10791518829E+03  0.87543168723E+02  0.28864943862E+02  0.14200270856E+03  0.47000000000E+01 0. -1.
         -5    1    1    2    0  502  0.24924346479E+02 -0.99539886417E+00 -0.18669371435E+02  0.31509511200E+02  0.47000000000E+01 0. -1.
        -11    1    1    2    0    0  0.73284582299E+02 -0.75820560714E+02  0.10040013739E+03  0.14560073838E+03  0.00000000000E+00 0.  1.
         11    1    1    2    0    0  0.97062595080E+01 -0.10727209145E+02 -0.20095383805E+02  0.24761036730E+02  0.00000000000E+00 0. -1.
<mgrwt>
<rscale>  0 0.16716140E+03</rscale>
<asrwt>0</asrwt>
<pdfrwt beam="2">  1        1 0.19490282E-01 0.17321241E+03</pdfrwt>
<pdfrwt beam="1">  1       -1 0.33413409E-01 0.17321241E+03</pdfrwt>
<totfact> 0.21991238E+03</totfact>
</mgrwt>
</event>
<event>
 6    1  0.6101889E-006  0.4364689E+03  0.7546771E-02  0.1031836E+00
         -2   -1    0    0    0  501 -0.00000000000E+00  0.00000000000E+00  0.15143538752E+03  0.15143538752E+03  0.00000000000E+00 0.  1.
          2   -1    0    0  501    0  0.00000000000E+00 -0.00000000000E+00 -0.31449891788E+03  0.31449891788E+03  0.00000000000E+00 0. -1.
          5    1    1    2  502    0  0.37956246108E+01 -0.83658407658E+01 -0.28096125237E+03  0.28115068805E+03  0.47000000000E+01 0. -1.
         -5    1    1    2    0  502  0.14274672828E+02  0.23090247508E+02 -0.70126042752E+01  0.28428725491E+02  0.47000000000E+01 0.  1.
        -11    1    1    2    0    0  0.40294520967E+01 -0.51071035442E+02  0.74172615057E+02  0.90144683536E+02  0.00000000000E+00 0.  1.
         11    1    1    2    0    0 -0.22099749536E+02  0.36346628700E+02  0.50737711225E+02  0.66210208334E+02  0.00000000000E+00 0. -1.
<mgrwt>
<rscale>  0 0.43646886E+03</rscale>
<asrwt>0</asrwt>
<pdfrwt beam="2">  1        2 0.48384449E-01 0.43646886E+03</pdfrwt>
<pdfrwt beam="1">  1       -2 0.23297752E-01 0.43646886E+03</pdfrwt>
<totfact> 0.16844725E+03</totfact>
</mgrwt>
</event>
<event>
 6    1  0.6101889E-006  0.1464062E+03  0.7546771E-02  0.1213412E+00
         -1   -1    0    0    0  501 -0.00000000000E+00  0.00000000000E+00  0.62857583054E+02  0.62857583054E+02  0.00000000000E+00 0.  1.
          1   -1    0    0  501    0  0.00000000000E+00 -0.00000000000E+00 -0.29503279528E+03  0.29503279528E+03  0.00000000000E+00 0. -1.
          5    1    1    2  502    0 -0.22771765737E+02  0.65453442178E+02 -0.98225614856E+02  0.12030406403E+03  0.47000000000E+01 0. -1.
         -5    1    1    2    0  502  0.73046852976E+02 -0.81835572113E+01 -0.57532452991E+02  0.93460614622E+02  0.47000000000E+01 0. -1.
        -11    1    1    2    0    0 -0.57680666169E+02 -0.47749148755E+02 -0.95619026183E+02  0.12144973703E+03  0.00000000000E+00 0. -1.
         11    1    1    2    0    0  0.74055789298E+01 -0.95207362115E+01  0.19201881807E+02  0.22675962652E+02  0.00000000000E+00 0.  1.
<mgrwt>
<rscale>  0 0.13993829E+03</rscale>
<asrwt>0</asrwt>
<pdfrwt beam="2">  1        1 0.45389661E-01 0.14640615E+03</pdfrwt>
<pdfrwt beam="1">  1       -1 0.96703974E-02 0.14640615E+03</pdfrwt>
<totfact> 0.55242944E+03</totfact>
</mgrwt>
</event>
<event>
 6    1  0.6101889E-006  0.1529230E+03  0.7546771E-02  0.1205043E+00
          2   -1    0    0  501    0  0.00000000000E+00  0.00000000000E+00  0.10624302752E+03  0.10624302752E+03  0.00000000000E+00 0.  1.
         -2   -1    0    0    0  501 -0.00000000000E+00 -0.00000000000E+00 -0.19581271790E+03  0.19581271790E+03  0.00000000000E+00 0. -1.
          5    1    1    2  502    0 -0.27214800468E+02  0.72602340160E+01 -0.54879186471E+02  0.61864137190E+02  0.47000000000E+01 0.  1.
         -5    1    1    2    0  502 -0.24037882412E+02 -0.78891892978E+02  0.39999067269E+02  0.91781076213E+02  0.47000000000E+01 0.  1.
        -11    1    1    2    0    0  0.61520942564E+02  0.88462178596E+02 -0.56884706042E+02  0.12184520178E+03  0.00000000000E+00 0.  1.
         11    1    1    2    0    0 -0.10268259684E+02 -0.16830519635E+02 -0.17804865135E+02  0.26565330237E+02  0.00000000000E+00 0. -1.
<mgrwt>
<rscale>  0 0.14634095E+03</rscale>
<asrwt>0</asrwt>
<pdfrwt beam="1">  1        2 0.16345081E-01 0.15292297E+03</pdfrwt>
<pdfrwt beam="2">  1       -2 0.30125033E-01 0.15292297E+03</pdfrwt>
<totfact> 0.34507312E+03</totfact>
</mgrwt>
</event>
<event>
 6    1  0.6101889E-006  0.1551076E+03  0.7546771E-02  0.1207594E+00
          2   -1    0    0  501    0  0.00000000000E+00  0.00000000000E+00  0.15560033157E+04  0.15560033157E+04  0.00000000000E+00 0. -1.
         -2   -1    0    0    0  501 -0.00000000000E+00 -0.00000000000E+00 -0.13342253267E+02  0.13342253267E+02  0.00000000000E+00 0.  1.
          5    1    1    2  502    0  0.40725411478E+02  0.39248147489E+01  0.83822325923E+03  0.83923434488E+03  0.47000000000E+01 0.  1.
         -5    1    1    2    0  502  0.62357375020E+01  0.74995487946E+02  0.29180246454E+03  0.30138675476E+03  0.47000000000E+01 0.  1.
        -11    1    1    2    0    0 -0.29217589257E+02  0.51970853168E+01  0.86508008124E+02  0.91456616422E+02  0.00000000000E+00 0. -1.
         11    1    1    2    0    0 -0.17743559723E+02 -0.84117388012E+02  0.32612733052E+03  0.33726785289E+03  0.00000000000E+00 0.  1.
<mgrwt>
<rscale>  0 0.14434908E+03</rscale>
<asrwt>0</asrwt>
<pdfrwt beam="1">  1        2 0.23938498E+00 0.15510756E+03</pdfrwt>
<pdfrwt beam="2">  1       -2 0.20526556E-02 0.15510756E+03</pdfrwt>
<totfact> 0.93052801E+03</totfact>
</mgrwt>
</event>
<event>
 6    1  0.6101889E-006  0.2280254E+03  0.7546771E-02  0.1131181E+00
         -2   -1    0    0    0  501 -0.00000000000E+00  0.00000000000E+00  0.19763063318E+03  0.19763063318E+03  0.00000000000E+00 0.  1.
          2   -1    0    0  501    0  0.00000000000E+00 -0.00000000000E+00 -0.27374942256E+03  0.27374942256E+03  0.00000000000E+00 0. -1.
          5    1    1    2  502    0 -0.96921883726E+01 -0.17630093290E+03 -0.68784878129E+02  0.18955053921E+03  0.47000000000E+01 0.  1.
         -5    1    1    2    0  502  0.44462800357E+02 -0.11192119838E+02 -0.48360544041E+02  0.66805960677E+02  0.47000000000E+01 0.  1.
        -11    1    1    2    0    0 -0.17139714694E+02  0.93607865495E+02  0.66575111856E+02  0.11613977708E+03  0.00000000000E+00 0.  1.
         11    1    1    2    0    0 -0.17630897290E+02  0.93885187240E+02 -0.25548479062E+02  0.98883778774E+02  0.00000000000E+00 0. -1.
<mgrwt>
<rscale>  0 0.22366386E+03</rscale>
<asrwt>0</asrwt>
<pdfrwt beam="2">  1        2 0.42115296E-01 0.22802545E+03</pdfrwt>
<pdfrwt beam="1">  1       -2 0.30404713E-01 0.22802545E+03</pdfrwt>
<totfact> 0.12020283E+03</totfact>
</mgrwt>
</event>
<event>
 6    1  0.6101889E-006  0.1449595E+03  0.7546771E-02  0.1217183E+00
         -2   -1    0    0    0  501 -0.00000000000E+00  0.00000000000E+00  0.59193449886E+02  0.59193449886E+02  0.00000000000E+00 0.  1.
          2   -1    0    0  501    0  0.00000000000E+00 -0.00000000000E+00 -0.36014617496E+03  0.36014617496E+03  0.00000000000E+00 0. -1.
          5    1    1    2  502    0  0.74758787484E+02 -0.76944833605E+02 -0.17433382489E+03  0.20475291506E+03  0.47000000000E+01 0.  1.
         -5    1    1    2    0  502 -0.16809457480E+02  0.31898201665E+02 -0.82678148888E+02  0.90320647882E+02  0.47000000000E+01 0.  1.
        -11    1    1    2    0    0 -0.58552926615E+02  0.18481997004E+02  0.11792491595E+02  0.62522734157E+02  0.00000000000E+00 0.  1.
         11    1    1    2    0    0  0.60359661170E+00  0.26564634935E+02 -0.55733242885E+02  0.61743327741E+02  0.00000000000E+00 0. -1.
<mgrwt>
<rscale>  0 0.13717406E+03</rscale>
<asrwt>0</asrwt>
<pdfrwt beam="2">  1        2 0.55407104E-01 0.14495949E+03</pdfrwt>
<pdfrwt beam="1">  1       -2 0.91066845E-02 0.14495949E+03</pdfrwt>
<totfact> 0.66199501E+03</totfact>
</mgrwt>
</event>
<event>
 6    1  0.6101889E-006  0.2036843E+03  0.7546771E-02  0.1150674E+00
         -1   -1    0    0    0  501 -0.00000000000E+00  0.00000000000E+00  0.61520737129E+03  0.61520737129E+03  0.00000000000E+00 0.  1.
          1   -1    0    0  501    0  0.00000000000E+00 -0.00000000000E+00 -0.61488199143E+02  0.61488199143E+02  0.00000000000E+00 0. -1.
          5    1    1    2  502    0 -0.32336180349E+02  0.64404340859E+02  0.16635948084E+03  0.18135907627E+03  0.47000000000E+01 0.  1.
         -5    1    1    2    0  502 -0.12102212546E+03 -0.16007524534E+02  0.13157536843E+03  0.17954599207E+03  0.47000000000E+01 0.  1.
        -11    1    1    2    0    0  0.14378727928E+03 -0.52440802550E+02  0.26218409070E+03  0.30358741224E+03  0.00000000000E+00 0.  1.
         11    1    1    2    0    0  0.95710265287E+01  0.40439862240E+01 -0.63997678279E+01  0.12203089840E+02  0.00000000000E+00 0. -1.
<mgrwt>
<rscale>  0 0.19889634E+03</rscale>
<asrwt>0</asrwt>
<pdfrwt beam="2">  1        1 0.94597234E-02 0.20368430E+03</pdfrwt>
<pdfrwt beam="1">  1       -1 0.94647284E-01 0.20368430E+03</pdfrwt>
<totfact> 0.78490766E+02</totfact>
</mgrwt>
</event>
<event>
 6    1  0.6101889E-006  0.1677326E+03  0.7546771E-02  0.1205101E+00
         -1   -1    0    0    0  501 -0.00000000000E+00  0.00000000000E+00  0.28703747202E+03  0.28703747202E+03  0.00000000000E+00 0.  1.
          1   -1    0    0  501    0  0.00000000000E+00 -0.00000000000E+00 -0.61516889133E+02  0.61516889133E+02  0.00000000000E+00 0. -1.
          5    1    1    2  502    0  0.61642437919E+02  0.46144157381E+02  0.78218581838E+02  0.10986041124E+03  0.47000000000E+01 0. -1.
         -5    1    1    2    0  502 -0.46391368463E+02 -0.74717820110E+02  0.50098392534E+02  0.10132546888E+03  0.47000000000E+01 0.  1.
        -11    1    1    2    0    0 -0.47347679550E+02  0.30548008522E+02  0.32332520168E+02  0.64964416752E+02  0.00000000000E+00 0.  1.
         11    1    1    2    0    0  0.32096610094E+02 -0.19743457929E+01  0.64871088351E+02  0.72404064283E+02  0.00000000000E+00 0. -1.
<mgrwt>
<rscale>  0 0.14629466E+03</rscale>
<asrwt>0</asrwt>
<pdfrwt beam="2">  1        1 0.94641369E-02 0.16773261E+03</pdfrwt>
<pdfrwt beam="1">  1       -1 0.44159610E-01 0.16773261E+03</pdfrwt>
<totfact> 0.34724529E+03</totfact>
</mgrwt>
</event>
<event>
 6    1  0.6101889E-006  0.1860954E+03  0.7546771E-02  0.1168210E+00
          2   -1    0    0  501    0  0.00000000000E+00  0.00000000000E+00  0.42193336265E+03  0.42193336265E+03  0.00000000000E+00 0. -1.
         -2   -1    0    0    0  501 -0.00000000000E+00 -0.00000000000E+00 -0.76359153435E+02  0.76359153435E+02  0.00000000000E+00 0.  1.
          5    1    1    2  502    0 -0.11407951350E+02 -0.46368119770E+02  0.27787603339E+02  0.55447135042E+02  0.47000000000E+01 0.  1.
         -5    1    1    2    0  502  0.12316589377E+03 -0.34369182374E+02  0.21899099647E+03  0.25363403679E+03  0.47000000000E+01 0.  1.
        -11    1    1    2    0    0 -0.17233841633E+02  0.48042114402E+02  0.36562439101E+01  0.51170481464E+02  0.00000000000E+00 0.  1.
         11    1    1    2    0    0 -0.94524100789E+02  0.32695187742E+02  0.95139365497E+02  0.13804086279E+03  0.00000000000E+00 0. -1.
<mgrwt>
<rscale>  0 0.17957984E+03</rscale>
<asrwt>0</asrwt>
<pdfrwt beam="1">  1        2 0.64912824E-01 0.18609539E+03</pdfrwt>
<pdfrwt beam="2">  1       -2 0.11747562E-01 0.18609539E+03</pdfrwt>
<totfact> 0.37792097E+03</totfact>
</mgrwt>
</event>
<event>
 6    1  0.6101889E-006  0.1300562E+03  0.7546771E-02  0.1243663E+00
          1   -1    0    0  501    0  0.00000000000E+00  0.00000000000E+00  0.45123726631E+03  0.45123726631E+03  0.00000000000E+00 0. -1.
         -1   -1    0    0    0  501 -0.00000000000E+00 -0.00000000000E+00 -0.46720576869E+02  0.46720576869E+02  0.00000000000E+00 0.  1.
          5    1    1    2  502    0 -0.14021513624E+02 -0.18767985113E+02  0.78749684361E+01  0.25158402918E+02  0.47000000000E+01 0.  1.
         -5    1    1    2    0  502  0.16038132452E+02  0.54625310365E+02  0.37206386656E+03  0.37642364036E+03  0.47000000000E+01 0.  1.
        -11    1    1    2    0    0  0.34570844312E+02  0.14913163996E+01 -0.69891145958E+01  0.35301770832E+02  0.00000000000E+00 0.  1.
         11    1    1    2    0    0 -0.36587463140E+02 -0.37348641652E+02  0.31566969047E+02  0.61074029072E+02  0.00000000000E+00 0. -1.
<mgrwt>
<rscale>  0 0.11965744E+03</rscale>
<asrwt>0</asrwt>
<pdfrwt beam="1">  1        1 0.69421115E-01 0.13005622E+03</pdfrwt>
<pdfrwt beam="2">  1       -1 0.71877814E-02 0.13005622E+03</pdfrwt>
<totfact> 0.50447943E+03</totfact>
</mgrwt>
</event>
<event>
 6    1  0.6101889E-006  0.3085097E+03  0.7546771E-02  0.1081062E+00
          1   -1    0    0  501    0  0.00000000000E+00  0.00000000000E+00  0.79717137318E+02  0.79717137318E+02  0.00000000000E+00 0. -1.
         -1   -1    0    0    0  501 -0.00000000000E+00 -0.00000000000E+00 -0.29848740029E+03  0.29848740029E+03  0.00000000000E+00 0.  1.
          5    1    1    2  502    0 -0.10296369665E+03  0.80432283967E+02 -0.92554444246E+02  0.16018517498E+03  0.47000000000E+01 0.  1.
         -5    1    1    2    0  502  0.11764118209E+02 -0.27447017205E+02 -0.61704281136E+01  0.30852834778E+02  0.47000000000E+01 0.  1.
        -11    1    1    2    0    0  0.22802134627E+02 -0.67157502352E+02 -0.78932689633E+02  0.10611520607E+03  0.00000000000E+00 0. -1.
         11    1    1    2    0    0  0.68397443815E+02  0.14172235590E+02 -0.41112700979E+02  0.81051321790E+02  0.00000000000E+00 0.  1.
<mgrwt>
<rscale>  0 0.30850972E+03</rscale>
<asrwt>0</asrwt>
<pdfrwt beam="1">  1        1 0.12264175E-01 0.30850972E+03</pdfrwt>
<pdfrwt beam="2">  1       -1 0.45921139E-01 0.30850972E+03</pdfrwt>
<totfact> 0.23440157E+03</totfact>
</mgrwt>
</event>
<event>
 6    1  0.6101889E-006  0.1470745E+03  0.7546771E-02  0.1213350E+00
          1   -1    0    0  501    0  0.00000000000E+00  0.00000000000E+00  0.34122603529E+03  0.34122603529E+03  0.00000000000E+00 0. -1.
         -1   -1    0    0    0  501 -0.00000000000E+00 -0.00000000000E+00 -0.52554858274E+02  0.52554858274E+02  0.00000000000E+00 0.  1.
          5    1    1    2  502    0 -0.45260359848E+02  0.16892937220E+02  0.93807182161E+02  0.10562077886E+03  0.47000000000E+01 0. -1.
         -5    1    1    2    0  502  0.68006533158E+02  0.57178008109E+02  0.60778304140E+02  0.10775112722E+03  0.47000000000E+01 0. -1.
        -11    1    1    2    0    0  0.11295596095E+02 -0.43370411771E+02  0.12616545629E+03  0.13388915367E+03  0.00000000000E+00 0. -1.
         11    1    1    2    0    0 -0.34041769405E+02 -0.30700533557E+02  0.79202344214E+01  0.46519833816E+02  0.00000000000E+00 0.  1.
<mgrwt>
<rscale>  0 0.13998437E+03</rscale>
<asrwt>0</asrwt>
<pdfrwt beam="1">  1        1 0.52496312E-01 0.14707446E+03</pdfrwt>
<pdfrwt beam="2">  1       -1 0.80853630E-02 0.14707446E+03</pdfrwt>
<totfact> 0.60523702E+03</totfact>
</mgrwt>
</event>
<event>
 6    1  0.6101889E-006  0.1655589E+03  0.7546771E-02  0.1188966E+00
          1   -1    0    0  501    0  0.00000000000E+00  0.00000000000E+00  0.15522316313E+04  0.15522316313E+04  0.00000000000E+00 0. -1.
         -1   -1    0    0    0  501 -0.00000000000E+00 -0.00000000000E+00 -0.16339042444E+02  0.16339042444E+02  0.00000000000E+00 0.  1.
          5    1    1    2  502    0  0.42835428764E-01  0.65494570568E+02  0.22965194832E+03  0.23885486802E+03  0.47000000000E+01 0.  1.
         -5    1    1    2    0  502  0.81594152259E+02  0.60561444927E+01  0.77835993288E+03  0.78266248006E+03  0.47000000000E+01 0.  1.
        -11    1    1    2    0    0  0.17948681117E+02 -0.26782379684E+02  0.16423579639E+03  0.16737039114E+03  0.00000000000E+00 0. -1.
         11    1    1    2    0    0 -0.99585668805E+02 -0.44768335377E+02  0.36364491126E+03  0.37968293452E+03  0.00000000000E+00 0.  1.
<mgrwt>
<rscale>  0 0.15976154E+03</rscale>
<asrwt>0</asrwt>
<pdfrwt beam="1">  1        1 0.23880475E+00 0.16555887E+03</pdfrwt>
<pdfrwt beam="2">  1       -1 0.25137001E-02 0.16555887E+03</pdfrwt>
<totfact> 0.32195875E+03</totfact>
</mgrwt>
</event>
<event>
 6    1  0.6101889E-006  0.1482186E+03  0.7546771E-02  0.1211883E+00
          1   -1    0    0  501    0  0.00000000000E+00  0.00000000000E+00  0.30366512252E+03  0.30366512252E+03  0.00000000000E+00 0. -1.
         -1   -1    0    0    0  501 -0.00000000000E+00 -0.00000000000E+00 -0.66633178371E+02  0.66633178371E+02  0.00000000000E+00 0.  1.
          5    1    1    2  502    0 -0.63935088194E+02  0.38184274670E+02  0.29545382584E+02  0.80254308087E+02  0.47000000000E+01 0.  1.
         -5    1    1    2    0  502  0.43249338097E+01  0.14950658819E+02  0.15778823344E+03  0.15862359176E+03  0.47000000000E+01 0.  1.
        -11    1    1    2    0    0 -0.21648599915E+02 -0.16920349266E+02  0.29261730560E+02  0.40139867624E+02  0.00000000000E+00 0. -1.
         11    1    1    2    0    0  0.81258754300E+02 -0.36214584222E+02  0.20436597563E+02  0.91280533416E+02  0.00000000000E+00 0.  1.
<mgrwt>
<rscale>  0 0.14107985E+03</rscale>
<asrwt>0</asrwt>
<pdfrwt beam="1">  1        1 0.46717710E-01 0.14821865E+03</pdfrwt>
<pdfrwt beam="2">  1       -1 0.10251258E-01 0.14821865E+03</pdfrwt>
<totfact> 0.48786746E+03</totfact>
</mgrwt>
</event>
<event>
 6    1  0.6101889E-006  0.1675880E+03  0.7546771E-02  0.1188078E+00
         -1   -1    0    0    0  501 -0.00000000000E+00  0.00000000000E+00  0.76164975749E+02  0.76164975749E+02  0.00000000000E+00 0.  1.
          1   -1    0    0  501    0  0.00000000000E+00 -0.00000000000E+00 -0.32716861129E+03  0.32716861129E+03  0.00000000000E+00 0. -1.
          5    1    1    2  502    0 -0.10241510236E+02  0.25606080471E+02 -0.14459501386E+02  0.31491698419E+02  0.47000000000E+01 0.  1.
         -5    1    1    2    0  502  0.96889497361E+02 -0.95980503648E+02 -0.16330216688E+03  0.21281334424E+03  0.47000000000E+01 0.  1.
        -11    1    1    2    0    0 -0.63287317122E+02  0.71554759233E+02 -0.89211870405E+02  0.13070625807E+03  0.00000000000E+00 0. -1.
         11    1    1    2    0    0 -0.23360670003E+02 -0.11803360563E+01  0.15969903124E+02  0.28322286313E+02  0.00000000000E+00 0.  1.
<mgrwt>
<rscale>  0 0.16054948E+03</rscale>
<asrwt>0</asrwt>
<pdfrwt beam="2">  1        1 0.50333634E-01 0.16758802E+03</pdfrwt>
<pdfrwt beam="1">  1       -1 0.11717688E-01 0.16758802E+03</pdfrwt>
<totfact> 0.36405920E+03</totfact>
</mgrwt>
</event>
<event>
 6    1  0.6101889E-006  0.2621081E+03  0.7546771E-02  0.1108114E+00
          2   -1    0    0  501    0  0.00000000000E+00  0.00000000000E+00  0.11412238695E+04  0.11412238695E+04  0.00000000000E+00 0. -1.
         -2   -1    0    0    0  501 -0.00000000000E+00 -0.00000000000E+00 -0.57665123965E+02  0.57665123965E+02  0.00000000000E+00 0.  1.
          5    1    1    2  502    0  0.61767318689E+02 -0.10623407369E+03  0.13710116167E+03  0.18417301269E+03  0.47000000000E+01 0.  1.
         -5    1    1    2    0  502  0.10252299988E+03 -0.55270607695E+02  0.35102801781E+03  0.36987641837E+03  0.47000000000E+01 0.  1.
        -11    1    1    2    0    0 -0.12733333150E+03  0.69064804341E+02  0.30118177807E+03  0.33420680417E+03  0.00000000000E+00 0. -1.
         11    1    1    2    0    0 -0.36956987069E+02  0.92439877040E+02  0.29424778797E+03  0.31063275823E+03  0.00000000000E+00 0.  1.
<mgrwt>
<rscale>  0 0.25839061E+03</rscale>
<asrwt>0</asrwt>
<pdfrwt beam="1">  1        2 0.17557289E+00 0.26210814E+03</pdfrwt>
<pdfrwt beam="2">  1       -2 0.88715584E-02 0.26210814E+03</pdfrwt>
<totfact> 0.17351953E+03</totfact>
</mgrwt>
</event>
<event>
 6    1  0.6101889E-006  0.1761377E+03  0.7546771E-02  0.1176840E+00
         -2   -1    0    0    0  501 -0.00000000000E+00  0.00000000000E+00  0.64093303730E+02  0.64093303730E+02  0.00000000000E+00 0.  1.
          2   -1    0    0  501    0  0.00000000000E+00 -0.00000000000E+00 -0.50635482877E+03  0.50635482877E+03  0.00000000000E+00 0. -1.
          5    1    1    2  502    0  0.91260453778E+02 -0.38783062092E+02 -0.13146118161E+03  0.16473229373E+03  0.47000000000E+01 0. -1.
         -5    1    1    2    0  502 -0.14620915657E+02 -0.61799464777E+02 -0.21057089653E+03  0.21998894856E+03  0.47000000000E+01 0.  1.
        -11    1    1    2    0    0 -0.92051528509E+02  0.10087182590E+03 -0.74045987164E+02  0.15534290256E+03  0.00000000000E+00 0.  1.
         11    1    1    2    0    0  0.15411990388E+02 -0.28929902613E+00 -0.26183459735E+02  0.30383987647E+02  0.00000000000E+00 0. -1.
<mgrwt>
<rscale>  0 0.17097037E+03</rscale>
<asrwt>0</asrwt>
<pdfrwt beam="2">  1        2 0.77900744E-01 0.17613771E+03</pdfrwt>
<pdfrwt beam="1">  1       -2 0.98605081E-02 0.17613771E+03</pdfrwt>
<totfact> 0.40790220E+03</totfact>
</mgrwt>
</event>
<event>
 6    1  0.6101889E-006  0.1279471E+03  0.7546771E-02  0.1243614E+00
         -2   -1    0    0    0  501 -0.00000000000E+00  0.00000000000E+00  0.28000058453E+02  0.28000058453E+02  0.00000000000E+00 0.  1.
          2   -1    0    0  501    0  0.00000000000E+00 -0.00000000000E+00 -0.49663224025E+03  0.49663224025E+03  0.00000000000E+00 0. -1.
          5    1    1    2  502    0 -0.95347799803E+01  0.88846615358E+01  0.71688676762E+01  0.15599099450E+02  0.47000000000E+01 0.  1.
         -5    1    1    2    0  502  0.10028611443E+02  0.18404931413E+02 -0.34470056966E+03  0.34536920429E+03  0.47000000000E+01 0.  1.
        -11    1    1    2    0    0 -0.38850421695E+02  0.13752691525E+02 -0.46782326305E+02  0.62346434097E+02  0.00000000000E+00 0.  1.
         11    1    1    2    0    0  0.38356590232E+02 -0.41042284474E+02 -0.84318153511E+02  0.10131756087E+03  0.00000000000E+00 0. -1.
<mgrwt>
<rscale>  0 0.11968747E+03</rscale>
<asrwt>0</asrwt>
<pdfrwt beam="2">  1        2 0.76404960E-01 0.12794712E+03</pdfrwt>
<pdfrwt beam="1">  1       -2 0.43077013E-02 0.12794712E+03</pdfrwt>
<totfact> 0.14508425E+04</totfact>
</mgrwt>
</event>
<event>
 6    1  0.6101889E-006  0.1514960E+03  0.7546771E-02  0.1207606E+00
          1   -1    0    0  501    0  0.00000000000E+00  0.00000000000E+00  0.25656432901E+02  0.25656432901E+02  0.00000000000E+00 0. -1.
         -1   -1    0    0    0  501 -0.00000000000E+00 -0.00000000000E+00 -0.88343409433E+03  0.88343409433E+03  0.00000000000E+00 0.  1.
          5    1    1    2  502    0  0.89308521850E+02  0.68711790360E+02 -0.26053838387E+03  0.28390079549E+03  0.47000000000E+01 0.  1.
         -5    1    1    2    0  502 -0.15814951192E+02 -0.24856785591E+02 -0.23364830634E+02  0.37894297482E+02  0.47000000000E+01 0.  1.
        -11    1    1    2    0    0  0.17899874997E+02  0.73795408830E+01 -0.69067736156E+02  0.71730156324E+02  0.00000000000E+00 0. -1.
         11    1    1    2    0    0 -0.91393445655E+02 -0.51234545653E+02 -0.50480671077E+03  0.51556527794E+03  0.00000000000E+00 0.  1.
<mgrwt>
<rscale>  0 0.14433976E+03</rscale>
<asrwt>0</asrwt>
<pdfrwt beam="1">  1        1 0.39471433E-02 0.15149603E+03</pdfrwt>
<pdfrwt beam="2">  1       -1 0.13591295E+00 0.15149603E+03</pdfrwt>
<totfact> 0.11110490E+03</totfact>
</mgrwt>
</event>
<event>
 6    1  0.6101889E-006  0.2989941E+03  0.7546771E-02  0.1085745E+00
          1   -1    0    0  501    0  0.00000000000E+00  0.00000000000E+00  0.16585380131E+03  0.16585380131E+03  0.00000000000E+00 0. -1.
         -1   -1    0    0    0  501 -0.00000000000E+00 -0.00000000000E+00 -0.13475339508E+03  0.13475339508E+03  0.00000000000E+00 0.  1.
          5    1    1    2  502    0 -0.58404337757E+00 -0.35714976007E+01 -0.36864434756E+02  0.37338629483E+02  0.47000000000E+01 0.  1.
         -5    1    1    2    0  502  0.74841024265E+02  0.89199937705E+02  0.65899832203E+02  0.13387563514E+03  0.47000000000E+01 0.  1.
        -11    1    1    2    0    0 -0.31464432743E+02 -0.63378388183E+02 -0.23812090679E+02  0.74658196328E+02  0.00000000000E+00 0.  1.
         11    1    1    2    0    0 -0.42792548145E+02 -0.22250051922E+02  0.25877099460E+02  0.54734735440E+02  0.00000000000E+00 0. -1.
<mgrwt>
<rscale>  0 0.29899407E+03</rscale>
<asrwt>0</asrwt>
<pdfrwt beam="1">  1        1 0.25515969E-01 0.29899407E+03</pdfrwt>
<pdfrwt beam="2">  1       -1 0.20731292E-01 0.29899407E+03</pdfrwt>
<totfact> 0.35348007E+03</totfact>
</mgrwt>
</event>
<event>
 6    1  0.6101889E-006  0.2670530E+03  0.7546771E-02  0.1102978E+00
          1   -1    0    0  501    0  0.00000000000E+00  0.00000000000E+00  0.46299222444E+03  0.46299222444E+03  0.00000000000E+00 0. -1.
         -1   -1    0    0    0  501 -0.00000000000E+00 -0.00000000000E+00 -0.38508918529E+02  0.38508918529E+02  0.00000000000E+00 0.  1.
          5    1    1    2  502    0 -0.90115258430E+02 -0.15331234004E+02  0.23947433731E+03  0.25637054193E+03  0.47000000000E+01 0. -1.
         -5    1    1    2    0  502  0.33292177535E+02 -0.24677763437E+02  0.41199955299E+02  0.58624972579E+02  0.47000000000E+01 0. -1.
        -11    1    1    2    0    0  0.36031558983E+02  0.15757467890E+02  0.14903551650E+03  0.15413681006E+03  0.00000000000E+00 0. -1.
         11    1    1    2    0    0  0.20791521912E+02  0.24251529552E+02 -0.52265031996E+01  0.32368818402E+02  0.00000000000E+00 0.  1.
<mgrwt>
<rscale>  0 0.26705303E+03</rscale>
<asrwt>0</asrwt>
<pdfrwt beam="1">  1        1 0.71229569E-01 0.26705303E+03</pdfrwt>
<pdfrwt beam="2">  1       -1 0.59244493E-02 0.26705303E+03</pdfrwt>
<totfact> 0.67691541E+03</totfact>
</mgrwt>
</event>
<event>
 6    1  0.6101889E-006  0.1612466E+03  0.7546771E-02  0.1195085E+00
         -1   -1    0    0    0  501 -0.00000000000E+00  0.00000000000E+00  0.35653759707E+02  0.35653759707E+02  0.00000000000E+00 0.  1.
          1   -1    0    0  501    0  0.00000000000E+00 -0.00000000000E+00 -0.74447133172E+03  0.74447133172E+03  0.00000000000E+00 0. -1.
          5    1    1    2  502    0  0.44154708422E+02 -0.47438529238E+02 -0.45413864395E+03  0.45876361044E+03  0.47000000000E+01 0. -1.
         -5    1    1    2    0  502  0.54887972791E+02  0.23658168531E+02 -0.85321479365E+02  0.10427964009E+03  0.47000000000E+01 0. -1.
        -11    1    1    2    0    0 -0.59297187185E+02 -0.25001211911E+02 -0.47658954774E+02  0.80078667417E+02  0.00000000000E+00 0.  1.
         11    1    1    2    0    0 -0.39745494027E+02  0.48781572617E+02 -0.12169849392E+03  0.13700317349E+03  0.00000000000E+00 0. -1.
<mgrwt>
<rscale>  0 0.15447055E+03</rscale>
<asrwt>0</asrwt>
<pdfrwt beam="2">  1        1 0.11453406E+00 0.16124664E+03</pdfrwt>
<pdfrwt beam="1">  1       -1 0.54851934E-02 0.16124664E+03</pdfrwt>
<totfact> 0.38631250E+03</totfact>
</mgrwt>
</event>
<event>
 6    1  0.6101889E-006  0.2306020E+03  0.7546771E-02  0.1129187E+00
         -2   -1    0    0    0  501 -0.00000000000E+00  0.00000000000E+00  0.38150761203E+02  0.38150761203E+02  0.00000000000E+00 0.  1.
          2   -1    0    0  501    0  0.00000000000E+00 -0.00000000000E+00 -0.13128575395E+04  0.13128575395E+04  0.00000000000E+00 0. -1.
          5    1    1    2  502    0  0.29873371379E+02 -0.12336859433E+03 -0.46105693241E+03  0.47823405704E+03  0.47000000000E+01 0. -1.
         -5    1    1    2    0  502  0.98915907668E+02 -0.21430891952E+02 -0.27318727692E+03  0.29137092887E+03  0.47000000000E+01 0. -1.
        -11    1    1    2    0    0 -0.34772525712E+02  0.29086330548E+02 -0.25854368515E+03  0.26248805744E+03  0.00000000000E+00 0. -1.
         11    1    1    2    0    0 -0.94016753335E+02  0.11571315574E+03 -0.28191888378E+03  0.31891525732E+03  0.00000000000E+00 0.  1.
<mgrwt>
<rscale>  0 0.22641717E+03</rscale>
<asrwt>0</asrwt>
<pdfrwt beam="2">  1        2 0.20197804E+00 0.23060198E+03</pdfrwt>
<pdfrwt beam="1">  1       -2 0.58693491E-02 0.23060198E+03</pdfrwt>
<totfact> 0.26396581E+03</totfact>
</mgrwt>
</event>
<event>
 6    1  0.6101889E-006  0.1508729E+03  0.7546771E-02  0.1210678E+00
         -1   -1    0    0    0  501 -0.00000000000E+00  0.00000000000E+00  0.36056353820E+02  0.36056353820E+02  0.00000000000E+00 0.  1.
          1   -1    0    0  501    0  0.00000000000E+00 -0.00000000000E+00 -0.54158300807E+03  0.54158300807E+03  0.00000000000E+00 0. -1.
          5    1    1    2  502    0 -0.48197786963E+02 -0.82806069413E+02 -0.32425458065E+03  0.33814641041E+03  0.47000000000E+01 0. -1.
         -5    1    1    2    0  502 -0.19129938931E+02  0.31785707270E+02 -0.33839347500E+02  0.50432897888E+02  0.47000000000E+01 0. -1.
        -11    1    1    2    0    0  0.11259596684E+02  0.70266606597E+01  0.97544675412E+01  0.16471251152E+02  0.00000000000E+00 0.  1.
         11    1    1    2    0    0  0.56068129210E+02  0.43993701484E+02 -0.15718719365E+03  0.17258880245E+03  0.00000000000E+00 0. -1.
<mgrwt>
<rscale>  0 0.14198832E+03</rscale>
<asrwt>0</asrwt>
<pdfrwt beam="2">  1        1 0.83320461E-01 0.15087285E+03</pdfrwt>
<pdfrwt beam="1">  1       -1 0.55471315E-02 0.15087285E+03</pdfrwt>
<totfact> 0.59032689E+03</totfact>
</mgrwt>
</event>
<event>
 6    1  0.6101889E-006  0.3174825E+03  0.7546771E-02  0.1076814E+00
         -2   -1    0    0    0  501 -0.00000000000E+00  0.00000000000E+00  0.47660512545E+03  0.47660512545E+03  0.00000000000E+00 0.  1.
          2   -1    0    0  501    0  0.00000000000E+00 -0.00000000000E+00 -0.52871407144E+02  0.52871407144E+02  0.00000000000E+00 0. -1.
          5    1    1    2  502    0 -0.38307700581E+00  0.16989353675E+02  0.13197829729E+03  0.13315083869E+03  0.47000000000E+01 0. -1.
         -5    1    1    2    0  502  0.11233720292E+03  0.11679997654E+02  0.78837056483E+02  0.13781669340E+03  0.47000000000E+01 0. -1.
        -11    1    1    2    0    0 -0.64719003479E+02 -0.60739865236E+01  0.19097659541E+03  0.20173622064E+03  0.00000000000E+00 0.  1.
         11    1    1    2    0    0 -0.47235122434E+02 -0.22595364806E+02  0.21941769123E+02  0.56772779871E+02  0.00000000000E+00 0. -1.
<mgrwt>
<rscale>  0 0.31748249E+03</rscale>
<asrwt>0</asrwt>
<pdfrwt beam="2">  1        2 0.81340630E-02 0.31748249E+03</pdfrwt>
<pdfrwt beam="1">  1       -2 0.73323863E-01 0.31748249E+03</pdfrwt>
<totfact> 0.14406085E+03</totfact>
</mgrwt>
</event>
<event>
 6    1  0.6101889E-006  0.1254333E+03  0.7546771E-02  0.1249500E+00
          1   -1    0    0  501    0  0.00000000000E+00  0.00000000000E+00  0.27266860453E+02  0.27266860453E+02  0.00000000000E+00 0. -1.
         -1   -1    0    0    0  501 -0.00000000000E+00 -0.00000000000E+00 -0.45584304743E+03  0.45584304743E+03  0.00000000000E+00 0.  1.
          5    1    1    2  502    0 -0.49417369589E+02  0.35430590855E+02 -0.52860922309E+02  0.80707932031E+02  0.47000000000E+01 0.  1.
         -5    1    1    2    0  502  0.39036370332E+02 -0.33469483125E+02 -0.14136900969E+03  0.15050359268E+03  0.47000000000E+01 0.  1.
        -11    1    1    2    0    0 -0.38244144819E+02  0.12580110681E+02 -0.12553341957E+03  0.13183138180E+03  0.00000000000E+00 0.  1.
         11    1    1    2    0    0  0.48625144076E+02 -0.14541218410E+02 -0.10881283541E+03  0.12006700138E+03  0.00000000000E+00 0. -1.
<mgrwt>
<rscale>  0 0.11620040E+03</rscale>
<asrwt>0</asrwt>
<pdfrwt beam="1">  1        1 0.41949017E-02 0.12543326E+03</pdfrwt>
<pdfrwt beam="2">  1       -1 0.70129698E-01 0.12543326E+03</pdfrwt>
<totfact> 0.43252860E+03</totfact>
</mgrwt>
</event>
<event>
 6    1  0.6101889E-006  0.1410143E+03  0.7546771E-02  0.1223290E+00
          2   -1    0    0  501    0  0.00000000000E+00  0.00000000000E+00  0.14337509978E+04  0.14337509978E+04  0.00000000000E+00 0. -1.
         -2   -1    0    0    0  501 -0.00000000000E+00 -0.00000000000E+00 -0.11993817023E+02  0.11993817023E+02  0.00000000000E+00 0.  1.
          5    1    1    2  502    0 -0.36337698208E+02  0.61670316848E+02  0.26689405455E+03  0.27636603020E+03  0.47000000000E+01 0.  1.
         -5    1    1    2    0  502 -0.16009558335E+02 -0.22702453868E+02  0.72006771462E+03  0.72061870015E+03  0.47000000000E+01 0.  1.
        -11    1    1    2    0    0  0.13857276711E+01  0.26417257771E+02  0.14257920497E+03  0.14501248718E+03  0.00000000000E+00 0. -1.
         11    1    1    2    0    0  0.50961528872E+02 -0.65385120750E+02  0.29221620665E+03  0.30374759731E+03  0.00000000000E+00 0.  1.
<mgrwt>
<rscale>  0 0.13284809E+03</rscale>
<asrwt>0</asrwt>
<pdfrwt beam="1">  1        2 0.22057694E+00 0.14101425E+03</pdfrwt>
<pdfrwt beam="2">  1       -2 0.18452037E-02 0.14101425E+03</pdfrwt>
<totfact> 0.12537454E+04</totfact>
</mgrwt>
</event>
<event>
 6    1  0.6101889E-006  0.2789537E+03  0.7546771E-02  0.1096262E+00
          2   -1    0    0  501    0  0.00000000000E+00  0.00000000000E+00  0.12539091415E+03  0.12539091415E+03  0.00000000000E+00 0.  1.
         -2   -1    0    0    0  501 -0.00000000000E+00 -0.00000000000E+00 -0.15514515310E+03  0.15514515310E+03  0.00000000000E+00 0. -1.
          5    1    1    2  502    0  0.97437163112E+02 -0.32088605153E+02  0.24231573235E+02  0.10551274083E+03  0.47000000000E+01 0.  1.
         -5    1    1    2    0  502 -0.31130109718E+02 -0.21978925330E+02 -0.25275387292E+02  0.45968381443E+02  0.47000000000E+01 0.  1.
        -11    1    1    2    0    0 -0.32609928201E+02  0.33035864632E+02  0.32088078706E+02  0.56430670422E+02  0.00000000000E+00 0.  1.
         11    1    1    2    0    0 -0.33697125192E+02  0.21031665851E+02 -0.60798503599E+02  0.72624274555E+02  0.00000000000E+00 0. -1.
<mgrwt>
<rscale>  0 0.27895371E+03</rscale>
<asrwt>0</asrwt>
<pdfrwt beam="1">  1        2 0.19290910E-01 0.27895371E+03</pdfrwt>
<pdfrwt beam="2">  1       -2 0.23868485E-01 0.27895371E+03</pdfrwt>
<totfact> 0.44439793E+03</totfact>
</mgrwt>
</event>
<event>
 6    1  0.6101889E-006  0.1159667E+03  0.7546771E-02  0.1254545E+00
         -2   -1    0    0    0  501 -0.00000000000E+00  0.00000000000E+00  0.38133792669E+02  0.38133792669E+02  0.00000000000E+00 0.  1.
          2   -1    0    0  501    0  0.00000000000E+00 -0.00000000000E+00 -0.58111346092E+03  0.58111346092E+03  0.00000000000E+00 0. -1.
          5    1    1    2  502    0  0.66782727007E+01  0.40957858214E+02 -0.32847231094E+03  0.33111673852E+03  0.47000000000E+01 0. -1.
         -5    1    1    2    0  502 -0.40022772677E+02 -0.44153650670E+02 -0.15651014586E+03  0.16753770608E+03  0.47000000000E+01 0.  1.
        -11    1    1    2    0    0  0.79264335287E+01 -0.30148906667E+02 -0.70296223124E+02  0.76898269858E+02  0.00000000000E+00 0.  1.
         11    1    1    2    0    0  0.25418066448E+02  0.33344699122E+02  0.12299011676E+02  0.43694539129E+02  0.00000000000E+00 0. -1.
<mgrwt>
<rscale>  0 0.11331830E+03</rscale>
<asrwt>0</asrwt>
<pdfrwt beam="2">  1        2 0.89402068E-01 0.11596668E+03</pdfrwt>
<pdfrwt beam="1">  1       -2 0.58667375E-02 0.11596668E+03</pdfrwt>
<totfact> 0.76215819E+03</totfact>
</mgrwt>
</event>
<event>
 6    1  0.6101889E-006  0.1852545E+03  0.7546771E-02  0.1167593E+00
         -3   -1    0    0    0  501 -0.00000000000E+00  0.00000000000E+00  0.41565814199E+03  0.41565814199E+03  0.00000000000E+00 0.  1.
          3   -1    0    0  501    0  0.00000000000E+00 -0.00000000000E+00 -0.74592072580E+02  0.74592072580E+02  0.00000000000E+00 0. -1.
          5    1    1    2  502    0  0.20043438220E+02  0.11448512015E+03  0.16289817316E+03  0.20016614841E+03  0.47000000000E+01 0. -1.
         -5    1    1    2    0  502  0.44938681355E+02  0.58109649906E+01 -0.14325197664E+01  0.45578443467E+02  0.47000000000E+01 0. -1.
        -11    1    1    2    0    0 -0.56031645224E+02 -0.10452814088E+03  0.18972157876E+03  0.22374082092E+03  0.00000000000E+00 0.  1.
         11    1    1    2    0    0 -0.89504743513E+01 -0.15767944257E+02 -0.10121162740E+02  0.20764801767E+02  0.00000000000E+00 0. -1.
<mgrwt>
<rscale>  0 0.18021706E+03</rscale>
<asrwt>0</asrwt>
<pdfrwt beam="2">  1        3 0.11475704E-01 0.18525455E+03</pdfrwt>
<pdfrwt beam="1">  1       -3 0.63947405E-01 0.18525455E+03</pdfrwt>
<totfact> 0.34167095E+02</totfact>
</mgrwt>
</event>
<event>
 6    1  0.6101889E-006  0.1281040E+03  0.7546771E-02  0.1240847E+00
          2   -1    0    0  501    0  0.00000000000E+00  0.00000000000E+00  0.59291104052E+03  0.59291104052E+03  0.00000000000E+00 0. -1.
         -2   -1    0    0    0  501 -0.00000000000E+00 -0.00000000000E+00 -0.52051352345E+02  0.52051352345E+02  0.00000000000E+00 0.  1.
          5    1    1    2  502    0  0.65785540124E+02 -0.12050158451E+02  0.46937637284E+03  0.47414049921E+03  0.47000000000E+01 0. -1.
         -5    1    1    2    0  502 -0.32323902738E+02  0.15240900059E+02  0.55763765587E+02  0.66398849955E+02  0.47000000000E+01 0.  1.
        -11    1    1    2    0    0 -0.61936711251E+02  0.16195363047E+02 -0.50170012508E+01  0.64215389794E+02  0.00000000000E+00 0.  1.
         11    1    1    2    0    0  0.28475073866E+02 -0.19386104656E+02  0.20736550994E+02  0.40207653904E+02  0.00000000000E+00 0. -1.
<mgrwt>
<rscale>  0 0.12137427E+03</rscale>
<asrwt>0</asrwt>
<pdfrwt beam="1">  1        2 0.91217078E-01 0.12810395E+03</pdfrwt>
<pdfrwt beam="2">  1       -2 0.80079008E-02 0.12810395E+03</pdfrwt>
<totfact> 0.46625129E+03</totfact>
</mgrwt>
</event>
<event>
 6    1  0.6101889E-006  0.1540746E+03  0.7546771E-02  0.1204267E+00
          2   -1    0    0  501    0  0.00000000000E+00  0.00000000000E+00  0.17517476459E+04  0.17517476459E+04  0.00000000000E+00 0. -1.
         -2   -1    0    0    0  501 -0.00000000000E+00 -0.00000000000E+00 -0.16343264506E+02  0.16343264506E+02  0.00000000000E+00 0.  1.
          5    1    1    2  502    0  0.12993203147E+02 -0.32027947448E+01  0.10591734452E+04  0.10592684071E+04  0.47000000000E+01 0. -1.
         -5    1    1    2    0  502  0.70197398540E+02 -0.31322599688E+02  0.35404139031E+03  0.36232054325E+03  0.47000000000E+01 0. -1.
        -11    1    1    2    0    0 -0.28678283733E+01 -0.26362503202E+02  0.75174352800E+02  0.79714423623E+02  0.00000000000E+00 0.  1.
         11    1    1    2    0    0 -0.80322773314E+02  0.60887897635E+02  0.24701519315E+03  0.26678753651E+03  0.00000000000E+00 0. -1.
<mgrwt>
<rscale>  0 0.14695351E+03</rscale>
<asrwt>0</asrwt>
<pdfrwt beam="1">  1        2 0.26949949E+00 0.15407457E+03</pdfrwt>
<pdfrwt beam="2">  1       -2 0.25143498E-02 0.15407457E+03</pdfrwt>
<totfact> 0.54788125E+03</totfact>
</mgrwt>
</event>
<event>
 6    1  0.6101889E-006  0.1489517E+03  0.7546771E-02  0.1213575E+00
          2   -1    0    0  501    0  0.00000000000E+00  0.00000000000E+00  0.14394968477E+04  0.14394968477E+04  0.00000000000E+00 0. -1.
         -2   -1    0    0    0  501 -0.00000000000E+00 -0.00000000000E+00 -0.12300665473E+02  0.12300665473E+02  0.00000000000E+00 0.  1.
          5    1    1    2  502    0 -0.38838355114E+02  0.51168231088E+02  0.63387855907E+03  0.63714262402E+03  0.47000000000E+01 0.  1.
         -5    1    1    2    0  502 -0.42047465362E+02 -0.53368426130E+02  0.24594096347E+03  0.25519644544E+03  0.47000000000E+01 0.  1.
        -11    1    1    2    0    0  0.30330047368E+02 -0.39236720093E+02  0.20657401949E+03  0.21244353957E+03  0.00000000000E+00 0. -1.
         11    1    1    2    0    0  0.50555773108E+02  0.41436915136E+02  0.34080264017E+03  0.34701490412E+03  0.00000000000E+00 0.  1.
<mgrwt>
<rscale>  0 0.13981731E+03</rscale>
<asrwt>0</asrwt>
<pdfrwt beam="1">  1        2 0.22146092E+00 0.14895175E+03</pdfrwt>
<pdfrwt beam="2">  1       -2 0.18924112E-02 0.14895175E+03</pdfrwt>
<totfact> 0.12033522E+04</totfact>
</mgrwt>
</event>
<event>
 6    1  0.6101889E-006  0.1397865E+03  0.7546771E-02  0.1224449E+00
         -1   -1    0    0    0  501 -0.00000000000E+00  0.00000000000E+00  0.20751564059E+02  0.20751564059E+02  0.00000000000E+00 0. -1.
          1   -1    0    0  501    0  0.00000000000E+00 -0.00000000000E+00 -0.81232251478E+03  0.81232251478E+03  0.00000000000E+00 0.  1.
          5    1    1    2  502    0 -0.10480541345E+02  0.63351978451E+02 -0.13804111598E+03  0.15231793927E+03  0.47000000000E+01 0.  1.
         -5    1    1    2    0  502 -0.42774466758E+02 -0.30508537388E+02 -0.40523149178E+03  0.40865031236E+03  0.47000000000E+01 0.  1.
        -11    1    1    2    0    0  0.38109365656E+01 -0.35443995614E+02 -0.25392634433E+02  0.43767407349E+02  0.00000000000E+00 0.  1.
         11    1    1    2    0    0  0.49444071538E+02  0.26005545511E+01 -0.22290570853E+03  0.22833841987E+03  0.00000000000E+00 0. -1.
<mgrwt>
<rscale>  0 0.13204763E+03</rscale>
<asrwt>0</asrwt>
<pdfrwt beam="2">  1        1 0.12497267E+00 0.13978645E+03</pdfrwt>
<pdfrwt beam="1">  1       -1 0.31925489E-02 0.13978645E+03</pdfrwt>
<totfact> 0.74840839E+03</totfact>
</mgrwt>
</event>
<event>
 6    1  0.6101889E-006  0.3970813E+03  0.7546771E-02  0.1044795E+00
          2   -1    0    0  501    0  0.00000000000E+00  0.00000000000E+00  0.44547727467E+03  0.44547727467E+03  0.00000000000E+00 0. -1.
         -2   -1    0    0    0  501 -0.00000000000E+00 -0.00000000000E+00 -0.88485735677E+02  0.88485735677E+02  0.00000000000E+00 0.  1.
          5    1    1    2  502    0  0.63272498180E+01  0.39316197312E+02  0.44642487376E+02  0.60006992429E+02  0.47000000000E+01 0. -1.
         -5    1    1    2    0  502 -0.12652061200E+03 -0.17190232198E+02  0.29332436943E+03  0.31994412801E+03  0.47000000000E+01 0.  1.
        -11    1    1    2    0    0  0.77156706472E+02 -0.12186042975E+02 -0.33835879255E+02  0.85126515975E+02  0.00000000000E+00 0.  1.
         11    1    1    2    0    0  0.43036655710E+02 -0.99399221380E+01  0.52860561446E+02  0.68885373942E+02  0.00000000000E+00 0. -1.
<mgrwt>
<rscale>  0 0.39708127E+03</rscale>
<asrwt>0</asrwt>
<pdfrwt beam="1">  1        2 0.68534964E-01 0.39708127E+03</pdfrwt>
<pdfrwt beam="2">  1       -2 0.13613190E-01 0.39708127E+03</pdfrwt>
<totfact> 0.28661366E+03</totfact>
</mgrwt>
</event>
<event>
 6    1  0.6101889E-006  0.3720848E+03  0.7546771E-02  0.1053899E+00
         -2   -1    0    0    0  501 -0.00000000000E+00  0.00000000000E+00  0.45095406825E+03  0.45095406825E+03  0.00000000000E+00 0. -1.
          2   -1    0    0  501    0  0.00000000000E+00 -0.00000000000E+00 -0.76752328072E+02  0.76752328072E+02  0.00000000000E+00 0.  1.
          5    1    1    2  502    0  0.25899063047E+01  0.11616213602E+02 -0.85328166892E+01  0.15379954283E+02  0.47000000000E+01 0. -1.
         -5    1    1    2    0  502  0.30198514885E+02 -0.15828957107E+03  0.21794857116E+03  0.27109261938E+03  0.47000000000E+01 0. -1.
        -11    1    1    2    0    0 -0.47890238857E+02  0.12252992346E+03  0.85274019355E+02  0.15677600421E+03  0.00000000000E+00 0.  1.
         11    1    1    2    0    0  0.15101817667E+02  0.24143434015E+02  0.79511966355E+02  0.84457818445E+02  0.00000000000E+00 0. -1.
<mgrwt>
<rscale>  0 0.37208480E+03</rscale>
<asrwt>0</asrwt>
<pdfrwt beam="2">  1        2 0.11808051E-01 0.37208480E+03</pdfrwt>
<pdfrwt beam="1">  1       -2 0.69377548E-01 0.37208480E+03</pdfrwt>
<totfact> 0.10197671E+03</totfact>
</mgrwt>
</event>
<event>
 6    1  0.6208107E-006  0.2519942E+03  0.7546771E-02  0.1114714E+00
          1   -1    0    0  501    0  0.00000000000E+00  0.00000000000E+00  0.21112245070E+03  0.21112245070E+03  0.00000000000E+00 0. -1.
         -1   -1    0    0    0  501 -0.00000000000E+00 -0.00000000000E+00 -0.29648364808E+03  0.29648364808E+03  0.00000000000E+00 0.  1.
          5    1    1    2  502    0  0.18217574186E+03  0.13090417165E+03 -0.86605555240E+01  0.22454620527E+03  0.47000000000E+01 0.  1.
         -5    1    1    2    0  502 -0.14052829382E+02  0.91317126288E+01  0.21654640709E+02  0.27782794197E+02  0.47000000000E+01 0.  1.
        -11    1    1    2    0    0 -0.33985887917E+02 -0.81526180083E+02 -0.47914619978E+02  0.10048566775E+03  0.00000000000E+00 0.  1.
         11    1    1    2    0    0 -0.13413702456E+03 -0.58509704196E+02 -0.50440662586E+02  0.15479143156E+03  0.00000000000E+00 0. -1.
<mgrwt>
<rscale>  0 0.24778347E+03</rscale>
<asrwt>0</asrwt>
<pdfrwt beam="1">  1        1 0.32480377E-01 0.25199420E+03</pdfrwt>
<pdfrwt beam="2">  1       -1 0.45612869E-01 0.25199420E+03</pdfrwt>
<totfact> 0.66814784E+02</totfact>
</mgrwt>
</event>
<event>
 6    1  0.6101889E-006  0.4669684E+03  0.7546771E-02  0.1022779E+00
          1   -1    0    0  501    0  0.00000000000E+00  0.00000000000E+00  0.21641518457E+03  0.21641518457E+03  0.00000000000E+00 0. -1.
         -1   -1    0    0    0  501 -0.00000000000E+00 -0.00000000000E+00 -0.25189945753E+03  0.25189945753E+03  0.00000000000E+00 0.  1.
          5    1    1    2  502    0 -0.10440047033E+03 -0.52676931193E+02  0.79492732155E+02  0.14147615259E+03  0.47000000000E+01 0. -1.
         -5    1    1    2    0  502  0.18038316250E+02  0.26071267452E+02  0.83789766610E+02  0.89710126677E+02  0.47000000000E+01 0.  1.
        -11    1    1    2    0    0  0.60848034847E+02 -0.33836598120E+01 -0.38474414422E+02  0.72070889155E+02  0.00000000000E+00 0. -1.
         11    1    1    2    0    0  0.25514119236E+02  0.29989323553E+02 -0.16029235730E+03  0.16505747368E+03  0.00000000000E+00 0.  1.
<mgrwt>
<rscale>  0 0.46696838E+03</rscale>
<asrwt>0</asrwt>
<pdfrwt beam="1">  1        1 0.33294644E-01 0.46696838E+03</pdfrwt>
<pdfrwt beam="2">  1       -1 0.38753763E-01 0.46696838E+03</pdfrwt>
<totfact> 0.86950881E+02</totfact>
</mgrwt>
</event>
<event>
 6    1  0.6101889E-006  0.1388261E+03  0.7546771E-02  0.1226284E+00
         -1   -1    0    0    0  501 -0.00000000000E+00  0.00000000000E+00  0.81875013717E+02  0.81875013717E+02  0.00000000000E+00 0.  1.
          1   -1    0    0  501    0  0.00000000000E+00 -0.00000000000E+00 -0.21375091174E+03  0.21375091174E+03  0.00000000000E+00 0. -1.
          5    1    1    2  502    0 -0.31492856152E+02  0.41995313130E+02  0.59681505871E+01  0.53038807820E+02  0.47000000000E+01 0. -1.
         -5    1    1    2    0  502  0.22373387246E+02  0.18064465920E+02 -0.12967300057E+03  0.13290624689E+03  0.47000000000E+01 0. -1.
        -11    1    1    2    0    0  0.17741806007E+02 -0.37039495940E+02  0.38906256272E+02  0.56572013549E+02  0.00000000000E+00 0.  1.
         11    1    1    2    0    0 -0.86223371005E+01 -0.23020283110E+02 -0.47077304313E+02  0.53108857198E+02  0.00000000000E+00 0. -1.
<mgrwt>
<rscale>  0 0.13079280E+03</rscale>
<asrwt>0</asrwt>
<pdfrwt beam="2">  1        1 0.32884756E-01 0.13882605E+03</pdfrwt>
<pdfrwt beam="1">  1       -1 0.12596156E-01 0.13882605E+03</pdfrwt>
<totfact> 0.54683685E+03</totfact>
</mgrwt>
</event>
<event>
 6    1  0.6101889E-006  0.2983716E+03  0.7546771E-02  0.1086057E+00
         -1   -1    0    0    0  501 -0.00000000000E+00  0.00000000000E+00  0.30325217001E+03  0.30325217001E+03  0.00000000000E+00 0.  1.
          1   -1    0    0  501    0  0.00000000000E+00 -0.00000000000E+00 -0.73392399543E+02  0.73392399543E+02  0.00000000000E+00 0. -1.
          5    1    1    2  502    0 -0.13226089557E+02  0.50019508028E+00 -0.21503861983E+02  0.25684347768E+02  0.47000000000E+01 0.  1.
         -5    1    1    2    0  502  0.94138008077E+02  0.57744234537E+02  0.11509955629E+03  0.15958182555E+03  0.47000000000E+01 0.  1.
        -11    1    1    2    0    0 -0.30757579424E+02 -0.47397386178E+02  0.13170247425E+02  0.58017207152E+02  0.00000000000E+00 0. -1.
         11    1    1    2    0    0 -0.50154339097E+02 -0.10847043440E+02  0.12309382873E+03  0.13336118908E+03  0.00000000000E+00 0.  1.
<mgrwt>
<rscale>  0 0.29837161E+03</rscale>
<asrwt>0</asrwt>
<pdfrwt beam="2">  1        1 0.11291139E-01 0.29837161E+03</pdfrwt>
<pdfrwt beam="1">  1       -1 0.46654179E-01 0.29837161E+03</pdfrwt>
<totfact> 0.25414386E+03</totfact>
</mgrwt>
</event>
<event>
 6    1  0.6101889E-006  0.1753673E+03  0.7546771E-02  0.1178498E+00
         -2   -1    0    0    0  501 -0.00000000000E+00  0.00000000000E+00  0.55449441720E+02  0.55449441720E+02  0.00000000000E+00 0.  1.
          2   -1    0    0  501    0  0.00000000000E+00 -0.00000000000E+00 -0.52422184389E+03  0.52422184389E+03  0.00000000000E+00 0. -1.
          5    1    1    2  502    0  0.16269927828E+02 -0.53063360516E+02 -0.33242589897E+02  0.64865943020E+02  0.47000000000E+01 0. -1.
         -5    1    1    2    0  502 -0.59041498560E+02 -0.62266995948E+02 -0.29529988432E+03  0.30755030323E+03  0.47000000000E+01 0. -1.
        -11    1    1    2    0    0 -0.23138930472E+02  0.56727364214E+02 -0.78616159678E+02  0.99668974694E+02  0.00000000000E+00 0.  1.
         11    1    1    2    0    0  0.65910501205E+02  0.58602992251E+02 -0.61613768274E+02  0.10758606467E+03  0.00000000000E+00 0. -1.
<mgrwt>
<rscale>  0 0.16937848E+03</rscale>
<asrwt>0</asrwt>
<pdfrwt beam="2">  1        2 0.80649512E-01 0.17536734E+03</pdfrwt>
<pdfrwt beam="1">  1       -2 0.85306836E-02 0.17536734E+03</pdfrwt>
<totfact> 0.49257603E+03</totfact>
</mgrwt>
</event>
<event>
 6    1  0.6101889E-006  0.2413189E+03  0.7546771E-02  0.1118917E+00
         -3   -1    0    0    0  501 -0.00000000000E+00  0.00000000000E+00  0.10444219907E+03  0.10444219907E+03  0.00000000000E+00 0.  1.
          3   -1    0    0  501    0  0.00000000000E+00 -0.00000000000E+00 -0.13939480554E+03  0.13939480554E+03  0.00000000000E+00 0. -1.
          5    1    1    2  502    0  0.16199152804E+01  0.13731578219E+02  0.43671280346E+02  0.46048356029E+02  0.47000000000E+01 0. -1.
         -5    1    1    2    0  502 -0.35326614433E+01  0.33577206236E+02 -0.88640128124E+02  0.94968788501E+02  0.47000000000E+01 0. -1.
        -11    1    1    2    0    0  0.39375275330E+02 -0.18063355743E+02 -0.18817181191E+02  0.47231170174E+02  0.00000000000E+00 0.  1.
         11    1    1    2    0    0 -0.37462529167E+02 -0.29245428713E+02  0.28833422501E+02  0.55588689904E+02  0.00000000000E+00 0. -1.
<mgrwt>
<rscale>  0 0.24131888E+03</rscale>
<asrwt>0</asrwt>
<pdfrwt beam="2">  1        3 0.21445354E-01 0.24131888E+03</pdfrwt>
<pdfrwt beam="1">  1       -3 0.16068031E-01 0.24131888E+03</pdfrwt>
<totfact> 0.16369754E+03</totfact>
</mgrwt>
</event>
<event>
 6    1  0.6101889E-006  0.2260361E+03  0.7546771E-02  0.1132670E+00
         -1   -1    0    0    0  501 -0.00000000000E+00  0.00000000000E+00  0.66616231554E+03  0.66616231554E+03  0.00000000000E+00 0.  1.
          1   -1    0    0  501    0  0.00000000000E+00 -0.00000000000E+00 -0.15464855728E+03  0.15464855728E+03  0.00000000000E+00 0. -1.
          5    1    1    2  502    0  0.15043110870E+03  0.78822829914E+01 -0.79087934613E+02  0.17020176336E+03  0.47000000000E+01 0.  1.
         -5    1    1    2    0  502  0.36900956792E+02 -0.27243473384E+02  0.37740982420E+02  0.59584890771E+02  0.47000000000E+01 0.  1.
        -11    1    1    2    0    0 -0.12898217528E+03 -0.27639733350E+02  0.31084487344E+03  0.33767571980E+03  0.00000000000E+00 0.  1.
         11    1    1    2    0    0 -0.58349890214E+02  0.47000923742E+02  0.24201583702E+03  0.25334849889E+03  0.00000000000E+00 0. -1.
<mgrwt>
<rscale>  0 0.22163444E+03</rscale>
<asrwt>0</asrwt>
<pdfrwt beam="2">  1        1 0.23792086E-01 0.22603614E+03</pdfrwt>
<pdfrwt beam="1">  1       -1 0.10248651E+00 0.22603614E+03</pdfrwt>
<totfact> 0.19641612E+02</totfact>
</mgrwt>
</event>
<event>
 6    1  0.6101889E-006  0.1257779E+03  0.7546771E-02  0.1248245E+00
         -2   -1    0    0    0  501 -0.00000000000E+00  0.00000000000E+00  0.33905667444E+02  0.33905667444E+02  0.00000000000E+00 0.  1.
          2   -1    0    0  501    0  0.00000000000E+00 -0.00000000000E+00 -0.35655396367E+03  0.35655396367E+03  0.00000000000E+00 0. -1.
          5    1    1    2  502    0 -0.19515464299E+02 -0.55034006888E+02 -0.35351124188E+02  0.68420663854E+02  0.47000000000E+01 0. -1.
         -5    1    1    2    0  502  0.11706799502E+02  0.43455303340E+02 -0.14177281579E+03  0.14881879532E+03  0.47000000000E+01 0. -1.
        -11    1    1    2    0    0 -0.63268953352E+01 -0.28545537395E+02 -0.95687624356E+01  0.30764241000E+02  0.00000000000E+00 0.  1.
         11    1    1    2    0    0  0.14135560132E+02  0.40124240942E+02 -0.13595559382E+03  0.14245593094E+03  0.00000000000E+00 0. -1.
<mgrwt>
<rscale>  0 0.11693257E+03</rscale>
<asrwt>0</asrwt>
<pdfrwt beam="2">  1        2 0.54854452E-01 0.12577795E+03</pdfrwt>
<pdfrwt beam="1">  1       -2 0.52162569E-02 0.12577795E+03</pdfrwt>
<totfact> 0.15529639E+04</totfact>
</mgrwt>
</event>
<event>
 6    1  0.6101889E-006  0.1411577E+03  0.7546771E-02  0.1225473E+00
         -2   -1    0    0    0  501 -0.00000000000E+00  0.00000000000E+00  0.31532453995E+02  0.31532453995E+02  0.00000000000E+00 0.  1.
          2   -1    0    0  501    0  0.00000000000E+00 -0.00000000000E+00 -0.49202376898E+03  0.49202376898E+03  0.00000000000E+00 0. -1.
          5    1    1    2  502    0  0.36476262906E+02  0.94519205184E+01 -0.78230410811E+02  0.86959437284E+02  0.47000000000E+01 0.  1.
         -5    1    1    2    0  502 -0.97244674667E+02 -0.34158595704E+02 -0.21831675495E+03  0.24146973290E+03  0.47000000000E+01 0.  1.
        -11    1    1    2    0    0  0.34449651797E+02 -0.14869778357E+02 -0.17956137427E+02  0.41597015381E+02  0.00000000000E+00 0.  1.
         11    1    1    2    0    0  0.26318759964E+02  0.39576453542E+02 -0.14598801179E+03  0.15353003741E+03  0.00000000000E+00 0. -1.
<mgrwt>
<rscale>  0 0.13134562E+03</rscale>
<asrwt>0</asrwt>
<pdfrwt beam="2">  1        2 0.75695964E-01 0.14115771E+03</pdfrwt>
<pdfrwt beam="1">  1       -2 0.48511468E-02 0.14115771E+03</pdfrwt>
<totfact> 0.12365054E+04</totfact>
</mgrwt>
</event>
<event>
 6    1  0.6101889E-006  0.4759746E+03  0.7546771E-02  0.1020247E+00
          1   -1    0    0  501    0  0.00000000000E+00  0.00000000000E+00  0.52507523112E+03  0.52507523112E+03  0.00000000000E+00 0. -1.
         -1   -1    0    0    0  501 -0.00000000000E+00 -0.00000000000E+00 -0.10786637215E+03  0.10786637215E+03  0.00000000000E+00 0.  1.
          5    1    1    2  502    0 -0.19803626374E+03  0.61038126930E+02  0.24747946842E+03  0.32281913200E+03  0.47000000000E+01 0.  1.
         -5    1    1    2    0  502  0.49434689798E+01  0.21792496318E+02 -0.28809439337E+01  0.23016094788E+02  0.47000000000E+01 0.  1.
        -11    1    1    2    0    0  0.38128444722E+02  0.20004497638E+02  0.26119440466E+02  0.50360534081E+02  0.00000000000E+00 0.  1.
         11    1    1    2    0    0  0.15496435003E+03 -0.10283512089E+03  0.14649089402E+03  0.23674584241E+03  0.00000000000E+00 0. -1.
<mgrwt>
<rscale>  0 0.47597462E+03</rscale>
<asrwt>0</asrwt>
<pdfrwt beam="1">  1        1 0.80780803E-01 0.47597462E+03</pdfrwt>
<pdfrwt beam="2">  1       -1 0.16594827E-01 0.47597462E+03</pdfrwt>
<totfact> 0.11572332E+03</totfact>
</mgrwt>
</event>
<event>
 6    1  0.6101889E-006  0.2018486E+03  0.7546771E-02  0.1151909E+00
         -2   -1    0    0    0  501 -0.00000000000E+00  0.00000000000E+00  0.21847480321E+02  0.21847480321E+02  0.00000000000E+00 0.  1.
          2   -1    0    0  501    0  0.00000000000E+00 -0.00000000000E+00 -0.17254859542E+04  0.17254859542E+04  0.00000000000E+00 0. -1.
          5    1    1    2  502    0 -0.83666240912E+02 -0.28091507980E+02 -0.18893076391E+03  0.20858115025E+03  0.47000000000E+01 0. -1.
         -5    1    1    2    0  502 -0.42548724288E+02 -0.67754076453E+02 -0.61972427350E+03  0.62488500860E+03  0.47000000000E+01 0. -1.
        -11    1    1    2    0    0  0.25413943418E+02 -0.16287001270E+02 -0.91247218637E+02  0.96110300382E+02  0.00000000000E+00 0.  1.
         11    1    1    2    0    0  0.10080102178E+03  0.11213258570E+03 -0.80373621787E+03  0.81775697532E+03  0.00000000000E+00 0. -1.
<mgrwt>
<rscale>  0 0.19744947E+03</rscale>
<asrwt>0</asrwt>
<pdfrwt beam="2">  1        2 0.26545946E+00 0.20184863E+03</pdfrwt>
<pdfrwt beam="1">  1       -2 0.33611497E-02 0.20184863E+03</pdfrwt>
<totfact> 0.36934603E+03</totfact>
</mgrwt>
</event>
<event>
 6    1  0.6101889E-006  0.1717987E+03  0.7546771E-02  0.1182488E+00
         -4   -1    0    0    0  501 -0.00000000000E+00  0.00000000000E+00  0.24774188961E+03  0.24774188961E+03  0.00000000000E+00 0. -1.
          4   -1    0    0  501    0  0.00000000000E+00 -0.00000000000E+00 -0.10395641060E+03  0.10395641060E+03  0.00000000000E+00 0.  1.
          5    1    1    2  502    0  0.55351251887E+02  0.18675745140E+02  0.42501391814E+02  0.72394770862E+02  0.47000000000E+01 0. -1.
         -5    1    1    2    0  502  0.23402769744E+02 -0.10635760828E+03  0.22576427444E+02  0.11131673525E+03  0.47000000000E+01 0. -1.
        -11    1    1    2    0    0 -0.37818107926E+02  0.66369019608E+02  0.92362115645E+02  0.11985748394E+03  0.00000000000E+00 0. -1.
         11    1    1    2    0    0 -0.40935913706E+02  0.21312843534E+02 -0.13654455896E+02  0.48129310158E+02  0.00000000000E+00 0.  1.
<mgrwt>
<rscale>  0 0.16562603E+03</rscale>
<asrwt>0</asrwt>
<pdfrwt beam="2">  1        4 0.15993294E-01 0.17179870E+03</pdfrwt>
<pdfrwt beam="1">  1       -4 0.38114137E-01 0.17179870E+03</pdfrwt>
<totfact> 0.39061024E+02</totfact>
</mgrwt>
</event>
<event>
 6    1  0.6101889E-006  0.1565910E+03  0.7546771E-02  0.1201412E+00
          2   -1    0    0  501    0  0.00000000000E+00  0.00000000000E+00  0.10448337163E+04  0.10448337163E+04  0.00000000000E+00 0. -1.
         -2   -1    0    0    0  501 -0.00000000000E+00 -0.00000000000E+00 -0.19562926266E+02  0.19562926266E+02  0.00000000000E+00 0.  1.
          5    1    1    2  502    0 -0.29406241810E+02 -0.17164551879E+02  0.20854923004E+03  0.21136276931E+03  0.47000000000E+01 0. -1.
         -5    1    1    2    0  502  0.11425917549E+03 -0.24018569234E+02  0.37081984514E+03  0.38879493104E+03  0.47000000000E+01 0. -1.
        -11    1    1    2    0    0 -0.76573874490E+02  0.36799559825E+01  0.38254093413E+03  0.39014698078E+03  0.00000000000E+00 0. -1.
         11    1    1    2    0    0 -0.82790591851E+01  0.37503165130E+02  0.63360780724E+02  0.74091961438E+02  0.00000000000E+00 0.  1.
<mgrwt>
<rscale>  0 0.14923832E+03</rscale>
<asrwt>0</asrwt>
<pdfrwt beam="1">  1        2 0.16074361E+00 0.15659100E+03</pdfrwt>
<pdfrwt beam="2">  1       -2 0.30096818E-02 0.15659100E+03</pdfrwt>
<totfact> 0.10106562E+04</totfact>
</mgrwt>
</event>
<event>
 6    1  0.6101889E-006  0.1658105E+03  0.7546771E-02  0.1189140E+00
          2   -1    0    0  501    0  0.00000000000E+00  0.00000000000E+00  0.93924919289E+03  0.93924919289E+03  0.00000000000E+00 0. -1.
         -2   -1    0    0    0  501 -0.00000000000E+00 -0.00000000000E+00 -0.26664817907E+02  0.26664817907E+02  0.00000000000E+00 0.  1.
          5    1    1    2  502    0  0.49193225137E+02 -0.61447848423E+02  0.14869722373E+03  0.16831151422E+03  0.47000000000E+01 0. -1.
         -5    1    1    2    0  502 -0.71403327989E+02 -0.45206307569E+02  0.23066214230E+03  0.24570136219E+03  0.47000000000E+01 0. -1.
        -11    1    1    2    0    0  0.37727363435E+02  0.69613371016E+01  0.20351989604E+03  0.20710423040E+03  0.00000000000E+00 0.  1.
         11    1    1    2    0    0 -0.15517260582E+02  0.99692818891E+02  0.32970511292E+03  0.34479690399E+03  0.00000000000E+00 0. -1.
<mgrwt>
<rscale>  0 0.15960811E+03</rscale>
<asrwt>0</asrwt>
<pdfrwt beam="1">  1        2 0.14449985E+00 0.16581053E+03</pdfrwt>
<pdfrwt beam="2">  1       -2 0.41022804E-02 0.16581053E+03</pdfrwt>
<totfact> 0.74116005E+03</totfact>
</mgrwt>
</event>
<event>
 6    1  0.6101889E-006  0.1605833E+03  0.7546771E-02  0.1191334E+00
         -2   -1    0    0    0  501 -0.00000000000E+00  0.00000000000E+00  0.35103305259E+03  0.35103305259E+03  0.00000000000E+00 0.  1.
          2   -1    0    0  501    0  0.00000000000E+00 -0.00000000000E+00 -0.69072990044E+02  0.69072990044E+02  0.00000000000E+00 0. -1.
          5    1    1    2  502    0 -0.14162055250E+02 -0.11284640950E+03  0.10250632677E+03  0.15318130752E+03  0.47000000000E+01 0.  1.
         -5    1    1    2    0  502  0.41876704972E+02  0.15923868513E+02  0.22695321246E+02  0.50442002480E+02  0.47000000000E+01 0.  1.
        -11    1    1    2    0    0  0.28816980792E+02  0.18499592791E+02  0.23723617104E+01  0.34326103995E+02  0.00000000000E+00 0. -1.
         11    1    1    2    0    0 -0.56531630514E+02  0.78422948195E+02  0.15438605282E+03  0.18215662864E+03  0.00000000000E+00 0.  1.
<mgrwt>
<rscale>  0 0.15768591E+03</rscale>
<asrwt>0</asrwt>
<pdfrwt beam="2">  1        2 0.10626614E-01 0.16058331E+03</pdfrwt>
<pdfrwt beam="1">  1       -2 0.54005084E-01 0.16058331E+03</pdfrwt>
<totfact> 0.19037348E+03</totfact>
</mgrwt>
</event>
<event>
 6    1  0.6101889E-006  0.1447522E+03  0.7546771E-02  0.1217620E+00
          2   -1    0    0  501    0  0.00000000000E+00  0.00000000000E+00  0.13425407788E+04  0.13425407788E+04  0.00000000000E+00 0. -1.
         -2   -1    0    0    0  501 -0.00000000000E+00 -0.00000000000E+00 -0.20015727040E+02  0.20015727040E+02  0.00000000000E+00 0.  1.
          5    1    1    2  502    0  0.11925554373E+02 -0.72801643211E+02  0.79315317796E+03  0.79659045426E+03  0.47000000000E+01 0.  1.
         -5    1    1    2    0  502 -0.59581294686E+02  0.17484227462E+02  0.32695832652E+03  0.33283549416E+03  0.47000000000E+01 0.  1.
        -11    1    1    2    0    0 -0.13020385575E+02  0.52958183750E+02  0.86036584191E+02  0.10186458406E+03  0.00000000000E+00 0.  1.
         11    1    1    2    0    0  0.60676125888E+02  0.23592319985E+01  0.11637696311E+03  0.13126597340E+03  0.00000000000E+00 0. -1.
<mgrwt>
<rscale>  0 0.13685800E+03</rscale>
<asrwt>0</asrwt>
<pdfrwt beam="1">  1        2 0.20654466E+00 0.14475217E+03</pdfrwt>
<pdfrwt beam="2">  1       -2 0.30793437E-02 0.14475217E+03</pdfrwt>
<totfact> 0.66393474E+03</totfact>
</mgrwt>
</event>
<event>
 6    1  0.6101889E-006  0.1734242E+03  0.7546771E-02  0.1180980E+00
         -2   -1    0    0    0  501 -0.00000000000E+00  0.00000000000E+00  0.78090122830E+02  0.78090122830E+02  0.00000000000E+00 0.  1.
          2   -1    0    0  501    0  0.00000000000E+00 -0.00000000000E+00 -0.35867227823E+03  0.35867227823E+03  0.00000000000E+00 0. -1.
          5    1    1    2  502    0 -0.14368561935E+02 -0.31937019607E+02 -0.17040038423E+03  0.17402531350E+03  0.47000000000E+01 0. -1.
         -5    1    1    2    0  502 -0.74160358721E+02 -0.49328638255E+02 -0.37612400180E+02  0.96798016534E+02  0.47000000000E+01 0. -1.
        -11    1    1    2    0    0  0.79010667413E+02  0.21245335861E+02 -0.65407353154E+02  0.10474813463E+03  0.00000000000E+00 0. -1.
         11    1    1    2    0    0  0.95182532418E+01  0.60020322001E+02 -0.71620178359E+01  0.61190936399E+02  0.00000000000E+00 0.  1.
<mgrwt>
<rscale>  0 0.16703059E+03</rscale>
<asrwt>0</asrwt>
<pdfrwt beam="2">  1        2 0.55180351E-01 0.17342421E+03</pdfrwt>
<pdfrwt beam="1">  1       -2 0.12013865E-01 0.17342421E+03</pdfrwt>
<totfact> 0.43295798E+03</totfact>
</mgrwt>
</event>
<event>
 6    1  0.6101889E-006  0.1497850E+03  0.7546771E-02  0.1209840E+00
          3   -1    0    0  501    0  0.00000000000E+00  0.00000000000E+00  0.14942439749E+03  0.14942439749E+03  0.00000000000E+00 0. -1.
         -3   -1    0    0    0  501 -0.00000000000E+00 -0.00000000000E+00 -0.16712399574E+03  0.16712399574E+03  0.00000000000E+00 0.  1.
          5    1    1    2  502    0  0.50071627407E+02  0.28040055504E+02  0.88312169450E+02  0.10542552754E+03  0.47000000000E+01 0. -1.
         -5    1    1    2    0  502 -0.25626338027E+02  0.50778895309E+02 -0.18271798261E+02  0.59926238170E+02  0.47000000000E+01 0. -1.
        -11    1    1    2    0    0 -0.66806711849E+01 -0.74243882833E+02 -0.10313102416E+03  0.12725090825E+03  0.00000000000E+00 0.  1.
         11    1    1    2    0    0 -0.17764618195E+02 -0.45750679801E+01  0.15391054713E+02  0.23945719280E+02  0.00000000000E+00 0. -1.
<mgrwt>
<rscale>  0 0.14262520E+03</rscale>
<asrwt>0</asrwt>
<pdfrwt beam="1">  1        3 0.22988369E-01 0.14978502E+03</pdfrwt>
<pdfrwt beam="2">  1       -3 0.25711384E-01 0.14978502E+03</pdfrwt>
<totfact> 0.58653349E+02</totfact>
</mgrwt>
</event>
<event>
 6    1  0.6101889E-006  0.3531538E+03  0.7546771E-02  0.1062474E+00
          1   -1    0    0  501    0  0.00000000000E+00  0.00000000000E+00  0.33670400761E+03  0.33670400761E+03  0.00000000000E+00 0. -1.
         -1   -1    0    0    0  501 -0.00000000000E+00 -0.00000000000E+00 -0.68294360497E+03  0.68294360497E+03  0.00000000000E+00 0.  1.
          5    1    1    2  502    0  0.16057427827E+01  0.16108042828E+02  0.14659777723E+02  0.22339349510E+02  0.47000000000E+01 0.  1.
         -5    1    1    2    0  502 -0.32526266169E+03 -0.81978518311E+02  0.16194912796E+03  0.37251293482E+03  0.47000000000E+01 0.  1.
        -11    1    1    2    0    0  0.14223722701E+03  0.21182245571E+01 -0.28838689577E+03  0.32156323993E+03  0.00000000000E+00 0. -1.
         11    1    1    2    0    0  0.18141969190E+03  0.63752250926E+02 -0.23446160727E+03  0.30323208832E+03  0.00000000000E+00 0.  1.
<mgrwt>
<rscale>  0 0.35034469E+03</rscale>
<asrwt>0</asrwt>
<pdfrwt beam="1">  1        1 0.51800617E-01 0.35315382E+03</pdfrwt>
<pdfrwt beam="2">  1       -1 0.10506825E+00 0.35315382E+03</pdfrwt>
<totfact> 0.67990470E+01</totfact>
</mgrwt>
</event>
<event>
 6    1  0.6101889E-006  0.1280836E+03  0.7546771E-02  0.1247018E+00
         -1   -1    0    0    0  501 -0.00000000000E+00  0.00000000000E+00  0.52204624523E+02  0.52204624523E+02  0.00000000000E+00 0.  1.
          1   -1    0    0  501    0  0.00000000000E+00 -0.00000000000E+00 -0.25194345925E+03  0.25194345925E+03  0.00000000000E+00 0. -1.
          5    1    1    2  502    0 -0.31750159129E+02 -0.68592789415E+02 -0.11312908710E+03  0.13613715038E+03  0.47000000000E+01 0. -1.
         -5    1    1    2    0  502  0.29024241627E+02  0.40791864952E+02 -0.46139729713E+02  0.68244761749E+02  0.47000000000E+01 0. -1.
        -11    1    1    2    0    0  0.10735793302E+02  0.14259799962E+02  0.25956804771E+02  0.31501664507E+02  0.00000000000E+00 0.  1.
         11    1    1    2    0    0 -0.80098758002E+01  0.13541124501E+02 -0.66426822677E+02  0.68264507133E+02  0.00000000000E+00 0. -1.
<mgrwt>
<rscale>  0 0.11765381E+03</rscale>
<asrwt>0</asrwt>
<pdfrwt beam="2">  1        1 0.38760533E-01 0.12808361E+03</pdfrwt>
<pdfrwt beam="1">  1       -1 0.80314806E-02 0.12808361E+03</pdfrwt>
<totfact> 0.88200520E+03</totfact>
</mgrwt>
</event>
<event>
 6    1  0.8518432E-006  0.1590307E+03  0.7546771E-02  0.1197487E+00
          3   -1    0    0  501    0  0.00000000000E+00  0.00000000000E+00  0.34191733351E+03  0.34191733351E+03  0.00000000000E+00 0. -1.
         -3   -1    0    0    0  501 -0.00000000000E+00 -0.00000000000E+00 -0.64169834882E+02  0.64169834882E+02  0.00000000000E+00 0.  1.
          5    1    1    2  502    0  0.73271865166E+02  0.64992899562E+02  0.85185062788E+02  0.12989006175E+03  0.47000000000E+01 0. -1.
         -5    1    1    2    0  502 -0.47844940666E+02  0.29976427068E+02  0.93404246168E+02  0.10924361642E+03  0.47000000000E+01 0. -1.
        -11    1    1    2    0    0 -0.21955899461E+02 -0.28188494469E+02 -0.11606600124E+02  0.37568150181E+02  0.00000000000E+00 0.  1.
         11    1    1    2    0    0 -0.34710250387E+01 -0.66780832162E+02  0.11076478979E+03  0.12938534004E+03  0.00000000000E+00 0. -1.
<mgrwt>
<rscale>  0 0.15245573E+03</rscale>
<asrwt>0</asrwt>
<pdfrwt beam="1">  1        3 0.52602666E-01 0.15903074E+03</pdfrwt>
<pdfrwt beam="2">  1       -3 0.98722825E-02 0.15903074E+03</pdfrwt>
<totfact> 0.64412246E+02</totfact>
</mgrwt>
</event>
<event>
 6    1  0.6101889E-006  0.1685036E+03  0.7546771E-02  0.1185790E+00
          1   -1    0    0  501    0  0.00000000000E+00  0.00000000000E+00  0.57648659014E+03  0.57648659014E+03  0.00000000000E+00 0.  1.
         -1   -1    0    0    0  501 -0.00000000000E+00 -0.00000000000E+00 -0.55531600732E+02  0.55531600732E+02  0.00000000000E+00 0. -1.
          5    1    1    2  502    0 -0.61137207468E+02 -0.63770625426E+02  0.11797896114E+03  0.14746381277E+03  0.47000000000E+01 0.  1.
         -5    1    1    2    0  502  0.12867762953E+02 -0.38401025852E+02  0.30710551112E+03  0.30980010179E+03  0.47000000000E+01 0.  1.
        -11    1    1    2    0    0  0.32164378285E+02  0.11433298098E+03  0.58760410406E+02  0.13251174892E+03  0.00000000000E+00 0. -1.
         11    1    1    2    0    0  0.16105066230E+02 -0.12161329702E+02  0.37110106748E+02  0.42242527401E+02  0.00000000000E+00 0.  1.
<mgrwt>
<rscale>  0 0.16260218E+03</rscale>
<asrwt>0</asrwt>
<pdfrwt beam="1">  1        1 0.88690241E-01 0.16850365E+03</pdfrwt>
<pdfrwt beam="2">  1       -1 0.85433236E-02 0.16850365E+03</pdfrwt>
<totfact> 0.28473745E+03</totfact>
</mgrwt>
</event>
<event>
 6    1  0.6101889E-006  0.2367540E+03  0.7546771E-02  0.1121974E+00
          1   -1    0    0  501    0  0.00000000000E+00  0.00000000000E+00  0.15610543600E+03  0.15610543600E+03  0.00000000000E+00 0. -1.
         -1   -1    0    0    0  501 -0.00000000000E+00 -0.00000000000E+00 -0.89766983656E+02  0.89766983656E+02  0.00000000000E+00 0.  1.
          5    1    1    2  502    0  0.31384053232E+02  0.70940998458E+01  0.10607539315E+03  0.11094757357E+03  0.47000000000E+01 0. -1.
         -5    1    1    2    0  502 -0.40092046157E+00 -0.85801748940E+01 -0.34867203809E+02  0.36215908657E+02  0.47000000000E+01 0. -1.
        -11    1    1    2    0    0 -0.14885250156E+02 -0.25514459144E+02 -0.41181850457E+02  0.50680401584E+02  0.00000000000E+00 0.  1.
         11    1    1    2    0    0 -0.16097882614E+02  0.27000534193E+02  0.36312113464E+02  0.48028535847E+02  0.00000000000E+00 0. -1.
<mgrwt>
<rscale>  0 0.23675400E+03</rscale>
<asrwt>0</asrwt>
<pdfrwt beam="1">  1        1 0.24016221E-01 0.23675400E+03</pdfrwt>
<pdfrwt beam="2">  1       -1 0.13810305E-01 0.23675400E+03</pdfrwt>
<totfact> 0.72612030E+03</totfact>
</mgrwt>
</event>
<event>
 6    1  0.6101889E-006  0.1165446E+03  0.7546771E-02  0.1258512E+00
         -1   -1    0    0    0  501 -0.00000000000E+00  0.00000000000E+00  0.20498084540E+02  0.20498084540E+02  0.00000000000E+00 0.  1.
          1   -1    0    0  501    0  0.00000000000E+00 -0.00000000000E+00 -0.69381915905E+03  0.69381915905E+03  0.00000000000E+00 0. -1.
          5    1    1    2  502    0 -0.40255402666E+02  0.38371266080E+02 -0.23260639048E+03  0.23920843295E+03  0.47000000000E+01 0. -1.
         -5    1    1    2    0  502  0.59916682655E+02 -0.65669148077E+01 -0.29010372899E+03  0.29633662751E+03  0.47000000000E+01 0.  1.
        -11    1    1    2    0    0 -0.36250547168E+01  0.24559218620E+02 -0.10602188264E+02  0.26994492714E+02  0.00000000000E+00 0. -1.
         11    1    1    2    0    0 -0.16036225273E+02 -0.56363569893E+02 -0.14000876678E+03  0.15177769041E+03  0.00000000000E+00 0.  1.
<mgrwt>
<rscale>  0 0.11111897E+03</rscale>
<asrwt>0</asrwt>
<pdfrwt beam="2">  1        1 0.10674139E+00 0.11654460E+03</pdfrwt>
<pdfrwt beam="1">  1       -1 0.31535521E-02 0.11654460E+03</pdfrwt>
<totfact> 0.94937049E+03</totfact>
</mgrwt>
</event>
<event>
 6    1  0.6101889E-006  0.1398357E+03  0.7546771E-02  0.1224597E+00
         -1   -1    0    0    0  501 -0.00000000000E+00  0.00000000000E+00  0.37520120409E+02  0.37520120409E+02  0.00000000000E+00 0.  1.
          1   -1    0    0  501    0  0.00000000000E+00 -0.00000000000E+00 -0.46188327966E+03  0.46188327966E+03  0.00000000000E+00 0. -1.
          5    1    1    2  502    0 -0.38938454555E+02  0.16680918244E+02 -0.34851008068E+02  0.55055781167E+02  0.47000000000E+01 0. -1.
         -5    1    1    2    0  502  0.11879808033E+02 -0.73207246349E+02 -0.27544217731E+03  0.28529092835E+03  0.47000000000E+01 0. -1.
        -11    1    1    2    0    0  0.10038147851E+02 -0.22418647216E+02 -0.50933200680E+02  0.56546892813E+02  0.00000000000E+00 0. -1.
         11    1    1    2    0    0  0.17020498672E+02  0.78944975320E+02 -0.63136773192E+02  0.10250979774E+03  0.00000000000E+00 0.  1.
<mgrwt>
<rscale>  0 0.13194550E+03</rscale>
<asrwt>0</asrwt>
<pdfrwt beam="2">  1        1 0.71058965E-01 0.13983570E+03</pdfrwt>
<pdfrwt beam="1">  1       -1 0.57723263E-02 0.13983570E+03</pdfrwt>
<totfact> 0.68221054E+03</totfact>
</mgrwt>
</event>
<event>
 6    1  0.6101889E-006  0.1320353E+03  0.7546771E-02  0.1235917E+00
          1   -1    0    0  501    0  0.00000000000E+00  0.00000000000E+00  0.71502997430E+03  0.71502997430E+03  0.00000000000E+00 0. -1.
         -1   -1    0    0    0  501 -0.00000000000E+00 -0.00000000000E+00 -0.27817803061E+02  0.27817803061E+02  0.00000000000E+00 0.  1.
          5    1    1    2  502    0  0.13495500874E+01 -0.68722849473E+02  0.43757752569E+03  0.44296820689E+03  0.47000000000E+01 0.  1.
         -5    1    1    2    0  502 -0.32820563180E+02  0.40128512477E+02  0.13627611094E+03  0.14587924902E+03  0.47000000000E+01 0.  1.
        -11    1    1    2    0    0  0.70039922622E+01 -0.16772508498E+02  0.98774301203E+02  0.10043274131E+03  0.00000000000E+00 0. -1.
         11    1    1    2    0    0  0.24467020830E+02  0.45366845494E+02  0.14584233405E+02  0.53567580143E+02  0.00000000000E+00 0.  1.
<mgrwt>
<rscale>  0 0.12445893E+03</rscale>
<asrwt>0</asrwt>
<pdfrwt beam="1">  1        1 0.11000460E+00 0.13203534E+03</pdfrwt>
<pdfrwt beam="2">  1       -1 0.42796625E-02 0.13203534E+03</pdfrwt>
<totfact> 0.58647505E+03</totfact>
</mgrwt>
</event>
<event>
 6    1  0.6101889E-006  0.1174761E+03  0.7546771E-02  0.1256943E+00
          2   -1    0    0  501    0  0.00000000000E+00  0.00000000000E+00  0.48181643926E+03  0.48181643926E+03  0.00000000000E+00 0. -1.
         -2   -1    0    0    0  501 -0.00000000000E+00 -0.00000000000E+00 -0.23866833334E+02  0.23866833334E+02  0.00000000000E+00 0.  1.
          5    1    1    2  502    0  0.66574350872E+02 -0.19841660900E+02  0.18244219076E+03  0.19527692816E+03  0.47000000000E+01 0. -1.
         -5    1    1    2    0  502 -0.35101808032E+02  0.27088063412E+02  0.67500219736E+02  0.80896661062E+02  0.47000000000E+01 0.  1.
        -11    1    1    2    0    0  0.62292690570E+01  0.97423320956E+01 -0.49471774345E+01  0.12577415959E+02  0.00000000000E+00 0.  1.
         11    1    1    2    0    0 -0.37701811897E+02 -0.16988734608E+02  0.21295437287E+03  0.21693226742E+03  0.00000000000E+00 0. -1.
<mgrwt>
<rscale>  0 0.11198186E+03</rscale>
<asrwt>0</asrwt>
<pdfrwt beam="1">  1        2 0.74125599E-01 0.11747614E+03</pdfrwt>
<pdfrwt beam="2">  1       -2 0.36718209E-02 0.11747614E+03</pdfrwt>
<totfact> 0.18861843E+04</totfact>
</mgrwt>
</event>
<event>
 6    1  0.6101889E-006  0.2277993E+03  0.7546771E-02  0.1131014E+00
          2   -1    0    0  501    0  0.00000000000E+00  0.00000000000E+00  0.24022306691E+03  0.24022306691E+03  0.00000000000E+00 0. -1.
         -2   -1    0    0    0  501 -0.00000000000E+00 -0.00000000000E+00 -0.33632799492E+03  0.33632799492E+03  0.00000000000E+00 0.  1.
          5    1    1    2  502    0 -0.28466517769E+02  0.14794859989E+03  0.15158685629E+03  0.21377510576E+03  0.47000000000E+01 0. -1.
         -5    1    1    2    0  502  0.19054386207E+02  0.42274247925E+02 -0.18393133282E+02  0.50105678553E+02  0.47000000000E+01 0. -1.
        -11    1    1    2    0    0  0.21485607049E+02 -0.14403878619E+03 -0.22031293869E+03  0.26409580495E+03  0.00000000000E+00 0.  1.
         11    1    1    2    0    0 -0.12073475486E+02 -0.46184061622E+02 -0.89857123277E+01  0.48574472558E+02  0.00000000000E+00 0. -1.
<mgrwt>
<rscale>  0 0.22389186E+03</rscale>
<asrwt>0</asrwt>
<pdfrwt beam="1">  1        2 0.36957395E-01 0.22779925E+03</pdfrwt>
<pdfrwt beam="2">  1       -2 0.51742768E-01 0.22779925E+03</pdfrwt>
<totfact> 0.50117918E+02</totfact>
</mgrwt>
</event>
<event>
 6    1  0.6101889E-006  0.1257320E+03  0.7546771E-02  0.1248848E+00
         -1   -1    0    0    0  501 -0.00000000000E+00  0.00000000000E+00  0.79121240232E+01  0.79121240232E+01  0.00000000000E+00 0.  1.
          1   -1    0    0  501    0  0.00000000000E+00 -0.00000000000E+00 -0.25734043703E+04  0.25734043703E+04  0.00000000000E+00 0. -1.
          5    1    1    2  502    0 -0.30524603970E+02  0.12903390801E+02 -0.19580624777E+04  0.19583485403E+04  0.47000000000E+01 0.  1.
         -5    1    1    2    0  502  0.41004868264E+02 -0.43307325382E+01 -0.26152445894E+03  0.26479669010E+03  0.47000000000E+01 0.  1.
        -11    1    1    2    0    0  0.34958130400E+02  0.94951363639E+01 -0.80167098584E+02  0.87971541938E+02  0.00000000000E+00 0.  1.
         11    1    1    2    0    0 -0.45438394693E+02 -0.18067794626E+02 -0.26573821109E+03  0.27019972196E+03  0.00000000000E+00 0. -1.
<mgrwt>
<rscale>  0 0.11658016E+03</rscale>
<asrwt>0</asrwt>
<pdfrwt beam="2">  1        1 0.39590889E+00 0.12573204E+03</pdfrwt>
<pdfrwt beam="1">  1       -1 0.12172482E-02 0.12573204E+03</pdfrwt>
<totfact> 0.20191462E+03</totfact>
</mgrwt>
</event>
<event>
 6    1  0.6101889E-006  0.2558203E+03  0.7546771E-02  0.1112009E+00
          2   -1    0    0  501    0  0.00000000000E+00  0.00000000000E+00  0.18967087885E+03  0.18967087885E+03  0.00000000000E+00 0. -1.
         -2   -1    0    0    0  501 -0.00000000000E+00 -0.00000000000E+00 -0.35363660094E+03  0.35363660094E+03  0.00000000000E+00 0.  1.
          5    1    1    2  502    0 -0.49832898964E+01  0.14704348236E+02  0.23366206468E+02  0.28445045965E+02  0.47000000000E+01 0. -1.
         -5    1    1    2    0  502 -0.19798691653E+03 -0.10756730356E+03 -0.30972258449E+02  0.22748827378E+03  0.47000000000E+01 0. -1.
        -11    1    1    2    0    0  0.16946640285E+03  0.33242555179E+02 -0.11396431444E+03  0.20691011124E+03  0.00000000000E+00 0. -1.
         11    1    1    2    0    0  0.33503803579E+02  0.59620400143E+02 -0.42395355667E+02  0.80464048802E+02  0.00000000000E+00 0.  1.
<mgrwt>
<rscale>  0 0.25206146E+03</rscale>
<asrwt>0</asrwt>
<pdfrwt beam="1">  1        2 0.29180135E-01 0.25582027E+03</pdfrwt>
<pdfrwt beam="2">  1       -2 0.54405631E-01 0.25582027E+03</pdfrwt>
<totfact> 0.58674059E+02</totfact>
</mgrwt>
</event>
<event>
 6    1  0.6101889E-006  0.1429599E+03  0.7546771E-02  0.1219472E+00
         -2   -1    0    0    0  501 -0.00000000000E+00  0.00000000000E+00  0.11093103347E+02  0.11093103347E+02  0.00000000000E+00 0.  1.
          2   -1    0    0  501    0  0.00000000000E+00 -0.00000000000E+00 -0.21266316103E+04  0.21266316103E+04  0.00000000000E+00 0. -1.
          5    1    1    2  502    0 -0.20833834938E+02  0.32026875981E+02 -0.35620159351E+03  0.35827564065E+03  0.47000000000E+01 0.  1.
         -5    1    1    2    0  502  0.85942086081E+02 -0.56024712490E+02 -0.13566151075E+04  0.13604967661E+04  0.47000000000E+01 0.  1.
        -11    1    1    2    0    0 -0.89131603177E+01 -0.33433005691E+02 -0.14038393212E+03  0.14458512612E+03  0.00000000000E+00 0.  1.
         11    1    1    2    0    0 -0.56195090825E+02  0.57430842199E+02 -0.26233787382E+03  0.27436718081E+03  0.00000000000E+00 0. -1.
<mgrwt>
<rscale>  0 0.13553131E+03</rscale>
<asrwt>0</asrwt>
<pdfrwt beam="2">  1        2 0.32717418E+00 0.14295991E+03</pdfrwt>
<pdfrwt beam="1">  1       -2 0.17066308E-02 0.14295991E+03</pdfrwt>
<totfact> 0.61755734E+03</totfact>
</mgrwt>
</event>
<event>
 6    1  0.6101889E-006  0.4819101E+03  0.7546771E-02  0.1018612E+00
         -2   -1    0    0    0  501 -0.00000000000E+00  0.00000000000E+00  0.52124888691E+02  0.52124888691E+02  0.00000000000E+00 0.  1.
          2   -1    0    0  501    0  0.00000000000E+00 -0.00000000000E+00 -0.11138503469E+04  0.11138503469E+04  0.00000000000E+00 0. -1.
          5    1    1    2  502    0 -0.99362895127E+01 -0.77838964117E+00 -0.52521980535E+01  0.12207019460E+02  0.47000000000E+01 0.  1.
         -5    1    1    2    0  502  0.16474970762E+03 -0.72211954950E+02 -0.86018191250E+03  0.87880148224E+03  0.47000000000E+01 0.  1.
        -11    1    1    2    0    0 -0.33025402749E+02  0.17705431757E+01  0.19731724153E+00  0.33073418087E+02  0.00000000000E+00 0.  1.
         11    1    1    2    0    0 -0.12178801535E+03  0.71219801416E+02 -0.19648866491E+03  0.24189331581E+03  0.00000000000E+00 0. -1.
<mgrwt>
<rscale>  0 0.48191006E+03</rscale>
<asrwt>0</asrwt>
<pdfrwt beam="2">  1        2 0.17136158E+00 0.48191006E+03</pdfrwt>
<pdfrwt beam="1">  1       -2 0.80192143E-02 0.48191006E+03</pdfrwt>
<totfact> 0.21108880E+03</totfact>
</mgrwt>
</event>
<event>
 6    1  0.6101889E-006  0.1395076E+03  0.7546771E-02  0.1225070E+00
          2   -1    0    0  501    0  0.00000000000E+00  0.00000000000E+00  0.56058443510E+03  0.56058443510E+03  0.00000000000E+00 0. -1.
         -2   -1    0    0    0  501 -0.00000000000E+00 -0.00000000000E+00 -0.33466943468E+02  0.33466943468E+02  0.00000000000E+00 0.  1.
          5    1    1    2  502    0  0.57024465952E+02  0.30824095334E+02  0.11008282312E+03  0.12783674165E+03  0.47000000000E+01 0.  1.
         -5    1    1    2    0  502 -0.69869538625E+00 -0.56666652755E+02  0.29956590884E+03  0.30491543327E+03  0.47000000000E+01 0.  1.
        -11    1    1    2    0    0 -0.20786344363E+01  0.36122138514E+02  0.95059132612E+02  0.10171218366E+03  0.00000000000E+00 0. -1.
         11    1    1    2    0    0 -0.54247136130E+02 -0.10279581094E+02  0.22409627068E+02  0.59587019988E+02  0.00000000000E+00 0.  1.
<mgrwt>
<rscale>  0 0.13162115E+03</rscale>
<asrwt>0</asrwt>
<pdfrwt beam="1">  1        2 0.86243753E-01 0.13950757E+03</pdfrwt>
<pdfrwt beam="2">  1       -2 0.51487609E-02 0.13950757E+03</pdfrwt>
<totfact> 0.97760911E+03</totfact>
</mgrwt>
</event>
<event>
 6    1  0.6101889E-006  0.2039998E+03  0.7546771E-02  0.1150102E+00
         -1   -1    0    0    0  501 -0.00000000000E+00  0.00000000000E+00  0.46063723099E+02  0.46063723099E+02  0.00000000000E+00 0.  1.
          1   -1    0    0  501    0  0.00000000000E+00 -0.00000000000E+00 -0.83408482646E+03  0.83408482646E+03  0.00000000000E+00 0. -1.
          5    1    1    2  502    0  0.14610567237E+03 -0.77551594883E+01 -0.38456835836E+03  0.41148745090E+03  0.47000000000E+01 0. -1.
         -5    1    1    2    0  502  0.14965287966E+02  0.53485490798E+00  0.73718627523E+01  0.17340134778E+02  0.47000000000E+01 0. -1.
        -11    1    1    2    0    0 -0.14793300277E+03 -0.14422627706E+02 -0.26971868962E+03  0.30796161616E+03  0.00000000000E+00 0.  1.
         11    1    1    2    0    0 -0.13137957569E+02  0.21642932286E+02 -0.14110591813E+03  0.14335934772E+03  0.00000000000E+00 0. -1.
<mgrwt>
<rscale>  0 0.19957071E+03</rscale>
<asrwt>0</asrwt>
<pdfrwt beam="2">  1        1 0.12832074E+00 0.20399976E+03</pdfrwt>
<pdfrwt beam="1">  1       -1 0.70867267E-02 0.20399976E+03</pdfrwt>
<totfact> 0.22265475E+03</totfact>
</mgrwt>
</event>
<event>
 6    1  0.6101889E-006  0.1591301E+03  0.7546771E-02  0.1197489E+00
         -1   -1    0    0    0  501 -0.00000000000E+00  0.00000000000E+00  0.56161381614E+02  0.56161381614E+02  0.00000000000E+00 0.  1.
          1   -1    0    0  501    0  0.00000000000E+00 -0.00000000000E+00 -0.38704471716E+03  0.38704471716E+03  0.00000000000E+00 0. -1.
          5    1    1    2  502    0 -0.70488033928E+02 -0.40801973327E+02 -0.58026904609E+02  0.10011281443E+03  0.47000000000E+01 0.  1.
         -5    1    1    2    0  502 -0.26783165944E+02  0.56162509308E+02 -0.14491404102E+03  0.15777748481E+03  0.47000000000E+01 0.  1.
        -11    1    1    2    0    0 -0.27410186446E+01 -0.32402913657E+02 -0.34006597724E+02  0.47052212333E+02  0.00000000000E+00 0.  1.
         11    1    1    2    0    0  0.10001221852E+03  0.17042377677E+02 -0.93935792195E+02  0.13826358720E+03  0.00000000000E+00 0. -1.
<mgrwt>
<rscale>  0 0.15245470E+03</rscale>
<asrwt>0</asrwt>
<pdfrwt beam="2">  1        1 0.59545341E-01 0.15913007E+03</pdfrwt>
<pdfrwt beam="1">  1       -1 0.86402126E-02 0.15913007E+03</pdfrwt>
<totfact> 0.46925346E+03</totfact>
</mgrwt>
</event>
<event>
 6    1  0.6101889E-006  0.1498044E+03  0.7546771E-02  0.1210090E+00
          1   -1    0    0  501    0  0.00000000000E+00  0.00000000000E+00  0.27345502028E+03  0.27345502028E+03  0.00000000000E+00 0. -1.
         -1   -1    0    0    0  501 -0.00000000000E+00 -0.00000000000E+00 -0.91628580943E+02  0.91628580943E+02  0.00000000000E+00 0.  1.
          5    1    1    2  502    0  0.18687721838E+02  0.30946497682E+02  0.28464646566E+01  0.36566501436E+02  0.47000000000E+01 0. -1.
         -5    1    1    2    0  502  0.58188236299E+02 -0.61019814460E+02  0.18765344401E+03  0.20577947820E+03  0.47000000000E+01 0. -1.
        -11    1    1    2    0    0 -0.14276239413E+02 -0.41026681071E+01 -0.41607535614E+02  0.44179519206E+02  0.00000000000E+00 0.  1.
         11    1    1    2    0    0 -0.62599718724E+02  0.34175984885E+02  0.32934066283E+02  0.78558102378E+02  0.00000000000E+00 0. -1.
<mgrwt>
<rscale>  0 0.14243479E+03</rscale>
<asrwt>0</asrwt>
<pdfrwt beam="1">  1        1 0.42070003E-01 0.14980440E+03</pdfrwt>
<pdfrwt beam="2">  1       -1 0.14096705E-01 0.14980440E+03</pdfrwt>
<totfact> 0.33959336E+03</totfact>
</mgrwt>
</event>
<event>
 6    1  0.6101889E-006  0.4374177E+03  0.7546771E-02  0.1031542E+00
         -2   -1    0    0    0  501 -0.00000000000E+00  0.00000000000E+00  0.24236889313E+03  0.24236889313E+03  0.00000000000E+00 0.  1.
          2   -1    0    0  501    0  0.00000000000E+00 -0.00000000000E+00 -0.19735851138E+03  0.19735851138E+03  0.00000000000E+00 0. -1.
          5    1    1    2  502    0  0.54407819875E+02 -0.16159890703E+03 -0.61415573872E+02  0.18129638808E+03  0.47000000000E+01 0.  1.
         -5    1    1    2    0  502  0.84879058542E+01  0.21297195206E+02 -0.26852890162E+02  0.35619977253E+02  0.47000000000E+01 0.  1.
        -11    1    1    2    0    0 -0.94202961422E+01  0.89590398566E+02  0.11643231547E+03  0.14721299393E+03  0.00000000000E+00 0.  1.
         11    1    1    2    0    0 -0.53475429587E+02  0.50711313258E+02  0.16846530307E+02  0.75598045248E+02  0.00000000000E+00 0. -1.
<mgrwt>
<rscale>  0 0.43741771E+03</rscale>
<asrwt>0</asrwt>
<pdfrwt beam="2">  1        2 0.30362848E-01 0.43741771E+03</pdfrwt>
<pdfrwt beam="1">  1       -2 0.37287522E-01 0.43741771E+03</pdfrwt>
<totfact> 0.11880174E+03</totfact>
</mgrwt>
</event>
<event>
 6    1  0.6101889E-006  0.1412911E+03  0.7546771E-02  0.1222343E+00
         -2   -1    0    0    0  501 -0.00000000000E+00  0.00000000000E+00  0.91675147462E+02  0.91675147462E+02  0.00000000000E+00 0.  1.
          2   -1    0    0  501    0  0.00000000000E+00 -0.00000000000E+00 -0.22085452734E+03  0.22085452734E+03  0.00000000000E+00 0. -1.
          5    1    1    2  502    0 -0.29412580172E+02  0.42960586211E+02 -0.43025255999E+02  0.67705055157E+02  0.47000000000E+01 0. -1.
         -5    1    1    2    0  502  0.87421487120E+02 -0.11797919360E+02 -0.97562986955E+02  0.13161433712E+03  0.47000000000E+01 0. -1.
        -11    1    1    2    0    0  0.10517343956E+02 -0.15390645024E+02  0.34486664685E+02  0.39202251457E+02  0.00000000000E+00 0.  1.
         11    1    1    2    0    0 -0.68526250904E+02 -0.15772021827E+02 -0.23077801606E+02  0.74008031067E+02  0.00000000000E+00 0. -1.
<mgrwt>
<rscale>  0 0.13350679E+03</rscale>
<asrwt>0</asrwt>
<pdfrwt beam="2">  1        2 0.33977619E-01 0.14129107E+03</pdfrwt>
<pdfrwt beam="1">  1       -2 0.14103869E-01 0.14129107E+03</pdfrwt>
<totfact> 0.55464015E+03</totfact>
</mgrwt>
</event>
<event>
 6    1  0.6101889E-006  0.1350020E+03  0.7546771E-02  0.1229941E+00
          2   -1    0    0  501    0  0.00000000000E+00  0.00000000000E+00  0.32234737468E+03  0.32234737468E+03  0.00000000000E+00 0.  1.
         -2   -1    0    0    0  501 -0.00000000000E+00 -0.00000000000E+00 -0.58467466701E+02  0.58467466701E+02  0.00000000000E+00 0. -1.
          5    1    1    2  502    0  0.20248797510E+02  0.86360571971E+02  0.19007330885E+03  0.20980494496E+03  0.47000000000E+01 0. -1.
         -5    1    1    2    0  502 -0.18006204082E+02 -0.35423089110E+02  0.37731612827E+02  0.54998029365E+02  0.47000000000E+01 0. -1.
        -11    1    1    2    0    0  0.30808327762E+02  0.34879940895E+01 -0.14944132722E+02  0.34418690635E+02  0.00000000000E+00 0. -1.
         11    1    1    2    0    0 -0.33050921190E+02 -0.54425476950E+02  0.51019119025E+02  0.81593176423E+02  0.00000000000E+00 0.  1.
<mgrwt>
<rscale>  0 0.12833938E+03</rscale>
<asrwt>0</asrwt>
<pdfrwt beam="1">  1        2 0.49591903E-01 0.13500197E+03</pdfrwt>
<pdfrwt beam="2">  1       -2 0.89949951E-02 0.13500197E+03</pdfrwt>
<totfact> 0.75584407E+03</totfact>
</mgrwt>
</event>
<event>
 6    1  0.7050700E-006  0.3047669E+03  0.7546771E-02  0.1082882E+00
         -1   -1    0    0    0  501 -0.00000000000E+00  0.00000000000E+00  0.13472332542E+03  0.13472332542E+03  0.00000000000E+00 0.  1.
          1   -1    0    0  501    0  0.00000000000E+00 -0.00000000000E+00 -0.17235855232E+03  0.17235855232E+03  0.00000000000E+00 0. -1.
          5    1    1    2  502    0  0.18810864797E+02  0.30677364193E+02 -0.84266414722E+01  0.37256510770E+02  0.47000000000E+01 0. -1.
         -5    1    1    2    0  502  0.30810679915E+02 -0.12283795481E+03 -0.33547015224E+02  0.13109520727E+03  0.47000000000E+01 0. -1.
        -11    1    1    2    0    0 -0.16942065782E+02  0.61613204763E+02  0.45098433613E+02  0.78211823329E+02  0.00000000000E+00 0.  1.
         11    1    1    2    0    0 -0.32679478930E+02  0.30547385859E+02 -0.40760003813E+02  0.60518336368E+02  0.00000000000E+00 0. -1.
<mgrwt>
<rscale>  0 0.30476691E+03</rscale>
<asrwt>0</asrwt>
<pdfrwt beam="2">  1        1 0.26516700E-01 0.30476691E+03</pdfrwt>
<pdfrwt beam="1">  1       -1 0.20726666E-01 0.30476691E+03</pdfrwt>
<totfact> 0.33684431E+03</totfact>
</mgrwt>
</event>
<event>
 6    1  0.6101889E-006  0.1424538E+03  0.7546771E-02  0.1220962E+00
          4   -1    0    0  501    0  0.00000000000E+00  0.00000000000E+00  0.45307205836E+03  0.45307205836E+03  0.00000000000E+00 0. -1.
         -4   -1    0    0    0  501 -0.00000000000E+00 -0.00000000000E+00 -0.37303704641E+02  0.37303704641E+02  0.00000000000E+00 0.  1.
          5    1    1    2  502    0  0.23111014984E+02 -0.14080566955E+02 -0.11698135324E+02  0.29854945142E+02  0.47000000000E+01 0.  1.
         -5    1    1    2    0  502 -0.41063102952E+01 -0.51554629515E+02  0.19783854849E+03  0.20454076092E+03  0.47000000000E+01 0.  1.
        -11    1    1    2    0    0 -0.55280961186E+02  0.44031240673E+02  0.15148483838E+03  0.16715977711E+03  0.00000000000E+00 0.  1.
         11    1    1    2    0    0  0.36276256498E+02  0.21603955798E+02  0.78143102173E+02  0.88820279828E+02  0.00000000000E+00 0. -1.
<mgrwt>
<rscale>  0 0.13447553E+03</rscale>
<asrwt>0</asrwt>
<pdfrwt beam="1">  1        4 0.69703390E-01 0.14245383E+03</pdfrwt>
<pdfrwt beam="2">  1       -4 0.57390318E-02 0.14245383E+03</pdfrwt>
<totfact> 0.61504340E+02</totfact>
</mgrwt>
</event>
<event>
 6    1  0.6101889E-006  0.1327986E+03  0.7546771E-02  0.1246476E+00
         -2   -1    0    0    0  501 -0.00000000000E+00  0.00000000000E+00  0.22697433214E+02  0.22697433214E+02  0.00000000000E+00 0.  1.
          2   -1    0    0  501    0  0.00000000000E+00 -0.00000000000E+00 -0.67545745901E+03  0.67545745901E+03  0.00000000000E+00 0. -1.
          5    1    1    2  502    0 -0.70510584837E+02  0.32146986145E+02 -0.45047435981E+03  0.45711531383E+03  0.47000000000E+01 0.  1.
         -5    1    1    2    0  502  0.43583091691E+02  0.36847817977E+01 -0.10174875871E+03  0.11085108659E+03  0.47000000000E+01 0.  1.
        -11    1    1    2    0    0 -0.21698025516E+02 -0.43272231663E+01 -0.14471685013E+02  0.26437829690E+02  0.00000000000E+00 0.  1.
         11    1    1    2    0    0  0.48625518663E+02 -0.31504544776E+02 -0.86065222265E+02  0.10375066212E+03  0.00000000000E+00 0. -1.
<mgrwt>
<rscale>  0 0.11797445E+03</rscale>
<asrwt>0</asrwt>
<pdfrwt beam="2">  1        2 0.10391653E+00 0.13279857E+03</pdfrwt>
<pdfrwt beam="1">  1       -2 0.34919128E-02 0.13279857E+03</pdfrwt>
<totfact> 0.14035916E+04</totfact>
</mgrwt>
</event>
<event>
 6    1  0.6101889E-006  0.1364017E+03  0.7546771E-02  0.1229466E+00
          1   -1    0    0  501    0  0.00000000000E+00  0.00000000000E+00  0.43843620447E+03  0.43843620447E+03  0.00000000000E+00 0. -1.
         -1   -1    0    0    0  501 -0.00000000000E+00 -0.00000000000E+00 -0.34924051281E+02  0.34924051281E+02  0.00000000000E+00 0.  1.
          5    1    1    2  502    0  0.31298135184E+02  0.55159097104E+02  0.89011408190E+02  0.10939478985E+03  0.47000000000E+01 0.  1.
         -5    1    1    2    0  502  0.22491120691E+02 -0.64335468993E+02  0.17289501058E+03  0.18590233394E+03  0.47000000000E+01 0.  1.
        -11    1    1    2    0    0  0.32623161348E+01 -0.22907900643E+02  0.12234650900E+01  0.23171350527E+02  0.00000000000E+00 0.  1.
         11    1    1    2    0    0 -0.57051572010E+02  0.32084272531E+02  0.14038226933E+03  0.15489178144E+03  0.00000000000E+00 0. -1.
<mgrwt>
<rscale>  0 0.12865467E+03</rscale>
<asrwt>0</asrwt>
<pdfrwt beam="1">  1        1 0.67451720E-01 0.13640168E+03</pdfrwt>
<pdfrwt beam="2">  1       -1 0.53729313E-02 0.13640168E+03</pdfrwt>
<totfact> 0.81003126E+03</totfact>
</mgrwt>
</event>
<event>
 6    1  0.6101889E-006  0.1361449E+03  0.7546771E-02  0.1228043E+00
         -1   -1    0    0    0  501 -0.00000000000E+00  0.00000000000E+00  0.48239604370E+02  0.48239604370E+02  0.00000000000E+00 0.  1.
          1   -1    0    0  501    0  0.00000000000E+00 -0.00000000000E+00 -0.35859702772E+03  0.35859702772E+03  0.00000000000E+00 0. -1.
          5    1    1    2  502    0  0.37454245544E+02  0.25546480806E+02 -0.16162179320E+03  0.16792598735E+03  0.47000000000E+01 0.  1.
         -5    1    1    2    0  502 -0.10935898982E+02 -0.72547028655E+02 -0.74708832934E+02  0.10481490816E+03  0.47000000000E+01 0.  1.
        -11    1    1    2    0    0  0.58655491771E+01  0.19103395512E+02  0.21554319859E+02  0.29392738760E+02  0.00000000000E+00 0.  1.
         11    1    1    2    0    0 -0.32383895739E+02  0.27897152337E+02 -0.95581117077E+02  0.10470299782E+03  0.00000000000E+00 0. -1.
<mgrwt>
<rscale>  0 0.12960512E+03</rscale>
<asrwt>0</asrwt>
<pdfrwt beam="2">  1        1 0.55168774E-01 0.13614489E+03</pdfrwt>
<pdfrwt beam="1">  1       -1 0.74214775E-02 0.13614489E+03</pdfrwt>
<totfact> 0.64427565E+03</totfact>
</mgrwt>
</event>
<event>
 6    1  0.6101889E-006  0.3755044E+03  0.7546771E-02  0.1071472E+00
         -2   -1    0    0    0  501 -0.00000000000E+00  0.00000000000E+00  0.31927701704E+02  0.31927701704E+02  0.00000000000E+00 0.  1.
          2   -1    0    0  501    0  0.00000000000E+00 -0.00000000000E+00 -0.27952314445E+04  0.27952314445E+04  0.00000000000E+00 0. -1.
          5    1    1    2  502    0 -0.83440171071E+02 -0.21363297969E+03 -0.16443558832E+04  0.16602799983E+04  0.47000000000E+01 0. -1.
         -5    1    1    2    0  502  0.64434352373E+02  0.14633824385E+02 -0.77072014280E+02  0.10162735836E+03  0.47000000000E+01 0.  1.
        -11    1    1    2    0    0  0.50879574189E+02  0.15274268191E+03 -0.85848342141E+03  0.87344882093E+03  0.00000000000E+00 0.  1.
         11    1    1    2    0    0 -0.31873755491E+02  0.46256473400E+02 -0.18339242384E+03  0.19180296855E+03  0.00000000000E+00 0. -1.
<mgrwt>
<rscale>  0 0.32924466E+03</rscale>
<asrwt>0</asrwt>
<pdfrwt beam="2">  1        2 0.43003556E+00 0.37550436E+03</pdfrwt>
<pdfrwt beam="1">  1       -2 0.49119546E-02 0.37550436E+03</pdfrwt>
<totfact> 0.54089189E+02</totfact>
</mgrwt>
</event>
<event>
 6    1  0.6101889E-006  0.5225675E+03  0.7546771E-02  0.1008051E+00
         -2   -1    0    0    0  501 -0.00000000000E+00  0.00000000000E+00  0.95276077087E+02  0.95276077087E+02  0.00000000000E+00 0.  1.
          2   -1    0    0  501    0  0.00000000000E+00 -0.00000000000E+00 -0.71654085328E+03  0.71654085328E+03  0.00000000000E+00 0. -1.
          5    1    1    2  502    0 -0.66245126547E+02  0.13833411462E+02 -0.66371959172E+02  0.94905779741E+02  0.47000000000E+01 0. -1.
         -5    1    1    2    0  502 -0.41816440243E+02  0.18877842886E+03 -0.21384554313E+03  0.28833646352E+03  0.47000000000E+01 0. -1.
        -11    1    1    2    0    0  0.25531481046E+02 -0.13256540244E+03 -0.11266591843E+03  0.17583814041E+03  0.00000000000E+00 0. -1.
         11    1    1    2    0    0  0.82530085745E+02 -0.70046437885E+02 -0.22838135546E+03  0.25273654669E+03  0.00000000000E+00 0.  1.
<mgrwt>
<rscale>  0 0.52256751E+03</rscale>
<asrwt>0</asrwt>
<pdfrwt beam="2">  1        2 0.11023705E+00 0.52256751E+03</pdfrwt>
<pdfrwt beam="1">  1       -2 0.14657858E-01 0.52256751E+03</pdfrwt>
<totfact> 0.14521656E+03</totfact>
</mgrwt>
</event>
<event>
 6    1  0.6101889E-006  0.1875784E+03  0.7546771E-02  0.1165148E+00
          2   -1    0    0  501    0  0.00000000000E+00  0.00000000000E+00  0.15228972066E+03  0.15228972066E+03  0.00000000000E+00 0. -1.
         -2   -1    0    0    0  501 -0.00000000000E+00 -0.00000000000E+00 -0.30362901649E+03  0.30362901649E+03  0.00000000000E+00 0.  1.
          5    1    1    2  502    0  0.92908714985E+02  0.48303866638E+02  0.26309979383E+02  0.10807218822E+03  0.47000000000E+01 0.  1.
         -5    1    1    2    0  502 -0.30409994540E+02  0.76813096003E+02  0.22589333109E+02  0.85775214694E+02  0.47000000000E+01 0.  1.
        -11    1    1    2    0    0 -0.10520044838E+02 -0.11576977788E+03 -0.13609432767E+03  0.17898318032E+03  0.00000000000E+00 0.  1.
         11    1    1    2    0    0 -0.51978675607E+02 -0.93471847640E+01 -0.64144280641E+02  0.83088153908E+02  0.00000000000E+00 0. -1.
<mgrwt>
<rscale>  0 0.18277052E+03</rscale>
<asrwt>0</asrwt>
<pdfrwt beam="1">  1        2 0.23429188E-01 0.18757844E+03</pdfrwt>
<pdfrwt beam="2">  1       -2 0.46712156E-01 0.18757844E+03</pdfrwt>
<totfact> 0.10111896E+03</totfact>
</mgrwt>
</event>
<event>
 6    1  0.6101889E-006  0.1612556E+03  0.7546771E-02  0.1197572E+00
          1   -1    0    0  501    0  0.00000000000E+00  0.00000000000E+00  0.38571506210E+03  0.38571506210E+03  0.00000000000E+00 0. -1.
         -1   -1    0    0    0  501 -0.00000000000E+00 -0.00000000000E+00 -0.25345978805E+03  0.25345978805E+03  0.00000000000E+00 0.  1.
          5    1    1    2  502    0  0.66408788047E+02 -0.73511049933E+02  0.12981941000E+03  0.16336820623E+03  0.47000000000E+01 0.  1.
         -5    1    1    2    0  502 -0.21103771989E+02 -0.17733232415E+02  0.22070660921E+03  0.22247097355E+03  0.47000000000E+01 0.  1.
        -11    1    1    2    0    0 -0.41127827769E+02  0.83846025422E+01 -0.46908378226E+02  0.62945974649E+02  0.00000000000E+00 0. -1.
         11    1    1    2    0    0 -0.41771882890E+01  0.82859679806E+02 -0.17136236693E+03  0.19038969573E+03  0.00000000000E+00 0.  1.
<mgrwt>
<rscale>  0 0.15238519E+03</rscale>
<asrwt>0</asrwt>
<pdfrwt beam="1">  1        1 0.59340779E-01 0.16125564E+03</pdfrwt>
<pdfrwt beam="2">  1       -1 0.38993814E-01 0.16125564E+03</pdfrwt>
<totfact> 0.41555948E+02</totfact>
</mgrwt>
</event>
<event>
 6    1  0.6101889E-006  0.1590939E+03  0.7546771E-02  0.1193458E+00
         -3   -1    0    0    0  501 -0.00000000000E+00  0.00000000000E+00  0.28846726677E+03  0.28846726677E+03  0.00000000000E+00 0.  1.
          3   -1    0    0  501    0  0.00000000000E+00 -0.00000000000E+00 -0.10471585965E+03  0.10471585965E+03  0.00000000000E+00 0. -1.
          5    1    1    2  502    0 -0.87257607631E+01  0.81433456285E+01 -0.38963292607E+02  0.41020496702E+02  0.47000000000E+01 0. -1.
         -5    1    1    2    0  502 -0.93466414680E+02 -0.59760522503E+02  0.40162441596E+02  0.11807795068E+03  0.47000000000E+01 0.  1.
        -11    1    1    2    0    0 -0.17030318665E+02  0.43628394878E+01  0.15172105650E+02  0.23221948929E+02  0.00000000000E+00 0. -1.
         11    1    1    2    0    0  0.11922249411E+03  0.47254337387E+02  0.16738015248E+03  0.21086273011E+03  0.00000000000E+00 0.  1.
<mgrwt>
<rscale>  0 0.15585473E+03</rscale>
<asrwt>0</asrwt>
<pdfrwt beam="2">  1        3 0.16110132E-01 0.15909393E+03</pdfrwt>
<pdfrwt beam="1">  1       -3 0.44379579E-01 0.15909393E+03</pdfrwt>
<totfact> 0.39464815E+02</totfact>
</mgrwt>
</event>
<event>
 6    1  0.6101889E-006  0.1291260E+03  0.7546771E-02  0.1242821E+00
          2   -1    0    0  501    0  0.00000000000E+00  0.00000000000E+00  0.81708915871E+03  0.81708915871E+03  0.00000000000E+00 0.  1.
         -2   -1    0    0    0  501 -0.00000000000E+00 -0.00000000000E+00 -0.19986417765E+02  0.19986417765E+02  0.00000000000E+00 0. -1.
          5    1    1    2  502    0 -0.27417812379E+02  0.15502607162E+02  0.46070672777E+02  0.56005929638E+02  0.47000000000E+01 0. -1.
         -5    1    1    2    0  502  0.37708793887E+02 -0.46202801933E+02  0.59094122043E+03  0.59396150385E+03  0.47000000000E+01 0. -1.
        -11    1    1    2    0    0 -0.17075522734E+02 -0.29938617633E+02  0.43336346462E+02  0.55370869843E+02  0.00000000000E+00 0.  1.
         11    1    1    2    0    0  0.67845412269E+01  0.60638812404E+02  0.11675450127E+03  0.13173727315E+03  0.00000000000E+00 0. -1.
<mgrwt>
<rscale>  0 0.12016769E+03</rscale>
<asrwt>0</asrwt>
<pdfrwt beam="1">  1        2 0.12570600E+00 0.12912596E+03</pdfrwt>
<pdfrwt beam="2">  1       -2 0.30748341E-02 0.12912596E+03</pdfrwt>
<totfact> 0.13418779E+04</totfact>
</mgrwt>
</event>
<event>
 6    1  0.6101889E-006  0.1481691E+03  0.7546771E-02  0.1212173E+00
         -2   -1    0    0    0  501 -0.00000000000E+00  0.00000000000E+00  0.30480498007E+02  0.30480498007E+02  0.00000000000E+00 0. -1.
          2   -1    0    0  501    0  0.00000000000E+00 -0.00000000000E+00 -0.59551924583E+03  0.59551924583E+03  0.00000000000E+00 0.  1.
          5    1    1    2  502    0 -0.73043295676E+02  0.92081815386E+01 -0.11595751328E+03  0.13743488835E+03  0.47000000000E+01 0.  1.
         -5    1    1    2    0  502  0.16854322786E+02 -0.65532677121E+02 -0.20845832064E+03  0.21921578732E+03  0.47000000000E+01 0.  1.
        -11    1    1    2    0    0 -0.82073649747E+01  0.28467372650E+02 -0.15890108749E+03  0.16163943749E+03  0.00000000000E+00 0.  1.
         11    1    1    2    0    0  0.64396337864E+02  0.27857122932E+02 -0.81721826418E+02  0.10770963068E+03  0.00000000000E+00 0. -1.
<mgrwt>
<rscale>  0 0.14086274E+03</rscale>
<asrwt>0</asrwt>
<pdfrwt beam="2">  1        2 0.91618337E-01 0.14816906E+03</pdfrwt>
<pdfrwt beam="1">  1       -2 0.46893078E-02 0.14816906E+03</pdfrwt>
<totfact> 0.10548232E+04</totfact>
</mgrwt>
</event>
<event>
 6    1  0.6101889E-006  0.1319654E+03  0.7546771E-02  0.1238790E+00
          2   -1    0    0  501    0  0.00000000000E+00  0.00000000000E+00  0.76144505091E+03  0.76144505091E+03  0.00000000000E+00 0. -1.
         -2   -1    0    0    0  501 -0.00000000000E+00 -0.00000000000E+00 -0.18709999951E+02  0.18709999951E+02  0.00000000000E+00 0.  1.
          5    1    1    2  502    0  0.17571117302E+02  0.15108239308E+01  0.30395080119E+01  0.18502847379E+02  0.47000000000E+01 0. -1.
         -5    1    1    2    0  502  0.12419228768E+02  0.28338688272E+02  0.51953516161E+03  0.52047688964E+03  0.47000000000E+01 0. -1.
        -11    1    1    2    0    0  0.15282995717E+02 -0.29746156001E+02  0.27589698692E+02  0.43354298851E+02  0.00000000000E+00 0.  1.
         11    1    1    2    0    0 -0.45273341787E+02 -0.10335620203E+00  0.19257068264E+03  0.19782101499E+03  0.00000000000E+00 0. -1.
<mgrwt>
<rscale>  0 0.12264878E+03</rscale>
<asrwt>0</asrwt>
<pdfrwt beam="1">  1        2 0.11714537E+00 0.13196542E+03</pdfrwt>
<pdfrwt beam="2">  1       -2 0.28784621E-02 0.13196542E+03</pdfrwt>
<totfact> 0.16154876E+04</totfact>
</mgrwt>
</event>
<event>
 6    1  0.6101889E-006  0.4121059E+03  0.7546771E-02  0.1039667E+00
          2   -1    0    0  501    0  0.00000000000E+00  0.00000000000E+00  0.35582787294E+03  0.35582787294E+03  0.00000000000E+00 0. -1.
         -2   -1    0    0    0  501 -0.00000000000E+00 -0.00000000000E+00 -0.11932121335E+03  0.11932121335E+03  0.00000000000E+00 0.  1.
          5    1    1    2  502    0  0.14548542216E+03 -0.14406502246E+02  0.25591592632E+03  0.29476873428E+03  0.47000000000E+01 0. -1.
         -5    1    1    2    0  502 -0.12034862900E+02  0.81801284699E+01 -0.47138518156E+01  0.16001963184E+02  0.47000000000E+01 0. -1.
        -11    1    1    2    0    0 -0.78725506306E+02  0.12261187489E+02 -0.54420398022E+02  0.96486381333E+02  0.00000000000E+00 0.  1.
         11    1    1    2    0    0 -0.54725052955E+02 -0.60348137137E+01  0.39724983105E+02  0.67892007484E+02  0.00000000000E+00 0. -1.
<mgrwt>
<rscale>  0 0.41210588E+03</rscale>
<asrwt>0</asrwt>
<pdfrwt beam="1">  1        2 0.54742749E-01 0.41210588E+03</pdfrwt>
<pdfrwt beam="2">  1       -2 0.18357110E-01 0.41210588E+03</pdfrwt>
<totfact> 0.22248058E+03</totfact>
</mgrwt>
</event>
<event>
 6    1  0.6101889E-006  0.1941198E+03  0.7546771E-02  0.1159343E+00
          1   -1    0    0  501    0  0.00000000000E+00  0.00000000000E+00  0.19049060654E+03  0.19049060654E+03  0.00000000000E+00 0. -1.
         -1   -1    0    0    0  501 -0.00000000000E+00 -0.00000000000E+00 -0.17908913038E+03  0.17908913038E+03  0.00000000000E+00 0.  1.
          5    1    1    2  502    0  0.43725120960E+02 -0.40436976619E+02  0.38146042506E+02  0.70881914760E+02  0.47000000000E+01 0. -1.
         -5    1    1    2    0  502 -0.58572536812E+02 -0.10733608463E+03 -0.20364042438E+02  0.12405064029E+03  0.47000000000E+01 0. -1.
        -11    1    1    2    0    0 -0.17060633366E+02  0.61512949497E+02  0.36102708358E+02  0.73336987376E+02  0.00000000000E+00 0. -1.
         11    1    1    2    0    0  0.31908049218E+02  0.86260111751E+02 -0.42483232265E+02  0.10131019449E+03  0.00000000000E+00 0.  1.
<mgrwt>
<rscale>  0 0.18902545E+03</rscale>
<asrwt>0</asrwt>
<pdfrwt beam="1">  1        1 0.29306247E-01 0.19411981E+03</pdfrwt>
<pdfrwt beam="2">  1       -1 0.27552174E-01 0.19411981E+03</pdfrwt>
<totfact> 0.18240802E+03</totfact>
</mgrwt>
</event>
<event>
 6    1  0.6101889E-006  0.1395926E+03  0.7546771E-02  0.1228400E+00
          1   -1    0    0  501    0  0.00000000000E+00  0.00000000000E+00  0.11004388591E+03  0.11004388591E+03  0.00000000000E+00 0. -1.
         -1   -1    0    0    0  501 -0.00000000000E+00 -0.00000000000E+00 -0.13852194033E+03  0.13852194033E+03  0.00000000000E+00 0.  1.
          5    1    1    2  502    0  0.82766928946E+02  0.28871087638E+02 -0.45507450699E+01  0.87901669547E+02  0.47000000000E+01 0.  1.
         -5    1    1    2    0  502 -0.21596555822E+02 -0.39558755144E+02 -0.34788412093E+02  0.57128188733E+02  0.47000000000E+01 0.  1.
        -11    1    1    2    0    0  0.92533726673E+01  0.27020903013E+02  0.12611321287E+02  0.31221779737E+02  0.00000000000E+00 0.  1.
         11    1    1    2    0    0 -0.70423745791E+02 -0.16333235507E+02 -0.17502185352E+01  0.72314188223E+02  0.00000000000E+00 0. -1.
<mgrwt>
<rscale>  0 0.12936562E+03</rscale>
<asrwt>0</asrwt>
<pdfrwt beam="1">  1        1 0.16929829E-01 0.13959259E+03</pdfrwt>
<pdfrwt beam="2">  1       -1 0.21311068E-01 0.13959259E+03</pdfrwt>
<totfact> 0.55046708E+03</totfact>
</mgrwt>
</event>
<event>
 6    1  0.6101889E-006  0.1331571E+03  0.7546771E-02  0.1237095E+00
          2   -1    0    0  501    0  0.00000000000E+00  0.00000000000E+00  0.17389648883E+03  0.17389648883E+03  0.00000000000E+00 0. -1.
         -2   -1    0    0    0  501 -0.00000000000E+00 -0.00000000000E+00 -0.78096990598E+02  0.78096990598E+02  0.00000000000E+00 0.  1.
          5    1    1    2  502    0 -0.13012404527E+02 -0.16180419885E+02 -0.29640283245E+02  0.36493356246E+02  0.47000000000E+01 0. -1.
         -5    1    1    2    0  502  0.58540777549E+02  0.10441788663E+02  0.94178243177E+02  0.11147952760E+03  0.47000000000E+01 0. -1.
        -11    1    1    2    0    0  0.72877247237E+01 -0.24495292587E+02 -0.13092760718E+02  0.28714990402E+02  0.00000000000E+00 0.  1.
         11    1    1    2    0    0 -0.52816097746E+02  0.30233923810E+02  0.44354299024E+02  0.75305605182E+02  0.00000000000E+00 0. -1.
<mgrwt>
<rscale>  0 0.12371270E+03</rscale>
<asrwt>0</asrwt>
<pdfrwt beam="1">  1        2 0.26753306E-01 0.13315715E+03</pdfrwt>
<pdfrwt beam="2">  1       -2 0.12014922E-01 0.13315715E+03</pdfrwt>
<totfact> 0.92644943E+03</totfact>
</mgrwt>
</event>
<event>
 6    1  0.6101889E-006  0.2422019E+03  0.7546771E-02  0.1118335E+00
         -1   -1    0    0    0  501 -0.00000000000E+00  0.00000000000E+00  0.13435593035E+03  0.13435593035E+03  0.00000000000E+00 0.  1.
          1   -1    0    0  501    0  0.00000000000E+00 -0.00000000000E+00 -0.10915366527E+03  0.10915366527E+03  0.00000000000E+00 0. -1.
          5    1    1    2  502    0  0.70504546047E+01 -0.57266728552E+01 -0.61988246337E+02  0.62826239550E+02  0.47000000000E+01 0. -1.
         -5    1    1    2    0  502  0.13349183382E+02  0.48849268453E+02  0.50228733629E+02  0.71480538661E+02  0.47000000000E+01 0. -1.
        -11    1    1    2    0    0 -0.32545521819E+02 -0.67729473649E+02  0.24240344597E+02  0.78956234063E+02  0.00000000000E+00 0. -1.
         11    1    1    2    0    0  0.12145883833E+02  0.24606878051E+02  0.12721433195E+02  0.30246583345E+02  0.00000000000E+00 0.  1.
<mgrwt>
<rscale>  0 0.24220192E+03</rscale>
<asrwt>0</asrwt>
<pdfrwt beam="2">  1        1 0.16792872E-01 0.24220192E+03</pdfrwt>
<pdfrwt beam="1">  1       -1 0.20670143E-01 0.24220192E+03</pdfrwt>
<totfact> 0.60419712E+03</totfact>
</mgrwt>
</event>
<event>
 6    1  0.6101889E-006  0.1480903E+03  0.7546771E-02  0.1212328E+00
          2   -1    0    0  501    0  0.00000000000E+00  0.00000000000E+00  0.64861902682E+02  0.64861902682E+02  0.00000000000E+00 0. -1.
         -2   -1    0    0    0  501 -0.00000000000E+00 -0.00000000000E+00 -0.39454252153E+03  0.39454252153E+03  0.00000000000E+00 0.  1.
          5    1    1    2  502    0  0.24160959206E+02 -0.55715922066E+02  0.10127144105E+02  0.61746781043E+02  0.47000000000E+01 0. -1.
         -5    1    1    2    0  502 -0.71235292765E+02 -0.82583750684E+01 -0.62778501587E+02  0.95424828821E+02  0.47000000000E+01 0. -1.
        -11    1    1    2    0    0  0.10856193518E+02  0.71812409150E+01  0.37027684106E+01  0.13532836092E+02  0.00000000000E+00 0. -1.
         11    1    1    2    0    0  0.36218140040E+02  0.56793056219E+02 -0.28073202977E+03  0.28869997825E+03  0.00000000000E+00 0.  1.
<mgrwt>
<rscale>  0 0.14074636E+03</rscale>
<asrwt>0</asrwt>
<pdfrwt beam="1">  1        2 0.99787542E-02 0.14809034E+03</pdfrwt>
<pdfrwt beam="2">  1       -2 0.60698850E-01 0.14809034E+03</pdfrwt>
<totfact> 0.16144339E+03</totfact>
</mgrwt>
</event>
<event>
 6    1  0.6101889E-006  0.1380720E+03  0.7546771E-02  0.1226662E+00
         -1   -1    0    0    0  501 -0.00000000000E+00  0.00000000000E+00  0.21857076922E+02  0.21857076922E+02  0.00000000000E+00 0.  1.
          1   -1    0    0  501    0  0.00000000000E+00 -0.00000000000E+00 -0.81607747144E+03  0.81607747144E+03  0.00000000000E+00 0. -1.
          5    1    1    2  502    0 -0.55291042759E+02 -0.42717437858E+00 -0.39709891054E+03  0.40095749979E+03  0.47000000000E+01 0. -1.
         -5    1    1    2    0  502  0.37761958604E+02 -0.57817125171E+02 -0.19168532230E+03  0.20379925973E+03  0.47000000000E+01 0.  1.
        -11    1    1    2    0    0  0.25645753881E+02  0.68058082351E+02 -0.20785742957E+03  0.22021425543E+03  0.00000000000E+00 0. -1.
         11    1    1    2    0    0 -0.81166697252E+01 -0.98137828010E+01  0.24212678953E+01  0.12963533412E+02  0.00000000000E+00 0.  1.
<mgrwt>
<rscale>  0 0.13053618E+03</rscale>
<asrwt>0</asrwt>
<pdfrwt beam="2">  1        1 0.12555039E+00 0.13807196E+03</pdfrwt>
<pdfrwt beam="1">  1       -1 0.33626271E-02 0.13807196E+03</pdfrwt>
<totfact> 0.68847886E+03</totfact>
</mgrwt>
</event>
<event>
 6    1  0.6101889E-006  0.1511858E+03  0.7546771E-02  0.1207795E+00
         -1   -1    0    0    0  501 -0.00000000000E+00  0.00000000000E+00  0.74017551994E+02  0.74017551994E+02  0.00000000000E+00 0.  1.
          1   -1    0    0  501    0  0.00000000000E+00 -0.00000000000E+00 -0.27798715034E+03  0.27798715034E+03  0.00000000000E+00 0. -1.
          5    1    1    2  502    0  0.53519429381E+02 -0.35838901746E+02 -0.75291632788E+01  0.65019493225E+02  0.47000000000E+01 0.  1.
         -5    1    1    2    0  502 -0.10733817781E+01 -0.30608859706E+02 -0.15059865487E+03  0.15375337164E+03  0.47000000000E+01 0.  1.
        -11    1    1    2    0    0 -0.65869245319E+02  0.55774826623E+02 -0.64605347403E+02  0.10781205720E+03  0.00000000000E+00 0. -1.
         11    1    1    2    0    0  0.13423197717E+02  0.10672934829E+02  0.18763567207E+02  0.25419780273E+02  0.00000000000E+00 0.  1.
<mgrwt>
<rscale>  0 0.14419329E+03</rscale>
<asrwt>0</asrwt>
<pdfrwt beam="2">  1        1 0.42767254E-01 0.15118584E+03</pdfrwt>
<pdfrwt beam="1">  1       -1 0.11387316E-01 0.15118584E+03</pdfrwt>
<totfact> 0.46369282E+03</totfact>
</mgrwt>
</event>
<event>
 6    1  0.6101889E-006  0.3660142E+03  0.7546771E-02  0.1056228E+00
          2   -1    0    0  501    0  0.00000000000E+00  0.00000000000E+00  0.53633707526E+02  0.53633707526E+02  0.00000000000E+00 0. -1.
         -2   -1    0    0    0  501 -0.00000000000E+00 -0.00000000000E+00 -0.62445044756E+03  0.62445044756E+03  0.00000000000E+00 0.  1.
          5    1    1    2  502    0  0.18981092959E+02  0.10006967580E+02 -0.88234215763E+02  0.90927378282E+02  0.47000000000E+01 0. -1.
         -5    1    1    2    0  502 -0.14026408283E+03  0.71900596504E+02 -0.18150172101E+03  0.24043434330E+03  0.47000000000E+01 0. -1.
        -11    1    1    2    0    0  0.92950505239E+02 -0.68448440814E+02 -0.29212050189E+03  0.31410089636E+03  0.00000000000E+00 0.  1.
         11    1    1    2    0    0  0.28332484630E+02 -0.13459123269E+02 -0.89603013747E+01  0.32621537138E+02  0.00000000000E+00 0. -1.
<mgrwt>
<rscale>  0 0.36601417E+03</rscale>
<asrwt>0</asrwt>
<pdfrwt beam="1">  1        2 0.82513405E-02 0.36601417E+03</pdfrwt>
<pdfrwt beam="2">  1       -2 0.96069290E-01 0.36601417E+03</pdfrwt>
<totfact> 0.77388981E+02</totfact>
</mgrwt>
</event>
<event>
 6    1  0.6101889E-006  0.1204797E+03  0.7546771E-02  0.1252756E+00
          1   -1    0    0  501    0  0.00000000000E+00  0.00000000000E+00  0.84032943133E+02  0.84032943133E+02  0.00000000000E+00 0. -1.
         -1   -1    0    0    0  501 -0.00000000000E+00 -0.00000000000E+00 -0.16088553751E+03  0.16088553751E+03  0.00000000000E+00 0.  1.
          5    1    1    2  502    0 -0.54725417841E+02  0.10329124202E+02 -0.21724466648E+02  0.59963360612E+02  0.47000000000E+01 0. -1.
         -5    1    1    2    0  502  0.32404397759E+02 -0.45920167118E+02  0.21942006408E+02  0.60516513345E+02  0.47000000000E+01 0.  1.
        -11    1    1    2    0    0 -0.24662465920E+02 -0.14831161997E+02 -0.23040933114E+02  0.36865772611E+02  0.00000000000E+00 0. -1.
         11    1    1    2    0    0  0.46983486002E+02  0.50422204912E+02 -0.54029201026E+02  0.87572834079E+02  0.00000000000E+00 0.  1.
<mgrwt>
<rscale>  0 0.11432949E+03</rscale>
<asrwt>0</asrwt>
<pdfrwt beam="1">  1        1 0.12928145E-01 0.12047968E+03</pdfrwt>
<pdfrwt beam="2">  1       -1 0.24751621E-01 0.12047968E+03</pdfrwt>
<totfact> 0.60555018E+03</totfact>
</mgrwt>
</event>
<event>
 6    1  0.6101889E-006  0.1967432E+03  0.7546771E-02  0.1157052E+00
         -2   -1    0    0    0  501 -0.00000000000E+00  0.00000000000E+00  0.34999473881E+02  0.34999473881E+02  0.00000000000E+00 0.  1.
          2   -1    0    0  501    0  0.00000000000E+00 -0.00000000000E+00 -0.99803191878E+03  0.99803191878E+03  0.00000000000E+00 0. -1.
          5    1    1    2  502    0 -0.10245309025E+03  0.73122025795E+02 -0.39297525981E+03  0.41266828226E+03  0.47000000000E+01 0.  1.
         -5    1    1    2    0  502 -0.47204986679E+02 -0.46931891166E+02 -0.13079617115E+03  0.14683542339E+03  0.47000000000E+01 0.  1.
        -11    1    1    2    0    0  0.81083082222E+02 -0.50658024352E+02 -0.17492508842E+03  0.19934765665E+03  0.00000000000E+00 0.  1.
         11    1    1    2    0    0  0.68574994709E+02  0.24467889723E+02 -0.26433592552E+03  0.27418003036E+03  0.00000000000E+00 0. -1.
<mgrwt>
<rscale>  0 0.19157113E+03</rscale>
<asrwt>0</asrwt>
<pdfrwt beam="2">  1        2 0.15354338E+00 0.19674319E+03</pdfrwt>
<pdfrwt beam="1">  1       -2 0.53845340E-02 0.19674319E+03</pdfrwt>
<totfact> 0.45543074E+03</totfact>
</mgrwt>
</event>
<event>
 6    1  0.6101889E-006  0.2494076E+03  0.7546771E-02  0.1113680E+00
         -1   -1    0    0    0  501 -0.00000000000E+00  0.00000000000E+00  0.14264666752E+02  0.14264666752E+02  0.00000000000E+00 0.  1.
          1   -1    0    0  501    0  0.00000000000E+00 -0.00000000000E+00 -0.10901786134E+04  0.10901786134E+04  0.00000000000E+00 0. -1.
          5    1    1    2  502    0 -0.10024601003E+02 -0.37113259472E+02 -0.27530644304E+03  0.27801729125E+03  0.47000000000E+01 0. -1.
         -5    1    1    2    0  502  0.22868471940E+02  0.92754139833E+02 -0.42101843500E+03  0.43174634923E+03  0.47000000000E+01 0. -1.
        -11    1    1    2    0    0  0.39896640650E+02 -0.23374633853E+02 -0.15816835752E+03  0.16478878835E+03  0.00000000000E+00 0. -1.
         11    1    1    2    0    0 -0.52740511588E+02 -0.32266246507E+02 -0.22142071108E+03  0.22989085133E+03  0.00000000000E+00 0.  1.
<mgrwt>
<rscale>  0 0.24940758E+03</rscale>
<asrwt>0</asrwt>
<pdfrwt beam="2">  1        1 0.16771986E+00 0.24940758E+03</pdfrwt>
<pdfrwt beam="1">  1       -1 0.21945632E-02 0.24940758E+03</pdfrwt>
<totfact> 0.81730962E+03</totfact>
</mgrwt>
</event>
<event>
 6    1  0.6101889E-006  0.1385654E+03  0.7546771E-02  0.1227268E+00
         -2   -1    0    0    0  501 -0.00000000000E+00  0.00000000000E+00  0.29240439397E+02  0.29240439397E+02  0.00000000000E+00 0. -1.
          2   -1    0    0  501    0  0.00000000000E+00 -0.00000000000E+00 -0.52203110998E+03  0.52203110998E+03  0.00000000000E+00 0.  1.
          5    1    1    2  502    0 -0.27560838097E+01  0.64740991658E+02 -0.28422047390E+03  0.29155164171E+03  0.47000000000E+01 0. -1.
         -5    1    1    2    0  502  0.32044806621E+02 -0.12502243991E+02 -0.14273658755E+02  0.37536689657E+02  0.47000000000E+01 0. -1.
        -11    1    1    2    0    0  0.27454949002E+02 -0.17334103937E+02 -0.27412855061E+02  0.42493646662E+02  0.00000000000E+00 0.  1.
         11    1    1    2    0    0 -0.56743671813E+02 -0.34904643730E+02 -0.16688368287E+03  0.17968957135E+03  0.00000000000E+00 0. -1.
<mgrwt>
<rscale>  0 0.13012629E+03</rscale>
<asrwt>0</asrwt>
<pdfrwt beam="2">  1        2 0.80312478E-01 0.13856545E+03</pdfrwt>
<pdfrwt beam="1">  1       -2 0.44985292E-02 0.13856545E+03</pdfrwt>
<totfact> 0.12952817E+04</totfact>
</mgrwt>
</event>
<event>
 6    1  0.6101889E-006  0.1267236E+03  0.7546771E-02  0.1250086E+00
          2   -1    0    0  501    0  0.00000000000E+00  0.00000000000E+00  0.16583409501E+03  0.16583409501E+03  0.00000000000E+00 0. -1.
         -2   -1    0    0    0  501 -0.00000000000E+00 -0.00000000000E+00 -0.70422065234E+02  0.70422065234E+02  0.00000000000E+00 0.  1.
          5    1    1    2  502    0  0.28109284743E+02 -0.23025577521E+02 -0.25655909779E+02  0.44728344654E+02  0.47000000000E+01 0. -1.
         -5    1    1    2    0  502 -0.33789743959E+02  0.49526276548E+01  0.92137864258E+02  0.98375562756E+02  0.47000000000E+01 0. -1.
        -11    1    1    2    0    0 -0.78093219496E+01 -0.33832667777E+02  0.83739485657E+01  0.35717753748E+02  0.00000000000E+00 0. -1.
         11    1    1    2    0    0  0.13489781166E+02  0.51905617643E+02  0.20556126727E+02  0.57434499083E+02  0.00000000000E+00 0.  1.
<mgrwt>
<rscale>  0 0.11586051E+03</rscale>
<asrwt>0</asrwt>
<pdfrwt beam="1">  1        2 0.25512938E-01 0.12672363E+03</pdfrwt>
<pdfrwt beam="2">  1       -2 0.10834164E-01 0.12672363E+03</pdfrwt>
<totfact> 0.11454975E+04</totfact>
</mgrwt>
</event>
<event>
 6    1  0.6101889E-006  0.1499707E+03  0.7546771E-02  0.1210068E+00
          2   -1    0    0  501    0  0.00000000000E+00  0.00000000000E+00  0.11984348831E+04  0.11984348831E+04  0.00000000000E+00 0. -1.
         -2   -1    0    0    0  501 -0.00000000000E+00 -0.00000000000E+00 -0.26552944415E+02  0.26552944415E+02  0.00000000000E+00 0.  1.
          5    1    1    2  502    0  0.51955492315E+01 -0.86187267153E+02  0.68513196711E+03  0.69056726038E+03  0.47000000000E+01 0.  1.
         -5    1    1    2    0  502  0.53908523620E+02  0.28120094215E+02  0.33078120902E+03  0.33635571476E+03  0.47000000000E+01 0.  1.
        -11    1    1    2    0    0 -0.55469068009E+01 -0.21029779265E+02  0.54637430980E+02  0.58807045964E+02  0.00000000000E+00 0.  1.
         11    1    1    2    0    0 -0.53557166050E+02  0.79096952203E+02  0.10133133155E+03  0.13925780637E+03  0.00000000000E+00 0. -1.
<mgrwt>
<rscale>  0 0.14245104E+03</rscale>
<asrwt>0</asrwt>
<pdfrwt beam="1">  1        2 0.18437456E+00 0.14997072E+03</pdfrwt>
<pdfrwt beam="2">  1       -2 0.40850693E-02 0.14997072E+03</pdfrwt>
<totfact> 0.52397504E+03</totfact>
</mgrwt>
</event>
<event>
 6    1  0.6101889E-006  0.2083486E+03  0.7546771E-02  0.1149004E+00
         -2   -1    0    0    0  501 -0.00000000000E+00  0.00000000000E+00  0.45858366664E+02  0.45858366664E+02  0.00000000000E+00 0.  1.
          2   -1    0    0  501    0  0.00000000000E+00 -0.00000000000E+00 -0.84548951848E+03  0.84548951848E+03  0.00000000000E+00 0. -1.
          5    1    1    2  502    0  0.82973439025E+02  0.91770600841E+01 -0.27695204008E+03  0.28929799951E+03  0.47000000000E+01 0.  1.
         -5    1    1    2    0  502  0.53020531612E+02 -0.10557360452E+03 -0.22490499710E+03  0.25408917817E+03  0.47000000000E+01 0.  1.
        -11    1    1    2    0    0 -0.80490325734E+02  0.46832406610E+02 -0.99973368035E+02  0.13662591687E+03  0.00000000000E+00 0. -1.
         11    1    1    2    0    0 -0.55503644903E+02  0.49564137830E+02 -0.19780074660E+03  0.21133479059E+03  0.00000000000E+00 0.  1.
<mgrwt>
<rscale>  0 0.20087375E+03</rscale>
<asrwt>0</asrwt>
<pdfrwt beam="2">  1        2 0.13007531E+00 0.20834860E+03</pdfrwt>
<pdfrwt beam="1">  1       -2 0.70551336E-02 0.20834860E+03</pdfrwt>
<totfact> 0.37658511E+03</totfact>
</mgrwt>
</event>
<event>
 6    1  0.6101889E-006  0.2488072E+03  0.7546771E-02  0.1114061E+00
         -2   -1    0    0    0  501 -0.00000000000E+00  0.00000000000E+00  0.86445529543E+02  0.86445529543E+02  0.00000000000E+00 0.  1.
          2   -1    0    0  501    0  0.00000000000E+00 -0.00000000000E+00 -0.17902896670E+03  0.17902896670E+03  0.00000000000E+00 0. -1.
          5    1    1    2  502    0 -0.33570284785E+02 -0.63779245657E+02 -0.10062469058E+03  0.12386353197E+03  0.47000000000E+01 0.  1.
         -5    1    1    2    0  502  0.73313753060E+01  0.20799876508E+02  0.22542674349E+02  0.31884888167E+02  0.47000000000E+01 0.  1.
        -11    1    1    2    0    0 -0.22813859956E+02  0.31615927558E+02 -0.37747671990E+02  0.54267170758E+02  0.00000000000E+00 0. -1.
         11    1    1    2    0    0  0.49052769435E+02  0.11363441591E+02  0.23246251065E+02  0.55458905350E+02  0.00000000000E+00 0.  1.
<mgrwt>
<rscale>  0 0.24880719E+03</rscale>
<asrwt>0</asrwt>
<pdfrwt beam="2">  1        2 0.27542918E-01 0.24880719E+03</pdfrwt>
<pdfrwt beam="1">  1       -2 0.13299312E-01 0.24880719E+03</pdfrwt>
<totfact> 0.79427367E+03</totfact>
</mgrwt>
</event>
<event>
 6    1  0.6101889E-006  0.1412277E+03  0.7546771E-02  0.1222809E+00
         -2   -1    0    0    0  501 -0.00000000000E+00  0.00000000000E+00  0.39955936914E+02  0.39955936914E+02  0.00000000000E+00 0.  1.
          2   -1    0    0  501    0  0.00000000000E+00 -0.00000000000E+00 -0.40735412966E+03  0.40735412966E+03  0.00000000000E+00 0. -1.
          5    1    1    2  502    0 -0.81020280764E+01 -0.17981555542E+02  0.11004208277E+02  0.23068632349E+02  0.47000000000E+01 0. -1.
         -5    1    1    2    0  502 -0.47934680595E+02 -0.16391727947E+02 -0.24513162119E+03  0.25035579493E+03  0.47000000000E+01 0. -1.
        -11    1    1    2    0    0  0.75639901034E+02  0.22806168700E+02 -0.12816552006E+03  0.15055868122E+03  0.00000000000E+00 0. -1.
         11    1    1    2    0    0 -0.19603192362E+02  0.11567114789E+02 -0.51052597699E+01  0.23326958067E+02  0.00000000000E+00 0.  1.
<mgrwt>
<rscale>  0 0.13318201E+03</rscale>
<asrwt>0</asrwt>
<pdfrwt beam="2">  1        2 0.62669868E-01 0.14122773E+03</pdfrwt>
<pdfrwt beam="1">  1       -2 0.61470670E-02 0.14122773E+03</pdfrwt>
<totfact> 0.10611958E+04</totfact>
</mgrwt>
</event>
<event>
 6    1  0.6101889E-006  0.1365685E+03  0.7546771E-02  0.1232162E+00
         -2   -1    0    0    0  501 -0.00000000000E+00  0.00000000000E+00  0.19188298548E+02  0.19188298548E+02  0.00000000000E+00 0.  1.
          2   -1    0    0  501    0  0.00000000000E+00 -0.00000000000E+00 -0.11787797511E+04  0.11787797511E+04  0.00000000000E+00 0. -1.
          5    1    1    2  502    0  0.35504495993E+02 -0.42991635730E+02 -0.96902067835E+03  0.97063485155E+03  0.47000000000E+01 0. -1.
         -5    1    1    2    0  502  0.26009418279E+01  0.21122518740E+02 -0.26971625981E+02  0.34676855457E+02  0.47000000000E+01 0.  1.
        -11    1    1    2    0    0 -0.64325295557E+02  0.14966984629E+02 -0.14624199110E+03  0.16046331119E+03  0.00000000000E+00 0. -1.
         11    1    1    2    0    0  0.26219857737E+02  0.69021323605E+01 -0.17357157135E+02  0.32193031461E+02  0.00000000000E+00 0.  1.
<mgrwt>
<rscale>  0 0.12687903E+03</rscale>
<asrwt>0</asrwt>
<pdfrwt beam="2">  1        2 0.18135068E+00 0.13656851E+03</pdfrwt>
<pdfrwt beam="1">  1       -2 0.29520468E-02 0.13656851E+03</pdfrwt>
<totfact> 0.86581324E+03</totfact>
</mgrwt>
</event>
<event>
 6    1  0.6101889E-006  0.1892836E+03  0.7546771E-02  0.1164006E+00
          1   -1    0    0  501    0  0.00000000000E+00  0.00000000000E+00  0.13255567661E+04  0.13255567661E+04  0.00000000000E+00 0. -1.
         -1   -1    0    0    0  501 -0.00000000000E+00 -0.00000000000E+00 -0.24417494607E+02  0.24417494607E+02  0.00000000000E+00 0.  1.
          5    1    1    2  502    0  0.27255295710E+01  0.83468557472E+02  0.15987945511E+03  0.18043824086E+03  0.47000000000E+01 0. -1.
         -5    1    1    2    0  502  0.88454539875E+01  0.58184097795E+02  0.59059259505E+03  0.59353629596E+03  0.47000000000E+01 0. -1.
        -11    1    1    2    0    0 -0.24517019199E+02 -0.69358130060E+02  0.13359146644E+03  0.15250676818E+03  0.00000000000E+00 0.  1.
         11    1    1    2    0    0  0.12946035640E+02 -0.72294525208E+02  0.41707575489E+03  0.42349295570E+03  0.00000000000E+00 0. -1.
<mgrwt>
<rscale>  0 0.18397930E+03</rscale>
<asrwt>0</asrwt>
<pdfrwt beam="1">  1        1 0.20393175E+00 0.18928361E+03</pdfrwt>
<pdfrwt beam="2">  1       -1 0.37565387E-02 0.18928361E+03</pdfrwt>
<totfact> 0.25244918E+03</totfact>
</mgrwt>
</event>
<event>
 6    1  0.6101889E-006  0.1402695E+03  0.7546771E-02  0.1227231E+00
          1   -1    0    0  501    0  0.00000000000E+00  0.00000000000E+00  0.83225968695E+03  0.83225968695E+03  0.00000000000E+00 0. -1.
         -1   -1    0    0    0  501 -0.00000000000E+00 -0.00000000000E+00 -0.37162245304E+02  0.37162245304E+02  0.00000000000E+00 0.  1.
          5    1    1    2  502    0  0.59845823553E+02  0.46738876313E+02  0.68823017797E+03  0.69242249604E+03  0.47000000000E+01 0. -1.
         -5    1    1    2    0  502 -0.72244786561E+01 -0.29863887457E+02  0.48954627627E+02  0.57988709522E+02  0.47000000000E+01 0.  1.
        -11    1    1    2    0    0  0.21133903956E+02 -0.84651569091E+01  0.34195588399E+02  0.41080884166E+02  0.00000000000E+00 0. -1.
         11    1    1    2    0    0 -0.73755248852E+02 -0.84098319471E+01  0.23717047649E+02  0.77929842524E+02  0.00000000000E+00 0.  1.
<mgrwt>
<rscale>  0 0.13015148E+03</rscale>
<asrwt>0</asrwt>
<pdfrwt beam="1">  1        1 0.12803994E+00 0.14026953E+03</pdfrwt>
<pdfrwt beam="2">  1       -1 0.57172691E-02 0.14026953E+03</pdfrwt>
<totfact> 0.30576282E+03</totfact>
</mgrwt>
</event>
<event>
 6    1  0.6101889E-006  0.3690345E+03  0.7546771E-02  0.1055063E+00
          1   -1    0    0  501    0  0.00000000000E+00  0.00000000000E+00  0.27650530950E+03  0.27650530950E+03  0.00000000000E+00 0. -1.
         -1   -1    0    0    0  501 -0.00000000000E+00 -0.00000000000E+00 -0.12313187774E+03  0.12313187774E+03  0.00000000000E+00 0.  1.
          5    1    1    2  502    0  0.20588108298E+02  0.12454640800E+03  0.63961027414E+02  0.14159371800E+03  0.47000000000E+01 0. -1.
         -5    1    1    2    0  502 -0.40496835615E+02  0.92348071819E+01  0.87068855128E+02  0.96583388281E+02  0.47000000000E+01 0. -1.
        -11    1    1    2    0    0  0.12476007190E+02 -0.56257331520E+02 -0.42491882318E+02  0.71596774844E+02  0.00000000000E+00 0.  1.
         11    1    1    2    0    0  0.74327201274E+01 -0.77523883659E+02  0.44835431531E+02  0.89863306119E+02  0.00000000000E+00 0. -1.
<mgrwt>
<rscale>  0 0.36903451E+03</rscale>
<asrwt>0</asrwt>
<pdfrwt beam="1">  1        1 0.42539278E-01 0.36903451E+03</pdfrwt>
<pdfrwt beam="2">  1       -1 0.18943366E-01 0.36903451E+03</pdfrwt>
<totfact> 0.21505203E+03</totfact>
</mgrwt>
</event>
<event>
 6    1  0.6101889E-006  0.1293573E+03  0.7546771E-02  0.1258423E+00
          1   -1    0    0  501    0  0.00000000000E+00  0.00000000000E+00  0.11990148290E+04  0.11990148290E+04  0.00000000000E+00 0. -1.
         -1   -1    0    0    0  501 -0.00000000000E+00 -0.00000000000E+00 -0.11014069013E+02  0.11014069013E+02  0.00000000000E+00 0.  1.
          5    1    1    2  502    0  0.36891642107E+02  0.77544669566E+01  0.66958437401E+03  0.67066120279E+03  0.47000000000E+01 0.  1.
         -5    1    1    2    0  502 -0.66589287865E+02 -0.22807451343E+02  0.34516509504E+03  0.35230007938E+03  0.47000000000E+01 0.  1.
        -11    1    1    2    0    0 -0.18761395752E+02  0.44662239546E+01  0.68548758140E+02  0.71210037000E+02  0.00000000000E+00 0.  1.
         11    1    1    2    0    0  0.48459041510E+02  0.10586760432E+02  0.10470253278E+03  0.11585757882E+03  0.00000000000E+00 0. -1.
<mgrwt>
<rscale>  0 0.11116755E+03</rscale>
<asrwt>0</asrwt>
<pdfrwt beam="1">  1        1 0.18446372E+00 0.12935726E+03</pdfrwt>
<pdfrwt beam="2">  1       -1 0.16944731E-02 0.12935726E+03</pdfrwt>
<totfact> 0.96831303E+03</totfact>
</mgrwt>
</event>
<event>
 6    1  0.6101889E-006  0.1898571E+03  0.7546771E-02  0.1163088E+00
         -1   -1    0    0    0  501 -0.00000000000E+00  0.00000000000E+00  0.24205796815E+02  0.24205796815E+02  0.00000000000E+00 0.  1.
          1   -1    0    0  501    0  0.00000000000E+00 -0.00000000000E+00 -0.14389598959E+04  0.14389598959E+04  0.00000000000E+00 0. -1.
          5    1    1    2  502    0  0.72559967647E+02  0.26179667096E+02 -0.77886162451E+03  0.78268629988E+03  0.47000000000E+01 0.  1.
         -5    1    1    2    0  502  0.69073500029E+02 -0.71787363363E+01 -0.14976070519E+03  0.16514551608E+03  0.47000000000E+01 0.  1.
        -11    1    1    2    0    0 -0.51908863412E+02 -0.49522866108E+02 -0.15303988724E+03  0.16902145264E+03  0.00000000000E+00 0.  1.
         11    1    1    2    0    0 -0.89724604264E+02  0.30521935348E+02 -0.33309188218E+03  0.34631242415E+03  0.00000000000E+00 0. -1.
<mgrwt>
<rscale>  0 0.18495941E+03</rscale>
<asrwt>0</asrwt>
<pdfrwt beam="2">  1        1 0.22137851E+00 0.18985710E+03</pdfrwt>
<pdfrwt beam="1">  1       -1 0.37239677E-02 0.18985710E+03</pdfrwt>
<totfact> 0.21485819E+03</totfact>
</mgrwt>
</event>
<event>
 6    1  0.6101889E-006  0.1687826E+03  0.7546771E-02  0.1185893E+00
         -1   -1    0    0    0  501 -0.00000000000E+00  0.00000000000E+00  0.28791544447E+02  0.28791544447E+02  0.00000000000E+00 0.  1.
          1   -1    0    0  501    0  0.00000000000E+00 -0.00000000000E+00 -0.85573189366E+03  0.85573189366E+03  0.00000000000E+00 0. -1.
          5    1    1    2  502    0 -0.51276933223E+02 -0.49817663425E+02 -0.22915422524E+03  0.24009346600E+03  0.47000000000E+01 0. -1.
         -5    1    1    2    0  502  0.72913030111E+02 -0.61517150204E+02 -0.22641818075E+03  0.24573960264E+03  0.47000000000E+01 0. -1.
        -11    1    1    2    0    0  0.14164280058E+02  0.44222511129E+02 -0.49151035605E+02  0.67617169573E+02  0.00000000000E+00 0.  1.
         11    1    1    2    0    0 -0.35800376946E+02  0.67112302501E+02 -0.32221690762E+03  0.33107319990E+03  0.00000000000E+00 0. -1.
<mgrwt>
<rscale>  0 0.16250849E+03</rscale>
<asrwt>0</asrwt>
<pdfrwt beam="2">  1        1 0.13165105E+00 0.16878256E+03</pdfrwt>
<pdfrwt beam="1">  1       -1 0.44294688E-02 0.16878256E+03</pdfrwt>
<totfact> 0.43033483E+03</totfact>
</mgrwt>
</event>
<event>
 6    1  0.6101889E-006  0.4389940E+03  0.7546771E-02  0.1031056E+00
         -1   -1    0    0    0  501 -0.00000000000E+00  0.00000000000E+00  0.51253652306E+03  0.51253652306E+03  0.00000000000E+00 0.  1.
          1   -1    0    0  501    0  0.00000000000E+00 -0.00000000000E+00 -0.94000969700E+02  0.94000969700E+02  0.00000000000E+00 0. -1.
          5    1    1    2  502    0 -0.23507252223E+02 -0.14054708124E+02 -0.33956119414E+02  0.43877485949E+02  0.47000000000E+01 0.  1.
         -5    1    1    2    0  502 -0.10706505681E+03 -0.81024953742E+02  0.11146919746E+03  0.17457216703E+03  0.47000000000E+01 0.  1.
        -11    1    1    2    0    0  0.78941722212E+02  0.80968236437E+02  0.30014056631E+03  0.32073666825E+03  0.00000000000E+00 0. -1.
         11    1    1    2    0    0  0.51630586819E+02  0.14111425429E+02  0.40881909005E+02  0.67351171532E+02  0.00000000000E+00 0.  1.
<mgrwt>
<rscale>  0 0.43899399E+03</rscale>
<asrwt>0</asrwt>
<pdfrwt beam="2">  1        1 0.14461688E-01 0.43899399E+03</pdfrwt>
<pdfrwt beam="1">  1       -1 0.78851771E-01 0.43899399E+03</pdfrwt>
<totfact> 0.65855042E+02</totfact>
</mgrwt>
</event>
<event>
 6    1  0.6101889E-006  0.2875834E+03  0.7546771E-02  0.1093426E+00
         -1   -1    0    0    0  501 -0.00000000000E+00  0.00000000000E+00  0.19475843778E+04  0.19475843778E+04  0.00000000000E+00 0.  1.
          1   -1    0    0  501    0  0.00000000000E+00 -0.00000000000E+00 -0.62439574330E+02  0.62439574330E+02  0.00000000000E+00 0. -1.
          5    1    1    2  502    0  0.16736724149E+03  0.10056276654E+03  0.21753156485E+03  0.29234694328E+03  0.47000000000E+01 0. -1.
         -5    1    1    2    0  502  0.82869633085E+02 -0.33769100134E+02  0.14415912751E+03  0.16974001371E+03  0.47000000000E+01 0. -1.
        -11    1    1    2    0    0 -0.19655310918E+03 -0.11179343279E+02  0.10803070309E+04  0.10980989862E+04  0.00000000000E+00 0. -1.
         11    1    1    2    0    0 -0.53683765388E+02 -0.55614323126E+02  0.44314708028E+03  0.44983800902E+03  0.00000000000E+00 0.  1.
<mgrwt>
<rscale>  0 0.28418264E+03</rscale>
<asrwt>0</asrwt>
<pdfrwt beam="2">  1        1 0.96060898E-02 0.28758338E+03</pdfrwt>
<pdfrwt beam="1">  1       -1 0.29962832E+00 0.28758338E+03</pdfrwt>
<totfact> 0.26234606E+01</totfact>
</mgrwt>
</event>
<event>
 6    1  0.6101889E-006  0.3404161E+03  0.7546771E-02  0.1066619E+00
          2   -1    0    0  501    0  0.00000000000E+00  0.00000000000E+00  0.17112702075E+04  0.17112702075E+04  0.00000000000E+00 0. -1.
         -2   -1    0    0    0  501 -0.00000000000E+00 -0.00000000000E+00 -0.16929405333E+02  0.16929405333E+02  0.00000000000E+00 0.  1.
          5    1    1    2  502    0  0.74419435210E+02  0.95970148286E+02  0.93918536309E+03  0.94701623954E+03  0.47000000000E+01 0.  1.
         -5    1    1    2    0  502  0.29262262828E+02 -0.37157137866E+02  0.23004975468E+03  0.23490830668E+03  0.47000000000E+01 0.  1.
        -11    1    1    2    0    0 -0.67522201670E+02  0.12241172138E+02  0.29041295797E+03  0.29841042236E+03  0.00000000000E+00 0.  1.
         11    1    1    2    0    0 -0.36159496367E+02 -0.71054182558E+02  0.23469272641E+03  0.24786464424E+03  0.00000000000E+00 0. -1.
<mgrwt>
<rscale>  0 0.34041614E+03</rscale>
<asrwt>0</asrwt>
<pdfrwt beam="1">  1        2 0.26327220E+00 0.34041614E+03</pdfrwt>
<pdfrwt beam="2">  1       -2 0.26045253E-02 0.34041614E+03</pdfrwt>
<totfact> 0.55176894E+03</totfact>
</mgrwt>
</event>
<event>
 6    1  0.6101889E-006  0.1773928E+03  0.7546771E-02  0.1171329E+00
         -1   -1    0    0    0  501 -0.00000000000E+00  0.00000000000E+00  0.49074140601E+03  0.49074140601E+03  0.00000000000E+00 0.  1.
          1   -1    0    0  501    0  0.00000000000E+00 -0.00000000000E+00 -0.67487633284E+02  0.67487633284E+02  0.00000000000E+00 0. -1.
          5    1    1    2  502    0 -0.10031145758E+03  0.11164125872E+03  0.12005603575E+03  0.19225426105E+03  0.47000000000E+01 0. -1.
         -5    1    1    2    0  502  0.87004216421E+01 -0.25322073797E+02  0.19540587304E+02  0.33478788961E+02  0.47000000000E+01 0. -1.
        -11    1    1    2    0    0  0.79437648233E+02 -0.10838842377E+03  0.17329968362E+03  0.21929699202E+03  0.00000000000E+00 0. -1.
         11    1    1    2    0    0  0.12173387701E+02  0.22069238844E+02  0.11035746605E+03  0.11319899727E+03  0.00000000000E+00 0.  1.
<mgrwt>
<rscale>  0 0.17640410E+03</rscale>
<asrwt>0</asrwt>
<pdfrwt beam="2">  1        1 0.10382713E-01 0.17739276E+03</pdfrwt>
<pdfrwt beam="1">  1       -1 0.75498676E-01 0.17739276E+03</pdfrwt>
<totfact> 0.11106588E+03</totfact>
</mgrwt>
</event>
<event>
 6    1  0.6101889E-006  0.1266743E+03  0.7546771E-02  0.1247698E+00
         -2   -1    0    0    0  501 -0.00000000000E+00  0.00000000000E+00  0.21633507511E+02  0.21633507511E+02  0.00000000000E+00 0. -1.
          2   -1    0    0  501    0  0.00000000000E+00 -0.00000000000E+00 -0.57354563475E+03  0.57354563475E+03  0.00000000000E+00 0.  1.
          5    1    1    2  502    0 -0.25045261317E+02 -0.27414858318E+02 -0.36784078537E+03  0.36974014246E+03  0.47000000000E+01 0.  1.
         -5    1    1    2    0  502  0.13127317924E+02  0.10725109308E+02  0.17204585163E+01  0.17674965998E+02  0.47000000000E+01 0.  1.
        -11    1    1    2    0    0 -0.28346128339E+02  0.19505075730E+02 -0.26478502416E+02  0.43417301405E+02  0.00000000000E+00 0. -1.
         11    1    1    2    0    0  0.40264071732E+02 -0.28153267198E+01 -0.15931329797E+03  0.16434673239E+03  0.00000000000E+00 0.  1.
<mgrwt>
<rscale>  0 0.11725366E+03</rscale>
<asrwt>0</asrwt>
<pdfrwt beam="2">  1        2 0.88237788E-01 0.12667428E+03</pdfrwt>
<pdfrwt beam="1">  1       -2 0.33282320E-02 0.12667428E+03</pdfrwt>
<totfact> 0.18105981E+04</totfact>
</mgrwt>
</event>
<event>
 6    1  0.6101889E-006  0.1738287E+03  0.7546771E-02  0.1179738E+00
         -2   -1    0    0    0  501 -0.00000000000E+00  0.00000000000E+00  0.36794771764E+02  0.36794771764E+02  0.00000000000E+00 0.  1.
          2   -1    0    0  501    0  0.00000000000E+00 -0.00000000000E+00 -0.72593191421E+03  0.72593191421E+03  0.00000000000E+00 0. -1.
          5    1    1    2  502    0 -0.60660859749E+02 -0.21905558552E+02 -0.57171115719E+02  0.86314656192E+02  0.47000000000E+01 0.  1.
         -5    1    1    2    0  502 -0.20429079505E+02 -0.69216014460E+02 -0.33400716677E+03  0.34174710152E+03  0.47000000000E+01 0.  1.
        -11    1    1    2    0    0  0.71764683038E+02  0.10999005917E+03 -0.25783204965E+03  0.28935332843E+03  0.00000000000E+00 0.  1.
         11    1    1    2    0    0  0.93252562169E+01 -0.18868486156E+02 -0.40126810305E+02  0.45311599824E+02  0.00000000000E+00 0. -1.
<mgrwt>
<rscale>  0 0.16820022E+03</rscale>
<asrwt>0</asrwt>
<pdfrwt beam="2">  1        2 0.11168183E+00 0.17382871E+03</pdfrwt>
<pdfrwt beam="1">  1       -2 0.56607345E-02 0.17382871E+03</pdfrwt>
<totfact> 0.63469387E+03</totfact>
</mgrwt>
</event>
<event>
 6    1  0.6101889E-006  0.1694984E+03  0.7546771E-02  0.1182690E+00
          1   -1    0    0  501    0  0.00000000000E+00  0.00000000000E+00  0.17042844987E+04  0.17042844987E+04  0.00000000000E+00 0. -1.
         -1   -1    0    0    0  501 -0.00000000000E+00 -0.00000000000E+00 -0.16403859362E+02  0.16403859362E+02  0.00000000000E+00 0.  1.
          5    1    1    2  502    0 -0.13300579954E+03 -0.65643130628E+01  0.10766455777E+04  0.10848600937E+04  0.47000000000E+01 0. -1.
         -5    1    1    2    0  502  0.10393920723E+02  0.11337315340E+02  0.24849618103E+02  0.29600030862E+02  0.47000000000E+01 0.  1.
        -11    1    1    2    0    0  0.13763926088E+03 -0.92439902574E+01  0.51640424267E+03  0.53451226304E+03  0.00000000000E+00 0.  1.
         11    1    1    2    0    0 -0.15027382065E+02  0.44709879797E+01  0.69981200834E+02  0.71715970435E+02  0.00000000000E+00 0. -1.
<mgrwt>
<rscale>  0 0.16543865E+03</rscale>
<asrwt>0</asrwt>
<pdfrwt beam="1">  1        1 0.26219748E+00 0.16949839E+03</pdfrwt>
<pdfrwt beam="2">  1       -1 0.25236720E-02 0.16949839E+03</pdfrwt>
<totfact> 0.25538105E+03</totfact>
</mgrwt>
</event>
<event>
 6    1  0.6101889E-006  0.1425716E+03  0.7546771E-02  0.1220484E+00
          2   -1    0    0  501    0  0.00000000000E+00  0.00000000000E+00  0.93017880771E+03  0.93017880771E+03  0.00000000000E+00 0. -1.
         -2   -1    0    0    0  501 -0.00000000000E+00 -0.00000000000E+00 -0.19120348275E+02  0.19120348275E+02  0.00000000000E+00 0.  1.
          5    1    1    2  502    0  0.58021916258E+02 -0.25534476411E+02  0.47227213332E+03  0.47653080715E+03  0.47000000000E+01 0.  1.
         -5    1    1    2    0  502 -0.45487965076E+02 -0.41840017490E+02  0.15930445696E+03  0.17093783091E+03  0.47000000000E+01 0.  1.
        -11    1    1    2    0    0  0.17202882051E+02  0.67176436059E+02  0.11200166479E+03  0.13173073152E+03  0.00000000000E+00 0.  1.
         11    1    1    2    0    0 -0.29736833233E+02  0.19805784295E+00  0.16748020437E+03  0.17009978640E+03  0.00000000000E+00 0. -1.
<mgrwt>
<rscale>  0 0.13481315E+03</rscale>
<asrwt>0</asrwt>
<pdfrwt beam="1">  1        2 0.14310440E+00 0.14257155E+03</pdfrwt>
<pdfrwt beam="2">  1       -2 0.29415928E-02 0.14257155E+03</pdfrwt>
<totfact> 0.12195740E+04</totfact>
</mgrwt>
</event>
<event>
 6    1  0.6101889E-006  0.2425054E+03  0.7546771E-02  0.1142144E+00
          1   -1    0    0  501    0  0.00000000000E+00  0.00000000000E+00  0.51661240347E+03  0.51661240347E+03  0.00000000000E+00 0. -1.
         -1   -1    0    0    0  501 -0.00000000000E+00 -0.00000000000E+00 -0.31609475417E+03  0.31609475417E+03  0.00000000000E+00 0.  1.
          5    1    1    2  502    0  0.14637225754E+03  0.80344802678E+02  0.37775871091E+03  0.41304219973E+03  0.47000000000E+01 0. -1.
         -5    1    1    2    0  502 -0.66168966296E+02 -0.23234968182E+02  0.93729588779E+02  0.11715597151E+03  0.47000000000E+01 0.  1.
        -11    1    1    2    0    0 -0.69484019356E+02 -0.33845689626E+02 -0.26522596863E+03  0.27625780367E+03  0.00000000000E+00 0.  1.
         11    1    1    2    0    0 -0.10719271891E+02 -0.23264144870E+02 -0.57446817527E+01  0.26251182732E+02  0.00000000000E+00 0. -1.
<mgrwt>
<rscale>  0 0.20927179E+03</rscale>
<asrwt>0</asrwt>
<pdfrwt beam="1">  1        1 0.79478831E-01 0.24250543E+03</pdfrwt>
<pdfrwt beam="2">  1       -1 0.48629962E-01 0.24250543E+03</pdfrwt>
<totfact> 0.18957364E+02</totfact>
</mgrwt>
</event>
<event>
 6    1  0.6101889E-006  0.1323826E+03  0.7546771E-02  0.1236814E+00
          1   -1    0    0  501    0  0.00000000000E+00  0.00000000000E+00  0.84541193985E+02  0.84541193985E+02  0.00000000000E+00 0. -1.
         -1   -1    0    0    0  501 -0.00000000000E+00 -0.00000000000E+00 -0.22024662201E+03  0.22024662201E+03  0.00000000000E+00 0.  1.
          5    1    1    2  502    0 -0.23856248886E+02 -0.41197136477E+02  0.31558212334E+02  0.57309121705E+02  0.47000000000E+01 0. -1.
         -5    1    1    2    0  502  0.64605440369E+02  0.25758880550E+02 -0.27995511560E+02  0.75121378581E+02  0.47000000000E+01 0. -1.
        -11    1    1    2    0    0 -0.26749047631E+02  0.46437145764E+02 -0.12397848402E+03  0.13506511228E+03  0.00000000000E+00 0.  1.
         11    1    1    2    0    0 -0.14000143852E+02 -0.30998889837E+02 -0.15289644780E+02  0.37292203428E+02  0.00000000000E+00 0. -1.
<mgrwt>
<rscale>  0 0.12389049E+03</rscale>
<asrwt>0</asrwt>
<pdfrwt beam="1">  1        1 0.13006338E-01 0.13238257E+03</pdfrwt>
<pdfrwt beam="2">  1       -1 0.33884095E-01 0.13238257E+03</pdfrwt>
<totfact> 0.35782904E+03</totfact>
</mgrwt>
</event>
<event>
 6    1  0.6101889E-006  0.3709704E+03  0.7546771E-02  0.1054323E+00
         -1   -1    0    0    0  501 -0.00000000000E+00  0.00000000000E+00  0.27660736171E+03  0.27660736171E+03  0.00000000000E+00 0.  1.
          1   -1    0    0  501    0  0.00000000000E+00 -0.00000000000E+00 -0.12438121900E+03  0.12438121900E+03  0.00000000000E+00 0. -1.
          5    1    1    2  502    0 -0.21349638209E+02  0.76339906923E+01 -0.22374275507E+02  0.32199115982E+02  0.47000000000E+01 0. -1.
         -5    1    1    2    0  502 -0.12788111447E+03  0.17160275577E+02  0.13662445914E+03  0.18797975245E+03  0.47000000000E+01 0.  1.
        -11    1    1    2    0    0  0.23113645432E+02 -0.24140080288E+02  0.43156565079E+02  0.54584550845E+02  0.00000000000E+00 0.  1.
         11    1    1    2    0    0  0.12611710725E+03 -0.65418598108E+00 -0.51806059964E+01  0.12622516143E+03  0.00000000000E+00 0. -1.
<mgrwt>
<rscale>  0 0.37097041E+03</rscale>
<asrwt>0</asrwt>
<pdfrwt beam="2">  1        1 0.19135572E-01 0.37097041E+03</pdfrwt>
<pdfrwt beam="1">  1       -1 0.42554979E-01 0.37097041E+03</pdfrwt>
<totfact> 0.15004400E+03</totfact>
</mgrwt>
</event>
<event>
 6    1  0.6101889E-006  0.2180224E+03  0.7546771E-02  0.1138616E+00
          2   -1    0    0  501    0  0.00000000000E+00  0.00000000000E+00  0.75155095860E+02  0.75155095860E+02  0.00000000000E+00 0.  1.
         -2   -1    0    0    0  501 -0.00000000000E+00 -0.00000000000E+00 -0.66503588769E+03  0.66503588769E+03  0.00000000000E+00 0. -1.
          5    1    1    2  502    0 -0.21874127150E+01  0.44627188462E+02 -0.78294652148E+02  0.90269115867E+02  0.47000000000E+01 0.  1.
         -5    1    1    2    0  502  0.15654009978E+03  0.45292320651E+02 -0.98926131441E+02  0.19069521921E+03  0.47000000000E+01 0.  1.
        -11    1    1    2    0    0 -0.12543273693E+03 -0.57515352277E+02 -0.38173257656E+03  0.40590780634E+03  0.00000000000E+00 0. -1.
         11    1    1    2    0    0 -0.28919950135E+02 -0.32404156836E+02 -0.30927431682E+02  0.53318842134E+02  0.00000000000E+00 0.  1.
<mgrwt>
<rscale>  0 0.21376798E+03</rscale>
<asrwt>0</asrwt>
<pdfrwt beam="1">  1        2 0.11562322E-01 0.21802236E+03</pdfrwt>
<pdfrwt beam="2">  1       -2 0.10231322E+00 0.21802236E+03</pdfrwt>
<totfact> 0.43389436E+02</totfact>
</mgrwt>
</event>
<event>
 6    1  0.6101889E-006  0.3144320E+03  0.7546771E-02  0.1078241E+00
         -1   -1    0    0    0  501 -0.00000000000E+00  0.00000000000E+00  0.29452990816E+03  0.29452990816E+03  0.00000000000E+00 0.  1.
          1   -1    0    0  501    0  0.00000000000E+00 -0.00000000000E+00 -0.83919741524E+02  0.83919741524E+02  0.00000000000E+00 0. -1.
          5    1    1    2  502    0 -0.59221200731E+02  0.56084143423E+02 -0.39835257871E+02  0.90892901424E+02  0.47000000000E+01 0.  1.
         -5    1    1    2    0  502  0.10366599346E+02  0.86269146477E+01  0.57378970107E+02  0.59129740815E+02  0.47000000000E+01 0.  1.
        -11    1    1    2    0    0  0.46846462511E+02 -0.80984206480E+01  0.31025037479E+02  0.56769079765E+02  0.00000000000E+00 0.  1.
         11    1    1    2    0    0  0.20081388741E+01 -0.56612637423E+02  0.16204141692E+03  0.17165792768E+03  0.00000000000E+00 0. -1.
<mgrwt>
<rscale>  0 0.31443202E+03</rscale>
<asrwt>0</asrwt>
<pdfrwt beam="2">  1        1 0.12910730E-01 0.31443202E+03</pdfrwt>
<pdfrwt beam="1">  1       -1 0.45312293E-01 0.31443202E+03</pdfrwt>
<totfact> 0.22436834E+03</totfact>
</mgrwt>
</event>
<event>
 6    1  0.6101889E-006  0.1253074E+03  0.7546771E-02  0.1249857E+00
          1   -1    0    0  501    0  0.00000000000E+00  0.00000000000E+00  0.21391620744E+03  0.21391620744E+03  0.00000000000E+00 0. -1.
         -1   -1    0    0    0  501 -0.00000000000E+00 -0.00000000000E+00 -0.56696390974E+02  0.56696390974E+02  0.00000000000E+00 0.  1.
          5    1    1    2  502    0  0.47187932962E+02  0.16785010682E+02  0.78268227326E+01  0.50909593938E+02  0.47000000000E+01 0. -1.
         -5    1    1    2    0  502 -0.46995592247E+02 -0.25203978079E+02  0.10431660908E+03  0.11725131612E+03  0.47000000000E+01 0. -1.
        -11    1    1    2    0    0 -0.99659161737E+01  0.45716616171E+02  0.53570912442E+01  0.47095933008E+02  0.00000000000E+00 0. -1.
         11    1    1    2    0    0  0.97735754583E+01 -0.37297648774E+02  0.39719293409E+02  0.55355755349E+02  0.00000000000E+00 0.  1.
<mgrwt>
<rscale>  0 0.11599319E+03</rscale>
<asrwt>0</asrwt>
<pdfrwt beam="1">  1        1 0.32910185E-01 0.12530739E+03</pdfrwt>
<pdfrwt beam="2">  1       -1 0.87225218E-02 0.12530739E+03</pdfrwt>
<totfact> 0.95153079E+03</totfact>
</mgrwt>
</event>
<event>
 6    1  0.6101889E-006  0.1828822E+03  0.7546771E-02  0.1170305E+00
          2   -1    0    0  501    0  0.00000000000E+00  0.00000000000E+00  0.83048638651E+03  0.83048638651E+03  0.00000000000E+00 0. -1.
         -2   -1    0    0    0  501 -0.00000000000E+00 -0.00000000000E+00 -0.36372514114E+02  0.36372514114E+02  0.00000000000E+00 0.  1.
          5    1    1    2  502    0  0.58816948635E+02 -0.25552698294E+01  0.33787578569E+03  0.34299868718E+03  0.47000000000E+01 0. -1.
         -5    1    1    2    0  502  0.51956871106E+02  0.77432937795E+02  0.13620890141E+03  0.16513730994E+03  0.47000000000E+01 0. -1.
        -11    1    1    2    0    0 -0.91001870117E+02 -0.15082924652E+02  0.13698748227E+03  0.16514964511E+03  0.00000000000E+00 0.  1.
         11    1    1    2    0    0 -0.19771949624E+02 -0.59794743314E+02  0.18304170302E+03  0.19357325840E+03  0.00000000000E+00 0. -1.
<mgrwt>
<rscale>  0 0.17743837E+03</rscale>
<asrwt>0</asrwt>
<pdfrwt beam="1">  1        2 0.12776712E+00 0.18288221E+03</pdfrwt>
<pdfrwt beam="2">  1       -2 0.55957720E-02 0.18288221E+03</pdfrwt>
<totfact> 0.54752127E+03</totfact>
</mgrwt>
</event>
<event>
 6    1  0.6101889E-006  0.1515224E+03  0.7546771E-02  0.1207406E+00
          4   -1    0    0  501    0  0.00000000000E+00  0.00000000000E+00  0.16305629950E+03  0.16305629950E+03  0.00000000000E+00 0. -1.
         -4   -1    0    0    0  501 -0.00000000000E+00 -0.00000000000E+00 -0.12071223443E+03  0.12071223443E+03  0.00000000000E+00 0.  1.
          5    1    1    2  502    0  0.57560002426E+02  0.16410239914E+02 -0.33298955290E+02  0.68653916689E+02  0.47000000000E+01 0.  1.
         -5    1    1    2    0  502  0.60124325691E+01  0.40990048339E+02  0.79475619438E+02  0.89748523627E+02  0.47000000000E+01 0.  1.
        -11    1    1    2    0    0 -0.32125180087E+02 -0.77479111544E+02 -0.17407725995E+02  0.85662528831E+02  0.00000000000E+00 0.  1.
         11    1    1    2    0    0 -0.31447254908E+02  0.20078823292E+02  0.13575126916E+02  0.39703564787E+02  0.00000000000E+00 0. -1.
<mgrwt>
<rscale>  0 0.14449472E+03</rscale>
<asrwt>0</asrwt>
<pdfrwt beam="1">  1        4 0.25085585E-01 0.15152244E+03</pdfrwt>
<pdfrwt beam="2">  1       -4 0.18571113E-01 0.15152244E+03</pdfrwt>
<totfact> 0.64958290E+02</totfact>
</mgrwt>
</event>
<event>
 6    1  0.6101889E-006  0.2177467E+03  0.7546771E-02  0.1139180E+00
         -2   -1    0    0    0  501 -0.00000000000E+00  0.00000000000E+00  0.17561530873E+02  0.17561530873E+02  0.00000000000E+00 0.  1.
          2   -1    0    0  501    0  0.00000000000E+00 -0.00000000000E+00 -0.28183975074E+04  0.28183975074E+04  0.00000000000E+00 0. -1.
          5    1    1    2  502    0 -0.73401793342E+02 -0.34972271049E+02 -0.70025896760E+03  0.70497914488E+03  0.47000000000E+01 0. -1.
         -5    1    1    2    0  502  0.18970611015E+02 -0.13479786688E+03 -0.12458474430E+04  0.12532710362E+04  0.47000000000E+01 0. -1.
        -11    1    1    2    0    0  0.61468838818E+02  0.68575847904E+02 -0.30130893074E+03  0.31506846368E+03  0.00000000000E+00 0.  1.
         11    1    1    2    0    0 -0.70376564905E+01  0.10119429002E+03 -0.55342063516E+03  0.56264039347E+03  0.00000000000E+00 0. -1.
<mgrwt>
<rscale>  0 0.21304088E+03</rscale>
<asrwt>0</asrwt>
<pdfrwt beam="2">  1        2 0.43359967E+00 0.21774667E+03</pdfrwt>
<pdfrwt beam="1">  1       -2 0.27017736E-02 0.21774667E+03</pdfrwt>
<totfact> 0.13277204E+03</totfact>
</mgrwt>
</event>
<event>
 6    1  0.6101889E-006  0.1376684E+03  0.7546771E-02  0.1228072E+00
         -2   -1    0    0    0  501 -0.00000000000E+00  0.00000000000E+00  0.33250557821E+03  0.33250557821E+03  0.00000000000E+00 0.  1.
          2   -1    0    0  501    0  0.00000000000E+00 -0.00000000000E+00 -0.55341490689E+02  0.55341490689E+02  0.00000000000E+00 0. -1.
          5    1    1    2  502    0 -0.28332939415E+02 -0.93014407417E+01  0.80591627174E+02  0.86060284838E+02  0.47000000000E+01 0. -1.
         -5    1    1    2    0  502  0.16406293637E+02  0.65741619375E+02 -0.99978119355E+01  0.68652554449E+02  0.47000000000E+01 0. -1.
        -11    1    1    2    0    0 -0.28757563167E+02  0.81020145545E+01  0.79376076444E+02  0.84812744271E+02  0.00000000000E+00 0. -1.
         11    1    1    2    0    0  0.40684208945E+02 -0.64542193187E+02  0.12719419584E+03  0.14832148534E+03  0.00000000000E+00 0.  1.
<mgrwt>
<rscale>  0 0.12958577E+03</rscale>
<asrwt>0</asrwt>
<pdfrwt beam="2">  1        2 0.85140757E-02 0.13766835E+03</pdfrwt>
<pdfrwt beam="1">  1       -2 0.51154703E-01 0.13766835E+03</pdfrwt>
<totfact> 0.27681140E+03</totfact>
</mgrwt>
</event>
<event>
 6    1  0.6101889E-006  0.2080916E+03  0.7546771E-02  0.1147135E+00
         -2   -1    0    0    0  501 -0.00000000000E+00  0.00000000000E+00  0.67237167191E+02  0.67237167191E+02  0.00000000000E+00 0.  1.
          2   -1    0    0  501    0  0.00000000000E+00 -0.00000000000E+00 -0.58914077744E+03  0.58914077744E+03  0.00000000000E+00 0. -1.
          5    1    1    2  502    0 -0.25723797416E+02  0.17905941005E+02 -0.31626706975E+01  0.31850101456E+02  0.47000000000E+01 0.  1.
         -5    1    1    2    0  502  0.69528352912E+02  0.14258793772E+03 -0.24637606524E+03  0.29306785455E+03  0.47000000000E+01 0.  1.
        -11    1    1    2    0    0 -0.30838651111E+02 -0.13525940055E+03 -0.26928837722E+03  0.30292302314E+03  0.00000000000E+00 0. -1.
         11    1    1    2    0    0 -0.12965904384E+02 -0.25234478173E+02 -0.30764970870E+01  0.28536965492E+02  0.00000000000E+00 0.  1.
<mgrwt>
<rscale>  0 0.20311812E+03</rscale>
<asrwt>0</asrwt>
<pdfrwt beam="2">  1        2 0.90637046E-01 0.20809156E+03</pdfrwt>
<pdfrwt beam="1">  1       -2 0.10344179E-01 0.20809156E+03</pdfrwt>
<totfact> 0.32051271E+03</totfact>
</mgrwt>
</event>
<event>
 6    1  0.6101889E-006  0.1830652E+03  0.7546771E-02  0.1192580E+00
         -2   -1    0    0    0  501 -0.00000000000E+00  0.00000000000E+00  0.16094111339E+02  0.16094111339E+02  0.00000000000E+00 0.  1.
          2   -1    0    0  501    0  0.00000000000E+00 -0.00000000000E+00 -0.17062612153E+04  0.17062612153E+04  0.00000000000E+00 0. -1.
          5    1    1    2  502    0  0.69457244622E+02  0.59123234240E+02 -0.81652862049E+03  0.82162092459E+03  0.47000000000E+01 0. -1.
         -5    1    1    2    0  502 -0.40159202291E+02 -0.81173101700E+02 -0.65331387499E+03  0.65957785228E+03  0.47000000000E+01 0.  1.
        -11    1    1    2    0    0 -0.83726734472E+01 -0.29355974468E+02 -0.14148155969E+03  0.14473737122E+03  0.00000000000E+00 0. -1.
         11    1    1    2    0    0 -0.20925368884E+02  0.51405841927E+02 -0.78843048834E+02  0.96419178573E+02  0.00000000000E+00 0.  1.
<mgrwt>
<rscale>  0 0.15660829E+03</rscale>
<asrwt>0</asrwt>
<pdfrwt beam="2">  1        2 0.26250182E+00 0.18306517E+03</pdfrwt>
<pdfrwt beam="1">  1       -2 0.24760162E-02 0.18306517E+03</pdfrwt>
<totfact> 0.59348712E+03</totfact>
</mgrwt>
</event>
<event>
 6    1  0.6101889E-006  0.1677770E+03  0.7546771E-02  0.1186101E+00
          2   -1    0    0  501    0  0.00000000000E+00  0.00000000000E+00  0.33288221604E+03  0.33288221604E+03  0.00000000000E+00 0. -1.
         -2   -1    0    0    0  501 -0.00000000000E+00 -0.00000000000E+00 -0.11385454561E+03  0.11385454561E+03  0.00000000000E+00 0.  1.
          5    1    1    2  502    0  0.82156835710E+02 -0.88047785747E+02  0.11739261093E+03  0.16824171103E+03  0.47000000000E+01 0.  1.
         -5    1    1    2    0  502 -0.15252811420E+02 -0.16671044659E+01  0.12812955933E+03  0.12913055978E+03  0.47000000000E+01 0.  1.
        -11    1    1    2    0    0 -0.55921209725E+02  0.96746731862E+02 -0.50048181543E+02  0.12244154646E+03  0.00000000000E+00 0.  1.
         11    1    1    2    0    0 -0.10982814565E+02 -0.70318416495E+01  0.23553681706E+02  0.26922944391E+02  0.00000000000E+00 0. -1.
<mgrwt>
<rscale>  0 0.16232136E+03</rscale>
<asrwt>0</asrwt>
<pdfrwt beam="1">  1        2 0.51212648E-01 0.16777703E+03</pdfrwt>
<pdfrwt beam="2">  1       -2 0.17516084E-01 0.16777703E+03</pdfrwt>
<totfact> 0.25259057E+03</totfact>
</mgrwt>
</event>
<event>
 6    1  0.6101889E-006  0.2578058E+03  0.7546771E-02  0.1108469E+00
         -2   -1    0    0    0  501 -0.00000000000E+00  0.00000000000E+00  0.22218454482E+03  0.22218454482E+03  0.00000000000E+00 0.  1.
          2   -1    0    0  501    0  0.00000000000E+00 -0.00000000000E+00 -0.74784499857E+02  0.74784499857E+02  0.00000000000E+00 0. -1.
          5    1    1    2  502    0 -0.35490723956E+02  0.86432703186E+01  0.21853913705E+02  0.42825006164E+02  0.47000000000E+01 0. -1.
         -5    1    1    2    0  502  0.10169264595E+03 -0.30677293699E+02  0.61087286719E+02  0.12262233560E+03  0.47000000000E+01 0. -1.
        -11    1    1    2    0    0 -0.28348947106E+02  0.80080365957E+01 -0.21557643422E+02  0.36503745590E+02  0.00000000000E+00 0. -1.
         11    1    1    2    0    0 -0.37852974886E+02  0.14025986784E+02  0.86016487963E+02  0.95017957326E+02  0.00000000000E+00 0.  1.
<mgrwt>
<rscale>  0 0.25780582E+03</rscale>
<asrwt>0</asrwt>
<pdfrwt beam="2">  1        2 0.11505308E-01 0.25780582E+03</pdfrwt>
<pdfrwt beam="1">  1       -2 0.34182237E-01 0.25780582E+03</pdfrwt>
<totfact> 0.42829384E+03</totfact>
</mgrwt>
</event>
<event>
 6    1  0.6101889E-006  0.1431799E+03  0.7546771E-02  0.1219694E+00
          2   -1    0    0  501    0  0.00000000000E+00  0.00000000000E+00  0.64735664885E+02  0.64735664885E+02  0.00000000000E+00 0. -1.
         -2   -1    0    0    0  501 -0.00000000000E+00 -0.00000000000E+00 -0.27627840594E+03  0.27627840594E+03  0.00000000000E+00 0.  1.
          5    1    1    2  502    0 -0.38561595305E+02 -0.20887023328E+02 -0.43018197132E+02  0.61611035217E+02  0.47000000000E+01 0. -1.
         -5    1    1    2    0  502  0.37908964040E+02  0.91000354590E+02 -0.11934338866E+03  0.15486474262E+03  0.47000000000E+01 0. -1.
        -11    1    1    2    0    0 -0.32220659612E+02 -0.33132887161E+01 -0.36869468849E+02  0.49076537379E+02  0.00000000000E+00 0. -1.
         11    1    1    2    0    0  0.32873290877E+02 -0.66800042546E+02 -0.12311686417E+02  0.75461755609E+02  0.00000000000E+00 0.  1.
<mgrwt>
<rscale>  0 0.13537333E+03</rscale>
<asrwt>0</asrwt>
<pdfrwt beam="1">  1        2 0.99593329E-02 0.14317988E+03</pdfrwt>
<pdfrwt beam="2">  1       -2 0.42504371E-01 0.14317988E+03</pdfrwt>
<totfact> 0.32797517E+03</totfact>
</mgrwt>
</event>
<event>
 6    1  0.6101889E-006  0.2215144E+03  0.7546771E-02  0.1135952E+00
          2   -1    0    0  501    0  0.00000000000E+00  0.00000000000E+00  0.14131957352E+04  0.14131957352E+04  0.00000000000E+00 0.  1.
         -2   -1    0    0    0  501 -0.00000000000E+00 -0.00000000000E+00 -0.37462008483E+02  0.37462008483E+02  0.00000000000E+00 0. -1.
          5    1    1    2  502    0 -0.53549570344E+01  0.48712444167E+01  0.11911295023E+01  0.87128282721E+01  0.47000000000E+01 0.  1.
         -5    1    1    2    0  502 -0.95441241315E+02 -0.15745233067E+03  0.98205410601E+03  0.99917597254E+03  0.47000000000E+01 0.  1.
        -11    1    1    2    0    0 -0.12509976962E+01  0.69534367273E+02  0.17849345985E+03  0.19156332748E+03  0.00000000000E+00 0.  1.
         11    1    1    2    0    0  0.10204719605E+03  0.83046718983E+02  0.21399503135E+03  0.25120561537E+03  0.00000000000E+00 0. -1.
<mgrwt>
<rscale>  0 0.21724708E+03</rscale>
<asrwt>0</asrwt>
<pdfrwt beam="1">  1        2 0.21741469E+00 0.22151443E+03</pdfrwt>
<pdfrwt beam="2">  1       -2 0.57633870E-02 0.22151443E+03</pdfrwt>
<totfact> 0.23933557E+03</totfact>
</mgrwt>
</event>
<event>
 6    1  0.6101889E-006  0.5373247E+03  0.7546771E-02  0.1004471E+00
          1   -1    0    0  501    0  0.00000000000E+00  0.00000000000E+00  0.31779740643E+03  0.31779740643E+03  0.00000000000E+00 0. -1.
         -1   -1    0    0    0  501 -0.00000000000E+00 -0.00000000000E+00 -0.22712413266E+03  0.22712413266E+03  0.00000000000E+00 0.  1.
          5    1    1    2  502    0 -0.11787239814E+03  0.26320749257E+02  0.25693618748E+03  0.28394537947E+03  0.47000000000E+01 0. -1.
         -5    1    1    2    0  502 -0.16046953129E+02  0.23058419839E+02 -0.74962755035E+01  0.29453006241E+02  0.47000000000E+01 0. -1.
        -11    1    1    2    0    0  0.65180503805E+02 -0.13247382714E+02 -0.13469349110E+03  0.15022092986E+03  0.00000000000E+00 0.  1.
         11    1    1    2    0    0  0.68738847463E+02 -0.36131786383E+02 -0.24073147104E+02  0.81302223520E+02  0.00000000000E+00 0. -1.
<mgrwt>
<rscale>  0 0.53732471E+03</rscale>
<asrwt>0</asrwt>
<pdfrwt beam="1">  1        1 0.48891909E-01 0.53732471E+03</pdfrwt>
<pdfrwt beam="2">  1       -1 0.34942174E-01 0.53732471E+03</pdfrwt>
<totfact> 0.63820871E+02</totfact>
</mgrwt>
</event>
<event>
 6    1  0.6101889E-006  0.2777412E+03  0.7546771E-02  0.1104010E+00
          1   -1    0    0  501    0  0.00000000000E+00  0.00000000000E+00  0.22591458658E+04  0.22591458658E+04  0.00000000000E+00 0. -1.
         -1   -1    0    0    0  501 -0.00000000000E+00 -0.00000000000E+00 -0.46991167197E+02  0.46991167197E+02  0.00000000000E+00 0.  1.
          5    1    1    2  502    0 -0.14225507846E+03 -0.24660456419E+02  0.15790040939E+04  0.15855978885E+04  0.47000000000E+01 0. -1.
         -5    1    1    2    0  502 -0.41883047107E+02 -0.82806120504E+02  0.30716294232E+03  0.32090840806E+03  0.47000000000E+01 0.  1.
        -11    1    1    2    0    0  0.32311777435E+01 -0.10648498240E+02  0.38993157289E+01  0.11791339514E+02  0.00000000000E+00 0. -1.
         11    1    1    2    0    0  0.18090694783E+03  0.11811507516E+03  0.32208834662E+03  0.38783939689E+03  0.00000000000E+00 0.  1.
<mgrwt>
<rscale>  0 0.26528350E+03</rscale>
<asrwt>0</asrwt>
<pdfrwt beam="1">  1        1 0.34756082E+00 0.27774119E+03</pdfrwt>
<pdfrwt beam="2">  1       -1 0.72294121E-02 0.27774119E+03</pdfrwt>
<totfact> 0.22975699E+02</totfact>
</mgrwt>
</event>
<event>
 6    1  0.6101889E-006  0.2872576E+03  0.7546771E-02  0.1091790E+00
          1   -1    0    0  501    0  0.00000000000E+00  0.00000000000E+00  0.36268148712E+03  0.36268148712E+03  0.00000000000E+00 0. -1.
         -1   -1    0    0    0  501 -0.00000000000E+00 -0.00000000000E+00 -0.56879751006E+02  0.56879751006E+02  0.00000000000E+00 0.  1.
          5    1    1    2  502    0  0.10510207775E+03  0.48475409835E+01  0.22396939132E+03  0.24749610835E+03  0.47000000000E+01 0. -1.
         -5    1    1    2    0  502 -0.18666093688E+02  0.10405063487E+02 -0.19746125607E+01  0.21969922496E+02  0.47000000000E+01 0. -1.
        -11    1    1    2    0    0 -0.27204823694E+02 -0.56691263128E+01 -0.17148979445E+02  0.32654692180E+02  0.00000000000E+00 0.  1.
         11    1    1    2    0    0 -0.59231160364E+02 -0.95834781573E+01  0.10095593680E+03  0.11744051510E+03  0.00000000000E+00 0. -1.
<mgrwt>
<rscale>  0 0.28725760E+03</rscale>
<asrwt>0</asrwt>
<pdfrwt beam="1">  1        1 0.55797150E-01 0.28725760E+03</pdfrwt>
<pdfrwt beam="2">  1       -1 0.87507312E-02 0.28725760E+03</pdfrwt>
<totfact> 0.51347945E+03</totfact>
</mgrwt>
</event>
<event>
 6    1  0.6101889E-006  0.2078915E+03  0.7546771E-02  0.1147097E+00
         -1   -1    0    0    0  501 -0.00000000000E+00  0.00000000000E+00  0.31525951998E+02  0.31525951998E+02  0.00000000000E+00 0.  1.
          1   -1    0    0  501    0  0.00000000000E+00 -0.00000000000E+00 -0.17094748893E+04  0.17094748893E+04  0.00000000000E+00 0. -1.
          5    1    1    2  502    0  0.66877424964E+02 -0.10207087810E+03 -0.74426181491E+03  0.75421402351E+03  0.47000000000E+01 0.  1.
         -5    1    1    2    0  502 -0.56872206896E+02 -0.63746874169E+02 -0.57244947928E+03  0.57880791996E+03  0.47000000000E+01 0.  1.
        -11    1    1    2    0    0 -0.38448231268E+02  0.11647435396E+03 -0.17856390213E+03  0.21663242777E+03  0.00000000000E+00 0.  1.
         11    1    1    2    0    0  0.28443013199E+02  0.49343398307E+02 -0.18267374097E+03  0.19134647004E+03  0.00000000000E+00 0. -1.
<mgrwt>
<rscale>  0 0.20316372E+03</rscale>
<asrwt>0</asrwt>
<pdfrwt beam="2">  1        1 0.26299617E+00 0.20789148E+03</pdfrwt>
<pdfrwt beam="1">  1       -1 0.48501459E-02 0.20789148E+03</pdfrwt>
<totfact> 0.96557028E+02</totfact>
</mgrwt>
</event>
<event>
 6    1  0.6101889E-006  0.1589042E+03  0.7546771E-02  0.1198093E+00
         -1   -1    0    0    0  501 -0.00000000000E+00  0.00000000000E+00  0.11816363186E+03  0.11816363186E+03  0.00000000000E+00 0.  1.
          1   -1    0    0  501    0  0.00000000000E+00 -0.00000000000E+00 -0.19637270799E+03  0.19637270799E+03  0.00000000000E+00 0. -1.
          5    1    1    2  502    0  0.38978681229E+02 -0.91303635884E+01  0.83906940743E+01  0.41172744342E+02  0.47000000000E+01 0. -1.
         -5    1    1    2    0  502 -0.51804301364E+02 -0.88148358011E+02 -0.95773750502E+02  0.14017317841E+03  0.47000000000E+01 0. -1.
        -11    1    1    2    0    0 -0.11953602350E+02  0.77504833704E+02  0.40809331178E+02  0.88404125288E+02  0.00000000000E+00 0.  1.
         11    1    1    2    0    0  0.24779222485E+02  0.19773887895E+02 -0.31635350880E+02  0.44786291817E+02  0.00000000000E+00 0. -1.
<mgrwt>
<rscale>  0 0.15195382E+03</rscale>
<asrwt>0</asrwt>
<pdfrwt beam="2">  1        1 0.30211185E-01 0.15890420E+03</pdfrwt>
<pdfrwt beam="1">  1       -1 0.18179021E-01 0.15890420E+03</pdfrwt>
<totfact> 0.34389498E+03</totfact>
</mgrwt>
</event>
<event>
 6    1  0.6101889E-006  0.1338940E+03  0.7546771E-02  0.1234564E+00
          2   -1    0    0  501    0  0.00000000000E+00  0.00000000000E+00  0.11949815717E+04  0.11949815717E+04  0.00000000000E+00 0. -1.
         -2   -1    0    0    0  501 -0.00000000000E+00 -0.00000000000E+00 -0.12896048002E+02  0.12896048002E+02  0.00000000000E+00 0.  1.
          5    1    1    2  502    0  0.25840024062E+02 -0.34021452929E+02  0.21576925916E+03  0.22000824826E+03  0.47000000000E+01 0. -1.
         -5    1    1    2    0  502 -0.43149370816E+02  0.78069579859E+02  0.62705029010E+03  0.63338052055E+03  0.47000000000E+01 0. -1.
        -11    1    1    2    0    0 -0.17290018260E+02  0.36494161632E+01  0.10651059891E+02  0.20632693633E+02  0.00000000000E+00 0.  1.
         11    1    1    2    0    0  0.34599365014E+02 -0.47697543093E+02  0.32861491456E+03  0.33385615728E+03  0.00000000000E+00 0. -1.
<mgrwt>
<rscale>  0 0.12532382E+03</rscale>
<asrwt>0</asrwt>
<pdfrwt beam="1">  1        2 0.18384323E+00 0.13389398E+03</pdfrwt>
<pdfrwt beam="2">  1       -2 0.19840083E-02 0.13389398E+03</pdfrwt>
<totfact> 0.15131070E+04</totfact>
</mgrwt>
</event>
<event>
 6    1  0.6101889E-006  0.2512680E+03  0.7546771E-02  0.1112506E+00
         -1   -1    0    0    0  501 -0.00000000000E+00  0.00000000000E+00  0.17881914506E+02  0.17881914506E+02  0.00000000000E+00 0.  1.
          1   -1    0    0  501    0  0.00000000000E+00 -0.00000000000E+00 -0.88267439210E+03  0.88267439210E+03  0.00000000000E+00 0. -1.
          5    1    1    2  502    0 -0.58419593848E+01  0.38879725479E+02 -0.67259705048E+03  0.67376156306E+03  0.47000000000E+01 0. -1.
         -5    1    1    2    0  502  0.31910482400E+01 -0.61472110823E+01  0.30984226450E+01  0.89253132073E+01  0.47000000000E+01 0.  1.
        -11    1    1    2    0    0  0.60501883025E+01 -0.54150218319E+02 -0.18679183814E+03  0.19457657032E+03  0.00000000000E+00 0.  1.
         11    1    1    2    0    0 -0.33992771578E+01  0.21417703922E+02 -0.85020116310E+01  0.23292860028E+02  0.00000000000E+00 0. -1.
<mgrwt>
<rscale>  0 0.25126805E+03</rscale>
<asrwt>0</asrwt>
<pdfrwt beam="2">  1        1 0.13579604E+00 0.25126805E+03</pdfrwt>
<pdfrwt beam="1">  1       -1 0.27510642E-02 0.25126805E+03</pdfrwt>
<totfact> 0.84097579E+03</totfact>
</mgrwt>
</event>
<event>
 6    1  0.6101889E-006  0.1284468E+03  0.7546771E-02  0.1243139E+00
         -1   -1    0    0    0  501 -0.00000000000E+00  0.00000000000E+00  0.18198748756E+02  0.18198748756E+02  0.00000000000E+00 0.  1.
          1   -1    0    0  501    0  0.00000000000E+00 -0.00000000000E+00 -0.11388915877E+04  0.11388915877E+04  0.00000000000E+00 0. -1.
          5    1    1    2  502    0  0.36374166466E+02  0.19758214251E+02 -0.10454270014E+03  0.11253769666E+03  0.47000000000E+01 0.  1.
         -5    1    1    2    0  502 -0.28558188568E+02  0.87420969035E+01 -0.85860942608E+03  0.85914156630E+03  0.47000000000E+01 0.  1.
        -11    1    1    2    0    0  0.87295082933E+01 -0.43232200092E+02 -0.15718409747E+03  0.16325461077E+03  0.00000000000E+00 0. -1.
         11    1    1    2    0    0 -0.16545486191E+02  0.14731888938E+02 -0.35661522684E+00  0.22156462701E+02  0.00000000000E+00 0.  1.
<mgrwt>
<rscale>  0 0.11997461E+03</rscale>
<asrwt>0</asrwt>
<pdfrwt beam="2">  1        1 0.17521408E+00 0.12844677E+03</pdfrwt>
<pdfrwt beam="1">  1       -1 0.27998077E-02 0.12844677E+03</pdfrwt>
<totfact> 0.51580771E+03</totfact>
</mgrwt>
</event>
<event>
 6    1  0.6101889E-006  0.2109161E+03  0.7546771E-02  0.1144505E+00
          2   -1    0    0  501    0  0.00000000000E+00  0.00000000000E+00  0.74931573451E+03  0.74931573451E+03  0.00000000000E+00 0. -1.
         -2   -1    0    0    0  501 -0.00000000000E+00 -0.00000000000E+00 -0.54826969792E+02  0.54826969792E+02  0.00000000000E+00 0.  1.
          5    1    1    2  502    0  0.89807671729E+02 -0.62897446396E+02  0.33053446248E+03  0.34827665375E+03  0.47000000000E+01 0.  1.
         -5    1    1    2    0  502  0.93968589012E+01 -0.74918783733E+02  0.63979287997E+02  0.99078576927E+02  0.47000000000E+01 0.  1.
        -11    1    1    2    0    0 -0.53727034069E+02  0.10899049289E+02  0.11987654379E+03  0.13181718104E+03  0.00000000000E+00 0. -1.
         11    1    1    2    0    0 -0.45477496561E+02  0.12691718084E+03  0.18009847045E+03  0.22497029258E+03  0.00000000000E+00 0.  1.
<mgrwt>
<rscale>  0 0.20633067E+03</rscale>
<asrwt>0</asrwt>
<pdfrwt beam="1">  1        2 0.11527934E+00 0.21091610E+03</pdfrwt>
<pdfrwt beam="2">  1       -2 0.84349190E-02 0.21091610E+03</pdfrwt>
<totfact> 0.33231954E+03</totfact>
</mgrwt>
</event>
<event>
 6    1  0.6101889E-006  0.1288635E+03  0.7546771E-02  0.1244353E+00
          2   -1    0    0  501    0  0.00000000000E+00  0.00000000000E+00  0.40909110308E+03  0.40909110308E+03  0.00000000000E+00 0. -1.
         -2   -1    0    0    0  501 -0.00000000000E+00 -0.00000000000E+00 -0.36935800560E+02  0.36935800560E+02  0.00000000000E+00 0.  1.
          5    1    1    2  502    0 -0.18549813334E+02  0.26129557443E+02  0.23109276086E+03  0.23335124484E+03  0.47000000000E+01 0. -1.
         -5    1    1    2    0  502  0.31540910851E+02 -0.54585411655E+02  0.70928275542E+02  0.95012138668E+02  0.47000000000E+01 0. -1.
        -11    1    1    2    0    0  0.79343314239E+01  0.25747769237E+02 -0.14390578379E+02  0.30544884709E+02  0.00000000000E+00 0.  1.
         11    1    1    2    0    0 -0.20925428941E+02  0.27080849749E+01  0.84524844500E+02  0.87118635425E+02  0.00000000000E+00 0. -1.
<mgrwt>
<rscale>  0 0.11924191E+03</rscale>
<asrwt>0</asrwt>
<pdfrwt beam="1">  1        2 0.62937090E-01 0.12886351E+03</pdfrwt>
<pdfrwt beam="2">  1       -2 0.56824311E-02 0.12886351E+03</pdfrwt>
<totfact> 0.11818592E+04</totfact>
</mgrwt>
</event>
<event>
 6    1  0.6101889E-006  0.1407074E+03  0.7546771E-02  0.1218421E+00
          2   -1    0    0  501    0  0.00000000000E+00  0.00000000000E+00  0.97325894654E+02  0.97325894654E+02  0.00000000000E+00 0. -1.
         -2   -1    0    0    0  501 -0.00000000000E+00 -0.00000000000E+00 -0.18235617617E+03  0.18235617617E+03  0.00000000000E+00 0.  1.
          5    1    1    2  502    0  0.42056840839E+02 -0.49691832421E+02  0.12773849212E+02  0.66508024286E+02  0.47000000000E+01 0. -1.
         -5    1    1    2    0  502 -0.30064074806E+02 -0.33259038883E+02 -0.74646418084E+02  0.87202006824E+02  0.47000000000E+01 0.  1.
        -11    1    1    2    0    0 -0.14792606950E+02  0.99441739172E+02 -0.33894460373E+02  0.10609578292E+03  0.00000000000E+00 0. -1.
         11    1    1    2    0    0  0.27998409170E+01 -0.16490867868E+02  0.10736747730E+02  0.19876256791E+02  0.00000000000E+00 0.  1.
<mgrwt>
<rscale>  0 0.13628242E+03</rscale>
<asrwt>0</asrwt>
<pdfrwt beam="1">  1        2 0.14973214E-01 0.14070735E+03</pdfrwt>
<pdfrwt beam="2">  1       -2 0.28054796E-01 0.14070735E+03</pdfrwt>
<totfact> 0.43214818E+03</totfact>
</mgrwt>
</event>
<event>
 6    1  0.6101889E-006  0.2429578E+03  0.7546771E-02  0.1117838E+00
          1   -1    0    0  501    0  0.00000000000E+00  0.00000000000E+00  0.95081963663E+03  0.95081963663E+03  0.00000000000E+00 0. -1.
         -1   -1    0    0    0  501 -0.00000000000E+00 -0.00000000000E+00 -0.15520420624E+02  0.15520420624E+02  0.00000000000E+00 0.  1.
          5    1    1    2  502    0  0.63331771454E+02 -0.11127598843E+02  0.17496330988E+03  0.18646443772E+03  0.47000000000E+01 0.  1.
         -5    1    1    2    0  502 -0.27793005168E+02  0.35504153843E+01  0.50806953815E+03  0.50886324506E+03  0.47000000000E+01 0.  1.
        -11    1    1    2    0    0 -0.14009241280E+02  0.42463494468E+02  0.62377092256E+02  0.76748347487E+02  0.00000000000E+00 0.  1.
         11    1    1    2    0    0 -0.21529525005E+02 -0.34886311009E+02  0.18988927572E+03  0.19426402698E+03  0.00000000000E+00 0. -1.
<mgrwt>
<rscale>  0 0.24295778E+03</rscale>
<asrwt>0</asrwt>
<pdfrwt beam="1">  1        1 0.14627990E+00 0.24295778E+03</pdfrwt>
<pdfrwt beam="2">  1       -1 0.23877578E-02 0.24295778E+03</pdfrwt>
<totfact> 0.91540112E+03</totfact>
</mgrwt>
</event>
<event>
 6    1  0.6101889E-006  0.1284444E+03  0.7546771E-02  0.1242754E+00
          2   -1    0    0  501    0  0.00000000000E+00  0.00000000000E+00  0.78992573725E+02  0.78992573725E+02  0.00000000000E+00 0. -1.
         -2   -1    0    0    0  501 -0.00000000000E+00 -0.00000000000E+00 -0.18441975857E+03  0.18441975857E+03  0.00000000000E+00 0.  1.
          5    1    1    2  502    0 -0.53327612962E+01 -0.47207112977E+02 -0.21154521358E+02  0.52216411525E+02  0.47000000000E+01 0.  1.
         -5    1    1    2    0  502  0.31127119952E+01  0.76522321356E+02  0.67860862011E+01  0.77029186726E+02  0.47000000000E+01 0.  1.
        -11    1    1    2    0    0 -0.24617587614E+02  0.21668418402E+02 -0.91944058728E+01  0.34059992298E+02  0.00000000000E+00 0.  1.
         11    1    1    2    0    0  0.26837636915E+02 -0.50983626781E+02 -0.81864343812E+02  0.10010674174E+03  0.00000000000E+00 0. -1.
<mgrwt>
<rscale>  0 0.12020800E+03</rscale>
<asrwt>0</asrwt>
<pdfrwt beam="1">  1        2 0.12152704E-01 0.12844443E+03</pdfrwt>
<pdfrwt beam="2">  1       -2 0.28372270E-01 0.12844443E+03</pdfrwt>
<totfact> 0.53917057E+03</totfact>
</mgrwt>
</event>
<event>
 6    1  0.6101889E-006  0.2667398E+03  0.7546771E-02  0.1103160E+00
          1   -1    0    0  501    0  0.00000000000E+00  0.00000000000E+00  0.65349635063E+02  0.65349635063E+02  0.00000000000E+00 0. -1.
         -1   -1    0    0    0  501 -0.00000000000E+00 -0.00000000000E+00 -0.27219010287E+03  0.27219010287E+03  0.00000000000E+00 0.  1.
          5    1    1    2  502    0 -0.22170759997E+02 -0.26871096459E+02 -0.40397132948E+02  0.53550133279E+02  0.47000000000E+01 0. -1.
         -5    1    1    2    0  502  0.64239336511E+02  0.69139366043E+02 -0.15274814393E+02  0.95720187249E+02  0.47000000000E+01 0. -1.
        -11    1    1    2    0    0  0.13935474430E+02 -0.40352503106E+02 -0.23241466545E+02  0.48607486271E+02  0.00000000000E+00 0.  1.
         11    1    1    2    0    0 -0.56004050943E+02 -0.19157664786E+01 -0.12792705393E+03  0.13966193114E+03  0.00000000000E+00 0. -1.
<mgrwt>
<rscale>  0 0.26673975E+03</rscale>
<asrwt>0</asrwt>
<pdfrwt beam="1">  1        1 0.10053790E-01 0.26673975E+03</pdfrwt>
<pdfrwt beam="2">  1       -1 0.41875400E-01 0.26673975E+03</pdfrwt>
<totfact> 0.36000612E+03</totfact>
</mgrwt>
</event>
<event>
 6    1  0.6101889E-006  0.3886035E+03  0.7546771E-02  0.1047799E+00
          2   -1    0    0  501    0  0.00000000000E+00  0.00000000000E+00  0.16529431436E+03  0.16529431436E+03  0.00000000000E+00 0. -1.
         -2   -1    0    0    0  501 -0.00000000000E+00 -0.00000000000E+00 -0.22839972839E+03  0.22839972839E+03  0.00000000000E+00 0.  1.
          5    1    1    2  502    0  0.89860587713E+02  0.58636365940E+02  0.27849511889E+02  0.11095419752E+03  0.47000000000E+01 0.  1.
         -5    1    1    2    0  502 -0.62897366551E+01 -0.17051025980E+02  0.71704616419E+02  0.74121119055E+02  0.47000000000E+01 0.  1.
        -11    1    1    2    0    0 -0.48155096391E+02 -0.31198361523E+02 -0.19227057669E+02  0.60513889453E+02  0.00000000000E+00 0. -1.
         11    1    1    2    0    0 -0.35415754667E+02 -0.10386978437E+02 -0.14343248468E+03  0.14810483672E+03  0.00000000000E+00 0.  1.
<mgrwt>
<rscale>  0 0.38860353E+03</rscale>
<asrwt>0</asrwt>
<pdfrwt beam="1">  1        2 0.25429895E-01 0.38860353E+03</pdfrwt>
<pdfrwt beam="2">  1       -2 0.35138420E-01 0.38860353E+03</pdfrwt>
<totfact> 0.16197355E+03</totfact>
</mgrwt>
</event>
<event>
 6    1  0.6101889E-006  0.1277896E+03  0.7546771E-02  0.1244229E+00
         -2   -1    0    0    0  501 -0.00000000000E+00  0.00000000000E+00  0.65370629448E+02  0.65370629448E+02  0.00000000000E+00 0.  1.
          2   -1    0    0  501    0  0.00000000000E+00 -0.00000000000E+00 -0.20267129419E+03  0.20267129419E+03  0.00000000000E+00 0. -1.
          5    1    1    2  502    0  0.30983330275E+02  0.17641671423E+01 -0.10659573877E+03  0.11112074768E+03  0.47000000000E+01 0. -1.
         -5    1    1    2    0  502 -0.51276364897E+02 -0.18896523223E+02  0.68418937745E+00  0.54853462079E+02  0.47000000000E+01 0. -1.
        -11    1    1    2    0    0  0.46549128727E+02 -0.68450657872E+01 -0.43923863489E+02  0.64366001077E+02  0.00000000000E+00 0. -1.
         11    1    1    2    0    0 -0.26256094105E+02  0.23977421868E+02  0.12534748142E+02  0.37701712800E+02  0.00000000000E+00 0.  1.
<mgrwt>
<rscale>  0 0.11931642E+03</rscale>
<asrwt>0</asrwt>
<pdfrwt beam="2">  1        2 0.31180199E-01 0.12778960E+03</pdfrwt>
<pdfrwt beam="1">  1       -2 0.10057020E-01 0.12778960E+03</pdfrwt>
<totfact> 0.10362380E+04</totfact>
</mgrwt>
</event>
<event>
 6    1  0.6101889E-006  0.1405952E+03  0.7546771E-02  0.1223697E+00
          1   -1    0    0  501    0  0.00000000000E+00  0.00000000000E+00  0.10502774863E+03  0.10502774863E+03  0.00000000000E+00 0. -1.
         -1   -1    0    0    0  501 -0.00000000000E+00 -0.00000000000E+00 -0.17610140993E+03  0.17610140993E+03  0.00000000000E+00 0.  1.
          5    1    1    2  502    0 -0.63368212352E+02 -0.55297708401E+01 -0.13017999791E+02  0.65097365698E+02  0.47000000000E+01 0. -1.
         -5    1    1    2    0  502  0.28255091477E+02  0.59438370861E+02 -0.79020276909E+02  0.10294447187E+03  0.47000000000E+01 0. -1.
        -11    1    1    2    0    0  0.54530845222E+02 -0.84959035908E+00  0.12560912763E+02  0.55965269711E+02  0.00000000000E+00 0.  1.
         11    1    1    2    0    0 -0.19417724346E+02 -0.53059009661E+02  0.84037026337E+01  0.57122051285E+02  0.00000000000E+00 0. -1.
<mgrwt>
<rscale>  0 0.13256622E+03</rscale>
<asrwt>0</asrwt>
<pdfrwt beam="1">  1        1 0.16158115E-01 0.14059522E+03</pdfrwt>
<pdfrwt beam="2">  1       -1 0.27092524E-01 0.14059522E+03</pdfrwt>
<totfact> 0.39476488E+03</totfact>
</mgrwt>
</event>
<event>
 6    1  0.6101889E-006  0.1755840E+03  0.7546771E-02  0.1178211E+00
         -2   -1    0    0    0  501 -0.00000000000E+00  0.00000000000E+00  0.83360939578E+02  0.83360939578E+02  0.00000000000E+00 0.  1.
          2   -1    0    0  501    0  0.00000000000E+00 -0.00000000000E+00 -0.37085430061E+03  0.37085430061E+03  0.00000000000E+00 0. -1.
          5    1    1    2  502    0  0.48848538044E+02 -0.23086469166E+02 -0.18265885578E+03  0.19054005438E+03  0.47000000000E+01 0.  1.
         -5    1    1    2    0  502  0.71221967194E+02  0.51160358597E+02 -0.50383572664E+02  0.10124497665E+03  0.47000000000E+01 0.  1.
        -11    1    1    2    0    0 -0.97516260687E+02  0.24980340425E+01 -0.18772837719E+01  0.97566313176E+02  0.00000000000E+00 0.  1.
         11    1    1    2    0    0 -0.22554244551E+02 -0.30571923474E+02 -0.52573648821E+02  0.64863895986E+02  0.00000000000E+00 0. -1.
<mgrwt>
<rscale>  0 0.16965198E+03</rscale>
<asrwt>0</asrwt>
<pdfrwt beam="2">  1        2 0.57054508E-01 0.17558397E+03</pdfrwt>
<pdfrwt beam="1">  1       -2 0.12824760E-01 0.17558397E+03</pdfrwt>
<totfact> 0.37619225E+03</totfact>
</mgrwt>
</event>
<event>
 6    1  0.6101889E-006  0.1279292E+03  0.7546771E-02  0.1245627E+00
          2   -1    0    0  501    0  0.00000000000E+00  0.00000000000E+00  0.32714709612E+03  0.32714709612E+03  0.00000000000E+00 0. -1.
         -2   -1    0    0    0  501 -0.00000000000E+00 -0.00000000000E+00 -0.39232776929E+02  0.39232776929E+02  0.00000000000E+00 0.  1.
          5    1    1    2  502    0 -0.22539288526E+02  0.19382386451E+02 -0.48482415654E+01  0.30484289036E+02  0.47000000000E+01 0.  1.
         -5    1    1    2    0  502  0.26710002927E+02  0.74980469572E+01  0.20592474813E+03  0.20783824686E+03  0.47000000000E+01 0.  1.
        -11    1    1    2    0    0  0.14859631552E+02 -0.33851840931E+02  0.98125580260E+02  0.10485888272E+03  0.00000000000E+00 0. -1.
         11    1    1    2    0    0 -0.19030345953E+02  0.69714075224E+01 -0.11287767633E+02  0.23198454433E+02  0.00000000000E+00 0.  1.
<mgrwt>
<rscale>  0 0.11847954E+03</rscale>
<asrwt>0</asrwt>
<pdfrwt beam="1">  1        2 0.50330321E-01 0.12792916E+03</pdfrwt>
<pdfrwt beam="2">  1       -2 0.60358121E-02 0.12792916E+03</pdfrwt>
<totfact> 0.13671584E+04</totfact>
</mgrwt>
</event>
<event>
 6    1  0.6101889E-006  0.1297123E+03  0.7546771E-02  0.1235652E+00
          1   -1    0    0  501    0  0.00000000000E+00  0.00000000000E+00  0.16547166842E+03  0.16547166842E+03  0.00000000000E+00 0. -1.
         -1   -1    0    0    0  501 -0.00000000000E+00 -0.00000000000E+00 -0.11148446703E+03  0.11148446703E+03  0.00000000000E+00 0.  1.
          5    1    1    2  502    0 -0.35723697732E+02  0.34104759808E+02  0.11086508429E+02  0.50836186819E+02  0.47000000000E+01 0. -1.
         -5    1    1    2    0  502  0.68099703148E+02 -0.21362721687E+02  0.82052583059E+02  0.10885151277E+03  0.47000000000E+01 0. -1.
        -11    1    1    2    0    0 -0.19903661849E+01  0.33638130419E+02 -0.50462667578E+02  0.60679207268E+02  0.00000000000E+00 0.  1.
         11    1    1    2    0    0 -0.30385639231E+02 -0.46380168540E+02  0.11310777480E+02  0.56589228591E+02  0.00000000000E+00 0. -1.
<mgrwt>
<rscale>  0 0.12462791E+03</rscale>
<asrwt>0</asrwt>
<pdfrwt beam="1">  1        1 0.25457180E-01 0.12971226E+03</pdfrwt>
<pdfrwt beam="2">  1       -1 0.17151457E-01 0.12971226E+03</pdfrwt>
<totfact> 0.46219576E+03</totfact>
</mgrwt>
</event>
<event>
 6    1  0.6101889E-006  0.2880248E+03  0.7546771E-02  0.1091385E+00
          1   -1    0    0  501    0  0.00000000000E+00  0.00000000000E+00  0.19035754855E+03  0.19035754855E+03  0.00000000000E+00 0. -1.
         -1   -1    0    0    0  501 -0.00000000000E+00 -0.00000000000E+00 -0.10895058762E+03  0.10895058762E+03  0.00000000000E+00 0.  1.
          5    1    1    2  502    0 -0.19145350070E+02  0.49153975999E+01 -0.22856422655E+02  0.30581229855E+02  0.47000000000E+01 0. -1.
         -5    1    1    2    0  502  0.94888037947E+02 -0.63091250479E+02  0.69231805929E+02  0.13341431177E+03  0.47000000000E+01 0. -1.
        -11    1    1    2    0    0 -0.37335185330E+02  0.38211320240E+02  0.63894484983E+02  0.83285810732E+02  0.00000000000E+00 0. -1.
         11    1    1    2    0    0 -0.38407502547E+02  0.19964532640E+02 -0.28862907324E+02  0.52026783820E+02  0.00000000000E+00 0.  1.
<mgrwt>
<rscale>  0 0.28802477E+03</rscale>
<asrwt>0</asrwt>
<pdfrwt beam="1">  1        1 0.29285777E-01 0.28802477E+03</pdfrwt>
<pdfrwt beam="2">  1       -1 0.16761629E-01 0.28802477E+03</pdfrwt>
<totfact> 0.41817899E+03</totfact>
</mgrwt>
</event>
<event>
 6    1  0.6101889E-006  0.1481767E+03  0.7546771E-02  0.1212564E+00
         -1   -1    0    0    0  501 -0.00000000000E+00  0.00000000000E+00  0.14082172727E+03  0.14082172727E+03  0.00000000000E+00 0.  1.
          1   -1    0    0  501    0  0.00000000000E+00 -0.00000000000E+00 -0.18153246767E+03  0.18153246767E+03  0.00000000000E+00 0. -1.
          5    1    1    2  502    0  0.37538244547E+02 -0.37829648422E+02 -0.53900464100E+01  0.53771225610E+02  0.47000000000E+01 0.  1.
         -5    1    1    2    0  502 -0.70560166798E+02 -0.34565097392E+02 -0.10390681390E+03  0.13035412947E+03  0.47000000000E+01 0.  1.
        -11    1    1    2    0    0 -0.83258308242E+01  0.19467276542E+02 -0.18593178536E+02  0.28178016306E+02  0.00000000000E+00 0. -1.
         11    1    1    2    0    0  0.41347753076E+02  0.52927469272E+02  0.87179298444E+02  0.11005082356E+03  0.00000000000E+00 0.  1.
<mgrwt>
<rscale>  0 0.14056986E+03</rscale>
<asrwt>0</asrwt>
<pdfrwt beam="2">  1        1 0.27928072E-01 0.14817673E+03</pdfrwt>
<pdfrwt beam="1">  1       -1 0.21664881E-01 0.14817673E+03</pdfrwt>
<totfact> 0.28512323E+03</totfact>
</mgrwt>
</event>
<event>
 6    1  0.6101889E-006  0.2155553E+03  0.7546771E-02  0.1137241E+00
         -2   -1    0    0    0  501 -0.00000000000E+00  0.00000000000E+00  0.16862043312E+02  0.16862043312E+02  0.00000000000E+00 0.  1.
          2   -1    0    0  501    0  0.00000000000E+00 -0.00000000000E+00 -0.68888593708E+03  0.68888593708E+03  0.00000000000E+00 0. -1.
          5    1    1    2  502    0  0.87023580028E+01 -0.32695882727E+02 -0.41680301865E+03  0.41820042819E+03  0.47000000000E+01 0. -1.
         -5    1    1    2    0  502  0.11047867516E+02  0.71534854847E+01  0.27896523135E+00  0.13978395932E+02  0.47000000000E+01 0.  1.
        -11    1    1    2    0    0 -0.56363705197E+02  0.12084249412E+02 -0.17210079694E+03  0.18149815607E+03  0.00000000000E+00 0. -1.
         11    1    1    2    0    0  0.36613479679E+02  0.13458147831E+02 -0.83399043409E+02  0.92071000205E+02  0.00000000000E+00 0.  1.
<mgrwt>
<rscale>  0 0.21555532E+03</rscale>
<asrwt>0</asrwt>
<pdfrwt beam="2">  1        2 0.10598246E+00 0.21555532E+03</pdfrwt>
<pdfrwt beam="1">  1       -2 0.25941603E-02 0.21555532E+03</pdfrwt>
<totfact> 0.22029974E+04</totfact>
</mgrwt>
</event>
<event>
 6    1  0.6101889E-006  0.1551829E+03  0.7546771E-02  0.1198781E+00
         -2   -1    0    0    0  501 -0.00000000000E+00  0.00000000000E+00  0.34768965564E+02  0.34768965564E+02  0.00000000000E+00 0. -1.
          2   -1    0    0  501    0  0.00000000000E+00 -0.00000000000E+00 -0.81618919418E+03  0.81618919418E+03  0.00000000000E+00 0.  1.
          5    1    1    2  502    0 -0.58327662961E+02 -0.29523474532E+02 -0.13981133433E+03  0.15441195233E+03  0.47000000000E+01 0. -1.
         -5    1    1    2    0  502  0.33017369886E+02 -0.58875587837E+02 -0.46947158940E+03  0.47432282763E+03  0.47000000000E+01 0. -1.
        -11    1    1    2    0    0  0.32414558343E+02  0.11155616375E+03 -0.14619100280E+03  0.18672785160E+03  0.00000000000E+00 0.  1.
         11    1    1    2    0    0 -0.71042652677E+01 -0.23157101379E+02 -0.25946302083E+02  0.35495528184E+02  0.00000000000E+00 0. -1.
<mgrwt>
<rscale>  0 0.15138550E+03</rscale>
<asrwt>0</asrwt>
<pdfrwt beam="2">  1        2 0.12556757E+00 0.15518293E+03</pdfrwt>
<pdfrwt beam="1">  1       -2 0.53490714E-02 0.15518293E+03</pdfrwt>
<totfact> 0.59529664E+03</totfact>
</mgrwt>
</event>
<event>
 6    1  0.6101889E-006  0.3147008E+03  0.7546771E-02  0.1078114E+00
         -4   -1    0    0    0  501 -0.00000000000E+00  0.00000000000E+00  0.49145150427E+03  0.49145150427E+03  0.00000000000E+00 0. -1.
          4   -1    0    0  501    0  0.00000000000E+00 -0.00000000000E+00 -0.50379652644E+02  0.50379652644E+02  0.00000000000E+00 0.  1.
          5    1    1    2  502    0  0.10631070762E+03  0.77079620915E+02  0.21994758572E+03  0.25620746472E+03  0.47000000000E+01 0. -1.
         -5    1    1    2    0  502 -0.34787992471E+02  0.15194417400E+02  0.43897643259E+02  0.58225147694E+02  0.47000000000E+01 0. -1.
        -11    1    1    2    0    0 -0.52850431779E+01 -0.72349912516E+02  0.10249294202E+03  0.12556768966E+03  0.00000000000E+00 0.  1.
         11    1    1    2    0    0 -0.66237671974E+02 -0.19924125799E+02  0.74733680636E+02  0.10183085485E+03  0.00000000000E+00 0. -1.
<mgrwt>
<rscale>  0 0.31470085E+03</rscale>
<asrwt>0</asrwt>
<pdfrwt beam="2">  1        4 0.77507161E-02 0.31470085E+03</pdfrwt>
<pdfrwt beam="1">  1       -4 0.75607921E-01 0.31470085E+03</pdfrwt>
<totfact> 0.35629804E+02</totfact>
</mgrwt>
</event>
<event>
 6    1  0.6101889E-006  0.2009051E+03  0.7546771E-02  0.1167321E+00
         -1   -1    0    0    0  501 -0.00000000000E+00  0.00000000000E+00  0.34483747157E+02  0.34483747157E+02  0.00000000000E+00 0.  1.
          1   -1    0    0  501    0  0.00000000000E+00 -0.00000000000E+00 -0.12839778110E+04  0.12839778110E+04  0.00000000000E+00 0. -1.
          5    1    1    2  502    0 -0.18283489167E+01  0.49940383510E+02 -0.63612157224E+03  0.63809883987E+03  0.47000000000E+01 0. -1.
         -5    1    1    2    0  502  0.88880915589E+02 -0.86589261782E+02 -0.47042437076E+03  0.48653745592E+03  0.47000000000E+01 0.  1.
        -11    1    1    2    0    0 -0.19996364516E+02  0.58089450353E+01 -0.11178518100E+03  0.11370806975E+03  0.00000000000E+00 0. -1.
         11    1    1    2    0    0 -0.67056202156E+02  0.30839933236E+02 -0.31162939808E+02  0.80117192581E+02  0.00000000000E+00 0.  1.
<mgrwt>
<rscale>  0 0.18049943E+03</rscale>
<asrwt>0</asrwt>
<pdfrwt beam="2">  1        1 0.19753503E+00 0.20090514E+03</pdfrwt>
<pdfrwt beam="1">  1       -1 0.53051924E-02 0.20090514E+03</pdfrwt>
<totfact> 0.16125211E+03</totfact>
</mgrwt>
</event>
<event>
 6    1  0.6101889E-006  0.1592914E+03  0.7546771E-02  0.1199111E+00
         -2   -1    0    0    0  501 -0.00000000000E+00  0.00000000000E+00  0.20561531912E+03  0.20561531912E+03  0.00000000000E+00 0.  1.
          2   -1    0    0  501    0  0.00000000000E+00 -0.00000000000E+00 -0.12167642049E+03  0.12167642049E+03  0.00000000000E+00 0. -1.
          5    1    1    2  502    0 -0.35305909946E+02 -0.58243884211E+02 -0.10820057134E+02  0.69123230259E+02  0.47000000000E+01 0. -1.
         -5    1    1    2    0  502  0.89563360810E+02 -0.15324690239E+02 -0.10596480303E+02  0.91601403512E+02  0.47000000000E+01 0. -1.
        -11    1    1    2    0    0  0.88692499322E+01  0.58609302454E+02  0.27848307647E+02  0.65492306169E+02  0.00000000000E+00 0.  1.
         11    1    1    2    0    0 -0.63126700797E+02  0.14959271996E+02  0.77507128420E+02  0.10107479967E+03  0.00000000000E+00 0. -1.
<mgrwt>
<rscale>  0 0.15111379E+03</rscale>
<asrwt>0</asrwt>
<pdfrwt beam="2">  1        2 0.18719449E-01 0.15929137E+03</pdfrwt>
<pdfrwt beam="1">  1       -2 0.31633126E-01 0.15929137E+03</pdfrwt>
<totfact> 0.27066138E+03</totfact>
</mgrwt>
</event>
<event>
 6    1  0.6101889E-006  0.1508174E+03  0.7546771E-02  0.1208596E+00
         -1   -1    0    0    0  501 -0.00000000000E+00  0.00000000000E+00  0.59949860681E+02  0.59949860681E+02  0.00000000000E+00 0.  1.
          1   -1    0    0  501    0  0.00000000000E+00 -0.00000000000E+00 -0.49085274172E+03  0.49085274172E+03  0.00000000000E+00 0. -1.
          5    1    1    2  502    0  0.89030053885E+02 -0.25790450142E+02 -0.19620198945E+03  0.21704563685E+03  0.47000000000E+01 0.  1.
         -5    1    1    2    0  502 -0.35516392146E+02 -0.39442881523E+02 -0.19728917804E+03  0.20435817768E+03  0.47000000000E+01 0.  1.
        -11    1    1    2    0    0 -0.70427413613E+01 -0.22203719380E+02 -0.15513905615E+02  0.27987258308E+02  0.00000000000E+00 0. -1.
         11    1    1    2    0    0 -0.46470920378E+02  0.87437051045E+02 -0.21897807946E+02  0.10141152957E+03  0.00000000000E+00 0.  1.
<mgrwt>
<rscale>  0 0.14357614E+03</rscale>
<asrwt>0</asrwt>
<pdfrwt beam="2">  1        1 0.75515807E-01 0.15081736E+03</pdfrwt>
<pdfrwt beam="1">  1       -1 0.92230554E-02 0.15081736E+03</pdfrwt>
<totfact> 0.31259690E+03</totfact>
</mgrwt>
</event>
<event>
 6    1  0.6101889E-006  0.2550630E+03  0.7546771E-02  0.1207594E+00
         -2   -1    0    0    0  501 -0.00000000000E+00  0.00000000000E+00  0.87851253771E+02  0.87851253771E+02  0.00000000000E+00 0.  1.
          2   -1    0    0  501    0  0.00000000000E+00 -0.00000000000E+00 -0.25496226260E+03  0.25496226260E+03  0.00000000000E+00 0. -1.
          5    1    1    2  502    0  0.45591471368E+02 -0.76413807236E+02 -0.20270685523E+03  0.22142676296E+03  0.47000000000E+01 0. -1.
         -5    1    1    2    0  502 -0.46096992971E+02  0.76055702986E+02  0.21296493653E+02  0.91569827780E+02  0.47000000000E+01 0.  1.
        -11    1    1    2    0    0  0.59275493378E+01 -0.99525269904E+01  0.13990097683E+02  0.18163465193E+02  0.00000000000E+00 0.  1.
         11    1    1    2    0    0 -0.54220277346E+01  0.10310631240E+02  0.30925507200E+00  0.11653460431E+02  0.00000000000E+00 0. -1.
<mgrwt>
<rscale>  0 0.14434889E+03</rscale>
<asrwt>0</asrwt>
<pdfrwt beam="2">  1        2 0.39224964E-01 0.25506302E+03</pdfrwt>
<pdfrwt beam="1">  1       -2 0.13515577E-01 0.25506302E+03</pdfrwt>
<totfact> 0.52574770E+03</totfact>
</mgrwt>
</event>
<event>
 6    1  0.6101889E-006  0.1649169E+03  0.7546771E-02  0.1189790E+00
         -1   -1    0    0    0  501 -0.00000000000E+00  0.00000000000E+00  0.18681198183E+02  0.18681198183E+02  0.00000000000E+00 0.  1.
          1   -1    0    0  501    0  0.00000000000E+00 -0.00000000000E+00 -0.16011246667E+04  0.16011246667E+04  0.00000000000E+00 0. -1.
          5    1    1    2  502    0  0.69844900550E+01 -0.96529009273E+02 -0.78650282068E+03  0.79244899500E+03  0.47000000000E+01 0.  1.
         -5    1    1    2    0  502  0.64589987989E+02  0.16219511879E+02 -0.41999241739E+03  0.42526539923E+03  0.47000000000E+01 0.  1.
        -11    1    1    2    0    0 -0.75387088658E+02  0.63087257626E+02 -0.37095548755E+03  0.38375928517E+03  0.00000000000E+00 0. -1.
         11    1    1    2    0    0  0.38126106148E+01  0.17222239769E+02 -0.49927428655E+01  0.18332185458E+02  0.00000000000E+00 0.  1.
<mgrwt>
<rscale>  0 0.15903548E+03</rscale>
<asrwt>0</asrwt>
<pdfrwt beam="2">  1        1 0.24632681E+00 0.16491691E+03</pdfrwt>
<pdfrwt beam="1">  1       -1 0.28740312E-02 0.16491691E+03</pdfrwt>
<totfact> 0.24614891E+03</totfact>
</mgrwt>
</event>
<event>
 6    1  0.6101889E-006  0.1307405E+03  0.7546771E-02  0.1242093E+00
          2   -1    0    0  501    0  0.00000000000E+00  0.00000000000E+00  0.41746767882E+03  0.41746767882E+03  0.00000000000E+00 0. -1.
         -2   -1    0    0    0  501 -0.00000000000E+00 -0.00000000000E+00 -0.69183170058E+02  0.69183170058E+02  0.00000000000E+00 0.  1.
          5    1    1    2  502    0 -0.11103006165E+02  0.83465265005E+02  0.23462079429E+03  0.24931653439E+03  0.47000000000E+01 0.  1.
         -5    1    1    2    0  502  0.27014292887E+01 -0.46080189857E+02  0.13284907537E+03  0.14071833017E+03  0.47000000000E+01 0.  1.
        -11    1    1    2    0    0  0.36747689244E+02  0.71225989298E+01  0.63964014113E+01  0.37974175847E+02  0.00000000000E+00 0.  1.
         11    1    1    2    0    0 -0.28346112368E+02 -0.44507674078E+02 -0.25581762310E+02  0.58641808474E+02  0.00000000000E+00 0. -1.
<mgrwt>
<rscale>  0 0.12061075E+03</rscale>
<asrwt>0</asrwt>
<pdfrwt beam="1">  1        2 0.64225795E-01 0.13074055E+03</pdfrwt>
<pdfrwt beam="2">  1       -2 0.10643565E-01 0.13074055E+03</pdfrwt>
<totfact> 0.44010050E+03</totfact>
</mgrwt>
</event>
<event>
 6    1  0.6101889E-006  0.1415081E+03  0.7546771E-02  0.1222368E+00
          1   -1    0    0  501    0  0.00000000000E+00  0.00000000000E+00  0.17993149507E+03  0.17993149507E+03  0.00000000000E+00 0. -1.
         -1   -1    0    0    0  501 -0.00000000000E+00 -0.00000000000E+00 -0.89365422236E+02  0.89365422236E+02  0.00000000000E+00 0.  1.
          5    1    1    2  502    0  0.10947383964E+02 -0.24451432538E+02 -0.32319051667E+02  0.42241317089E+02  0.47000000000E+01 0.  1.
         -5    1    1    2    0  502  0.50365408040E+02  0.49750573916E+02  0.80360674694E+02  0.10719944948E+03  0.47000000000E+01 0.  1.
        -11    1    1    2    0    0 -0.73335650252E+02  0.99194293811E+01  0.35112838019E+02  0.81911074165E+02  0.00000000000E+00 0.  1.
         11    1    1    2    0    0  0.12022858248E+02 -0.35218570759E+02  0.74116117903E+01  0.37945076572E+02  0.00000000000E+00 0. -1.
<mgrwt>
<rscale>  0 0.13348961E+03</rscale>
<asrwt>0</asrwt>
<pdfrwt beam="1">  1        1 0.27681768E-01 0.14150811E+03</pdfrwt>
<pdfrwt beam="2">  1       -1 0.13748527E-01 0.14150811E+03</pdfrwt>
<totfact> 0.59213845E+03</totfact>
</mgrwt>
</event>
<event>
 6    1  0.6101889E-006  0.1496668E+03  0.7546771E-02  0.1210217E+00
         -1   -1    0    0    0  501 -0.00000000000E+00  0.00000000000E+00  0.19109834502E+02  0.19109834502E+02  0.00000000000E+00 0.  1.
          1   -1    0    0  501    0  0.00000000000E+00 -0.00000000000E+00 -0.96900085199E+03  0.96900085199E+03  0.00000000000E+00 0. -1.
          5    1    1    2  502    0  0.40922266808E+02  0.59950503015E+02 -0.18051730431E+03  0.19462086704E+03  0.47000000000E+01 0.  1.
         -5    1    1    2    0  502  0.41305133810E+02 -0.56323821191E+02 -0.33212676196E+03  0.33942416373E+03  0.47000000000E+01 0.  1.
        -11    1    1    2    0    0 -0.54262575233E+02 -0.45989417899E+02 -0.23370973444E+03  0.24429427664E+03  0.00000000000E+00 0.  1.
         11    1    1    2    0    0 -0.27964825385E+02  0.42362736075E+02 -0.20353721677E+03  0.20977137907E+03  0.00000000000E+00 0. -1.
<mgrwt>
<rscale>  0 0.14233836E+03</rscale>
<asrwt>0</asrwt>
<pdfrwt beam="2">  1        1 0.14907699E+00 0.14966682E+03</pdfrwt>
<pdfrwt beam="1">  1       -1 0.29399759E-02 0.14966682E+03</pdfrwt>
<totfact> 0.64019137E+03</totfact>
</mgrwt>
</event>
<event>
 6    1  0.6101889E-006  0.1340005E+03  0.7546771E-02  0.1236731E+00
          1   -1    0    0  501    0  0.00000000000E+00  0.00000000000E+00  0.15833993811E+03  0.15833993811E+03  0.00000000000E+00 0. -1.
         -1   -1    0    0    0  501 -0.00000000000E+00 -0.00000000000E+00 -0.85673014475E+02  0.85673014475E+02  0.00000000000E+00 0.  1.
          5    1    1    2  502    0  0.41405456659E+02  0.60804738437E+02 -0.10336236587E+02  0.74434910119E+02  0.47000000000E+01 0.  1.
         -5    1    1    2    0  502  0.48362673631E+01 -0.46891737808E+02  0.41871970101E+02  0.63226390351E+02  0.47000000000E+01 0.  1.
        -11    1    1    2    0    0 -0.34175135769E+02  0.12526988880E+01 -0.21765385042E+02  0.40536910901E+02  0.00000000000E+00 0.  1.
         11    1    1    2    0    0 -0.12066588253E+02 -0.15165699518E+02  0.62896575160E+02  0.65814741212E+02  0.00000000000E+00 0. -1.
<mgrwt>
<rscale>  0 0.12394256E+03</rscale>
<asrwt>0</asrwt>
<pdfrwt beam="1">  1        1 0.24359990E-01 0.13400049E+03</pdfrwt>
<pdfrwt beam="2">  1       -1 0.13180464E-01 0.13400049E+03</pdfrwt>
<totfact> 0.73946731E+03</totfact>
</mgrwt>
</event>
<event>
 6    1  0.6101889E-006  0.2057562E+03  0.7546771E-02  0.1149024E+00
         -1   -1    0    0    0  501 -0.00000000000E+00  0.00000000000E+00  0.30173726888E+03  0.30173726888E+03  0.00000000000E+00 0.  1.
          1   -1    0    0  501    0  0.00000000000E+00 -0.00000000000E+00 -0.24796829964E+03  0.24796829964E+03  0.00000000000E+00 0. -1.
          5    1    1    2  502    0 -0.44789568399E+02 -0.11235255052E+03 -0.78212115395E+02  0.14411254644E+03  0.47000000000E+01 0.  1.
         -5    1    1    2    0  502 -0.81877071070E+02  0.90925106540E+01 -0.85544208478E+02  0.11885465965E+03  0.47000000000E+01 0.  1.
        -11    1    1    2    0    0  0.12112014472E+03  0.80713638131E+02  0.12663091837E+03  0.19292529727E+03  0.00000000000E+00 0. -1.
         11    1    1    2    0    0  0.55464947463E+01  0.22546401738E+02  0.90894374743E+02  0.93813065163E+02  0.00000000000E+00 0.  1.
<mgrwt>
<rscale>  0 0.20084935E+03</rscale>
<asrwt>0</asrwt>
<pdfrwt beam="2">  1        1 0.38148969E-01 0.20575621E+03</pdfrwt>
<pdfrwt beam="1">  1       -1 0.46421118E-01 0.20575621E+03</pdfrwt>
<totfact> 0.52873396E+02</totfact>
</mgrwt>
</event>
<event>
 6    1  0.6101889E-006  0.1558818E+03  0.7546771E-02  0.1201709E+00
          2   -1    0    0  501    0  0.00000000000E+00  0.00000000000E+00  0.15919191056E+03  0.15919191056E+03  0.00000000000E+00 0. -1.
         -2   -1    0    0    0  501 -0.00000000000E+00 -0.00000000000E+00 -0.18768830564E+03  0.18768830564E+03  0.00000000000E+00 0.  1.
          5    1    1    2  502    0 -0.39537617871E+02  0.18237130795E+01 -0.31311210893E+02  0.50685610225E+02  0.47000000000E+01 0. -1.
         -5    1    1    2    0  502 -0.53585615566E+02 -0.53294213420E+00  0.11334802657E+03  0.12546540300E+03  0.47000000000E+01 0. -1.
        -11    1    1    2    0    0 -0.11932051975E+02  0.19309970718E+02 -0.24391772133E+02  0.33319774628E+02  0.00000000000E+00 0.  1.
         11    1    1    2    0    0  0.10505528541E+03 -0.20600741664E+02 -0.86141438623E+02  0.13740942835E+03  0.00000000000E+00 0. -1.
<mgrwt>
<rscale>  0 0.14899836E+03</rscale>
<asrwt>0</asrwt>
<pdfrwt beam="1">  1        2 0.24491063E-01 0.15588182E+03</pdfrwt>
<pdfrwt beam="2">  1       -2 0.28875124E-01 0.15588182E+03</pdfrwt>
<totfact> 0.23551631E+03</totfact>
</mgrwt>
</event>
<event>
 6    1  0.6101889E-006  0.3575712E+03  0.7546771E-02  0.1059550E+00
          3   -1    0    0  501    0  0.00000000000E+00  0.00000000000E+00  0.24475322863E+03  0.24475322863E+03  0.00000000000E+00 0. -1.
         -3   -1    0    0    0  501 -0.00000000000E+00 -0.00000000000E+00 -0.13059802416E+03  0.13059802416E+03  0.00000000000E+00 0.  1.
          5    1    1    2  502    0 -0.67859263853E+01 -0.18518992693E+02 -0.66204871007E+01  0.21328917852E+02  0.47000000000E+01 0. -1.
         -5    1    1    2    0  502 -0.32781795905E+01  0.13280063916E+03  0.15376310710E+03  0.20325338700E+03  0.47000000000E+01 0. -1.
        -11    1    1    2    0    0  0.49946434884E+02 -0.68933004528E+02 -0.83104233379E+01  0.85530512725E+02  0.00000000000E+00 0.  1.
         11    1    1    2    0    0 -0.39882328908E+02 -0.45348641939E+02 -0.24676992199E+02  0.65238435211E+02  0.00000000000E+00 0. -1.
<mgrwt>
<rscale>  0 0.35757118E+03</rscale>
<asrwt>0</asrwt>
<pdfrwt beam="1">  1        3 0.37654343E-01 0.35757118E+03</pdfrwt>
<pdfrwt beam="2">  1       -3 0.20092004E-01 0.35757118E+03</pdfrwt>
<totfact> 0.40309283E+02</totfact>
</mgrwt>
</event>
<event>
 6    1  0.6101889E-006  0.1446924E+03  0.7546771E-02  0.1213767E+00
          4   -1    0    0  501    0  0.00000000000E+00  0.00000000000E+00  0.15821873684E+03  0.15821873684E+03  0.00000000000E+00 0. -1.
         -4   -1    0    0    0  501 -0.00000000000E+00 -0.00000000000E+00 -0.11961853707E+03  0.11961853707E+03  0.00000000000E+00 0.  1.
          5    1    1    2  502    0  0.46170402073E+02 -0.42064740743E+02  0.45966467725E+02  0.77692693328E+02  0.47000000000E+01 0. -1.
         -5    1    1    2    0  502 -0.61757317332E+02 -0.40967614142E+02  0.44296900132E+00  0.74260338500E+02  0.47000000000E+01 0.  1.
        -11    1    1    2    0    0 -0.39014342477E+02  0.27718425114E+02 -0.10886548241E+01  0.47870817614E+02  0.00000000000E+00 0.  1.
         11    1    1    2    0    0  0.54601257737E+02  0.55313929771E+02 -0.67205821260E+01  0.78013424468E+02  0.00000000000E+00 0. -1.
<mgrwt>
<rscale>  0 0.13967472E+03</rscale>
<asrwt>0</asrwt>
<pdfrwt beam="1">  1        4 0.24341344E-01 0.14469239E+03</pdfrwt>
<pdfrwt beam="2">  1       -4 0.18402852E-01 0.14469239E+03</pdfrwt>
<totfact> 0.69174762E+02</totfact>
</mgrwt>
</event>
<event>
 6    1  0.6101889E-006  0.1266309E+03  0.7546771E-02  0.1247557E+00
          2   -1    0    0  501    0  0.00000000000E+00  0.00000000000E+00  0.15157933839E+03  0.15157933839E+03  0.00000000000E+00 0. -1.
         -2   -1    0    0    0  501 -0.00000000000E+00 -0.00000000000E+00 -0.80120954473E+02  0.80120954473E+02  0.00000000000E+00 0.  1.
          5    1    1    2  502    0 -0.56290069420E+02 -0.34455360344E+02  0.14878882497E+02  0.67817511869E+02  0.47000000000E+01 0.  1.
         -5    1    1    2    0  502  0.56963603209E+02  0.14227235639E+02  0.33345526417E+02  0.67685156840E+02  0.47000000000E+01 0.  1.
        -11    1    1    2    0    0  0.18087424713E+02  0.22188671039E+02  0.53417488932E+02  0.60604621763E+02  0.00000000000E+00 0. -1.
         11    1    1    2    0    0 -0.18760958502E+02 -0.19605463337E+01 -0.30183513931E+02  0.35593002389E+02  0.00000000000E+00 0.  1.
<mgrwt>
<rscale>  0 0.11733645E+03</rscale>
<asrwt>0</asrwt>
<pdfrwt beam="1">  1        2 0.23319898E-01 0.12663088E+03</pdfrwt>
<pdfrwt beam="2">  1       -2 0.12326301E-01 0.12663088E+03</pdfrwt>
<totfact> 0.10304692E+04</totfact>
</mgrwt>
</event>
<event>
 6    1  0.6101889E-006  0.1323261E+03  0.7546771E-02  0.1231367E+00
          1   -1    0    0  501    0  0.00000000000E+00  0.00000000000E+00  0.57304071968E+03  0.57304071968E+03  0.00000000000E+00 0. -1.
         -1   -1    0    0    0  501 -0.00000000000E+00 -0.00000000000E+00 -0.27651634706E+02  0.27651634706E+02  0.00000000000E+00 0.  1.
          5    1    1    2  502    0 -0.30166161493E+02 -0.27412240365E+02  0.18050831753E+03  0.18511285995E+03  0.47000000000E+01 0.  1.
         -5    1    1    2    0  502  0.61277745631E+02  0.57689072229E+02  0.17551156720E+03  0.19470334199E+03  0.47000000000E+01 0.  1.
        -11    1    1    2    0    0 -0.55711277560E+02 -0.39912121338E+02  0.67558855942E+02  0.96233688973E+02  0.00000000000E+00 0.  1.
         11    1    1    2    0    0  0.24599693421E+02  0.96352894740E+01  0.12181034430E+03  0.12464246347E+03  0.00000000000E+00 0. -1.
<mgrwt>
<rscale>  0 0.12739879E+03</rscale>
<asrwt>0</asrwt>
<pdfrwt beam="1">  1        1 0.88160102E-01 0.13232607E+03</pdfrwt>
<pdfrwt beam="2">  1       -1 0.42540980E-02 0.13232607E+03</pdfrwt>
<totfact> 0.80453433E+03</totfact>
</mgrwt>
</event>
<event>
 6    1  0.6101889E-006  0.2754301E+03  0.7546771E-02  0.1098211E+00
          1   -1    0    0  501    0  0.00000000000E+00  0.00000000000E+00  0.60350220952E+02  0.60350220952E+02  0.00000000000E+00 0. -1.
         -1   -1    0    0    0  501 -0.00000000000E+00 -0.00000000000E+00 -0.31425624161E+03  0.31425624161E+03  0.00000000000E+00 0.  1.
          5    1    1    2  502    0  0.12832097229E+02 -0.10268136006E+03 -0.57194150601E+02  0.11832744942E+03  0.47000000000E+01 0. -1.
         -5    1    1    2    0  502  0.26673724003E+01  0.36983292587E+02 -0.92433312997E+01  0.38502051628E+02  0.47000000000E+01 0. -1.
        -11    1    1    2    0    0 -0.39121639114E+01  0.37388397580E+02 -0.18304993626E+03  0.18687021289E+03  0.00000000000E+00 0.  1.
         11    1    1    2    0    0 -0.11587305718E+02  0.28309669889E+02 -0.44186025019E+01  0.30906748634E+02  0.00000000000E+00 0. -1.
<mgrwt>
<rscale>  0 0.27543009E+03</rscale>
<asrwt>0</asrwt>
<pdfrwt beam="1">  1        1 0.92846495E-02 0.27543009E+03</pdfrwt>
<pdfrwt beam="2">  1       -1 0.48347114E-01 0.27543009E+03</pdfrwt>
<totfact> 0.30912620E+03</totfact>
</mgrwt>
</event>
<event>
 6    1  0.6101889E-006  0.1628052E+03  0.7546771E-02  0.1189720E+00
         -2   -1    0    0    0  501 -0.00000000000E+00  0.00000000000E+00  0.56098228825E+02  0.56098228825E+02  0.00000000000E+00 0.  1.
          2   -1    0    0  501    0  0.00000000000E+00 -0.00000000000E+00 -0.47152865611E+03  0.47152865611E+03  0.00000000000E+00 0. -1.
          5    1    1    2  502    0  0.22886907599E+02  0.11790916082E+03 -0.24048940406E+03  0.26885614036E+03  0.47000000000E+01 0. -1.
         -5    1    1    2    0  502  0.29311216643E+02 -0.27599373003E+02 -0.52483856840E+02  0.66313784691E+02  0.47000000000E+01 0. -1.
        -11    1    1    2    0    0  0.17318907476E+02  0.85967435013E+00  0.77281991521E+01  0.18984431998E+02  0.00000000000E+00 0.  1.
         11    1    1    2    0    0 -0.69517031718E+02 -0.91169462168E+02 -0.13018536554E+03  0.17347252789E+03  0.00000000000E+00 0. -1.
<mgrwt>
<rscale>  0 0.15909715E+03</rscale>
<asrwt>0</asrwt>
<pdfrwt beam="2">  1        2 0.72542867E-01 0.16280524E+03</pdfrwt>
<pdfrwt beam="1">  1       -2 0.86304971E-02 0.16280524E+03</pdfrwt>
<totfact> 0.54195488E+03</totfact>
</mgrwt>
</event>
<event>
 6    1  0.6101889E-006  0.4138532E+03  0.7546771E-02  0.1039086E+00
         -1   -1    0    0    0  501 -0.00000000000E+00  0.00000000000E+00  0.67598004136E+03  0.67598004136E+03  0.00000000000E+00 0.  1.
          1   -1    0    0  501    0  0.00000000000E+00 -0.00000000000E+00 -0.63343023363E+02  0.63343023363E+02  0.00000000000E+00 0. -1.
          5    1    1    2  502    0 -0.10010642836E+02 -0.16488340417E+03  0.15306201742E+03  0.22524835431E+03  0.47000000000E+01 0. -1.
         -5    1    1    2    0  502  0.18857452273E+02 -0.88952282823E+01  0.11971936452E+03  0.12161227254E+03  0.47000000000E+01 0. -1.
        -11    1    1    2    0    0  0.30273526829E+01  0.13164929354E+03  0.31660740478E+03  0.34290078757E+03  0.00000000000E+00 0.  1.
         11    1    1    2    0    0 -0.11874162120E+02  0.42129338911E+02  0.23248231277E+02  0.49561650301E+02  0.00000000000E+00 0. -1.
<mgrwt>
<rscale>  0 0.41385321E+03</rscale>
<asrwt>0</asrwt>
<pdfrwt beam="2">  1        1 0.97450810E-02 0.41385321E+03</pdfrwt>
<pdfrwt beam="1">  1       -1 0.10399692E+00 0.41385321E+03</pdfrwt>
<totfact> 0.61370493E+02</totfact>
</mgrwt>
</event>
<event>
 6    1  0.6101889E-006  0.1427326E+03  0.7546771E-02  0.1219916E+00
          1   -1    0    0  501    0  0.00000000000E+00  0.00000000000E+00  0.34855084776E+03  0.34855084776E+03  0.00000000000E+00 0. -1.
         -1   -1    0    0    0  501 -0.00000000000E+00 -0.00000000000E+00 -0.51296096421E+02  0.51296096421E+02  0.00000000000E+00 0.  1.
          5    1    1    2  502    0 -0.52759701235E+02  0.29172191264E+02  0.49496580338E+02  0.78144764908E+02  0.47000000000E+01 0. -1.
         -5    1    1    2    0  502  0.57796456595E+02  0.39559551263E+02  0.16717600886E+03  0.18131546109E+03  0.47000000000E+01 0. -1.
        -11    1    1    2    0    0  0.21841200590E+02  0.43998475869E+01  0.53409010456E+02  0.57869846206E+02  0.00000000000E+00 0. -1.
         11    1    1    2    0    0 -0.26877955951E+02 -0.73131590113E+02  0.27173151683E+02  0.82516871978E+02  0.00000000000E+00 0.  1.
<mgrwt>
<rscale>  0 0.13521522E+03</rscale>
<asrwt>0</asrwt>
<pdfrwt beam="1">  1        1 0.53623206E-01 0.14273261E+03</pdfrwt>
<pdfrwt beam="2">  1       -1 0.78917074E-02 0.14273261E+03</pdfrwt>
<totfact> 0.61029303E+03</totfact>
</mgrwt>
</event>
<event>
 6    1  0.6101889E-006  0.1495006E+03  0.7546771E-02  0.1210038E+00
         -1   -1    0    0    0  501 -0.00000000000E+00  0.00000000000E+00  0.27712987730E+02  0.27712987730E+02  0.00000000000E+00 0.  1.
          1   -1    0    0  501    0  0.00000000000E+00 -0.00000000000E+00 -0.73526139892E+03  0.73526139892E+03  0.00000000000E+00 0. -1.
          5    1    1    2  502    0 -0.36961758309E+02  0.26652802599E+02 -0.36318624240E+03  0.36606403830E+03  0.47000000000E+01 0.  1.
         -5    1    1    2    0  502  0.50039394083E+02  0.54309882408E+02 -0.13352802582E+03  0.15266082656E+03  0.47000000000E+01 0.  1.
        -11    1    1    2    0    0  0.15002827693E+02 -0.64874863455E+02 -0.58874993308E+02  0.88882493125E+02  0.00000000000E+00 0.  1.
         11    1    1    2    0    0 -0.28080463468E+02 -0.16087821551E+02 -0.15195914966E+03  0.15536702866E+03  0.00000000000E+00 0. -1.
<mgrwt>
<rscale>  0 0.14247440E+03</rscale>
<asrwt>0</asrwt>
<pdfrwt beam="2">  1        1 0.11311715E+00 0.14950057E+03</pdfrwt>
<pdfrwt beam="1">  1       -1 0.42635362E-02 0.14950057E+03</pdfrwt>
<totfact> 0.56981909E+03</totfact>
</mgrwt>
</event>
<event>
 6    1  0.6101889E-006  0.2890308E+03  0.7546771E-02  0.1090856E+00
          2   -1    0    0  501    0  0.00000000000E+00  0.00000000000E+00  0.86025532182E+03  0.86025532182E+03  0.00000000000E+00 0. -1.
         -2   -1    0    0    0  501 -0.00000000000E+00 -0.00000000000E+00 -0.24277335649E+02  0.24277335649E+02  0.00000000000E+00 0.  1.
          5    1    1    2  502    0  0.16052500250E+02  0.41055381229E+02  0.13810361219E+03  0.14504456140E+03  0.47000000000E+01 0.  1.
         -5    1    1    2    0  502 -0.72671123827E+02 -0.45018028980E+02  0.54964414927E+03  0.55627196226E+03  0.47000000000E+01 0.  1.
        -11    1    1    2    0    0  0.31843311897E+02 -0.41901006438E+02  0.95670467592E+02  0.10919033484E+03  0.00000000000E+00 0. -1.
         11    1    1    2    0    0  0.24775311680E+02  0.45863654190E+02  0.52559757127E+02  0.74025798974E+02  0.00000000000E+00 0.  1.
<mgrwt>
<rscale>  0 0.28903084E+03</rscale>
<asrwt>0</asrwt>
<pdfrwt beam="1">  1        2 0.13234695E+00 0.28903084E+03</pdfrwt>
<pdfrwt beam="2">  1       -2 0.37349754E-02 0.28903084E+03</pdfrwt>
<totfact> 0.98275883E+03</totfact>
</mgrwt>
</event>
<event>
 6    1  0.6101889E-006  0.1354758E+03  0.7546771E-02  0.1231347E+00
          1   -1    0    0  501    0  0.00000000000E+00  0.00000000000E+00  0.66012026075E+03  0.66012026075E+03  0.00000000000E+00 0. -1.
         -1   -1    0    0    0  501 -0.00000000000E+00 -0.00000000000E+00 -0.23647997022E+02  0.23647997022E+02  0.00000000000E+00 0.  1.
          5    1    1    2  502    0 -0.41070747189E+02  0.45581207797E+01  0.14844266671E+03  0.15415867812E+03  0.47000000000E+01 0.  1.
         -5    1    1    2    0  502  0.93208672110E+02 -0.79154373861E+01  0.29347461178E+03  0.30805835237E+03  0.47000000000E+01 0.  1.
        -11    1    1    2    0    0 -0.43707615168E+02  0.27493869773E+02  0.41141231819E+02  0.66021734712E+02  0.00000000000E+00 0.  1.
         11    1    1    2    0    0 -0.84303097527E+01 -0.24136553167E+02  0.15341375342E+03  0.15552949257E+03  0.00000000000E+00 0. -1.
<mgrwt>
<rscale>  0 0.12741185E+03</rscale>
<asrwt>0</asrwt>
<pdfrwt beam="1">  1        1 0.10155695E+00 0.13547584E+03</pdfrwt>
<pdfrwt beam="2">  1       -1 0.36381539E-02 0.13547584E+03</pdfrwt>
<totfact> 0.83482309E+03</totfact>
</mgrwt>
</event>
<event>
 6    1  0.6101889E-006  0.1318436E+03  0.7546771E-02  0.1237425E+00
          1   -1    0    0  501    0  0.00000000000E+00  0.00000000000E+00  0.36167421723E+02  0.36167421723E+02  0.00000000000E+00 0. -1.
         -1   -1    0    0    0  501 -0.00000000000E+00 -0.00000000000E+00 -0.43291619820E+03  0.43291619820E+03  0.00000000000E+00 0.  1.
          5    1    1    2  502    0 -0.26861563020E+02 -0.51649318879E+02 -0.56330804184E+02  0.81144594450E+02  0.47000000000E+01 0.  1.
         -5    1    1    2    0  502 -0.95218015426E+01  0.72526944485E+02 -0.80364278961E+02  0.10877191602E+03  0.47000000000E+01 0.  1.
        -11    1    1    2    0    0 -0.27281689666E+02 -0.25640425710E+02 -0.10550570602E+03  0.11195166825E+03  0.00000000000E+00 0.  1.
         11    1    1    2    0    0  0.63665054229E+02  0.47628001039E+01 -0.15454798731E+03  0.16721544120E+03  0.00000000000E+00 0. -1.
<mgrwt>
<rscale>  0 0.12350439E+03</rscale>
<asrwt>0</asrwt>
<pdfrwt beam="1">  1        1 0.55642187E-02 0.13184360E+03</pdfrwt>
<pdfrwt beam="2">  1       -1 0.66602492E-01 0.13184360E+03</pdfrwt>
<totfact> 0.32636308E+03</totfact>
</mgrwt>
</event>
<event>
 6    1  0.6101889E-006  0.1345473E+03  0.7546771E-02  0.1235016E+00
         -1   -1    0    0    0  501 -0.00000000000E+00  0.00000000000E+00  0.22823451946E+03  0.22823451946E+03  0.00000000000E+00 0.  1.
          1   -1    0    0  501    0  0.00000000000E+00 -0.00000000000E+00 -0.60941184202E+02  0.60941184202E+02  0.00000000000E+00 0. -1.
          5    1    1    2  502    0  0.99086109565E+01 -0.19316412257E+02  0.94201900608E+02  0.96785290368E+02  0.47000000000E+01 0.  1.
         -5    1    1    2    0  502  0.25709283531E+02  0.54057201688E+02 -0.11516704016E+02  0.61138145093E+02  0.47000000000E+01 0.  1.
        -11    1    1    2    0    0  0.14169786547E+02  0.14652800643E+02 -0.12134302224E+01  0.20419594275E+02  0.00000000000E+00 0.  1.
         11    1    1    2    0    0 -0.49787681035E+02 -0.49393590074E+02  0.85821568892E+02  0.11083267393E+03  0.00000000000E+00 0. -1.
<mgrwt>
<rscale>  0 0.12503380E+03</rscale>
<asrwt>0</asrwt>
<pdfrwt beam="2">  1        1 0.93755670E-02 0.13454728E+03</pdfrwt>
<pdfrwt beam="1">  1       -1 0.35113002E-01 0.13454728E+03</pdfrwt>
<totfact> 0.51873063E+03</totfact>
</mgrwt>
</event>
<event>
 6    1  0.6101889E-006  0.1346374E+03  0.7546771E-02  0.1233771E+00
          3   -1    0    0  501    0  0.00000000000E+00  0.00000000000E+00  0.98453261597E+02  0.98453261597E+02  0.00000000000E+00 0. -1.
         -3   -1    0    0    0  501 -0.00000000000E+00 -0.00000000000E+00 -0.15756960566E+03  0.15756960566E+03  0.00000000000E+00 0.  1.
          5    1    1    2  502    0  0.77156180618E+02 -0.22785870069E+02  0.34642722963E+02  0.87718187035E+02  0.47000000000E+01 0. -1.
         -5    1    1    2    0  502 -0.36037338800E+02 -0.56773165070E+01 -0.29297859088E+02  0.47025272542E+02  0.47000000000E+01 0. -1.
        -11    1    1    2    0    0 -0.67565778634E+02  0.72648324211E+01 -0.50300202815E+02  0.84545979419E+02  0.00000000000E+00 0.  1.
         11    1    1    2    0    0  0.26446936817E+02  0.21198354155E+02 -0.14161005127E+02  0.36733428265E+02  0.00000000000E+00 0. -1.
<mgrwt>
<rscale>  0 0.12583418E+03</rscale>
<asrwt>0</asrwt>
<pdfrwt beam="1">  1        3 0.15146656E-01 0.13463741E+03</pdfrwt>
<pdfrwt beam="2">  1       -3 0.24241478E-01 0.13463741E+03</pdfrwt>
<totfact> 0.13323943E+03</totfact>
</mgrwt>
</event>
<event>
 6    1  0.6101889E-006  0.2392066E+03  0.7546771E-02  0.1122811E+00
         -2   -1    0    0    0  501 -0.00000000000E+00  0.00000000000E+00  0.94292835977E+02  0.94292835977E+02  0.00000000000E+00 0. -1.
          2   -1    0    0  501    0  0.00000000000E+00 -0.00000000000E+00 -0.58609230517E+03  0.58609230517E+03  0.00000000000E+00 0.  1.
          5    1    1    2  502    0 -0.35880402649E+02  0.44325275444E+02 -0.40551272874E+02  0.70132938547E+02  0.47000000000E+01 0. -1.
         -5    1    1    2    0  502 -0.16797991783E+03 -0.50297334466E+02 -0.26757236630E+03  0.31994395737E+03  0.47000000000E+01 0. -1.
        -11    1    1    2    0    0  0.27858445225E+02 -0.16259998138E+02  0.34704933468E+01  0.32442639133E+02  0.00000000000E+00 0.  1.
         11    1    1    2    0    0  0.17600187526E+03  0.22232057159E+02 -0.18714632337E+03  0.25786560610E+03  0.00000000000E+00 0. -1.
<mgrwt>
<rscale>  0 0.23552473E+03</rscale>
<asrwt>0</asrwt>
<pdfrwt beam="2">  1        2 0.90168047E-01 0.23920662E+03</pdfrwt>
<pdfrwt beam="1">  1       -2 0.14506590E-01 0.23920662E+03</pdfrwt>
<totfact> 0.18710815E+03</totfact>
</mgrwt>
</event>
<event>
 6    1  0.6101889E-006  0.1706781E+03  0.7546771E-02  0.1183441E+00
          4   -1    0    0  501    0  0.00000000000E+00  0.00000000000E+00  0.43835880197E+03  0.43835880197E+03  0.00000000000E+00 0. -1.
         -4   -1    0    0    0  501 -0.00000000000E+00 -0.00000000000E+00 -0.70276446285E+02  0.70276446285E+02  0.00000000000E+00 0.  1.
          5    1    1    2  502    0 -0.16211643062E+02  0.61222763916E+02  0.16788342542E+03  0.17949367322E+03  0.47000000000E+01 0.  1.
         -5    1    1    2    0  502  0.97531375637E+02  0.21825670379E+02  0.13306445820E+03  0.16648414085E+03  0.47000000000E+01 0.  1.
        -11    1    1    2    0    0 -0.69723873807E+02 -0.14633121783E+02  0.59549508816E+02  0.92853060435E+02  0.00000000000E+00 0. -1.
         11    1    1    2    0    0 -0.11595858767E+02 -0.68415312511E+02  0.75849632448E+01  0.69804373745E+02  0.00000000000E+00 0.  1.
<mgrwt>
<rscale>  0 0.16474555E+03</rscale>
<asrwt>0</asrwt>
<pdfrwt beam="1">  1        4 0.67439814E-01 0.17067812E+03</pdfrwt>
<pdfrwt beam="2">  1       -4 0.10811761E-01 0.17067812E+03</pdfrwt>
<totfact> 0.23824343E+02</totfact>
</mgrwt>
</event>
<event>
 6    1  0.6101889E-006  0.1540863E+03  0.7546771E-02  0.1204006E+00
          1   -1    0    0  501    0  0.00000000000E+00  0.00000000000E+00  0.41503709762E+03  0.41503709762E+03  0.00000000000E+00 0. -1.
         -1   -1    0    0    0  501 -0.00000000000E+00 -0.00000000000E+00 -0.48003514297E+02  0.48003514297E+02  0.00000000000E+00 0.  1.
          5    1    1    2  502    0  0.79231134378E+02 -0.62407543846E+02  0.78797361910E+02  0.12807571365E+03  0.47000000000E+01 0.  1.
         -5    1    1    2    0  502 -0.27088788426E+02 -0.11065965064E+02  0.11911541508E+03  0.12274701688E+03  0.47000000000E+01 0.  1.
        -11    1    1    2    0    0  0.26002868088E+01  0.19814944575E+02  0.11891996577E+03  0.12058752746E+03  0.00000000000E+00 0. -1.
         11    1    1    2    0    0 -0.54742632761E+02  0.53658564335E+02  0.50200840555E+02  0.91630353925E+02  0.00000000000E+00 0.  1.
<mgrwt>
<rscale>  0 0.14716101E+03</rscale>
<asrwt>0</asrwt>
<pdfrwt beam="1">  1        1 0.63851859E-01 0.15408626E+03</pdfrwt>
<pdfrwt beam="2">  1       -1 0.73851563E-02 0.15408626E+03</pdfrwt>
<totfact> 0.54379390E+03</totfact>
</mgrwt>
</event>
<event>
 6    1  0.6101889E-006  0.1312795E+03  0.7546771E-02  0.1239807E+00
         -1   -1    0    0    0  501 -0.00000000000E+00  0.00000000000E+00  0.25406338638E+03  0.25406338638E+03  0.00000000000E+00 0.  1.
          1   -1    0    0  501    0  0.00000000000E+00 -0.00000000000E+00 -0.55239296897E+02  0.55239296897E+02  0.00000000000E+00 0. -1.
          5    1    1    2  502    0 -0.44165442258E+02  0.36994392607E+02  0.65747550353E+02  0.87544284518E+02  0.47000000000E+01 0.  1.
         -5    1    1    2    0  502  0.62514554000E+02 -0.13250104816E+01  0.85045404865E+01  0.63279082827E+02  0.47000000000E+01 0.  1.
        -11    1    1    2    0    0 -0.38924263227E+02 -0.17115882728E+01  0.10913137953E+03  0.11587789177E+03  0.00000000000E+00 0.  1.
         11    1    1    2    0    0  0.20575151486E+02 -0.33957793853E+02  0.15440619108E+02  0.42601424160E+02  0.00000000000E+00 0. -1.
<mgrwt>
<rscale>  0 0.12201623E+03</rscale>
<asrwt>0</asrwt>
<pdfrwt beam="2">  1        1 0.84983535E-02 0.13127953E+03</pdfrwt>
<pdfrwt beam="1">  1       -1 0.39086674E-01 0.13127953E+03</pdfrwt>
<totfact> 0.49039830E+03</totfact>
</mgrwt>
</event>
<event>
 6    1  0.6101889E-006  0.4921538E+03  0.7546771E-02  0.1015847E+00
         -2   -1    0    0    0  501 -0.00000000000E+00  0.00000000000E+00  0.42823001219E+02  0.42823001219E+02  0.00000000000E+00 0.  1.
          2   -1    0    0  501    0  0.00000000000E+00 -0.00000000000E+00 -0.14140496548E+04  0.14140496548E+04  0.00000000000E+00 0. -1.
          5    1    1    2  502    0 -0.24258009852E+02 -0.19308768044E+02 -0.72206715790E+03  0.72274777764E+03  0.47000000000E+01 0. -1.
         -5    1    1    2    0  502  0.26865394293E+02 -0.10964465760E+03 -0.51484688256E+03  0.52709876004E+03  0.47000000000E+01 0.  1.
        -11    1    1    2    0    0  0.46829448367E+01  0.63920522072E+02 -0.12560116907E+03  0.14100856990E+03  0.00000000000E+00 0. -1.
         11    1    1    2    0    0 -0.72903292781E+01  0.65032903573E+02 -0.87114440838E+01  0.66017548471E+02  0.00000000000E+00 0.  1.
<mgrwt>
<rscale>  0 0.49215384E+03</rscale>
<asrwt>0</asrwt>
<pdfrwt beam="2">  1        2 0.21754611E+00 0.49215384E+03</pdfrwt>
<pdfrwt beam="1">  1       -2 0.65881538E-02 0.49215384E+03</pdfrwt>
<totfact> 0.19351106E+03</totfact>
</mgrwt>
</event>
<event>
 6    1  0.6101889E-006  0.1256194E+03  0.7546771E-02  0.1249451E+00
          1   -1    0    0  501    0  0.00000000000E+00  0.00000000000E+00  0.12824104287E+03  0.12824104287E+03  0.00000000000E+00 0. -1.
         -1   -1    0    0    0  501 -0.00000000000E+00 -0.00000000000E+00 -0.97073787252E+02  0.97073787252E+02  0.00000000000E+00 0.  1.
          5    1    1    2  502    0 -0.45095132645E+02  0.36092618540E+02 -0.18318071111E+01  0.57980113993E+02  0.47000000000E+01 0.  1.
         -5    1    1    2    0  502  0.37754913718E+02 -0.46504403133E+02  0.44202751031E+02  0.74592668670E+02  0.47000000000E+01 0.  1.
        -11    1    1    2    0    0 -0.19308431319E+02 -0.29844917826E+02 -0.23886088899E+02  0.42826158863E+02  0.00000000000E+00 0.  1.
         11    1    1    2    0    0  0.26648650246E+02  0.40256702419E+02  0.12682400600E+02  0.49915888598E+02  0.00000000000E+00 0. -1.
<mgrwt>
<rscale>  0 0.11622880E+03</rscale>
<asrwt>0</asrwt>
<pdfrwt beam="1">  1        1 0.19729391E-01 0.12561945E+03</pdfrwt>
<pdfrwt beam="2">  1       -1 0.14934429E-01 0.12561945E+03</pdfrwt>
<totfact> 0.79050033E+03</totfact>
</mgrwt>
</event>
<event>
 6    1  0.6101889E-006  0.1374685E+03  0.7546771E-02  0.1229779E+00
          2   -1    0    0  501    0  0.00000000000E+00  0.00000000000E+00  0.16185083952E+04  0.16185083952E+04  0.00000000000E+00 0. -1.
         -2   -1    0    0    0  501 -0.00000000000E+00 -0.00000000000E+00 -0.10376239348E+02  0.10376239348E+02  0.00000000000E+00 0.  1.
          5    1    1    2  502    0  0.16658245008E+02  0.39152223881E+02  0.71397616734E+03  0.71525831089E+03  0.47000000000E+01 0.  1.
         -5    1    1    2    0  502  0.28638370274E+02 -0.74083631661E+02  0.47211371832E+03  0.47877133765E+03  0.47000000000E+01 0.  1.
        -11    1    1    2    0    0  0.70444295821E+01 -0.16533638502E+02  0.23369492342E+02  0.29480813465E+02  0.00000000000E+00 0.  1.
         11    1    1    2    0    0 -0.52341044865E+02  0.51465046282E+02  0.39867277784E+03  0.40537417253E+03  0.00000000000E+00 0. -1.
<mgrwt>
<rscale>  0 0.12844689E+03</rscale>
<asrwt>0</asrwt>
<pdfrwt beam="1">  1        2 0.24900109E+00 0.13746849E+03</pdfrwt>
<pdfrwt beam="2">  1       -2 0.15963458E-02 0.13746849E+03</pdfrwt>
<totfact> 0.12377880E+04</totfact>
</mgrwt>
</event>
<event>
 6    1  0.6101889E-006  0.1319007E+03  0.7546771E-02  0.1238013E+00
          1   -1    0    0  501    0  0.00000000000E+00  0.00000000000E+00  0.20493949205E+03  0.20493949205E+03  0.00000000000E+00 0. -1.
         -1   -1    0    0    0  501 -0.00000000000E+00 -0.00000000000E+00 -0.71567334631E+02  0.71567334631E+02  0.00000000000E+00 0.  1.
          5    1    1    2  502    0  0.45666875178E+02  0.24964572912E+02  0.11278472771E+03  0.12430276825E+03  0.47000000000E+01 0. -1.
         -5    1    1    2    0  502 -0.10878202928E+02 -0.48778729525E+02  0.14971085825E+01  0.50219827629E+02  0.47000000000E+01 0. -1.
        -11    1    1    2    0    0  0.22596405112E+02  0.34806034678E+02  0.43486455107E+01  0.41724912125E+02  0.00000000000E+00 0. -1.
         11    1    1    2    0    0 -0.57385077362E+02 -0.10991878065E+02  0.14741675608E+02  0.60259318674E+02  0.00000000000E+00 0.  1.
<mgrwt>
<rscale>  0 0.12313522E+03</rscale>
<asrwt>0</asrwt>
<pdfrwt beam="1">  1        1 0.31529152E-01 0.13190071E+03</pdfrwt>
<pdfrwt beam="2">  1       -1 0.11010359E-01 0.13190071E+03</pdfrwt>
<totfact> 0.70656785E+03</totfact>
</mgrwt>
</event>
<event>
 6    1  0.6101889E-006  0.1449295E+03  0.7546771E-02  0.1216539E+00
         -2   -1    0    0    0  501 -0.00000000000E+00  0.00000000000E+00  0.27549179547E+03  0.27549179547E+03  0.00000000000E+00 0. -1.
          2   -1    0    0  501    0  0.00000000000E+00 -0.00000000000E+00 -0.69171328575E+02  0.69171328575E+02  0.00000000000E+00 0.  1.
          5    1    1    2  502    0 -0.16612296213E+02  0.24553776417E+02 -0.19206733363E+02  0.35634883587E+02  0.47000000000E+01 0. -1.
         -5    1    1    2    0  502  0.89687414753E+02 -0.18378053933E+02  0.79477021613E+02  0.12132712885E+03  0.47000000000E+01 0. -1.
        -11    1    1    2    0    0 -0.70122414054E+02  0.31309273998E+02  0.75150753814E+02  0.10744793804E+03  0.00000000000E+00 0.  1.
         11    1    1    2    0    0 -0.29527044859E+01 -0.37484996482E+02  0.70899424829E+02  0.80253173558E+02  0.00000000000E+00 0. -1.
<mgrwt>
<rscale>  0 0.13764125E+03</rscale>
<asrwt>0</asrwt>
<pdfrwt beam="2">  1        2 0.10641743E-01 0.14492952E+03</pdfrwt>
<pdfrwt beam="1">  1       -2 0.42383353E-01 0.14492952E+03</pdfrwt>
<totfact> 0.30427462E+03</totfact>
</mgrwt>
</event>
<event>
 6    1  0.6101889E-006  0.1254420E+03  0.7546771E-02  0.1248637E+00
          2   -1    0    0  501    0  0.00000000000E+00  0.00000000000E+00  0.22323833377E+03  0.22323833377E+03  0.00000000000E+00 0. -1.
         -2   -1    0    0    0  501 -0.00000000000E+00 -0.00000000000E+00 -0.68432976365E+02  0.68432976365E+02  0.00000000000E+00 0.  1.
          5    1    1    2  502    0 -0.25436615748E+02 -0.52997112184E+02  0.13142814727E+03  0.14405264043E+03  0.47000000000E+01 0. -1.
         -5    1    1    2    0  502  0.24362677087E+02  0.42475681011E+02  0.21347188646E+02  0.53623837752E+02  0.47000000000E+01 0. -1.
        -11    1    1    2    0    0 -0.91448377693E+01  0.43165189551E+02 -0.24715683280E+02  0.50573972029E+02  0.00000000000E+00 0.  1.
         11    1    1    2    0    0  0.10218776431E+02 -0.32643758378E+02  0.26745704771E+02  0.43420859923E+02  0.00000000000E+00 0. -1.
<mgrwt>
<rscale>  0 0.11670321E+03</rscale>
<asrwt>0</asrwt>
<pdfrwt beam="1">  1        2 0.34344359E-01 0.12544197E+03</pdfrwt>
<pdfrwt beam="2">  1       -2 0.10528150E-01 0.12544197E+03</pdfrwt>
<totfact> 0.86795923E+03</totfact>
</mgrwt>
</event>
<event>
 6    1  0.6101889E-006  0.1331354E+03  0.7546771E-02  0.1236901E+00
          1   -1    0    0  501    0  0.00000000000E+00  0.00000000000E+00  0.67804657779E+03  0.67804657779E+03  0.00000000000E+00 0. -1.
         -1   -1    0    0    0  501 -0.00000000000E+00 -0.00000000000E+00 -0.19998435616E+02  0.19998435616E+02  0.00000000000E+00 0.  1.
          5    1    1    2  502    0 -0.28691273396E+02  0.83971497579E+02  0.23646654436E+03  0.25261218929E+03  0.47000000000E+01 0. -1.
         -5    1    1    2    0  502  0.20340438688E+02 -0.38900568902E+02  0.12953837113E+03  0.13685491333E+03  0.47000000000E+01 0. -1.
        -11    1    1    2    0    0 -0.24132404553E+02 -0.56606999696E+02  0.22403470448E+03  0.23233224954E+03  0.00000000000E+00 0.  1.
         11    1    1    2    0    0  0.32483239261E+02  0.11536071019E+02  0.68008522203E+02  0.76245661251E+02  0.00000000000E+00 0. -1.
<mgrwt>
<rscale>  0 0.12383535E+03</rscale>
<asrwt>0</asrwt>
<pdfrwt beam="1">  1        1 0.10431484E+00 0.13313537E+03</pdfrwt>
<pdfrwt beam="2">  1       -1 0.30766829E-02 0.13313537E+03</pdfrwt>
<totfact> 0.10257508E+04</totfact>
</mgrwt>
</event>
<event>
 6    1  0.6101889E-006  0.1626150E+03  0.7546771E-02  0.1193277E+00
         -4   -1    0    0    0  501 -0.00000000000E+00  0.00000000000E+00  0.16460220343E+03  0.16460220343E+03  0.00000000000E+00 0.  1.
          4   -1    0    0  501    0  0.00000000000E+00 -0.00000000000E+00 -0.16194751960E+03  0.16194751960E+03  0.00000000000E+00 0. -1.
          5    1    1    2  502    0  0.91488149402E+02  0.63998327466E+01 -0.34353652710E+02  0.98047451750E+02  0.47000000000E+01 0. -1.
         -5    1    1    2    0  502 -0.18732386413E+02  0.68087898703E+02 -0.28078217742E+02  0.76140268992E+02  0.47000000000E+01 0. -1.
        -11    1    1    2    0    0 -0.92039550640E+02 -0.56485061535E+02  0.37817123574E+02  0.11442017258E+03  0.00000000000E+00 0. -1.
         11    1    1    2    0    0  0.19283787652E+02 -0.18002669915E+02  0.27269430710E+02  0.37941829707E+02  0.00000000000E+00 0.  1.
<mgrwt>
<rscale>  0 0.15600964E+03</rscale>
<asrwt>0</asrwt>
<pdfrwt beam="2">  1        4 0.24915003E-01 0.16261496E+03</pdfrwt>
<pdfrwt beam="1">  1       -4 0.25323416E-01 0.16261496E+03</pdfrwt>
<totfact> 0.37886993E+02</totfact>
</mgrwt>
</event>
<event>
 6    1  0.6101889E-006  0.1639633E+03  0.7546771E-02  0.1192054E+00
         -2   -1    0    0    0  501 -0.00000000000E+00  0.00000000000E+00  0.80734864965E+02  0.80734864965E+02  0.00000000000E+00 0.  1.
          2   -1    0    0  501    0  0.00000000000E+00 -0.00000000000E+00 -0.37202657574E+03  0.37202657574E+03  0.00000000000E+00 0. -1.
          5    1    1    2  502    0 -0.36638104530E+02  0.18593885538E+02 -0.14205048966E+03  0.14794767621E+03  0.47000000000E+01 0.  1.
         -5    1    1    2    0  502 -0.24609685654E+02 -0.10523607113E+03 -0.12385453762E+03  0.16444544318E+03  0.47000000000E+01 0.  1.
        -11    1    1    2    0    0  0.67254673392E+02  0.50168874172E+02 -0.48362145809E+02  0.96845258924E+02  0.00000000000E+00 0. -1.
         11    1    1    2    0    0 -0.60068832083E+01  0.36473311425E+02  0.22975462304E+02  0.43523062395E+02  0.00000000000E+00 0.  1.
<mgrwt>
<rscale>  0 0.15706230E+03</rscale>
<asrwt>0</asrwt>
<pdfrwt beam="2">  1        2 0.57234857E-01 0.16396334E+03</pdfrwt>
<pdfrwt beam="1">  1       -2 0.12420749E-01 0.16396334E+03</pdfrwt>
<totfact> 0.39359778E+03</totfact>
</mgrwt>
</event>
<event>
 6    1  0.6101889E-006  0.1779032E+03  0.7546771E-02  0.1176930E+00
         -2   -1    0    0    0  501 -0.00000000000E+00  0.00000000000E+00  0.74356009335E+02  0.74356009335E+02  0.00000000000E+00 0.  1.
          2   -1    0    0  501    0  0.00000000000E+00 -0.00000000000E+00 -0.36851392728E+03  0.36851392728E+03  0.00000000000E+00 0. -1.
          5    1    1    2  502    0  0.17553828118E+02  0.59560865637E+02 -0.29622301500E+02  0.68957989698E+02  0.47000000000E+01 0.  1.
         -5    1    1    2    0  502 -0.99150600691E+02  0.37220012357E+02 -0.15163989751E+03  0.18502140269E+03  0.47000000000E+01 0.  1.
        -11    1    1    2    0    0  0.57512931802E+02 -0.87669423732E+02 -0.12264668571E+03  0.16135635933E+03  0.00000000000E+00 0. -1.
         11    1    1    2    0    0  0.24083840771E+02 -0.91114542623E+01  0.97509667668E+01  0.27534184897E+02  0.00000000000E+00 0.  1.
<mgrwt>
<rscale>  0 0.17088276E+03</rscale>
<asrwt>0</asrwt>
<pdfrwt beam="2">  1        2 0.56694451E-01 0.17790320E+03</pdfrwt>
<pdfrwt beam="1">  1       -2 0.11439386E-01 0.17790320E+03</pdfrwt>
<totfact> 0.45546856E+03</totfact>
</mgrwt>
</event>
<event>
 6    1  0.6101889E-006  0.1913942E+03  0.7546771E-02  0.1162152E+00
          2   -1    0    0  501    0  0.00000000000E+00  0.00000000000E+00  0.90352619606E+03  0.90352619606E+03  0.00000000000E+00 0. -1.
         -2   -1    0    0    0  501 -0.00000000000E+00 -0.00000000000E+00 -0.39436577904E+02  0.39436577904E+02  0.00000000000E+00 0.  1.
          5    1    1    2  502    0 -0.50874536320E+02  0.10921254238E+03  0.25701981788E+03  0.28389588698E+03  0.47000000000E+01 0.  1.
         -5    1    1    2    0  502 -0.47704219758E+02 -0.29367833827E+01  0.33158089430E+03  0.33504073894E+03  0.47000000000E+01 0.  1.
        -11    1    1    2    0    0  0.80344221395E+02 -0.66170358853E+02  0.10465193256E+03  0.14759992307E+03  0.00000000000E+00 0. -1.
         11    1    1    2    0    0  0.18234534682E+02 -0.40105400146E+02  0.17083697341E+03  0.17642622498E+03  0.00000000000E+00 0.  1.
<mgrwt>
<rscale>  0 0.18596492E+03</rscale>
<asrwt>0</asrwt>
<pdfrwt beam="1">  1        2 0.13900401E+00 0.19139422E+03</pdfrwt>
<pdfrwt beam="2">  1       -2 0.60671665E-02 0.19139422E+03</pdfrwt>
<totfact> 0.43433316E+03</totfact>
</mgrwt>
</event>
<event>
 6    1  0.6101889E-006  0.1670331E+03  0.7546771E-02  0.1188032E+00
          1   -1    0    0  501    0  0.00000000000E+00  0.00000000000E+00  0.17326675109E+02  0.17326675109E+02  0.00000000000E+00 0. -1.
         -1   -1    0    0    0  501 -0.00000000000E+00 -0.00000000000E+00 -0.14078804582E+04  0.14078804582E+04  0.00000000000E+00 0.  1.
          5    1    1    2  502    0 -0.35785555880E+02 -0.11181858320E+03 -0.33812704544E+03  0.35796087833E+03  0.47000000000E+01 0.  1.
         -5    1    1    2    0  502  0.25613877159E+02  0.14973402236E+01 -0.31892835868E+03  0.31999328227E+03  0.47000000000E+01 0.  1.
        -11    1    1    2    0    0  0.40231305872E+02  0.10385301352E+03 -0.60114645234E+03  0.61137636816E+03  0.00000000000E+00 0.  1.
         11    1    1    2    0    0 -0.30059627150E+02  0.64682294580E+01 -0.13235192660E+03  0.13587660450E+03  0.00000000000E+00 0. -1.
<mgrwt>
<rscale>  0 0.16058983E+03</rscale>
<asrwt>0</asrwt>
<pdfrwt beam="1">  1        1 0.26656417E-02 0.16703305E+03</pdfrwt>
<pdfrwt beam="2">  1       -1 0.21659704E+00 0.16703305E+03</pdfrwt>
<totfact> 0.52015269E+02</totfact>
</mgrwt>
</event>
<event>
 6    1  0.6101889E-006  0.1260647E+03  0.7546771E-02  0.1248680E+00
         -1   -1    0    0    0  501 -0.00000000000E+00  0.00000000000E+00  0.14996605851E+03  0.14996605851E+03  0.00000000000E+00 0.  1.
          1   -1    0    0  501    0  0.00000000000E+00 -0.00000000000E+00 -0.79988241524E+02  0.79988241524E+02  0.00000000000E+00 0. -1.
          5    1    1    2  502    0 -0.15127004995E+02  0.36940284694E+02  0.56225048120E+02  0.69114086477E+02  0.47000000000E+01 0.  1.
         -5    1    1    2    0  502  0.21089616462E+02 -0.52228851608E+02 -0.23368396778E+02  0.61162053847E+02  0.47000000000E+01 0.  1.
        -11    1    1    2    0    0 -0.36693696693E+01  0.38373045198E+02  0.57213873191E+02  0.68988275504E+02  0.00000000000E+00 0.  1.
         11    1    1    2    0    0 -0.22932417972E+01 -0.23084478284E+02 -0.20092707551E+02  0.30689884202E+02  0.00000000000E+00 0. -1.
<mgrwt>
<rscale>  0 0.11667831E+03</rscale>
<asrwt>0</asrwt>
<pdfrwt beam="2">  1        1 0.12305883E-01 0.12606472E+03</pdfrwt>
<pdfrwt beam="1">  1       -1 0.23071701E-01 0.12606472E+03</pdfrwt>
<totfact> 0.72668129E+03</totfact>
</mgrwt>
</event>
<event>
 6    1  0.6101889E-006  0.1297791E+03  0.7546771E-02  0.1238826E+00
         -4   -1    0    0    0  501 -0.00000000000E+00  0.00000000000E+00  0.52246361201E+02  0.52246361201E+02  0.00000000000E+00 0.  1.
          4   -1    0    0  501    0  0.00000000000E+00 -0.00000000000E+00 -0.36465911909E+03  0.36465911909E+03  0.00000000000E+00 0. -1.
          5    1    1    2  502    0  0.41053338287E+02  0.26484222167E+02 -0.98376664347E+02  0.10994020510E+03  0.47000000000E+01 0. -1.
         -5    1    1    2    0  502 -0.75953843649E+02 -0.26338153836E+02 -0.18143372104E+03  0.19850181320E+03  0.47000000000E+01 0. -1.
        -11    1    1    2    0    0  0.59308620031E+02 -0.18203804644E+01  0.91827050918E+01  0.60042886905E+02  0.00000000000E+00 0.  1.
         11    1    1    2    0    0 -0.24408114670E+02  0.16743121334E+01 -0.41785077592E+02  0.48420575092E+02  0.00000000000E+00 0. -1.
<mgrwt>
<rscale>  0 0.12262635E+03</rscale>
<asrwt>0</asrwt>
<pdfrwt beam="2">  1        4 0.56101402E-01 0.12977915E+03</pdfrwt>
<pdfrwt beam="1">  1       -4 0.80379018E-02 0.12977915E+03</pdfrwt>
<totfact> 0.55038467E+02</totfact>
</mgrwt>
</event>
<event>
 6    1  0.6101889E-006  0.1390437E+03  0.7546771E-02  0.1226959E+00
         -2   -1    0    0    0  501 -0.00000000000E+00  0.00000000000E+00  0.44743319482E+02  0.44743319482E+02  0.00000000000E+00 0.  1.
          2   -1    0    0  501    0  0.00000000000E+00 -0.00000000000E+00 -0.34089793173E+03  0.34089793173E+03  0.00000000000E+00 0. -1.
          5    1    1    2  502    0 -0.43039060029E+02 -0.62941804614E+01 -0.11565784390E+03  0.12365599157E+03  0.47000000000E+01 0. -1.
         -5    1    1    2    0  502  0.63350879505E+02 -0.51143712897E+02 -0.64848594861E+02  0.10419425876E+03  0.47000000000E+01 0. -1.
        -11    1    1    2    0    0 -0.38708606320E+02  0.48595089772E+02 -0.12158072880E+03  0.13653465703E+03  0.00000000000E+00 0. -1.
         11    1    1    2    0    0  0.18396786845E+02  0.88428035872E+01  0.59325553157E+01  0.21256343855E+02  0.00000000000E+00 0.  1.
<mgrwt>
<rscale>  0 0.13033517E+03</rscale>
<asrwt>0</asrwt>
<pdfrwt beam="2">  1        2 0.52445838E-01 0.13904374E+03</pdfrwt>
<pdfrwt beam="1">  1       -2 0.68835873E-02 0.13904374E+03</pdfrwt>
<totfact> 0.10785272E+04</totfact>
</mgrwt>
</event>
<event>
 6    1  0.6101889E-006  0.1627491E+03  0.7546771E-02  0.1192836E+00
         -2   -1    0    0    0  501 -0.00000000000E+00  0.00000000000E+00  0.31204009808E+02  0.31204009808E+02  0.00000000000E+00 0.  1.
          2   -1    0    0  501    0  0.00000000000E+00 -0.00000000000E+00 -0.75629231549E+03  0.75629231549E+03  0.00000000000E+00 0. -1.
          5    1    1    2  502    0  0.25259190503E+01 -0.65364642354E+02 -0.44366540069E+03  0.44848633704E+03  0.47000000000E+01 0. -1.
         -5    1    1    2    0  502  0.91478290215E+00 -0.38803255113E+02 -0.22137228594E+02  0.44929682004E+02  0.47000000000E+01 0. -1.
        -11    1    1    2    0    0 -0.32947303861E+02  0.48780455681E+01 -0.85623708618E+02  0.91873498017E+02  0.00000000000E+00 0.  1.
         11    1    1    2    0    0  0.29506601908E+02  0.99289851899E+02 -0.17366196778E+03  0.20220680824E+03  0.00000000000E+00 0. -1.
<mgrwt>
<rscale>  0 0.15638842E+03</rscale>
<asrwt>0</asrwt>
<pdfrwt beam="2">  1        2 0.11635267E+00 0.16274913E+03</pdfrwt>
<pdfrwt beam="1">  1       -2 0.48006168E-02 0.16274913E+03</pdfrwt>
<totfact> 0.77224547E+03</totfact>
</mgrwt>
</event>
<event>
 6    1  0.6101889E-006  0.4501316E+03  0.7546771E-02  0.1027683E+00
         -2   -1    0    0    0  501 -0.00000000000E+00  0.00000000000E+00  0.20294430621E+03  0.20294430621E+03  0.00000000000E+00 0.  1.
          2   -1    0    0  501    0  0.00000000000E+00 -0.00000000000E+00 -0.24959864293E+03  0.24959864293E+03  0.00000000000E+00 0. -1.
          5    1    1    2  502    0 -0.86926219022E+02 -0.11632768406E+03 -0.13572426991E+03  0.19882521237E+03  0.47000000000E+01 0.  1.
         -5    1    1    2    0  502 -0.35096909711E+02  0.29352319464E+02 -0.17200475644E+02  0.49104970130E+02  0.47000000000E+01 0.  1.
        -11    1    1    2    0    0  0.55576826421E+02  0.37899654731E+02 -0.33506346069E+01  0.67352759528E+02  0.00000000000E+00 0. -1.
         11    1    1    2    0    0  0.66446302311E+02  0.49075709866E+02  0.10962104344E+03  0.13726000712E+03  0.00000000000E+00 0.  1.
<mgrwt>
<rscale>  0 0.45013164E+03</rscale>
<asrwt>0</asrwt>
<pdfrwt beam="2">  1        2 0.38399791E-01 0.45013164E+03</pdfrwt>
<pdfrwt beam="1">  1       -2 0.31222201E-01 0.45013164E+03</pdfrwt>
<totfact> 0.12788199E+03</totfact>
</mgrwt>
</event>
<event>
 6    1  0.6101889E-006  0.1383984E+03  0.7546771E-02  0.1228861E+00
          1   -1    0    0  501    0  0.00000000000E+00  0.00000000000E+00  0.44476236977E+03  0.44476236977E+03  0.00000000000E+00 0. -1.
         -1   -1    0    0    0  501 -0.00000000000E+00 -0.00000000000E+00 -0.51662368400E+02  0.51662368400E+02  0.00000000000E+00 0.  1.
          5    1    1    2  502    0 -0.84226572225E+00  0.44863565342E+02  0.12739656768E+03  0.13514963693E+03  0.47000000000E+01 0.  1.
         -5    1    1    2    0  502 -0.47229924196E+02 -0.80095920646E+02  0.23413618561E+03  0.25196798537E+03  0.47000000000E+01 0.  1.
        -11    1    1    2    0    0  0.60807687428E+01  0.56163751508E+02  0.25558985942E+02  0.62004874763E+02  0.00000000000E+00 0. -1.
         11    1    1    2    0    0  0.41991421175E+02 -0.20931396204E+02  0.60082621454E+01  0.47302241103E+02  0.00000000000E+00 0.  1.
<mgrwt>
<rscale>  0 0.12905737E+03</rscale>
<asrwt>0</asrwt>
<pdfrwt beam="1">  1        1 0.68424977E-01 0.13839842E+03</pdfrwt>
<pdfrwt beam="2">  1       -1 0.79480570E-02 0.13839842E+03</pdfrwt>
<totfact> 0.44319580E+03</totfact>
</mgrwt>
</event>
<event>
 6    1  0.6101889E-006  0.1254842E+03  0.7546771E-02  0.1241169E+00
         -1   -1    0    0    0  501 -0.00000000000E+00  0.00000000000E+00  0.20524042119E+02  0.20524042119E+02  0.00000000000E+00 0.  1.
          1   -1    0    0  501    0  0.00000000000E+00 -0.00000000000E+00 -0.67823088822E+03  0.67823088822E+03  0.00000000000E+00 0. -1.
          5    1    1    2  502    0 -0.57179736541E+02  0.16521386644E+02 -0.24298697322E+03  0.25021438337E+03  0.47000000000E+01 0.  1.
         -5    1    1    2    0  502  0.61224514515E+02 -0.62220253155E+01 -0.14592146348E+03  0.15843711144E+03  0.47000000000E+01 0.  1.
        -11    1    1    2    0    0  0.47060661770E+02  0.17614389480E+02 -0.14027229159E+03  0.14900096775E+03  0.00000000000E+00 0.  1.
         11    1    1    2    0    0 -0.51105439744E+02 -0.27913750809E+02 -0.12852611781E+03  0.14110246778E+03  0.00000000000E+00 0. -1.
<mgrwt>
<rscale>  0 0.12117663E+03</rscale>
<asrwt>0</asrwt>
<pdfrwt beam="2">  1        1 0.10434321E+00 0.12548415E+03</pdfrwt>
<pdfrwt beam="1">  1       -1 0.31575452E-02 0.12548415E+03</pdfrwt>
<totfact> 0.98342329E+03</totfact>
</mgrwt>
</event>
<event>
 6    1  0.6101889E-006  0.1358850E+03  0.7546771E-02  0.1232652E+00
          2   -1    0    0  501    0  0.00000000000E+00  0.00000000000E+00  0.34820501490E+03  0.34820501490E+03  0.00000000000E+00 0. -1.
         -2   -1    0    0    0  501 -0.00000000000E+00 -0.00000000000E+00 -0.41058119182E+02  0.41058119182E+02  0.00000000000E+00 0.  1.
          5    1    1    2  502    0 -0.36847367155E+02 -0.39491082679E+02  0.39725619556E+02  0.67212267678E+02  0.47000000000E+01 0. -1.
         -5    1    1    2    0  502  0.70661091930E+02 -0.16850079873E+01  0.15297939208E+03  0.16858414387E+03  0.47000000000E+01 0. -1.
        -11    1    1    2    0    0 -0.19656474108E+02  0.15471231938E+02  0.12086493169E+03  0.12342636552E+03  0.00000000000E+00 0. -1.
         11    1    1    2    0    0 -0.14157250668E+02  0.25704858728E+02 -0.64230476107E+01  0.30040357010E+02  0.00000000000E+00 0.  1.
<mgrwt>
<rscale>  0 0.12655944E+03</rscale>
<asrwt>0</asrwt>
<pdfrwt beam="1">  1        2 0.53570000E-01 0.13588497E+03</pdfrwt>
<pdfrwt beam="2">  1       -2 0.63166339E-02 0.13588497E+03</pdfrwt>
<totfact> 0.12001587E+04</totfact>
</mgrwt>
</event>
<event>
 6    1  0.6101889E-006  0.1418350E+03  0.7546771E-02  0.1223261E+00
         -1   -1    0    0    0  501 -0.00000000000E+00  0.00000000000E+00  0.22770189553E+03  0.22770189553E+03  0.00000000000E+00 0.  1.
          1   -1    0    0  501    0  0.00000000000E+00 -0.00000000000E+00 -0.14654811565E+03  0.14654811565E+03  0.00000000000E+00 0. -1.
          5    1    1    2  502    0 -0.21113675736E+02  0.91686718494E+02 -0.47935759458E+02  0.10569848006E+03  0.47000000000E+01 0.  1.
         -5    1    1    2    0  502 -0.21397277710E+02 -0.39832238490E+02 -0.44397771021E+02  0.63542920834E+02  0.47000000000E+01 0.  1.
        -11    1    1    2    0    0  0.41783017631E+02 -0.29466051928E+02  0.17523388760E+03  0.18254036305E+03  0.00000000000E+00 0.  1.
         11    1    1    2    0    0  0.72793581428E+00 -0.22388428075E+02 -0.17465772467E+01  0.22468247246E+02  0.00000000000E+00 0. -1.
<mgrwt>
<rscale>  0 0.13286811E+03</rscale>
<asrwt>0</asrwt>
<pdfrwt beam="2">  1        1 0.22545864E-01 0.14183501E+03</pdfrwt>
<pdfrwt beam="1">  1       -1 0.35031061E-01 0.14183501E+03</pdfrwt>
<totfact> 0.16728509E+03</totfact>
</mgrwt>
</event>
<event>
 6    1  0.6101889E-006  0.1289142E+03  0.7546771E-02  0.1244486E+00
          3   -1    0    0  501    0  0.00000000000E+00  0.00000000000E+00  0.48349602031E+03  0.48349602031E+03  0.00000000000E+00 0. -1.
         -3   -1    0    0    0  501 -0.00000000000E+00 -0.00000000000E+00 -0.69091094692E+02  0.69091094692E+02  0.00000000000E+00 0.  1.
          5    1    1    2  502    0 -0.75573111501E+02  0.13516618519E+02  0.27125537110E+03  0.28194957086E+03  0.47000000000E+01 0. -1.
         -5    1    1    2    0  502  0.51648123761E+02 -0.33795487135E+00  0.16589771338E+03  0.17381537391E+03  0.47000000000E+01 0.  1.
        -11    1    1    2    0    0 -0.29418185226E+02  0.15808869360E+02 -0.85269353810E+01  0.34468225940E+02  0.00000000000E+00 0. -1.
         11    1    1    2    0    0  0.53343172965E+02 -0.28987533008E+02 -0.14221223481E+02  0.62353944295E+02  0.00000000000E+00 0.  1.
<mgrwt>
<rscale>  0 0.11916170E+03</rscale>
<asrwt>0</asrwt>
<pdfrwt beam="1">  1        3 0.74384001E-01 0.12891418E+03</pdfrwt>
<pdfrwt beam="2">  1       -3 0.10629400E-01 0.12891418E+03</pdfrwt>
<totfact> 0.26976841E+02</totfact>
</mgrwt>
</event>
<event>
 6    1  0.6101889E-006  0.1912065E+03  0.7546771E-02  0.1177231E+00
         -2   -1    0    0    0  501 -0.00000000000E+00  0.00000000000E+00  0.18544598645E+02  0.18544598645E+02  0.00000000000E+00 0.  1.
          2   -1    0    0  501    0  0.00000000000E+00 -0.00000000000E+00 -0.13156112325E+04  0.13156112325E+04  0.00000000000E+00 0. -1.
          5    1    1    2  502    0 -0.68865617134E+02 -0.46618041836E+02 -0.38205425674E+03  0.39102846462E+03  0.47000000000E+01 0. -1.
         -5    1    1    2    0  502  0.10338084821E+03 -0.27333141141E+02 -0.40238783355E+03  0.41638054586E+03  0.47000000000E+01 0.  1.
        -11    1    1    2    0    0 -0.58131980249E+02  0.64054544791E+02 -0.46185232477E+03  0.46988283830E+03  0.00000000000E+00 0. -1.
         11    1    1    2    0    0  0.23616749176E+02  0.98966381860E+01 -0.50772218782E+02  0.56863982353E+02  0.00000000000E+00 0.  1.
<mgrwt>
<rscale>  0 0.17059307E+03</rscale>
<asrwt>0</asrwt>
<pdfrwt beam="2">  1        2 0.20240169E+00 0.19120648E+03</pdfrwt>
<pdfrwt beam="1">  1       -2 0.28530158E-02 0.19120648E+03</pdfrwt>
<totfact> 0.77584414E+03</totfact>
</mgrwt>
</event>
<event>
 6    1  0.6101889E-006  0.1297486E+03  0.7546771E-02  0.1241808E+00
         -2   -1    0    0    0  501 -0.00000000000E+00  0.00000000000E+00  0.39060397669E+02  0.39060397669E+02  0.00000000000E+00 0.  1.
          2   -1    0    0  501    0  0.00000000000E+00 -0.00000000000E+00 -0.33147509189E+03  0.33147509189E+03  0.00000000000E+00 0. -1.
          5    1    1    2  502    0  0.62598676855E+02 -0.41791933524E+02 -0.15693928143E+03  0.17411831641E+03  0.47000000000E+01 0. -1.
         -5    1    1    2    0  502 -0.34977825426E+02  0.20674604070E+02 -0.20649164525E+02  0.45818833688E+02  0.47000000000E+01 0. -1.
        -11    1    1    2    0    0  0.14230878667E+02 -0.20954942790E+02 -0.50795737625E+01  0.25834658980E+02  0.00000000000E+00 0.  1.
         11    1    1    2    0    0 -0.41851730097E+02  0.42072272245E+02 -0.10974667450E+03  0.12476368049E+03  0.00000000000E+00 0. -1.
<mgrwt>
<rscale>  0 0.12078490E+03</rscale>
<asrwt>0</asrwt>
<pdfrwt beam="2">  1        2 0.50996165E-01 0.12974858E+03</pdfrwt>
<pdfrwt beam="1">  1       -2 0.60092923E-02 0.12974858E+03</pdfrwt>
<totfact> 0.13589061E+04</totfact>
</mgrwt>
</event>
<event>
 6    1  0.6101889E-006  0.3789675E+03  0.7546771E-02  0.1051316E+00
          1   -1    0    0  501    0  0.00000000000E+00  0.00000000000E+00  0.62826059325E+03  0.62826059325E+03  0.00000000000E+00 0. -1.
         -1   -1    0    0    0  501 -0.00000000000E+00 -0.00000000000E+00 -0.57148408887E+02  0.57148408887E+02  0.00000000000E+00 0.  1.
          5    1    1    2  502    0 -0.79305035624E+02 -0.83056578096E+02  0.28213167058E+03  0.30464414221E+03  0.47000000000E+01 0.  1.
         -5    1    1    2    0  502  0.16224653803E+02  0.10343099452E+02  0.23969399490E+03  0.24051095669E+03  0.47000000000E+01 0.  1.
        -11    1    1    2    0    0  0.36245748356E+02  0.17072728327E+02 -0.22175840233E+02  0.45793014931E+02  0.00000000000E+00 0.  1.
         11    1    1    2    0    0  0.26834633464E+02  0.55640750318E+02  0.71462359124E+02  0.94460888312E+02  0.00000000000E+00 0. -1.
<mgrwt>
<rscale>  0 0.37896751E+03</rscale>
<asrwt>0</asrwt>
<pdfrwt beam="1">  1        1 0.96655471E-01 0.37896751E+03</pdfrwt>
<pdfrwt beam="2">  1       -1 0.87920634E-02 0.37896751E+03</pdfrwt>
<totfact> 0.24620078E+03</totfact>
</mgrwt>
</event>
<event>
 6    1  0.6101889E-006  0.1332139E+03  0.7546771E-02  0.1235847E+00
         -2   -1    0    0    0  501 -0.00000000000E+00  0.00000000000E+00  0.10331311004E+03  0.10331311004E+03  0.00000000000E+00 0.  1.
          2   -1    0    0  501    0  0.00000000000E+00 -0.00000000000E+00 -0.13402408927E+03  0.13402408927E+03  0.00000000000E+00 0. -1.
          5    1    1    2  502    0 -0.64421947161E+02 -0.58415396930E+02  0.99168554499E+01  0.87652609183E+02  0.47000000000E+01 0.  1.
         -5    1    1    2    0  502  0.28079086176E+02  0.30122136603E+02 -0.19782384700E+02  0.45926146566E+02  0.47000000000E+01 0.  1.
        -11    1    1    2    0    0  0.54849347363E+02  0.10647304514E+02  0.16715067006E+02  0.58319889100E+02  0.00000000000E+00 0.  1.
         11    1    1    2    0    0 -0.18506486378E+02  0.17645955813E+02 -0.37560516989E+02  0.45438554456E+02  0.00000000000E+00 0. -1.
<mgrwt>
<rscale>  0 0.12450350E+03</rscale>
<asrwt>0</asrwt>
<pdfrwt beam="2">  1        2 0.20619090E-01 0.13321395E+03</pdfrwt>
<pdfrwt beam="1">  1       -2 0.15894325E-01 0.13321395E+03</pdfrwt>
<totfact> 0.78635267E+03</totfact>
</mgrwt>
</event>
<event>
 6    1  0.6101889E-006  0.1803425E+03  0.7546771E-02  0.1172912E+00
          2   -1    0    0  501    0  0.00000000000E+00  0.00000000000E+00  0.25536844909E+03  0.25536844909E+03  0.00000000000E+00 0. -1.
         -2   -1    0    0    0  501 -0.00000000000E+00 -0.00000000000E+00 -0.11388021160E+03  0.11388021160E+03  0.00000000000E+00 0.  1.
          5    1    1    2  502    0  0.11647972819E+01  0.40924524593E+02 -0.32747893052E+01  0.41339904582E+02  0.47000000000E+01 0. -1.
         -5    1    1    2    0  502  0.12767935534E+03 -0.23378946792E+02  0.95492806575E+02  0.16121277568E+03  0.47000000000E+01 0. -1.
        -11    1    1    2    0    0 -0.74915084666E+01 -0.15562140991E+02  0.41648908488E+02  0.45088075026E+02  0.00000000000E+00 0. -1.
         11    1    1    2    0    0 -0.12135264416E+03 -0.19834368088E+01  0.76213117350E+01  0.12160790541E+03  0.00000000000E+00 0.  1.
<mgrwt>
<rscale>  0 0.17482046E+03</rscale>
<asrwt>0</asrwt>
<pdfrwt beam="1">  1        2 0.39287454E-01 0.18034252E+03</pdfrwt>
<pdfrwt beam="2">  1       -2 0.17520033E-01 0.18034252E+03</pdfrwt>
<totfact> 0.33616593E+03</totfact>
</mgrwt>
</event>
<event>
 6    1  0.6101889E-006  0.1205117E+03  0.7546771E-02  0.1252707E+00
          2   -1    0    0  501    0  0.00000000000E+00  0.00000000000E+00  0.18766189505E+04  0.18766189505E+04  0.00000000000E+00 0. -1.
         -2   -1    0    0    0  501 -0.00000000000E+00 -0.00000000000E+00 -0.95376862436E+01  0.95376862436E+01  0.00000000000E+00 0.  1.
          5    1    1    2  502    0  0.37740248704E+02 -0.19931808105E+01  0.11940280347E+04  0.11946352317E+04  0.47000000000E+01 0. -1.
         -5    1    1    2    0  502 -0.38108781590E+02  0.37321135853E+02  0.34809055210E+03  0.35218499240E+03  0.47000000000E+01 0.  1.
        -11    1    1    2    0    0 -0.29123377347E+02 -0.54814599455E+02  0.19406809773E+03  0.20375288459E+03  0.00000000000E+00 0.  1.
         11    1    1    2    0    0  0.29491910233E+02  0.19486644413E+02  0.13089457976E+03  0.13558352809E+03  0.00000000000E+00 0. -1.
<mgrwt>
<rscale>  0 0.11435722E+03</rscale>
<asrwt>0</asrwt>
<pdfrwt beam="1">  1        2 0.28871031E+00 0.12051170E+03</pdfrwt>
<pdfrwt beam="2">  1       -2 0.14673378E-02 0.12051170E+03</pdfrwt>
<totfact> 0.10262243E+04</totfact>
</mgrwt>
</event>
<event>
 6    1  0.6101889E-006  0.2735536E+03  0.7546771E-02  0.1101510E+00
         -1   -1    0    0    0  501 -0.00000000000E+00  0.00000000000E+00  0.63695449445E+03  0.63695449445E+03  0.00000000000E+00 0.  1.
          1   -1    0    0  501    0  0.00000000000E+00 -0.00000000000E+00 -0.11095655420E+03  0.11095655420E+03  0.00000000000E+00 0. -1.
          5    1    1    2  502    0  0.56065959102E+01 -0.17076722388E+02  0.92379068870E+02  0.94228608875E+02  0.47000000000E+01 0. -1.
         -5    1    1    2    0  502 -0.10073630705E+03 -0.20687560553E+03  0.18423804433E+03  0.29480682947E+03  0.47000000000E+01 0. -1.
        -11    1    1    2    0    0  0.34198863611E+02  0.10315834807E+03  0.17072447283E+03  0.20238095926E+03  0.00000000000E+00 0.  1.
         11    1    1    2    0    0  0.60930847524E+02  0.12079397985E+03  0.78656354214E+02  0.15649465105E+03  0.00000000000E+00 0. -1.
<mgrwt>
<rscale>  0 0.26959807E+03</rscale>
<asrwt>0</asrwt>
<pdfrwt beam="2">  1        1 0.17070239E-01 0.27355355E+03</pdfrwt>
<pdfrwt beam="1">  1       -1 0.97992997E-01 0.27355355E+03</pdfrwt>
<totfact> 0.33229010E+02</totfact>
</mgrwt>
</event>
<event>
 6    1  0.6101889E-006  0.1904738E+03  0.7546771E-02  0.1162859E+00
         -1   -1    0    0    0  501 -0.00000000000E+00  0.00000000000E+00  0.17450259763E+02  0.17450259763E+02  0.00000000000E+00 0.  1.
          1   -1    0    0  501    0  0.00000000000E+00 -0.00000000000E+00 -0.18768323261E+04  0.18768323261E+04  0.00000000000E+00 0. -1.
          5    1    1    2  502    0 -0.23333848815E+02 -0.46432482656E+02 -0.78855826917E+03  0.79028265691E+03  0.47000000000E+01 0.  1.
         -5    1    1    2    0  502 -0.51349576680E+02 -0.76359139293E+02 -0.27034101663E+03  0.28561136611E+03  0.47000000000E+01 0.  1.
        -11    1    1    2    0    0  0.59251800996E+02  0.24496094589E+02 -0.20960669957E+03  0.21919352882E+03  0.00000000000E+00 0.  1.
         11    1    1    2    0    0  0.15431624500E+02  0.98295527359E+02 -0.59087608097E+03  0.59919503403E+03  0.00000000000E+00 0. -1.
<mgrwt>
<rscale>  0 0.18520472E+03</rscale>
<asrwt>0</asrwt>
<pdfrwt beam="2">  1        1 0.28874327E+00 0.19047375E+03</pdfrwt>
<pdfrwt beam="1">  1       -1 0.26846569E-02 0.19047375E+03</pdfrwt>
<totfact> 0.18074575E+03</totfact>
</mgrwt>
</event>
<event>
 6    1  0.6101889E-006  0.1281006E+03  0.7546771E-02  0.1243903E+00
         -1   -1    0    0    0  501 -0.00000000000E+00  0.00000000000E+00  0.42897016275E+02  0.42897016275E+02  0.00000000000E+00 0.  1.
          1   -1    0    0  501    0  0.00000000000E+00 -0.00000000000E+00 -0.33495896540E+03  0.33495896540E+03  0.00000000000E+00 0. -1.
          5    1    1    2  502    0 -0.20829374195E+02  0.34541926369E+01 -0.24182923515E+03  0.24279469362E+03  0.47000000000E+01 0.  1.
         -5    1    1    2    0  502 -0.25850757191E+01  0.11804783100E+02  0.13685560542E+02  0.18852588359E+02  0.47000000000E+01 0.  1.
        -11    1    1    2    0    0  0.34763540818E+02  0.30240924948E+02 -0.15029713182E+02  0.48465550551E+02  0.00000000000E+00 0.  1.
         11    1    1    2    0    0 -0.11349090905E+02 -0.45499900684E+02 -0.48888561335E+02  0.67743149145E+02  0.00000000000E+00 0. -1.
<mgrwt>
<rscale>  0 0.11951254E+03</rscale>
<asrwt>0</asrwt>
<pdfrwt beam="2">  1        1 0.51532150E-01 0.12810060E+03</pdfrwt>
<pdfrwt beam="1">  1       -1 0.65995408E-02 0.12810060E+03</pdfrwt>
<totfact> 0.83284611E+03</totfact>
</mgrwt>
</event>
<event>
 6    1  0.6101889E-006  0.1231257E+03  0.7546771E-02  0.1248155E+00
          3   -1    0    0  501    0  0.00000000000E+00  0.00000000000E+00  0.51686784343E+02  0.51686784343E+02  0.00000000000E+00 0. -1.
         -3   -1    0    0    0  501 -0.00000000000E+00 -0.00000000000E+00 -0.29189967896E+03  0.29189967896E+03  0.00000000000E+00 0.  1.
          5    1    1    2  502    0  0.37644951029E+02 -0.40650705405E+02  0.19144863244E-01  0.55603170364E+02  0.47000000000E+01 0. -1.
         -5    1    1    2    0  502 -0.28043086597E+01  0.55018785003E+02 -0.59209362454E+02  0.81010921810E+02  0.47000000000E+01 0.  1.
        -11    1    1    2    0    0  0.35465549074E+01 -0.45085354716E+02 -0.52083102127E+02  0.68977654271E+02  0.00000000000E+00 0. -1.
         11    1    1    2    0    0 -0.38387197277E+02  0.30717275118E+02 -0.12893957490E+03  0.13799471685E+03  0.00000000000E+00 0.  1.
<mgrwt>
<rscale>  0 0.11698528E+03</rscale>
<asrwt>0</asrwt>
<pdfrwt beam="1">  1        3 0.79518131E-02 0.12312566E+03</pdfrwt>
<pdfrwt beam="2">  1       -3 0.44907642E-01 0.12312566E+03</pdfrwt>
<totfact> 0.12080978E+03</totfact>
</mgrwt>
</event>
<event>
 6    1  0.6101889E-006  0.1715036E+03  0.7546771E-02  0.1182822E+00
          2   -1    0    0  501    0  0.00000000000E+00  0.00000000000E+00  0.67682051133E+03  0.67682051133E+03  0.00000000000E+00 0. -1.
         -2   -1    0    0    0  501 -0.00000000000E+00 -0.00000000000E+00 -0.37990291338E+02  0.37990291338E+02  0.00000000000E+00 0.  1.
          5    1    1    2  502    0  0.41862628513E+02 -0.73140877710E+02  0.18250744667E+03  0.20107989891E+03  0.47000000000E+01 0. -1.
         -5    1    1    2    0  502  0.72637984693E+02  0.47828322326E+02  0.19017323716E+03  0.20916925054E+03  0.47000000000E+01 0. -1.
        -11    1    1    2    0    0 -0.63187516923E+02 -0.32212736351E+02  0.13153914018E+03  0.14944185517E+03  0.00000000000E+00 0.  1.
         11    1    1    2    0    0 -0.51313096283E+02  0.57525291735E+02  0.13461039599E+03  0.15511979805E+03  0.00000000000E+00 0. -1.
<mgrwt>
<rscale>  0 0.16531621E+03</rscale>
<asrwt>0</asrwt>
<pdfrwt beam="1">  1        2 0.10412622E+00 0.17150356E+03</pdfrwt>
<pdfrwt beam="2">  1       -2 0.58446607E-02 0.17150356E+03</pdfrwt>
<totfact> 0.65713517E+03</totfact>
</mgrwt>
</event>
<event>
 6    1  0.6101889E-006  0.1618917E+03  0.7546771E-02  0.1197210E+00
          1   -1    0    0  501    0  0.00000000000E+00  0.00000000000E+00  0.28447099800E+03  0.28447099800E+03  0.00000000000E+00 0. -1.
         -1   -1    0    0    0  501 -0.00000000000E+00 -0.00000000000E+00 -0.86651948785E+02  0.86651948785E+02  0.00000000000E+00 0.  1.
          5    1    1    2  502    0  0.23967451555E+02 -0.11394081397E+03  0.10732748266E+03  0.15842419750E+03  0.47000000000E+01 0.  1.
         -5    1    1    2    0  502  0.31192650725E+02  0.27097911526E+02  0.72180293307E+02  0.83302839148E+02  0.47000000000E+01 0.  1.
        -11    1    1    2    0    0 -0.12478215730E+02  0.63484862842E+02 -0.19722751329E+02  0.67638898555E+02  0.00000000000E+00 0.  1.
         11    1    1    2    0    0 -0.42681886550E+02  0.23358039598E+02  0.38034024584E+02  0.61757011581E+02  0.00000000000E+00 0. -1.
<mgrwt>
<rscale>  0 0.15268640E+03</rscale>
<asrwt>0</asrwt>
<pdfrwt beam="1">  1        1 0.43764769E-01 0.16189169E+03</pdfrwt>
<pdfrwt beam="2">  1       -1 0.13331069E-01 0.16189169E+03</pdfrwt>
<totfact> 0.35409871E+03</totfact>
</mgrwt>
</event>
<event>
 6    1  0.6101889E-006  0.1384376E+03  0.7546771E-02  0.1226672E+00
          2   -1    0    0  501    0  0.00000000000E+00  0.00000000000E+00  0.19933857247E+03  0.19933857247E+03  0.00000000000E+00 0. -1.
         -2   -1    0    0    0  501 -0.00000000000E+00 -0.00000000000E+00 -0.88288594177E+02  0.88288594177E+02  0.00000000000E+00 0.  1.
          5    1    1    2  502    0  0.13157231411E+01 -0.42930465567E+02 -0.67598922987E+01  0.43732621064E+02  0.47000000000E+01 0.  1.
         -5    1    1    2    0  502 -0.57701701380E+02  0.24004185512E+02  0.11897698044E+03  0.13447415789E+03  0.47000000000E+01 0.  1.
        -11    1    1    2    0    0  0.61455122713E+02  0.29412919276E+01  0.34118684537E+02  0.70352455113E+02  0.00000000000E+00 0. -1.
         11    1    1    2    0    0 -0.50691444735E+01  0.15984988128E+02 -0.35285794386E+02  0.39067932586E+02  0.00000000000E+00 0.  1.
<mgrwt>
<rscale>  0 0.13052961E+03</rscale>
<asrwt>0</asrwt>
<pdfrwt beam="1">  1        2 0.30667473E-01 0.13843764E+03</pdfrwt>
<pdfrwt beam="2">  1       -2 0.13582861E-01 0.13843764E+03</pdfrwt>
<totfact> 0.65755597E+03</totfact>
</mgrwt>
</event>
<event>
 6    1  0.6101889E-006  0.1474309E+03  0.7546771E-02  0.1213185E+00
         -1   -1    0    0    0  501 -0.00000000000E+00  0.00000000000E+00  0.18895028792E+03  0.18895028792E+03  0.00000000000E+00 0.  1.
          1   -1    0    0  501    0  0.00000000000E+00 -0.00000000000E+00 -0.95301774726E+02  0.95301774726E+02  0.00000000000E+00 0. -1.
          5    1    1    2  502    0  0.77076824670E+02 -0.23453838616E+02  0.46113465902E+02  0.92948701898E+02  0.47000000000E+01 0.  1.
         -5    1    1    2    0  502 -0.10257466346E+02  0.64060397045E+02  0.15688257244E+02  0.66911594666E+02  0.47000000000E+01 0.  1.
        -11    1    1    2    0    0  0.21382650096E+02 -0.86672977153E+01  0.18637214157E+02  0.29659493022E+02  0.00000000000E+00 0.  1.
         11    1    1    2    0    0 -0.88202008419E+02 -0.31939260714E+02  0.13209575893E+02  0.94732273061E+02  0.00000000000E+00 0. -1.
<mgrwt>
<rscale>  0 0.14010672E+03</rscale>
<asrwt>0</asrwt>
<pdfrwt beam="2">  1        1 0.14661812E-01 0.14743087E+03</pdfrwt>
<pdfrwt beam="1">  1       -1 0.29069275E-01 0.14743087E+03</pdfrwt>
<totfact> 0.39912414E+03</totfact>
</mgrwt>
</event>
<event>
 6    1  0.6101889E-006  0.2461137E+03  0.7546771E-02  0.1118780E+00
         -2   -1    0    0    0  501 -0.00000000000E+00  0.00000000000E+00  0.34645268211E+03  0.34645268211E+03  0.00000000000E+00 0.  1.
          2   -1    0    0  501    0  0.00000000000E+00 -0.00000000000E+00 -0.20927965898E+03  0.20927965898E+03  0.00000000000E+00 0. -1.
          5    1    1    2  502    0 -0.62932708774E+02  0.11402839645E+03 -0.49829105437E+02  0.13952788531E+03  0.47000000000E+01 0. -1.
         -5    1    1    2    0  502 -0.11330309049E+03  0.38236606759E+01 -0.11036958906E+02  0.11400050508E+03  0.47000000000E+01 0. -1.
        -11    1    1    2    0    0  0.13518303915E+03 -0.68365564454E+02  0.89219358298E+02  0.17580784503E+03  0.00000000000E+00 0. -1.
         11    1    1    2    0    0  0.41052760117E+02 -0.49486492674E+02  0.10881972918E+03  0.12639610567E+03  0.00000000000E+00 0.  1.
<mgrwt>
<rscale>  0 0.24152643E+03</rscale>
<asrwt>0</asrwt>
<pdfrwt beam="2">  1        2 0.32196871E-01 0.24611373E+03</pdfrwt>
<pdfrwt beam="1">  1       -2 0.53300413E-01 0.24611373E+03</pdfrwt>
<totfact> 0.54880451E+02</totfact>
</mgrwt>
</event>
<event>
 6    1  0.6101889E-006  0.5125281E+03  0.7546771E-02  0.1011045E+00
         -1   -1    0    0    0  501 -0.00000000000E+00  0.00000000000E+00  0.21074642867E+03  0.21074642867E+03  0.00000000000E+00 0.  1.
          1   -1    0    0  501    0  0.00000000000E+00 -0.00000000000E+00 -0.20747415710E+04  0.20747415710E+04  0.00000000000E+00 0. -1.
          5    1    1    2  502    0 -0.58039008563E+02  0.56838193063E+02 -0.17851701045E+03  0.19618746068E+03  0.47000000000E+01 0.  1.
         -5    1    1    2    0  502 -0.12095287520E+03  0.40686561226E+03 -0.14876224121E+04  0.15470008906E+04  0.47000000000E+01 0.  1.
        -11    1    1    2    0    0  0.11980420892E+03 -0.38424843764E+03 -0.18289962272E+03  0.44209974248E+03  0.00000000000E+00 0. -1.
         11    1    1    2    0    0  0.59187674842E+02 -0.79455367682E+02 -0.14956097032E+02  0.10019990591E+03  0.00000000000E+00 0.  1.
<mgrwt>
<rscale>  0 0.51061485E+03</rscale>
<asrwt>0</asrwt>
<pdfrwt beam="2">  1        1 0.31919100E+00 0.51252810E+03</pdfrwt>
<pdfrwt beam="1">  1       -1 0.32422528E-01 0.51252810E+03</pdfrwt>
<totfact> 0.25510058E+01</totfact>
</mgrwt>
</event>
<event>
 6    1  0.6101889E-006  0.1439309E+03  0.7546771E-02  0.1218159E+00
         -1   -1    0    0    0  501 -0.00000000000E+00  0.00000000000E+00  0.28694305002E+02  0.28694305002E+02  0.00000000000E+00 0.  1.
          1   -1    0    0  501    0  0.00000000000E+00 -0.00000000000E+00 -0.60542148651E+03  0.60542148651E+03  0.00000000000E+00 0. -1.
          5    1    1    2  502    0 -0.95366947305E+02  0.20467702971E+02 -0.34584910428E+03  0.35937094267E+03  0.47000000000E+01 0.  1.
         -5    1    1    2    0  502  0.24355980955E+02 -0.13408443074E+02 -0.22416438360E+02  0.36022033018E+02  0.47000000000E+01 0.  1.
        -11    1    1    2    0    0  0.16096476147E+02  0.23175418765E+02 -0.89619695667E+01  0.29605970307E+02  0.00000000000E+00 0.  1.
         11    1    1    2    0    0  0.54914490203E+02 -0.30234678662E+02 -0.19949966930E+03  0.20911684552E+03  0.00000000000E+00 0. -1.
<mgrwt>
<rscale>  0 0.13646995E+03</rscale>
<asrwt>0</asrwt>
<pdfrwt beam="2">  1        1 0.93141754E-01 0.14393087E+03</pdfrwt>
<pdfrwt beam="1">  1       -1 0.44145091E-02 0.14393087E+03</pdfrwt>
<totfact> 0.71069287E+03</totfact>
</mgrwt>
</event>
<event>
 6    1  0.6101889E-006  0.1296829E+03  0.7546771E-02  0.1243580E+00
         -2   -1    0    0    0  501 -0.00000000000E+00  0.00000000000E+00  0.16484377536E+03  0.16484377536E+03  0.00000000000E+00 0.  1.
          2   -1    0    0  501    0  0.00000000000E+00 -0.00000000000E+00 -0.77669837465E+02  0.77669837465E+02  0.00000000000E+00 0. -1.
          5    1    1    2  502    0 -0.49231678902E+02  0.84156352374E+01  0.71891873816E+02  0.87664774253E+02  0.47000000000E+01 0. -1.
         -5    1    1    2    0  502  0.20931218625E+02  0.11374852997E+02 -0.39167297498E+02  0.46083298353E+02  0.47000000000E+01 0. -1.
        -11    1    1    2    0    0 -0.20709292322E+02 -0.34802047431E+01 -0.12321766065E+02  0.24347741835E+02  0.00000000000E+00 0. -1.
         11    1    1    2    0    0  0.49009752598E+02 -0.16310283491E+02  0.66771127643E+02  0.84417798384E+02  0.00000000000E+00 0.  1.
<mgrwt>
<rscale>  0 0.11970798E+03</rscale>
<asrwt>0</asrwt>
<pdfrwt beam="2">  1        2 0.11949206E-01 0.12968288E+03</pdfrwt>
<pdfrwt beam="1">  1       -2 0.25360581E-01 0.12968288E+03</pdfrwt>
<totfact> 0.67110245E+03</totfact>
</mgrwt>
</event>
<event>
 6    1  0.6101889E-006  0.4101790E+03  0.7546771E-02  0.1040311E+00
         -1   -1    0    0    0  501 -0.00000000000E+00  0.00000000000E+00  0.21744987061E+03  0.21744987061E+03  0.00000000000E+00 0.  1.
          1   -1    0    0  501    0  0.00000000000E+00 -0.00000000000E+00 -0.19343175316E+03  0.19343175316E+03  0.00000000000E+00 0. -1.
          5    1    1    2  502    0  0.15669883248E+01  0.92021683519E+01 -0.12128949877E+03  0.12173893324E+03  0.47000000000E+01 0. -1.
         -5    1    1    2    0  502  0.42671135893E+02 -0.67419950466E+02 -0.24125339539E+02  0.83488906851E+02  0.47000000000E+01 0. -1.
        -11    1    1    2    0    0 -0.24408889384E+01  0.71013200413E+02  0.12174342203E+03  0.14096202815E+03  0.00000000000E+00 0. -1.
         11    1    1    2    0    0 -0.41797235280E+02 -0.12795418299E+02  0.47689533725E+02  0.64691755528E+02  0.00000000000E+00 0.  1.
<mgrwt>
<rscale>  0 0.41017903E+03</rscale>
<asrwt>0</asrwt>
<pdfrwt beam="2">  1        1 0.29758731E-01 0.41017903E+03</pdfrwt>
<pdfrwt beam="1">  1       -1 0.33453826E-01 0.41017903E+03</pdfrwt>
<totfact> 0.13017479E+03</totfact>
</mgrwt>
</event>
<event>
 6    1  0.6101889E-006  0.2786000E+03  0.7546771E-02  0.1096456E+00
          1   -1    0    0  501    0  0.00000000000E+00  0.00000000000E+00  0.59156200056E+03  0.59156200056E+03  0.00000000000E+00 0. -1.
         -1   -1    0    0    0  501 -0.00000000000E+00 -0.00000000000E+00 -0.32802123848E+02  0.32802123848E+02  0.00000000000E+00 0.  1.
          5    1    1    2  502    0 -0.85982067789E+02  0.29644335607E+02  0.33808480112E+03  0.35013586701E+03  0.47000000000E+01 0. -1.
         -5    1    1    2    0  502  0.38508792446E+02  0.50841842807E+01  0.12131850363E+03  0.12747174333E+03  0.47000000000E+01 0.  1.
        -11    1    1    2    0    0 -0.47743914212E+01 -0.51879756998E+02  0.38814534051E+02  0.64968238803E+02  0.00000000000E+00 0. -1.
         11    1    1    2    0    0  0.52247666764E+02  0.17151237110E+02  0.60542037908E+02  0.81788275264E+02  0.00000000000E+00 0.  1.
<mgrwt>
<rscale>  0 0.27860000E+03</rscale>
<asrwt>0</asrwt>
<pdfrwt beam="1">  1        1 0.91009531E-01 0.27860000E+03</pdfrwt>
<pdfrwt beam="2">  1       -1 0.50464810E-02 0.27860000E+03</pdfrwt>
<totfact> 0.62065610E+03</totfact>
</mgrwt>
</event>
<event>
 6    1  0.6101889E-006  0.3335606E+03  0.7546771E-02  0.1069572E+00
          2   -1    0    0  501    0  0.00000000000E+00  0.00000000000E+00  0.34961544251E+03  0.34961544251E+03  0.00000000000E+00 0. -1.
         -2   -1    0    0    0  501 -0.00000000000E+00 -0.00000000000E+00 -0.79560754568E+02  0.79560754568E+02  0.00000000000E+00 0.  1.
          5    1    1    2  502    0 -0.40373868805E+02  0.38597118534E+02  0.43109968794E+02  0.70713126440E+02  0.47000000000E+01 0. -1.
         -5    1    1    2    0  502 -0.70516060864E+02 -0.98016952904E+02  0.11745591330E+03  0.16851652579E+03  0.47000000000E+01 0. -1.
        -11    1    1    2    0    0  0.68902324878E+02 -0.35652110005E+01  0.18197339447E+02  0.71353936584E+02  0.00000000000E+00 0. -1.
         11    1    1    2    0    0  0.41987604791E+02  0.62985045370E+02  0.91291466401E+02  0.11859260826E+03  0.00000000000E+00 0.  1.
<mgrwt>
<rscale>  0 0.33356060E+03</rscale>
<asrwt>0</asrwt>
<pdfrwt beam="1">  1        2 0.53786990E-01 0.33356060E+03</pdfrwt>
<pdfrwt beam="2">  1       -2 0.12240116E-01 0.33356060E+03</pdfrwt>
<totfact> 0.44376633E+03</totfact>
</mgrwt>
</event>
<event>
 6    1  0.6101889E-006  0.2484123E+03  0.7546771E-02  0.1114312E+00
          1   -1    0    0  501    0  0.00000000000E+00  0.00000000000E+00  0.15216194899E+02  0.15216194899E+02  0.00000000000E+00 0. -1.
         -1   -1    0    0    0  501 -0.00000000000E+00 -0.00000000000E+00 -0.10138646510E+04  0.10138646510E+04  0.00000000000E+00 0.  1.
          5    1    1    2  502    0 -0.24206162582E+02  0.92576604294E+02 -0.35700430323E+03  0.36963566994E+03  0.47000000000E+01 0.  1.
         -5    1    1    2    0  502  0.20293937876E+02 -0.35410234003E+02 -0.12324469935E+03  0.12991179510E+03  0.47000000000E+01 0.  1.
        -11    1    1    2    0    0  0.46371699698E+02 -0.17355731410E+02 -0.25804582970E+03  0.26275312781E+03  0.00000000000E+00 0.  1.
         11    1    1    2    0    0 -0.42459474993E+02 -0.39810638881E+02 -0.26035362383E+03  0.26678025307E+03  0.00000000000E+00 0. -1.
<mgrwt>
<rscale>  0 0.24841226E+03</rscale>
<asrwt>0</asrwt>
<pdfrwt beam="1">  1        1 0.23409524E-02 0.24841226E+03</pdfrwt>
<pdfrwt beam="2">  1       -1 0.15597922E+00 0.24841226E+03</pdfrwt>
<totfact> 0.16438223E+03</totfact>
</mgrwt>
</event>
<event>
 6    1  0.6101889E-006  0.1171611E+03  0.7546771E-02  0.1258838E+00
         -1   -1    0    0    0  501 -0.00000000000E+00  0.00000000000E+00  0.82077213183E+02  0.82077213183E+02  0.00000000000E+00 0.  1.
          1   -1    0    0  501    0  0.00000000000E+00 -0.00000000000E+00 -0.13759189076E+03  0.13759189076E+03  0.00000000000E+00 0. -1.
          5    1    1    2  502    0 -0.61690471407E+02 -0.20062463419E+02 -0.47191499858E+02  0.80357602999E+02  0.47000000000E+01 0. -1.
         -5    1    1    2    0  502  0.36116055346E+02  0.24541137466E+02  0.49287956271E+01  0.44192984830E+02  0.47000000000E+01 0.  1.
        -11    1    1    2    0    0 -0.17010410441E+02  0.32892784706E+02 -0.10049844875E+02  0.38370414790E+02  0.00000000000E+00 0. -1.
         11    1    1    2    0    0  0.42584826502E+02 -0.37371458753E+02 -0.32021284736E+01  0.56748101328E+02  0.00000000000E+00 0.  1.
<mgrwt>
<rscale>  0 0.11094038E+03</rscale>
<asrwt>0</asrwt>
<pdfrwt beam="2">  1        1 0.21167983E-01 0.11716105E+03</pdfrwt>
<pdfrwt beam="1">  1       -1 0.12627264E-01 0.11716105E+03</pdfrwt>
<totfact> 0.93320211E+03</totfact>
</mgrwt>
</event>
<event>
 6    1  0.6101889E-006  0.2829226E+03  0.7546771E-02  0.1094103E+00
         -2   -1    0    0    0  501 -0.00000000000E+00  0.00000000000E+00  0.70179437363E+02  0.70179437363E+02  0.00000000000E+00 0.  1.
          2   -1    0    0  501    0  0.00000000000E+00 -0.00000000000E+00 -0.28514469482E+03  0.28514469482E+03  0.00000000000E+00 0. -1.
          5    1    1    2  502    0  0.26600467377E+02 -0.82180538147E+02 -0.20284122525E+03  0.22051729723E+03  0.47000000000E+01 0.  1.
         -5    1    1    2    0  502 -0.79102216307E+01  0.20735227101E+02  0.41419109256E+01  0.23060066680E+02  0.47000000000E+01 0.  1.
        -11    1    1    2    0    0  0.12443081195E+02  0.46502205832E+02 -0.45696382704E+02  0.66373524911E+02  0.00000000000E+00 0.  1.
         11    1    1    2    0    0 -0.31133326941E+02  0.14943105214E+02  0.29430439573E+02  0.45373243363E+02  0.00000000000E+00 0. -1.
<mgrwt>
<rscale>  0 0.28292256E+03</rscale>
<asrwt>0</asrwt>
<pdfrwt beam="2">  1        2 0.43868415E-01 0.28292256E+03</pdfrwt>
<pdfrwt beam="1">  1       -2 0.10796836E-01 0.28292256E+03</pdfrwt>
<totfact> 0.67394689E+03</totfact>
</mgrwt>
</event>
<event>
 6    1  0.6101889E-006  0.2999561E+03  0.7546771E-02  0.1085263E+00
         -1   -1    0    0    0  501 -0.00000000000E+00  0.00000000000E+00  0.62211420990E+02  0.62211420990E+02  0.00000000000E+00 0.  1.
          1   -1    0    0  501    0  0.00000000000E+00 -0.00000000000E+00 -0.36156416575E+03  0.36156416575E+03  0.00000000000E+00 0. -1.
          5    1    1    2  502    0 -0.34362858129E+02  0.66678750511E+01 -0.12930705223E+03  0.13404353895E+03  0.47000000000E+01 0.  1.
         -5    1    1    2    0  502  0.33569994218E+02 -0.96729974000E+02 -0.10804125405E+03  0.14892493062E+03  0.47000000000E+01 0.  1.
        -11    1    1    2    0    0 -0.27649476051E+02  0.34310158992E+02 -0.64563066885E+02  0.78166937650E+02  0.00000000000E+00 0. -1.
         11    1    1    2    0    0  0.28442339962E+02  0.55751939957E+02  0.25586284114E+01  0.62640179525E+02  0.00000000000E+00 0.  1.
<mgrwt>
<rscale>  0 0.29995613E+03</rscale>
<asrwt>0</asrwt>
<pdfrwt beam="2">  1        1 0.55625257E-01 0.29995613E+03</pdfrwt>
<pdfrwt beam="1">  1       -1 0.95709878E-02 0.29995613E+03</pdfrwt>
<totfact> 0.44953528E+03</totfact>
</mgrwt>
</event>
<event>
 6    1  0.6101889E-006  0.1723132E+03  0.7546771E-02  0.1179807E+00
         -1   -1    0    0    0  501 -0.00000000000E+00  0.00000000000E+00  0.58544607763E+03  0.58544607763E+03  0.00000000000E+00 0.  1.
          1   -1    0    0  501    0  0.00000000000E+00 -0.00000000000E+00 -0.46147509574E+02  0.46147509574E+02  0.00000000000E+00 0. -1.
          5    1    1    2  502    0 -0.15530878732E+02 -0.43941716367E+02  0.49130998074E+02  0.67882454311E+02  0.47000000000E+01 0. -1.
         -5    1    1    2    0  502 -0.10116579458E+03  0.65138314838E+02  0.24540387004E+03  0.27335447222E+03  0.47000000000E+01 0. -1.
        -11    1    1    2    0    0  0.94267661625E+02 -0.54941270706E+02  0.13643444960E+03  0.17469772263E+03  0.00000000000E+00 0.  1.
         11    1    1    2    0    0  0.22429011683E+02  0.33744672235E+02  0.10832925034E+03  0.11565893804E+03  0.00000000000E+00 0. -1.
<mgrwt>
<rscale>  0 0.16813481E+03</rscale>
<asrwt>0</asrwt>
<pdfrwt beam="2">  1        1 0.70996173E-02 0.17231324E+03</pdfrwt>
<pdfrwt beam="1">  1       -1 0.90068622E-01 0.17231324E+03</pdfrwt>
<totfact> 0.12826643E+03</totfact>
</mgrwt>
</event>
<event>
 6    1  0.6101889E-006  0.2377222E+03  0.7546771E-02  0.1124385E+00
         -2   -1    0    0    0  501 -0.00000000000E+00  0.00000000000E+00  0.15722283607E+03  0.15722283607E+03  0.00000000000E+00 0.  1.
          2   -1    0    0  501    0  0.00000000000E+00 -0.00000000000E+00 -0.42577283684E+03  0.42577283684E+03  0.00000000000E+00 0. -1.
          5    1    1    2  502    0 -0.38707363211E+02  0.34150025210E+02 -0.10582805262E+03  0.11783951336E+03  0.47000000000E+01 0. -1.
         -5    1    1    2    0  502  0.62434201873E+02  0.16666007835E+03 -0.16805827428E+03  0.24482500859E+03  0.47000000000E+01 0. -1.
        -11    1    1    2    0    0 -0.30626418339E+01 -0.54558879380E+02  0.41080068405E+02  0.68363902129E+02  0.00000000000E+00 0. -1.
         11    1    1    2    0    0 -0.20664196828E+02 -0.14625122418E+03 -0.35743742274E+02  0.15196724883E+03  0.00000000000E+00 0.  1.
<mgrwt>
<rscale>  0 0.23323268E+03</rscale>
<asrwt>0</asrwt>
<pdfrwt beam="2">  1        2 0.65503513E-01 0.23772218E+03</pdfrwt>
<pdfrwt beam="1">  1       -2 0.24188129E-01 0.23772218E+03</pdfrwt>
<totfact> 0.11228208E+03</totfact>
</mgrwt>
</event>
<event>
 6    1  0.6101889E-006  0.3141263E+03  0.7546771E-02  0.1078385E+00
          3   -1    0    0  501    0  0.00000000000E+00  0.00000000000E+00  0.40989848750E+03  0.40989848750E+03  0.00000000000E+00 0. -1.
         -3   -1    0    0    0  501 -0.00000000000E+00 -0.00000000000E+00 -0.60182767539E+02  0.60182767539E+02  0.00000000000E+00 0.  1.
          5    1    1    2  502    0  0.20241621399E+02  0.12826940827E+03  0.15679745040E+03  0.20364256624E+03  0.47000000000E+01 0.  1.
         -5    1    1    2    0  502  0.24771192213E+02 -0.26451491988E+02  0.60076594115E+02  0.70317711513E+02  0.47000000000E+01 0.  1.
        -11    1    1    2    0    0 -0.39084513581E+02 -0.30320876579E+02  0.52524067974E+01  0.49744773952E+02  0.00000000000E+00 0.  1.
         11    1    1    2    0    0 -0.59283000316E+01 -0.71497039699E+02  0.12758926865E+03  0.14637620333E+03  0.00000000000E+00 0. -1.
<mgrwt>
<rscale>  0 0.31412625E+03</rscale>
<asrwt>0</asrwt>
<pdfrwt beam="1">  1        3 0.63061304E-01 0.31412625E+03</pdfrwt>
<pdfrwt beam="2">  1       -3 0.92588876E-02 0.31412625E+03</pdfrwt>
<totfact> 0.53503340E+02</totfact>
</mgrwt>
</event>
<event>
 6    1  0.6101889E-006  0.1137033E+03  0.7546771E-02  0.1263814E+00
          2   -1    0    0  501    0  0.00000000000E+00  0.00000000000E+00  0.63006174670E+03  0.63006174670E+03  0.00000000000E+00 0. -1.
         -2   -1    0    0    0  501 -0.00000000000E+00 -0.00000000000E+00 -0.17153730403E+02  0.17153730403E+02  0.00000000000E+00 0.  1.
          5    1    1    2  502    0 -0.26708268480E+02  0.34015731464E+02  0.34932622197E+03  0.35202457435E+03  0.47000000000E+01 0. -1.
         -5    1    1    2    0  502  0.17168420913E+02 -0.17760145558E+02  0.14218762292E+02  0.28886686345E+02  0.47000000000E+01 0.  1.
        -11    1    1    2    0    0 -0.36270482335E+02  0.13410055024E+02  0.11250228448E+03  0.11896277349E+03  0.00000000000E+00 0.  1.
         11    1    1    2    0    0  0.45810329902E+02 -0.29665640930E+02  0.13686074756E+03  0.14734144292E+03  0.00000000000E+00 0. -1.
<mgrwt>
<rscale>  0 0.10826644E+03</rscale>
<asrwt>0</asrwt>
<pdfrwt beam="1">  1        2 0.96932558E-01 0.11370327E+03</pdfrwt>
<pdfrwt beam="2">  1       -2 0.26390359E-02 0.11370327E+03</pdfrwt>
<totfact> 0.22649038E+04</totfact>
</mgrwt>
</event>
<event>
 6    1  0.6101889E-006  0.2431523E+03  0.7546771E-02  0.1120409E+00
         -2   -1    0    0    0  501 -0.00000000000E+00  0.00000000000E+00  0.94637720978E+02  0.94637720978E+02  0.00000000000E+00 0.  1.
          2   -1    0    0  501    0  0.00000000000E+00 -0.00000000000E+00 -0.98420356382E+03  0.98420356382E+03  0.00000000000E+00 0. -1.
          5    1    1    2  502    0 -0.82568020748E+01  0.10505832119E+02 -0.15898353411E+02  0.21293072352E+02  0.47000000000E+01 0. -1.
         -5    1    1    2    0  502  0.10364890052E+03 -0.19598976611E+03 -0.78142595272E+03  0.81228301261E+03  0.47000000000E+01 0. -1.
        -11    1    1    2    0    0 -0.47262365409E+00  0.95442776746E+02 -0.27718850362E+02  0.99387532777E+02  0.00000000000E+00 0. -1.
         11    1    1    2    0    0 -0.94919474794E+02  0.90041157242E+02 -0.64522686357E+02  0.14587766706E+03  0.00000000000E+00 0.  1.
<mgrwt>
<rscale>  0 0.23907761E+03</rscale>
<asrwt>0</asrwt>
<pdfrwt beam="2">  1        2 0.15141594E+00 0.24315230E+03</pdfrwt>
<pdfrwt beam="1">  1       -2 0.14559649E-01 0.24315230E+03</pdfrwt>
<totfact> 0.96892083E+02</totfact>
</mgrwt>
</event>
<event>
 6    1  0.6101889E-006  0.2172936E+03  0.7546771E-02  0.1138990E+00
          1   -1    0    0  501    0  0.00000000000E+00  0.00000000000E+00  0.20808236856E+03  0.20808236856E+03  0.00000000000E+00 0.  1.
         -1   -1    0    0    0  501 -0.00000000000E+00 -0.00000000000E+00 -0.21602551734E+03  0.21602551734E+03  0.00000000000E+00 0. -1.
          5    1    1    2  502    0  0.79632586129E+02  0.66823569036E+02  0.42100618883E+02  0.11225546874E+03  0.47000000000E+01 0.  1.
         -5    1    1    2    0  502  0.59720015963E+02  0.43506815990E+02 -0.78784320961E+02  0.10811282335E+03  0.47000000000E+01 0.  1.
        -11    1    1    2    0    0 -0.53652022879E+02 -0.32317536384E+02 -0.34718296063E+02  0.71612308987E+02  0.00000000000E+00 0.  1.
         11    1    1    2    0    0 -0.85700579213E+02 -0.78012848642E+02  0.63458849359E+02  0.13212728482E+03  0.00000000000E+00 0. -1.
<mgrwt>
<rscale>  0 0.21328624E+03</rscale>
<asrwt>0</asrwt>
<pdfrwt beam="1">  1        1 0.32012672E-01 0.21729356E+03</pdfrwt>
<pdfrwt beam="2">  1       -1 0.33234695E-01 0.21729356E+03</pdfrwt>
<totfact> 0.11898437E+03</totfact>
</mgrwt>
</event>
<event>
 6    1  0.6101889E-006  0.1274804E+03  0.7546771E-02  0.1248404E+00
         -2   -1    0    0    0  501 -0.00000000000E+00  0.00000000000E+00  0.53859698966E+02  0.53859698966E+02  0.00000000000E+00 0. -1.
          2   -1    0    0  501    0  0.00000000000E+00 -0.00000000000E+00 -0.22294568761E+03  0.22294568761E+03  0.00000000000E+00 0.  1.
          5    1    1    2  502    0 -0.56157811192E+02  0.12174938673E+02 -0.53226611982E+02  0.78467133965E+02  0.47000000000E+01 0.  1.
         -5    1    1    2    0  502  0.59005077544E+02 -0.37030585669E+02 -0.62747896080E+02  0.93873595401E+02  0.47000000000E+01 0.  1.
        -11    1    1    2    0    0  0.25200972938E+02  0.68619598906E+01 -0.64228048128E+02  0.69335544253E+02  0.00000000000E+00 0.  1.
         11    1    1    2    0    0 -0.28048239289E+02  0.17993687105E+02  0.11116567549E+02  0.35129112954E+02  0.00000000000E+00 0. -1.
<mgrwt>
<rscale>  0 0.11683949E+03</rscale>
<asrwt>0</asrwt>
<pdfrwt beam="2">  1        2 0.34299337E-01 0.12748035E+03</pdfrwt>
<pdfrwt beam="1">  1       -2 0.82861074E-02 0.12748035E+03</pdfrwt>
<totfact> 0.12644878E+04</totfact>
</mgrwt>
</event>
<event>
 6    1  0.6101889E-006  0.1319817E+03  0.7546771E-02  0.1237151E+00
         -2   -1    0    0    0  501 -0.00000000000E+00  0.00000000000E+00  0.20722106630E+03  0.20722106630E+03  0.00000000000E+00 0.  1.
          2   -1    0    0  501    0  0.00000000000E+00 -0.00000000000E+00 -0.11117991759E+03  0.11117991759E+03  0.00000000000E+00 0. -1.
          5    1    1    2  502    0  0.18965220170E+02  0.30286618873E+01  0.35414130367E+02  0.40559869311E+02  0.47000000000E+01 0. -1.
         -5    1    1    2    0  502 -0.30737594465E+02 -0.43766689198E+02 -0.84784622079E+02  0.10035359953E+03  0.47000000000E+01 0. -1.
        -11    1    1    2    0    0  0.28352261719E+02  0.42380057729E+02  0.15142124002E+03  0.15977581784E+03  0.00000000000E+00 0.  1.
         11    1    1    2    0    0 -0.16579887424E+02 -0.16420304187E+01 -0.60095995979E+01  0.17711697214E+02  0.00000000000E+00 0. -1.
<mgrwt>
<rscale>  0 0.12367755E+03</rscale>
<asrwt>0</asrwt>
<pdfrwt beam="2">  1        2 0.17104603E-01 0.13198167E+03</pdfrwt>
<pdfrwt beam="1">  1       -2 0.31880164E-01 0.13198167E+03</pdfrwt>
<totfact> 0.29315740E+03</totfact>
</mgrwt>
</event>
<event>
 6    1  0.6101889E-006  0.1514883E+03  0.7546771E-02  0.1208856E+00
         -4   -1    0    0    0  501 -0.00000000000E+00  0.00000000000E+00  0.10754769866E+03  0.10754769866E+03  0.00000000000E+00 0.  1.
          4   -1    0    0  501    0  0.00000000000E+00 -0.00000000000E+00 -0.20395674905E+03  0.20395674905E+03  0.00000000000E+00 0. -1.
          5    1    1    2  502    0  0.67114972747E+02  0.70073479502E+02 -0.30087448137E+02  0.10169590273E+03  0.47000000000E+01 0.  1.
         -5    1    1    2    0  502 -0.26643928412E+02  0.53264337336E+01 -0.82678425142E+02  0.87155503564E+02  0.47000000000E+01 0.  1.
        -11    1    1    2    0    0 -0.13893447888E+02 -0.90096535257E+02  0.13358489824E+02  0.92135024882E+02  0.00000000000E+00 0.  1.
         11    1    1    2    0    0 -0.26577596446E+02  0.14696622021E+02  0.29983330653E+01  0.30518016529E+02  0.00000000000E+00 0. -1.
<mgrwt>
<rscale>  0 0.14337710E+03</rscale>
<asrwt>0</asrwt>
<pdfrwt beam="2">  1        4 0.31377961E-01 0.15148832E+03</pdfrwt>
<pdfrwt beam="1">  1       -4 0.16545800E-01 0.15148832E+03</pdfrwt>
<totfact> 0.52387204E+02</totfact>
</mgrwt>
</event>
<event>
 6    1  0.6101889E-006  0.1340665E+03  0.7546771E-02  0.1234485E+00
          2   -1    0    0  501    0  0.00000000000E+00  0.00000000000E+00  0.90111167220E+03  0.90111167220E+03  0.00000000000E+00 0. -1.
         -2   -1    0    0    0  501 -0.00000000000E+00 -0.00000000000E+00 -0.19255771088E+02  0.19255771088E+02  0.00000000000E+00 0.  1.
          5    1    1    2  502    0 -0.49125808989E+02  0.60388211041E+02  0.32060739226E+03  0.32995646851E+03  0.47000000000E+01 0. -1.
         -5    1    1    2    0  502  0.15482305057E+01 -0.51178326910E+02  0.36865412942E+03  0.37222248092E+03  0.47000000000E+01 0. -1.
        -11    1    1    2    0    0  0.69944920374E+02 -0.23944516124E+02  0.12160756137E+03  0.14231665651E+03  0.00000000000E+00 0.  1.
         11    1    1    2    0    0 -0.22367341891E+02  0.14734631994E+02  0.70986818059E+02  0.75871837340E+02  0.00000000000E+00 0. -1.
<mgrwt>
<rscale>  0 0.12537453E+03</rscale>
<asrwt>0</asrwt>
<pdfrwt beam="1">  1        2 0.13863253E+00 0.13406652E+03</pdfrwt>
<pdfrwt beam="2">  1       -2 0.29624270E-02 0.13406652E+03</pdfrwt>
<totfact> 0.12537914E+04</totfact>
</mgrwt>
</event>
<event>
 6    1  0.6101889E-006  0.3423432E+03  0.7546771E-02  0.1065802E+00
          1   -1    0    0  501    0  0.00000000000E+00  0.00000000000E+00  0.66335211924E+03  0.66335211924E+03  0.00000000000E+00 0. -1.
         -1   -1    0    0    0  501 -0.00000000000E+00 -0.00000000000E+00 -0.44169173225E+02  0.44169173225E+02  0.00000000000E+00 0.  1.
          5    1    1    2  502    0  0.22271874117E+02  0.10676560805E+02  0.63837477318E+00  0.25150006952E+02  0.47000000000E+01 0.  1.
         -5    1    1    2    0  502  0.32636311348E+02  0.10725550768E+03  0.37747635496E+03  0.39380116975E+03  0.47000000000E+01 0.  1.
        -11    1    1    2    0    0  0.40682196477E+01 -0.61148608820E+02  0.44804431740E+02  0.75915346770E+02  0.00000000000E+00 0. -1.
         11    1    1    2    0    0 -0.58976405113E+02 -0.56783459662E+02  0.19626378454E+03  0.21265476899E+03  0.00000000000E+00 0.  1.
<mgrwt>
<rscale>  0 0.34234319E+03</rscale>
<asrwt>0</asrwt>
<pdfrwt beam="1">  1        1 0.10205417E+00 0.34234319E+03</pdfrwt>
<pdfrwt beam="2">  1       -1 0.67952579E-02 0.34234319E+03</pdfrwt>
<totfact> 0.33801829E+03</totfact>
</mgrwt>
</event>
<event>
 6    1  0.6101889E-006  0.1266208E+03  0.7546771E-02  0.1246530E+00
          2   -1    0    0  501    0  0.00000000000E+00  0.00000000000E+00  0.48721540632E+03  0.48721540632E+03  0.00000000000E+00 0. -1.
         -2   -1    0    0    0  501 -0.00000000000E+00 -0.00000000000E+00 -0.25701734353E+02  0.25701734353E+02  0.00000000000E+00 0.  1.
          5    1    1    2  502    0  0.60663450530E+01  0.48664459031E+02  0.53458433134E+02  0.72697484058E+02  0.47000000000E+01 0. -1.
         -5    1    1    2    0  502  0.12762758083E+02 -0.55914920394E+02  0.24204229573E+03  0.24878892507E+03  0.47000000000E+01 0. -1.
        -11    1    1    2    0    0  0.35261827681E+02 -0.12631726332E+02  0.58956014378E+02  0.69848182745E+02  0.00000000000E+00 0.  1.
         11    1    1    2    0    0 -0.54090930817E+02  0.19882187694E+02  0.10705692873E+03  0.12158254880E+03  0.00000000000E+00 0. -1.
<mgrwt>
<rscale>  0 0.11794295E+03</rscale>
<asrwt>0</asrwt>
<pdfrwt beam="1">  1        2 0.74956210E-01 0.12662081E+03</pdfrwt>
<pdfrwt beam="2">  1       -2 0.39541133E-02 0.12662081E+03</pdfrwt>
<totfact> 0.16810674E+04</totfact>
</mgrwt>
</event>
<event>
 6    1  0.6101889E-006  0.1303078E+03  0.7546771E-02  0.1241206E+00
          2   -1    0    0  501    0  0.00000000000E+00  0.00000000000E+00  0.67623253516E+03  0.67623253516E+03  0.00000000000E+00 0. -1.
         -2   -1    0    0    0  501 -0.00000000000E+00 -0.00000000000E+00 -0.20664480178E+02  0.20664480178E+02  0.00000000000E+00 0.  1.
          5    1    1    2  502    0  0.58390634509E+02  0.30443442158E+02  0.39401451618E+03  0.39950694403E+03  0.47000000000E+01 0. -1.
         -5    1    1    2    0  502 -0.22221476462E+02 -0.37372632092E+02  0.70714338609E+02  0.83145146163E+02  0.47000000000E+01 0. -1.
        -11    1    1    2    0    0 -0.16417305448E+02  0.45381765647E+02  0.13667347811E+03  0.14494368627E+03  0.00000000000E+00 0.  1.
         11    1    1    2    0    0 -0.19751852599E+02 -0.38452575714E+02  0.54165722077E+02  0.69301238865E+02  0.00000000000E+00 0. -1.
<mgrwt>
<rscale>  0 0.12115360E+03</rscale>
<asrwt>0</asrwt>
<pdfrwt beam="1">  1        2 0.10403576E+00 0.13030783E+03</pdfrwt>
<pdfrwt beam="2">  1       -2 0.31791513E-02 0.13030783E+03</pdfrwt>
<totfact> 0.16073290E+04</totfact>
</mgrwt>
</event>
<event>
 6    1  0.6101889E-006  0.4323180E+03  0.7546771E-02  0.1033130E+00
          1   -1    0    0  501    0  0.00000000000E+00  0.00000000000E+00  0.72553059557E+03  0.72553059557E+03  0.00000000000E+00 0. -1.
         -1   -1    0    0    0  501 -0.00000000000E+00 -0.00000000000E+00 -0.64400762247E+02  0.64400762247E+02  0.00000000000E+00 0.  1.
          5    1    1    2  502    0  0.42578907533E+01  0.68922547293E+01  0.17513094690E+03  0.17538121727E+03  0.47000000000E+01 0. -1.
         -5    1    1    2    0  502 -0.16366936252E+03  0.40598842360E+02  0.32141852891E+03  0.36299846687E+03  0.47000000000E+01 0. -1.
        -11    1    1    2    0    0  0.11394052045E+03 -0.74534516893E+02  0.10548940690E+03  0.17223777570E+03  0.00000000000E+00 0. -1.
         11    1    1    2    0    0  0.45470951315E+02  0.27043419803E+02  0.59090950611E+02  0.79313897977E+02  0.00000000000E+00 0.  1.
<mgrwt>
<rscale>  0 0.43231805E+03</rscale>
<asrwt>0</asrwt>
<pdfrwt beam="1">  1        1 0.11162009E+00 0.43231805E+03</pdfrwt>
<pdfrwt beam="2">  1       -1 0.99078101E-02 0.43231805E+03</pdfrwt>
<totfact> 0.16564908E+03</totfact>
</mgrwt>
</event>
<event>
 6    1  0.6101889E-006  0.4423299E+03  0.7546771E-02  0.1030034E+00
          1   -1    0    0  501    0  0.00000000000E+00  0.00000000000E+00  0.19234736014E+04  0.19234736014E+04  0.00000000000E+00 0. -1.
         -1   -1    0    0    0  501 -0.00000000000E+00 -0.00000000000E+00 -0.25429999764E+02  0.25429999764E+02  0.00000000000E+00 0.  1.
          5    1    1    2  502    0  0.11433374055E+03  0.12952708875E+03  0.10860857779E+04  0.10997517346E+04  0.47000000000E+01 0.  1.
         -5    1    1    2    0  502 -0.22737719884E+02  0.41948092616E+01  0.35693406577E+03  0.35771303812E+03  0.47000000000E+01 0.  1.
        -11    1    1    2    0    0 -0.68897393061E+02 -0.38338077551E+02  0.27926123075E+03  0.29017838300E+03  0.00000000000E+00 0. -1.
         11    1    1    2    0    0 -0.22698627608E+02 -0.95383820464E+02  0.17576252723E+03  0.20126044539E+03  0.00000000000E+00 0.  1.
<mgrwt>
<rscale>  0 0.44232989E+03</rscale>
<asrwt>0</asrwt>
<pdfrwt beam="1">  1        1 0.29591890E+00 0.44232989E+03</pdfrwt>
<pdfrwt beam="2">  1       -1 0.39123092E-02 0.44232989E+03</pdfrwt>
<totfact> 0.94847879E+02</totfact>
</mgrwt>
</event>
<event>
 6    1  0.6101889E-006  0.1968015E+03  0.7546771E-02  0.1156976E+00
          1   -1    0    0  501    0  0.00000000000E+00  0.00000000000E+00  0.12727335460E+04  0.12727335460E+04  0.00000000000E+00 0.  1.
         -1   -1    0    0    0  501 -0.00000000000E+00 -0.00000000000E+00 -0.27935326829E+02  0.27935326829E+02  0.00000000000E+00 0. -1.
          5    1    1    2  502    0 -0.48800369925E+01 -0.81825900919E+02  0.61354002065E+03  0.61900948277E+03  0.47000000000E+01 0.  1.
         -5    1    1    2    0  502 -0.37582225605E+02 -0.64140117507E+02  0.12697936583E+03  0.14721490312E+03  0.47000000000E+01 0.  1.
        -11    1    1    2    0    0 -0.31574988112E+00  0.99693566957E+02  0.40310800441E+03  0.41525289910E+03  0.00000000000E+00 0. -1.
         11    1    1    2    0    0  0.42778012479E+02  0.46272451469E+02  0.10117082832E+03  0.11919158787E+03  0.00000000000E+00 0.  1.
<mgrwt>
<rscale>  0 0.19165624E+03</rscale>
<asrwt>0</asrwt>
<pdfrwt beam="1">  1        1 0.19580512E+00 0.19680154E+03</pdfrwt>
<pdfrwt beam="2">  1       -1 0.42977436E-02 0.19680154E+03</pdfrwt>
<totfact> 0.22465215E+03</totfact>
</mgrwt>
</event>
<event>
 6    1  0.6101889E-006  0.2510934E+03  0.7546771E-02  0.1115096E+00
          1   -1    0    0  501    0  0.00000000000E+00  0.00000000000E+00  0.24045084128E+03  0.24045084128E+03  0.00000000000E+00 0. -1.
         -1   -1    0    0    0  501 -0.00000000000E+00 -0.00000000000E+00 -0.27965177138E+03  0.27965177138E+03  0.00000000000E+00 0.  1.
          5    1    1    2  502    0  0.20618313429E+03  0.79750134923E+02  0.40029500285E+02  0.22471319449E+03  0.47000000000E+01 0.  1.
         -5    1    1    2    0  502  0.31436341123E+01 -0.19713232095E+02  0.29320969556E+02  0.35781324889E+02  0.47000000000E+01 0.  1.
        -11    1    1    2    0    0 -0.27996833172E+01 -0.18309275611E+02 -0.28959141729E+02  0.34375859113E+02  0.00000000000E+00 0. -1.
         11    1    1    2    0    0 -0.20652708508E+03 -0.41727627217E+02 -0.79592258207E+02  0.22523223417E+03  0.00000000000E+00 0.  1.
<mgrwt>
<rscale>  0 0.24718579E+03</rscale>
<asrwt>0</asrwt>
<pdfrwt beam="1">  1        1 0.36992437E-01 0.25109342E+03</pdfrwt>
<pdfrwt beam="2">  1       -1 0.43023349E-01 0.25109342E+03</pdfrwt>
<totfact> 0.63037267E+02</totfact>
</mgrwt>
</event>
<event>
 6    1  0.6101889E-006  0.1448303E+03  0.7546771E-02  0.1227400E+00
         -1   -1    0    0    0  501 -0.00000000000E+00  0.00000000000E+00  0.11722568681E+02  0.11722568681E+02  0.00000000000E+00 0.  1.
          1   -1    0    0  501    0  0.00000000000E+00 -0.00000000000E+00 -0.14780625424E+04  0.14780625424E+04  0.00000000000E+00 0. -1.
          5    1    1    2  502    0 -0.25988915419E+02  0.71498026499E+02 -0.72013997655E+03  0.72416232113E+03  0.47000000000E+01 0. -1.
         -5    1    1    2    0  502  0.39734052723E+02 -0.53227091959E+02 -0.44797763546E+03  0.45289951439E+03  0.47000000000E+01 0.  1.
        -11    1    1    2    0    0  0.38111416796E+02 -0.17944189387E+02 -0.12518736731E+03  0.13208463558E+03  0.00000000000E+00 0. -1.
         11    1    1    2    0    0 -0.51856554100E+02 -0.32674515335E+00 -0.17303499436E+03  0.18063863994E+03  0.00000000000E+00 0.  1.
<mgrwt>
<rscale>  0 0.13003770E+03</rscale>
<asrwt>0</asrwt>
<pdfrwt beam="2">  1        1 0.22739411E+00 0.14483028E+03</pdfrwt>
<pdfrwt beam="1">  1       -1 0.18034731E-02 0.14483028E+03</pdfrwt>
<totfact> 0.58031606E+03</totfact>
</mgrwt>
</event>
<event>
 6    1  0.6101889E-006  0.1285370E+03  0.7546771E-02  0.1243767E+00
         -2   -1    0    0    0  501 -0.00000000000E+00  0.00000000000E+00  0.64504931461E+02  0.64504931461E+02  0.00000000000E+00 0.  1.
          2   -1    0    0  501    0  0.00000000000E+00 -0.00000000000E+00 -0.32390884507E+03  0.32390884507E+03  0.00000000000E+00 0. -1.
          5    1    1    2  502    0 -0.50874820061E+02  0.14302356782E+02 -0.14692352029E+03  0.15620952449E+03  0.47000000000E+01 0.  1.
         -5    1    1    2    0  502  0.71226493165E+02  0.76558152091E+01 -0.11531066944E+03  0.13583248993E+03  0.47000000000E+01 0.  1.
        -11    1    1    2    0    0 -0.23480713876E+02  0.55839811408E+01 -0.39193793012E+02  0.46029101448E+02  0.00000000000E+00 0. -1.
         11    1    1    2    0    0  0.31290407725E+01 -0.27542153131E+02  0.42024069137E+02  0.50342660657E+02  0.00000000000E+00 0.  1.
<mgrwt>
<rscale>  0 0.11959466E+03</rscale>
<asrwt>0</asrwt>
<pdfrwt beam="2">  1        2 0.49832129E-01 0.12853703E+03</pdfrwt>
<pdfrwt beam="1">  1       -2 0.99238357E-02 0.12853703E+03</pdfrwt>
<totfact> 0.64283483E+03</totfact>
</mgrwt>
</event>
<event>
 6    1  0.6101889E-006  0.2043612E+03  0.7546771E-02  0.1150129E+00
         -1   -1    0    0    0  501 -0.00000000000E+00  0.00000000000E+00  0.54571929889E+02  0.54571929889E+02  0.00000000000E+00 0.  1.
          1   -1    0    0  501    0  0.00000000000E+00 -0.00000000000E+00 -0.84695818727E+03  0.84695818727E+03  0.00000000000E+00 0. -1.
          5    1    1    2  502    0  0.33535223555E+00  0.19580785085E+02 -0.14608000857E+03  0.14746178661E+03  0.47000000000E+01 0. -1.
         -5    1    1    2    0  502 -0.12759653234E+03 -0.11933290830E+03 -0.45507515671E+03  0.48747995479E+03  0.47000000000E+01 0. -1.
        -11    1    1    2    0    0  0.10146651480E+03  0.11035145981E+03 -0.12666573329E+03  0.19625775474E+03  0.00000000000E+00 0.  1.
         11    1    1    2    0    0  0.25794665297E+02 -0.10599336595E+02 -0.64565358813E+02  0.70330621018E+02  0.00000000000E+00 0. -1.
<mgrwt>
<rscale>  0 0.19953827E+03</rscale>
<asrwt>0</asrwt>
<pdfrwt beam="2">  1        1 0.13030126E+00 0.20436116E+03</pdfrwt>
<pdfrwt beam="1">  1       -1 0.83956818E-02 0.20436116E+03</pdfrwt>
<totfact> 0.16797972E+03</totfact>
</mgrwt>
</event>
<event>
 6    1  0.6101889E-006  0.3301342E+03  0.7546771E-02  0.1072311E+00
         -2   -1    0    0    0  501 -0.00000000000E+00  0.00000000000E+00  0.11256810242E+04  0.11256810242E+04  0.00000000000E+00 0.  1.
          2   -1    0    0  501    0  0.00000000000E+00 -0.00000000000E+00 -0.95529313746E+02  0.95529313746E+02  0.00000000000E+00 0. -1.
          5    1    1    2  502    0  0.64415460232E+02  0.56978527256E-01  0.35472726338E+02  0.73686898953E+02  0.47000000000E+01 0. -1.
         -5    1    1    2    0  502  0.20023380538E+03  0.15266560927E+03  0.40209543840E+03  0.47445041538E+03  0.47000000000E+01 0. -1.
        -11    1    1    2    0    0 -0.23175727371E+03 -0.16294569309E+03  0.54615959370E+03  0.61526663700E+03  0.00000000000E+00 0.  1.
         11    1    1    2    0    0 -0.32891991902E+02  0.10223105292E+02  0.46423952014E+02  0.57806386617E+02  0.00000000000E+00 0. -1.
<mgrwt>
<rscale>  0 0.32735939E+03</rscale>
<asrwt>0</asrwt>
<pdfrwt beam="2">  1        2 0.14696818E-01 0.33013424E+03</pdfrwt>
<pdfrwt beam="1">  1       -2 0.17318169E+00 0.33013424E+03</pdfrwt>
<totfact> 0.86248172E+01</totfact>
</mgrwt>
</event>
<event>
 6    1  0.6101889E-006  0.1594903E+03  0.7546771E-02  0.1197563E+00
         -2   -1    0    0    0  501 -0.00000000000E+00  0.00000000000E+00  0.24376553074E+03  0.24376553074E+03  0.00000000000E+00 0.  1.
          2   -1    0    0  501    0  0.00000000000E+00 -0.00000000000E+00 -0.87702370308E+02  0.87702370308E+02  0.00000000000E+00 0. -1.
          5    1    1    2  502    0 -0.47256566394E+02  0.45623352256E+02  0.35595628514E+01  0.65950237498E+02  0.47000000000E+01 0. -1.
         -5    1    1    2    0  502 -0.50253315501E+02 -0.63082265605E+02  0.81699614335E+02  0.11489858544E+03  0.47000000000E+01 0. -1.
        -11    1    1    2    0    0  0.32735285707E+02  0.47180607145E+02  0.50613403729E+02  0.76546229548E+02  0.00000000000E+00 0.  1.
         11    1    1    2    0    0  0.64774596188E+02 -0.29721693796E+02  0.20190579517E+02  0.74072848566E+02  0.00000000000E+00 0. -1.
<mgrwt>
<rscale>  0 0.15239274E+03</rscale>
<asrwt>0</asrwt>
<pdfrwt beam="2">  1        2 0.13492672E-01 0.15949034E+03</pdfrwt>
<pdfrwt beam="1">  1       -2 0.37502389E-01 0.15949034E+03</pdfrwt>
<totfact> 0.28972115E+03</totfact>
</mgrwt>
</event>
<event>
 6    1  0.6101889E-006  0.2132639E+03  0.7546771E-02  0.1142772E+00
         -1   -1    0    0    0  501 -0.00000000000E+00  0.00000000000E+00  0.92167707557E+02  0.92167707557E+02  0.00000000000E+00 0.  1.
          1   -1    0    0  501    0  0.00000000000E+00 -0.00000000000E+00 -0.46266973745E+03  0.46266973745E+03  0.00000000000E+00 0. -1.
          5    1    1    2  502    0  0.25234164546E+02  0.66906562837E+02 -0.69622757941E+02  0.99913310596E+02  0.47000000000E+01 0. -1.
         -5    1    1    2    0  502  0.14006497092E+03 -0.16563716503E+02 -0.16664906741E+03  0.21837251305E+03  0.47000000000E+01 0. -1.
        -11    1    1    2    0    0 -0.17000013954E+03 -0.34258541563E+02 -0.13501073702E+03  0.21977623671E+03  0.00000000000E+00 0. -1.
         11    1    1    2    0    0  0.47010040710E+01 -0.16084304771E+02  0.78053248104E+00  0.16775384651E+02  0.00000000000E+00 0.  1.
<mgrwt>
<rscale>  0 0.20848443E+03</rscale>
<asrwt>0</asrwt>
<pdfrwt beam="2">  1        1 0.71179959E-01 0.21326390E+03</pdfrwt>
<pdfrwt beam="1">  1       -1 0.14179648E-01 0.21326390E+03</pdfrwt>
<totfact> 0.17511544E+03</totfact>
</mgrwt>
</event>
<event>
 6    1  0.6101889E-006  0.1473733E+03  0.7546771E-02  0.1213801E+00
         -2   -1    0    0    0  501 -0.00000000000E+00  0.00000000000E+00  0.27033893597E+02  0.27033893597E+02  0.00000000000E+00 0.  1.
          2   -1    0    0  501    0  0.00000000000E+00 -0.00000000000E+00 -0.66462217919E+03  0.66462217919E+03  0.00000000000E+00 0. -1.
          5    1    1    2  502    0  0.31890255053E+02  0.39802625775E+01 -0.14096459272E+03  0.14465800102E+03  0.47000000000E+01 0.  1.
         -5    1    1    2    0  502 -0.10991900405E+03 -0.61355022811E+01 -0.25228007612E+03  0.27529467602E+03  0.47000000000E+01 0.  1.
        -11    1    1    2    0    0  0.50766960814E+02  0.86410202958E+01 -0.23728032612E+03  0.24280425183E+03  0.00000000000E+00 0. -1.
         11    1    1    2    0    0  0.27261788179E+02 -0.64857805922E+01 -0.70632906281E+01  0.28899143916E+02  0.00000000000E+00 0.  1.
<mgrwt>
<rscale>  0 0.13964947E+03</rscale>
<asrwt>0</asrwt>
<pdfrwt beam="2">  1        2 0.10224957E+00 0.14737327E+03</pdfrwt>
<pdfrwt beam="1">  1       -2 0.41590604E-02 0.14737327E+03</pdfrwt>
<totfact> 0.11114168E+04</totfact>
</mgrwt>
</event>
<event>
 6    1  0.6101889E-006  0.1536374E+03  0.7546771E-02  0.1204529E+00
          2   -1    0    0  501    0  0.00000000000E+00  0.00000000000E+00  0.10905840026E+04  0.10905840026E+04  0.00000000000E+00 0. -1.
         -2   -1    0    0    0  501 -0.00000000000E+00 -0.00000000000E+00 -0.18854197385E+02  0.18854197385E+02  0.00000000000E+00 0.  1.
          5    1    1    2  502    0 -0.25579920251E+02  0.82131881299E+02  0.63598125371E+03  0.64178985916E+03  0.47000000000E+01 0. -1.
         -5    1    1    2    0  502 -0.32644476384E+02 -0.14394007652E+02  0.52655224537E+02  0.63777048895E+02  0.47000000000E+01 0. -1.
        -11    1    1    2    0    0 -0.21790261097E+02 -0.47361868756E+01  0.11380231631E+03  0.11596643541E+03  0.00000000000E+00 0.  1.
         11    1    1    2    0    0  0.80014657732E+02 -0.63001686771E+02  0.26929101069E+03  0.28790485655E+03  0.00000000000E+00 0. -1.
<mgrwt>
<rscale>  0 0.14674644E+03</rscale>
<asrwt>0</asrwt>
<pdfrwt beam="1">  1        2 0.16778211E+00 0.15363744E+03</pdfrwt>
<pdfrwt beam="2">  1       -2 0.29006466E-02 0.15363744E+03</pdfrwt>
<totfact> 0.10025889E+04</totfact>
</mgrwt>
</event>
<event>
 6    1  0.6101889E-006  0.1256577E+03  0.7546771E-02  0.1249370E+00
         -1   -1    0    0    0  501 -0.00000000000E+00  0.00000000000E+00  0.44710654823E+02  0.44710654823E+02  0.00000000000E+00 0.  1.
          1   -1    0    0  501    0  0.00000000000E+00 -0.00000000000E+00 -0.26537720458E+03  0.26537720458E+03  0.00000000000E+00 0. -1.
          5    1    1    2  502    0  0.23461365647E+02  0.55451813312E+02 -0.85310741695E+02  0.10452440828E+03  0.47000000000E+01 0.  1.
         -5    1    1    2    0  502 -0.34847837467E+02 -0.49390198274E+02 -0.38132904221E+02  0.71623821778E+02  0.47000000000E+01 0.  1.
        -11    1    1    2    0    0  0.31444809314E+02  0.26864829653E+02 -0.16586776549E+02  0.44560254279E+02  0.00000000000E+00 0.  1.
         11    1    1    2    0    0 -0.20058337494E+02 -0.32926444690E+02 -0.80636127291E+02  0.89379375067E+02  0.00000000000E+00 0. -1.
<mgrwt>
<rscale>  0 0.11627587E+03</rscale>
<asrwt>0</asrwt>
<pdfrwt beam="2">  1        1 0.40827263E-01 0.12565773E+03</pdfrwt>
<pdfrwt beam="1">  1       -1 0.68785622E-02 0.12565773E+03</pdfrwt>
<totfact> 0.10423178E+04</totfact>
</mgrwt>
</event>
<event>
 6    1  0.6101889E-006  0.1370526E+03  0.7546771E-02  0.1224057E+00
         -2   -1    0    0    0  501 -0.00000000000E+00  0.00000000000E+00  0.16402844065E+02  0.16402844065E+02  0.00000000000E+00 0.  1.
          2   -1    0    0  501    0  0.00000000000E+00 -0.00000000000E+00 -0.13773853959E+04  0.13773853959E+04  0.00000000000E+00 0. -1.
          5    1    1    2  502    0  0.85099466044E+02 -0.56412409183E+02 -0.71903472643E+03  0.72626256054E+03  0.47000000000E+01 0. -1.
         -5    1    1    2    0  502 -0.15031234713E+02  0.28118443465E+02 -0.36035552496E+03  0.36179383529E+03  0.47000000000E+01 0.  1.
        -11    1    1    2    0    0 -0.88663154509E+02  0.48436655779E+01 -0.22033731191E+03  0.23755661869E+03  0.00000000000E+00 0.  1.
         11    1    1    2    0    0  0.18594923178E+02  0.23450300141E+02 -0.61254988527E+02  0.68175225442E+02  0.00000000000E+00 0. -1.
<mgrwt>
<rscale>  0 0.13231718E+03</rscale>
<asrwt>0</asrwt>
<pdfrwt beam="2">  1        2 0.21190550E+00 0.13705257E+03</pdfrwt>
<pdfrwt beam="1">  1       -2 0.25235138E-02 0.13705257E+03</pdfrwt>
<totfact> 0.85018459E+03</totfact>
</mgrwt>
</event>
<event>
 6    1  0.6101889E-006  0.1452571E+03  0.7546771E-02  0.1216107E+00
          2   -1    0    0  501    0  0.00000000000E+00  0.00000000000E+00  0.33532156745E+03  0.33532156745E+03  0.00000000000E+00 0. -1.
         -2   -1    0    0    0  501 -0.00000000000E+00 -0.00000000000E+00 -0.59564740835E+02  0.59564740835E+02  0.00000000000E+00 0.  1.
          5    1    1    2  502    0 -0.10707482931E+02 -0.28869805833E+02 -0.48869690323E+01  0.31529166590E+02  0.47000000000E+01 0.  1.
         -5    1    1    2    0  502  0.41160738160E+02 -0.38608748063E+02  0.22630719523E+03  0.23328497252E+03  0.47000000000E+01 0.  1.
        -11    1    1    2    0    0 -0.49867787234E+02  0.65626750965E+01  0.75826635392E+01  0.50866115385E+02  0.00000000000E+00 0.  1.
         11    1    1    2    0    0  0.19414532005E+02  0.60915878799E+02  0.46753936882E+02  0.79206053789E+02  0.00000000000E+00 0. -1.
<mgrwt>
<rscale>  0 0.13795521E+03</rscale>
<asrwt>0</asrwt>
<pdfrwt beam="1">  1        2 0.51587933E-01 0.14525705E+03</pdfrwt>
<pdfrwt beam="2">  1       -2 0.91638065E-02 0.14525705E+03</pdfrwt>
<totfact> 0.70743979E+03</totfact>
</mgrwt>
</event>
<event>
 6    1  0.6101889E-006  0.2942344E+03  0.7546771E-02  0.1088159E+00
          2   -1    0    0  501    0  0.00000000000E+00  0.00000000000E+00  0.24718069187E+03  0.24718069187E+03  0.00000000000E+00 0. -1.
         -2   -1    0    0    0  501 -0.00000000000E+00 -0.00000000000E+00 -0.87561332366E+02  0.87561332366E+02  0.00000000000E+00 0.  1.
          5    1    1    2  502    0 -0.65070966400E+02  0.75026428684E+02  0.11952803693E+03  0.15547423349E+03  0.47000000000E+01 0.  1.
         -5    1    1    2    0  502  0.20064195702E+02  0.14136938492E+02 -0.20810432091E+02  0.32520594443E+02  0.47000000000E+01 0.  1.
        -11    1    1    2    0    0  0.38843815308E+02 -0.32034503898E+02 -0.14079596438E+02  0.52280842222E+02  0.00000000000E+00 0. -1.
         11    1    1    2    0    0  0.61629553904E+01 -0.57128863278E+02  0.74981351105E+02  0.94466354074E+02  0.00000000000E+00 0.  1.
<mgrwt>
<rscale>  0 0.29423440E+03</rscale>
<asrwt>0</asrwt>
<pdfrwt beam="1">  1        2 0.38027798E-01 0.29423440E+03</pdfrwt>
<pdfrwt beam="2">  1       -2 0.13470974E-01 0.29423440E+03</pdfrwt>
<totfact> 0.55038504E+03</totfact>
</mgrwt>
</event>
<event>
 6    1  0.6101889E-006  0.1253008E+03  0.7546771E-02  0.1250443E+00
         -1   -1    0    0    0  501 -0.00000000000E+00  0.00000000000E+00  0.23516207599E+03  0.23516207599E+03  0.00000000000E+00 0.  1.
          1   -1    0    0  501    0  0.00000000000E+00 -0.00000000000E+00 -0.53623344971E+02  0.53623344971E+02  0.00000000000E+00 0. -1.
          5    1    1    2  502    0  0.56386450182E+02 -0.75575905068E+01  0.16781870835E+02  0.59500169135E+02  0.47000000000E+01 0. -1.
         -5    1    1    2    0  502 -0.65164568138E+02  0.78297588927E+01  0.48825991604E+02  0.81937741737E+02  0.47000000000E+01 0. -1.
        -11    1    1    2    0    0  0.16856566044E+02 -0.29205168060E+02  0.71173090619E+01  0.34463629358E+02  0.00000000000E+00 0. -1.
         11    1    1    2    0    0 -0.80784480889E+01  0.28932999674E+02  0.10881355952E+03  0.11288388073E+03  0.00000000000E+00 0.  1.
<mgrwt>
<rscale>  0 0.11565443E+03</rscale>
<asrwt>0</asrwt>
<pdfrwt beam="2">  1        1 0.82497455E-02 0.12530080E+03</pdfrwt>
<pdfrwt beam="1">  1       -1 0.36178780E-01 0.12530080E+03</pdfrwt>
<totfact> 0.58142890E+03</totfact>
</mgrwt>
</event>
<event>
 6    1  0.6101889E-006  0.2336958E+03  0.7546771E-02  0.1126307E+00
          2   -1    0    0  501    0  0.00000000000E+00  0.00000000000E+00  0.52766452996E+03  0.52766452996E+03  0.00000000000E+00 0. -1.
         -2   -1    0    0    0  501 -0.00000000000E+00 -0.00000000000E+00 -0.10242217124E+03  0.10242217124E+03  0.00000000000E+00 0.  1.
          5    1    1    2  502    0  0.13519028036E+02 -0.38448140629E+02  0.64852158355E+02  0.76739273388E+02  0.47000000000E+01 0.  1.
         -5    1    1    2    0  502 -0.17775193114E+03 -0.71170095365E+02  0.21897621495E+03  0.29091855253E+03  0.47000000000E+01 0.  1.
        -11    1    1    2    0    0  0.14471836080E+03  0.98934308129E+02  0.71959584083E+02  0.18949824015E+03  0.00000000000E+00 0.  1.
         11    1    1    2    0    0  0.19514542295E+02  0.10683927865E+02  0.69454401331E+02  0.72930635126E+02  0.00000000000E+00 0. -1.
<mgrwt>
<rscale>  0 0.23047276E+03</rscale>
<asrwt>0</asrwt>
<pdfrwt beam="1">  1        2 0.81179157E-01 0.23369581E+03</pdfrwt>
<pdfrwt beam="2">  1       -2 0.15757257E-01 0.23369581E+03</pdfrwt>
<totfact> 0.18389548E+03</totfact>
</mgrwt>
</event>
<event>
 6    1  0.6101889E-006  0.1347701E+03  0.7546771E-02  0.1226559E+00
          2   -1    0    0  501    0  0.00000000000E+00  0.00000000000E+00  0.10073962015E+03  0.10073962015E+03  0.00000000000E+00 0. -1.
         -2   -1    0    0    0  501 -0.00000000000E+00 -0.00000000000E+00 -0.17872619481E+03  0.17872619481E+03  0.00000000000E+00 0.  1.
          5    1    1    2  502    0 -0.30113974304E+02  0.26921502662E+02 -0.14646806943E+02  0.43223115431E+02  0.47000000000E+01 0. -1.
         -5    1    1    2    0  502  0.54420581255E+02 -0.71048275825E+02  0.19036784807E+02  0.91618482511E+02  0.47000000000E+01 0. -1.
        -11    1    1    2    0    0 -0.51657080439E+02  0.37756812337E+02 -0.94428571980E+02  0.11406483263E+03  0.00000000000E+00 0.  1.
         11    1    1    2    0    0  0.27350473488E+02  0.63699608263E+01  0.12052019458E+02  0.30559384385E+02  0.00000000000E+00 0. -1.
<mgrwt>
<rscale>  0 0.13060626E+03</rscale>
<asrwt>0</asrwt>
<pdfrwt beam="1">  1        2 0.15498403E-01 0.13477012E+03</pdfrwt>
<pdfrwt beam="2">  1       -2 0.27496337E-01 0.13477012E+03</pdfrwt>
<totfact> 0.42903031E+03</totfact>
</mgrwt>
</event>
<event>
 6    1  0.6101889E-006  0.3156645E+03  0.7546771E-02  0.1077662E+00
          2   -1    0    0  501    0  0.00000000000E+00  0.00000000000E+00  0.86253142112E+03  0.86253142112E+03  0.00000000000E+00 0. -1.
         -2   -1    0    0    0  501 -0.00000000000E+00 -0.00000000000E+00 -0.28881284744E+02  0.28881284744E+02  0.00000000000E+00 0.  1.
          5    1    1    2  502    0 -0.71717555624E+01 -0.17416749890E+02  0.52260541122E+03  0.52296585270E+03  0.47000000000E+01 0.  1.
         -5    1    1    2    0  502  0.60254358778E+02  0.40182688251E+02  0.20286937262E+03  0.21546068907E+03  0.47000000000E+01 0.  1.
        -11    1    1    2    0    0 -0.27970789756E+02 -0.51942677253E+02  0.30770686754E+02  0.66537522971E+02  0.00000000000E+00 0.  1.
         11    1    1    2    0    0 -0.25111813460E+02  0.29176738892E+02  0.77404665788E+02  0.86448641131E+02  0.00000000000E+00 0. -1.
<mgrwt>
<rscale>  0 0.31566448E+03</rscale>
<asrwt>0</asrwt>
<pdfrwt beam="1">  1        2 0.13269712E+00 0.31566448E+03</pdfrwt>
<pdfrwt beam="2">  1       -2 0.44432752E-02 0.31566448E+03</pdfrwt>
<totfact> 0.75528787E+03</totfact>
</mgrwt>
</event>
<event>
 6    1  0.6101889E-006  0.1576140E+03  0.7546771E-02  0.1199484E+00
          1   -1    0    0  501    0  0.00000000000E+00  0.00000000000E+00  0.89165400949E+03  0.89165400949E+03  0.00000000000E+00 0. -1.
         -1   -1    0    0    0  501 -0.00000000000E+00 -0.00000000000E+00 -0.51003488899E+02  0.51003488899E+02  0.00000000000E+00 0.  1.
          5    1    1    2  502    0 -0.25861078603E+02 -0.13417358395E+02  0.85347642047E+02  0.90305763359E+02  0.47000000000E+01 0. -1.
         -5    1    1    2    0  502  0.82981707416E+02  0.90586764313E+02  0.69733655675E+03  0.70809059379E+03  0.47000000000E+01 0. -1.
        -11    1    1    2    0    0 -0.83024276883E+01 -0.22252208722E+02  0.66191462977E+02  0.70323544205E+02  0.00000000000E+00 0. -1.
         11    1    1    2    0    0 -0.48818201124E+02 -0.54917197195E+02 -0.82251411769E+01  0.73937597040E+02  0.00000000000E+00 0.  1.
<mgrwt>
<rscale>  0 0.15080797E+03</rscale>
<asrwt>0</asrwt>
<pdfrwt beam="1">  1        1 0.13717753E+00 0.15761405E+03</pdfrwt>
<pdfrwt beam="2">  1       -1 0.78466913E-02 0.15761405E+03</pdfrwt>
<totfact> 0.17115131E+03</totfact>
</mgrwt>
</event>
<event>
 6    1  0.6101889E-006  0.1382929E+03  0.7546771E-02  0.1227073E+00
         -1   -1    0    0    0  501 -0.00000000000E+00  0.00000000000E+00  0.27298404406E+02  0.27298404406E+02  0.00000000000E+00 0.  1.
          1   -1    0    0  501    0  0.00000000000E+00 -0.00000000000E+00 -0.79193376137E+03  0.79193376137E+03  0.00000000000E+00 0. -1.
          5    1    1    2  502    0  0.68545990307E+02  0.55504115598E+02 -0.41149534171E+03  0.42086787224E+03  0.47000000000E+01 0. -1.
         -5    1    1    2    0  502 -0.97749644980E+01 -0.48753005340E+02 -0.22385964700E+03  0.22936354770E+03  0.47000000000E+01 0. -1.
        -11    1    1    2    0    0  0.58512924390E+01 -0.32507848585E+02 -0.70775950922E+02  0.78103988834E+02  0.00000000000E+00 0. -1.
         11    1    1    2    0    0 -0.64622318248E+02  0.25756738326E+02 -0.58504417328E+02  0.90896756993E+02  0.00000000000E+00 0.  1.
<mgrwt>
<rscale>  0 0.13025815E+03</rscale>
<asrwt>0</asrwt>
<pdfrwt beam="2">  1        1 0.12183596E+00 0.13829294E+03</pdfrwt>
<pdfrwt beam="1">  1       -1 0.41997546E-02 0.13829294E+03</pdfrwt>
<totfact> 0.52010042E+03</totfact>
</mgrwt>
</event>
<event>
 6    1  0.6101889E-006  0.1348916E+03  0.7546771E-02  0.1232224E+00
          1   -1    0    0  501    0  0.00000000000E+00  0.00000000000E+00  0.31206302686E+03  0.31206302686E+03  0.00000000000E+00 0. -1.
         -1   -1    0    0    0  501 -0.00000000000E+00 -0.00000000000E+00 -0.78903516713E+02  0.78903516713E+02  0.00000000000E+00 0.  1.
          5    1    1    2  502    0  0.24132681891E+02 -0.15294709328E+02  0.82822470402E+00  0.28967057580E+02  0.47000000000E+01 0. -1.
         -5    1    1    2    0  502 -0.42718167726E+02 -0.33745239799E+02  0.24927798156E+03  0.25519636587E+03  0.47000000000E+01 0. -1.
        -11    1    1    2    0    0  0.49986112471E+02  0.32460399222E+02 -0.32671181263E+02  0.67968338531E+02  0.00000000000E+00 0.  1.
         11    1    1    2    0    0 -0.31400626636E+02  0.16579549905E+02  0.15724485146E+02  0.38834781592E+02  0.00000000000E+00 0. -1.
<mgrwt>
<rscale>  0 0.12683828E+03</rscale>
<asrwt>0</asrwt>
<pdfrwt beam="1">  1        1 0.48009696E-01 0.13489157E+03</pdfrwt>
<pdfrwt beam="2">  1       -1 0.12139003E-01 0.13489157E+03</pdfrwt>
<totfact> 0.36194192E+03</totfact>
</mgrwt>
</event>
<event>
 6    1  0.6101889E-006  0.1388619E+03  0.7546771E-02  0.1225801E+00
          1   -1    0    0  501    0  0.00000000000E+00  0.00000000000E+00  0.85338500083E+03  0.85338500083E+03  0.00000000000E+00 0. -1.
         -1   -1    0    0    0  501 -0.00000000000E+00 -0.00000000000E+00 -0.18790766191E+02  0.18790766191E+02  0.00000000000E+00 0.  1.
          5    1    1    2  502    0 -0.44408766684E+02 -0.20663506703E+02  0.25891085803E+03  0.26354514124E+03  0.47000000000E+01 0. -1.
         -5    1    1    2    0  502  0.12558743739E+02  0.72083803806E+02  0.12776233743E+03  0.14730614951E+03  0.47000000000E+01 0. -1.
        -11    1    1    2    0    0 -0.17096110330E+02  0.32682667075E+01  0.17468232450E+02  0.24659637074E+02  0.00000000000E+00 0.  1.
         11    1    1    2    0    0  0.48946133275E+02 -0.54688563811E+02  0.43045280673E+03  0.43666483920E+03  0.00000000000E+00 0. -1.
<mgrwt>
<rscale>  0 0.13112167E+03</rscale>
<asrwt>0</asrwt>
<pdfrwt beam="1">  1        1 0.13128997E+00 0.13886188E+03</pdfrwt>
<pdfrwt beam="2">  1       -1 0.28908878E-02 0.13886188E+03</pdfrwt>
<totfact> 0.80155995E+03</totfact>
</mgrwt>
</event>
<event>
 6    1  0.6101889E-006  0.1396168E+03  0.7546771E-02  0.1224222E+00
          2   -1    0    0  501    0  0.00000000000E+00  0.00000000000E+00  0.30179055220E+03  0.30179055220E+03  0.00000000000E+00 0. -1.
         -2   -1    0    0    0  501 -0.00000000000E+00 -0.00000000000E+00 -0.52550468823E+02  0.52550468823E+02  0.00000000000E+00 0.  1.
          5    1    1    2  502    0  0.15959902048E+02  0.77720586698E+02  0.12438275112E+03  0.14760883052E+03  0.47000000000E+01 0.  1.
         -5    1    1    2    0  502 -0.42032274749E+02 -0.21296673546E+02  0.14996828319E+02  0.49671473547E+02  0.47000000000E+01 0.  1.
        -11    1    1    2    0    0  0.44007307621E+02 -0.51166833014E+02  0.27953566550E+02  0.73048544185E+02  0.00000000000E+00 0.  1.
         11    1    1    2    0    0 -0.17934934920E+02 -0.52570801381E+01  0.81906937387E+02  0.84012172775E+02  0.00000000000E+00 0. -1.
<mgrwt>
<rscale>  0 0.13220386E+03</rscale>
<asrwt>0</asrwt>
<pdfrwt beam="1">  1        2 0.46429315E-01 0.13961680E+03</pdfrwt>
<pdfrwt beam="2">  1       -2 0.80846877E-02 0.13961680E+03</pdfrwt>
<totfact> 0.95869557E+03</totfact>
</mgrwt>
</event>
<event>
 6    1  0.6101889E-006  0.2747973E+03  0.7546771E-02  0.1098565E+00
          2   -1    0    0  501    0  0.00000000000E+00  0.00000000000E+00  0.63163855206E+02  0.63163855206E+02  0.00000000000E+00 0. -1.
         -2   -1    0    0    0  501 -0.00000000000E+00 -0.00000000000E+00 -0.29887954498E+03  0.29887954498E+03  0.00000000000E+00 0.  1.
          5    1    1    2  502    0  0.14452212630E+02  0.60555793382E+02  0.22582387900E+02  0.66392204402E+02  0.47000000000E+01 0.  1.
         -5    1    1    2    0  502 -0.17680163930E+00  0.78077961738E+01 -0.92494659274E+02  0.92942697045E+02  0.47000000000E+01 0.  1.
        -11    1    1    2    0    0 -0.27052359591E+02 -0.11637730949E+02 -0.27267180339E+01  0.29575360223E+02  0.00000000000E+00 0. -1.
         11    1    1    2    0    0  0.12776948600E+02 -0.56725858607E+02 -0.16307670037E+03  0.17313313852E+03  0.00000000000E+00 0.  1.
<mgrwt>
<rscale>  0 0.27479727E+03</rscale>
<asrwt>0</asrwt>
<pdfrwt beam="1">  1        2 0.97175162E-02 0.27479727E+03</pdfrwt>
<pdfrwt beam="2">  1       -2 0.45981468E-01 0.27479727E+03</pdfrwt>
<totfact> 0.30034712E+03</totfact>
</mgrwt>
</event>
<event>
 6    1  0.6101889E-006  0.1482037E+03  0.7546771E-02  0.1211560E+00
         -2   -1    0    0    0  501 -0.00000000000E+00  0.00000000000E+00  0.11890496982E+03  0.11890496982E+03  0.00000000000E+00 0.  1.
          2   -1    0    0  501    0  0.00000000000E+00 -0.00000000000E+00 -0.15430235436E+03  0.15430235436E+03  0.00000000000E+00 0. -1.
          5    1    1    2  502    0  0.55770670408E+02  0.67416211423E+02 -0.51754659452E+02  0.10176417845E+03  0.47000000000E+01 0. -1.
         -5    1    1    2    0  502  0.17166568667E+02 -0.35483636873E+02  0.27662879108E+02  0.48384960949E+02  0.47000000000E+01 0. -1.
        -11    1    1    2    0    0 -0.27229525346E+01 -0.41299905495E+02  0.19572823495E+02  0.45784190328E+02  0.00000000000E+00 0.  1.
         11    1    1    2    0    0 -0.70214286540E+02  0.93673309446E+01 -0.30878427687E+02  0.77273994460E+02  0.00000000000E+00 0. -1.
<mgrwt>
<rscale>  0 0.14132268E+03</rscale>
<asrwt>0</asrwt>
<pdfrwt beam="2">  1        2 0.23738824E-01 0.14820375E+03</pdfrwt>
<pdfrwt beam="1">  1       -2 0.18293072E-01 0.14820375E+03</pdfrwt>
<totfact> 0.53580691E+03</totfact>
</mgrwt>
</event>
<event>
 6    1  0.6101889E-006  0.1260424E+03  0.7546771E-02  0.1248136E+00
          1   -1    0    0  501    0  0.00000000000E+00  0.00000000000E+00  0.24725198484E+03  0.24725198484E+03  0.00000000000E+00 0. -1.
         -1   -1    0    0    0  501 -0.00000000000E+00 -0.00000000000E+00 -0.52256993703E+02  0.52256993703E+02  0.00000000000E+00 0.  1.
          5    1    1    2  502    0 -0.41845012186E+02 -0.28501130281E+02  0.21759038952E+02  0.55307009034E+02  0.47000000000E+01 0.  1.
         -5    1    1    2    0  502  0.54677042046E+02  0.18612336213E+02  0.12750225146E+03  0.14005324742E+03  0.47000000000E+01 0.  1.
        -11    1    1    2    0    0 -0.44713854949E+02 -0.11373534250E+02  0.46926475406E+02  0.65808663562E+02  0.00000000000E+00 0. -1.
         11    1    1    2    0    0  0.31881825089E+02  0.21262328317E+02 -0.11927746782E+01  0.38340058528E+02  0.00000000000E+00 0.  1.
<mgrwt>
<rscale>  0 0.11699627E+03</rscale>
<asrwt>0</asrwt>
<pdfrwt beam="1">  1        1 0.38038766E-01 0.12604244E+03</pdfrwt>
<pdfrwt beam="2">  1       -1 0.80395376E-02 0.12604244E+03</pdfrwt>
<totfact> 0.90023801E+03</totfact>
</mgrwt>
</event>
<event>
 6    1  0.6101889E-006  0.2345752E+03  0.7546771E-02  0.1126302E+00
         -1   -1    0    0    0  501 -0.00000000000E+00  0.00000000000E+00  0.40325801739E+02  0.40325801739E+02  0.00000000000E+00 0.  1.
          1   -1    0    0  501    0  0.00000000000E+00 -0.00000000000E+00 -0.12811528120E+04  0.12811528120E+04  0.00000000000E+00 0. -1.
          5    1    1    2  502    0  0.17738414616E+02 -0.14701635069E+03 -0.29339056052E+03  0.32867699908E+03  0.47000000000E+01 0. -1.
         -5    1    1    2    0  502 -0.45698426291E+01 -0.51040034030E+02 -0.40047214477E+03  0.40376477964E+03  0.47000000000E+01 0. -1.
        -11    1    1    2    0    0 -0.35635060302E+02  0.69887508486E+02 -0.29757233959E+03  0.30773920558E+03  0.00000000000E+00 0. -1.
         11    1    1    2    0    0  0.22466488315E+02  0.12816887623E+03 -0.24939196537E+03  0.28129762943E+03  0.00000000000E+00 0.  1.
<mgrwt>
<rscale>  0 0.23048024E+03</rscale>
<asrwt>0</asrwt>
<pdfrwt beam="2">  1        1 0.19710042E+00 0.23457516E+03</pdfrwt>
<pdfrwt beam="1">  1       -1 0.62039698E-02 0.23457516E+03</pdfrwt>
<totfact> 0.12791183E+03</totfact>
</mgrwt>
</event>
<event>
 6    1  0.6101889E-006  0.1696647E+03  0.7546771E-02  0.1184506E+00
         -1   -1    0    0    0  501 -0.00000000000E+00  0.00000000000E+00  0.23119869192E+02  0.23119869192E+02  0.00000000000E+00 0.  1.
          1   -1    0    0  501    0  0.00000000000E+00 -0.00000000000E+00 -0.12656752651E+04  0.12656752651E+04  0.00000000000E+00 0. -1.
          5    1    1    2  502    0  0.25373208663E+02 -0.66120678188E+01 -0.21554707991E+03  0.21718690756E+03  0.47000000000E+01 0.  1.
         -5    1    1    2    0  502 -0.12443655351E+03  0.64466300479E+02 -0.68549309623E+03  0.69968795525E+03  0.47000000000E+01 0.  1.
        -11    1    1    2    0    0  0.74657613294E+02 -0.81318440373E+02 -0.28974894167E+03  0.31006595615E+03  0.00000000000E+00 0. -1.
         11    1    1    2    0    0  0.24405731552E+02  0.23464207713E+02 -0.51766278112E+02  0.61854315337E+02  0.00000000000E+00 0.  1.
<mgrwt>
<rscale>  0 0.16376881E+03</rscale>
<asrwt>0</asrwt>
<pdfrwt beam="2">  1        1 0.19471934E+00 0.16966471E+03</pdfrwt>
<pdfrwt beam="1">  1       -1 0.35569017E-02 0.16966471E+03</pdfrwt>
<totfact> 0.29989225E+03</totfact>
</mgrwt>
</event>
<event>
 6    1  0.6101889E-006  0.1567327E+03  0.7546771E-02  0.1205689E+00
         -2   -1    0    0    0  501 -0.00000000000E+00  0.00000000000E+00  0.17044409274E+03  0.17044409274E+03  0.00000000000E+00 0.  1.
          2   -1    0    0  501    0  0.00000000000E+00 -0.00000000000E+00 -0.14315422640E+04  0.14315422640E+04  0.00000000000E+00 0. -1.
          5    1    1    2  502    0  0.76167161126E+02 -0.69783598688E+02 -0.10252101865E+04  0.10304121523E+04  0.47000000000E+01 0. -1.
         -5    1    1    2    0  502 -0.51553257615E+02 -0.20477883129E+01 -0.38120656409E+03  0.38471088666E+03  0.47000000000E+01 0.  1.
        -11    1    1    2    0    0 -0.25570278865E+02 -0.15546132039E+02  0.32826462922E+02  0.44419568329E+02  0.00000000000E+00 0. -1.
         11    1    1    2    0    0  0.95637535369E+00  0.87377519040E+02  0.11249211645E+03  0.14244374943E+03  0.00000000000E+00 0.  1.
<mgrwt>
<rscale>  0 0.14583313E+03</rscale>
<asrwt>0</asrwt>
<pdfrwt beam="2">  1        2 0.22023727E+00 0.15673270E+03</pdfrwt>
<pdfrwt beam="1">  1       -2 0.26222169E-01 0.15673270E+03</pdfrwt>
<totfact> 0.20147023E+02</totfact>
</mgrwt>
</event>
<event>
 6    1  0.6101889E-006  0.1274015E+03  0.7546771E-02  0.1247357E+00
          1   -1    0    0  501    0  0.00000000000E+00  0.00000000000E+00  0.98214406319E+02  0.98214406319E+02  0.00000000000E+00 0. -1.
         -1   -1    0    0    0  501 -0.00000000000E+00 -0.00000000000E+00 -0.12295196696E+03  0.12295196696E+03  0.00000000000E+00 0.  1.
          5    1    1    2  502    0  0.30481127673E+02  0.40804811367E+02  0.38261192518E+02  0.63875978488E+02  0.47000000000E+01 0. -1.
         -5    1    1    2    0  502 -0.11225426451E+02 -0.25488835810E+02 -0.58717044821E+02  0.65157288944E+02  0.47000000000E+01 0. -1.
        -11    1    1    2    0    0 -0.42288045142E+02  0.20978194267E+02  0.69249046393E+01  0.47710771330E+02  0.00000000000E+00 0. -1.
         11    1    1    2    0    0  0.23032343919E+02 -0.36294169823E+02 -0.11206612977E+02  0.44422334518E+02  0.00000000000E+00 0.  1.
<mgrwt>
<rscale>  0 0.11745391E+03</rscale>
<asrwt>0</asrwt>
<pdfrwt beam="1">  1        1 0.15109909E-01 0.12740150E+03</pdfrwt>
<pdfrwt beam="2">  1       -1 0.18915687E-01 0.12740150E+03</pdfrwt>
<totfact> 0.76684872E+03</totfact>
</mgrwt>
</event>
<event>
 6    1  0.6101889E-006  0.1280996E+03  0.7546771E-02  0.1246111E+00
          2   -1    0    0  501    0  0.00000000000E+00  0.00000000000E+00  0.60984481009E+03  0.60984481009E+03  0.00000000000E+00 0. -1.
         -2   -1    0    0    0  501 -0.00000000000E+00 -0.00000000000E+00 -0.20018011466E+02  0.20018011466E+02  0.00000000000E+00 0.  1.
          5    1    1    2  502    0  0.13535509998E+02 -0.18521658753E+01 -0.59492065732E+01  0.15624455453E+02  0.47000000000E+01 0. -1.
         -5    1    1    2    0  502 -0.12977379481E+02 -0.26191456919E+02  0.35426753101E+03  0.35550243082E+03  0.47000000000E+01 0. -1.
        -11    1    1    2    0    0  0.32314343287E+02  0.16811441826E+01  0.33782804269E+02  0.46779492217E+02  0.00000000000E+00 0.  1.
         11    1    1    2    0    0 -0.32872473804E+02  0.26362478612E+02  0.20772566992E+03  0.21195644307E+03  0.00000000000E+00 0. -1.
<mgrwt>
<rscale>  0 0.11819152E+03</rscale>
<asrwt>0</asrwt>
<pdfrwt beam="1">  1        2 0.93822265E-01 0.12809961E+03</pdfrwt>
<pdfrwt beam="2">  1       -2 0.30796945E-02 0.12809961E+03</pdfrwt>
<totfact> 0.18952182E+04</totfact>
</mgrwt>
</event>
<event>
 6    1  0.6101889E-006  0.1681335E+03  0.7546771E-02  0.1186884E+00
          2   -1    0    0  501    0  0.00000000000E+00  0.00000000000E+00  0.11489554626E+04  0.11489554626E+04  0.00000000000E+00 0. -1.
         -2   -1    0    0    0  501 -0.00000000000E+00 -0.00000000000E+00 -0.22007752826E+02  0.22007752826E+02  0.00000000000E+00 0.  1.
          5    1    1    2  502    0  0.21703638288E+02 -0.11975071093E+02  0.26537675424E+02  0.36616778388E+02  0.47000000000E+01 0.  1.
         -5    1    1    2    0  502  0.38669361506E+02  0.10683478686E+03  0.69575660085E+03  0.70498817638E+03  0.47000000000E+01 0.  1.
        -11    1    1    2    0    0  0.13043427864E+02 -0.21998638808E+02  0.24617225748E+02  0.35497590388E+02  0.00000000000E+00 0.  1.
         11    1    1    2    0    0 -0.73416427659E+02 -0.72861076956E+02  0.38003620772E+03  0.39386067025E+03  0.00000000000E+00 0. -1.
<mgrwt>
<rscale>  0 0.16161625E+03</rscale>
<asrwt>0</asrwt>
<pdfrwt beam="1">  1        2 0.17676233E+00 0.16813354E+03</pdfrwt>
<pdfrwt beam="2">  1       -2 0.33858090E-02 0.16813354E+03</pdfrwt>
<totfact> 0.74156742E+03</totfact>
</mgrwt>
</event>
<event>
 6    1  0.6101889E-006  0.1418880E+03  0.7546771E-02  0.1221872E+00
          1   -1    0    0  501    0  0.00000000000E+00  0.00000000000E+00  0.16943161848E+02  0.16943161848E+02  0.00000000000E+00 0. -1.
         -1   -1    0    0    0  501 -0.00000000000E+00 -0.00000000000E+00 -0.99612735295E+03  0.99612735295E+03  0.00000000000E+00 0.  1.
          5    1    1    2  502    0 -0.37062220631E+02 -0.12094018615E+02 -0.94289365943E+02  0.10213935585E+03  0.47000000000E+01 0. -1.
         -5    1    1    2    0  502  0.10041486394E+03 -0.10152977585E+02 -0.34571628676E+03  0.36017782939E+03  0.47000000000E+01 0. -1.
        -11    1    1    2    0    0 -0.33590359902E+02  0.57192944150E+02 -0.32941360224E+03  0.33602480040E+03  0.00000000000E+00 0.  1.
         11    1    1    2    0    0 -0.29762283410E+02 -0.34945947950E+02 -0.20976493616E+03  0.21472852916E+03  0.00000000000E+00 0. -1.
<mgrwt>
<rscale>  0 0.13383611E+03</rscale>
<asrwt>0</asrwt>
<pdfrwt beam="1">  1        1 0.26066397E-02 0.14188800E+03</pdfrwt>
<pdfrwt beam="2">  1       -1 0.15325040E+00 0.14188800E+03</pdfrwt>
<totfact> 0.14507850E+03</totfact>
</mgrwt>
</event>
<event>
 6    1  0.6101889E-006  0.1505921E+03  0.7546771E-02  0.1206501E+00
         -2   -1    0    0    0  501 -0.00000000000E+00  0.00000000000E+00  0.24970051782E+02  0.24970051782E+02  0.00000000000E+00 0.  1.
          2   -1    0    0  501    0  0.00000000000E+00 -0.00000000000E+00 -0.10939460382E+04  0.10939460382E+04  0.00000000000E+00 0. -1.
          5    1    1    2  502    0  0.22771490799E+02 -0.15643175471E+02 -0.67184364879E+03  0.67242786092E+03  0.47000000000E+01 0. -1.
         -5    1    1    2    0  502  0.69192873634E+02 -0.12592681914E+00 -0.18548727488E+03  0.19802850493E+03  0.47000000000E+01 0.  1.
        -11    1    1    2    0    0 -0.14295114237E+02  0.32553582095E+02 -0.19541679950E+02  0.40570472681E+02  0.00000000000E+00 0.  1.
         11    1    1    2    0    0 -0.77669250197E+02 -0.16784479805E+02 -0.19210338284E+03  0.20788925149E+03  0.00000000000E+00 0. -1.
<mgrwt>
<rscale>  0 0.14519821E+03</rscale>
<asrwt>0</asrwt>
<pdfrwt beam="2">  1        2 0.16829940E+00 0.15059207E+03</pdfrwt>
<pdfrwt beam="1">  1       -2 0.38415461E-02 0.15059207E+03</pdfrwt>
<totfact> 0.65802287E+03</totfact>
</mgrwt>
</event>
<event>
 6    1  0.6101889E-006  0.1619829E+03  0.7546771E-02  0.1190657E+00
          2   -1    0    0  501    0  0.00000000000E+00  0.00000000000E+00  0.23078796170E+03  0.23078796170E+03  0.00000000000E+00 0.  1.
         -2   -1    0    0    0  501 -0.00000000000E+00 -0.00000000000E+00 -0.10386185565E+03  0.10386185565E+03  0.00000000000E+00 0. -1.
          5    1    1    2  502    0 -0.46809664062E+02 -0.10857295396E+02  0.36412226930E+01  0.48418736204E+02  0.47000000000E+01 0.  1.
         -5    1    1    2    0  502  0.14685247503E+02  0.10875901704E+03  0.63906336670E+02  0.12708379184E+03  0.47000000000E+01 0.  1.
        -11    1    1    2    0    0  0.39663918696E+02 -0.66421673301E+02 -0.14297897289E+02  0.78673343626E+02  0.00000000000E+00 0. -1.
         11    1    1    2    0    0 -0.75395021369E+01 -0.31480048339E+02  0.73676443977E+02  0.80473945678E+02  0.00000000000E+00 0.  1.
<mgrwt>
<rscale>  0 0.15827564E+03</rscale>
<asrwt>0</asrwt>
<pdfrwt beam="1">  1        2 0.35505840E-01 0.16198291E+03</pdfrwt>
<pdfrwt beam="2">  1       -2 0.15978747E-01 0.16198291E+03</pdfrwt>
<totfact> 0.43459292E+03</totfact>
</mgrwt>
</event>
<event>
 6    1  0.6101889E-006  0.1236204E+03  0.7546771E-02  0.1244023E+00
         -1   -1    0    0    0  501 -0.00000000000E+00  0.00000000000E+00  0.75415689094E+03  0.75415689094E+03  0.00000000000E+00 0.  1.
          1   -1    0    0  501    0  0.00000000000E+00 -0.00000000000E+00 -0.27416289316E+02  0.27416289316E+02  0.00000000000E+00 0. -1.
          5    1    1    2  502    0  0.44090127505E+01  0.70961443120E+02  0.10424714591E+03  0.12627162481E+03  0.47000000000E+01 0. -1.
         -5    1    1    2    0  502 -0.40009237892E+02 -0.29833728865E+02  0.43500178671E+02  0.66371274201E+02  0.47000000000E+01 0.  1.
        -11    1    1    2    0    0 -0.31219892710E+02 -0.52838701671E+01  0.18895837076E+03  0.19159297185E+03  0.00000000000E+00 0.  1.
         11    1    1    2    0    0  0.66820117851E+02 -0.35843844089E+02  0.39003490629E+03  0.39733730939E+03  0.00000000000E+00 0. -1.
<mgrwt>
<rscale>  0 0.11944046E+03</rscale>
<asrwt>0</asrwt>
<pdfrwt beam="2">  1        1 0.42178912E-02 0.12362045E+03</pdfrwt>
<pdfrwt beam="1">  1       -1 0.11602412E+00 0.12362045E+03</pdfrwt>
<totfact> 0.14703049E+03</totfact>
</mgrwt>
</event>
<event>
 6    1  0.6101889E-006  0.1272955E+03  0.7546771E-02  0.1246049E+00
          1   -1    0    0  501    0  0.00000000000E+00  0.00000000000E+00  0.32446224128E+03  0.32446224128E+03  0.00000000000E+00 0. -1.
         -1   -1    0    0    0  501 -0.00000000000E+00 -0.00000000000E+00 -0.38261699311E+02  0.38261699311E+02  0.00000000000E+00 0.  1.
          5    1    1    2  502    0 -0.47955938989E+02  0.44261829293E+02  0.68040210139E+02  0.94395136593E+02  0.47000000000E+01 0. -1.
         -5    1    1    2    0  502  0.53945500406E+02 -0.20917391494E+02  0.11131896533E+03  0.12554543529E+03  0.47000000000E+01 0. -1.
        -11    1    1    2    0    0 -0.46913418574E+02 -0.72075947489E+01  0.73886074859E+02  0.87817824628E+02  0.00000000000E+00 0. -1.
         11    1    1    2    0    0  0.40923857157E+02 -0.16136843051E+02  0.32955291641E+02  0.54965544074E+02  0.00000000000E+00 0.  1.
<mgrwt>
<rscale>  0 0.11822818E+03</rscale>
<asrwt>0</asrwt>
<pdfrwt beam="1">  1        1 0.49917266E-01 0.12729549E+03</pdfrwt>
<pdfrwt beam="2">  1       -1 0.58864155E-02 0.12729549E+03</pdfrwt>
<totfact> 0.10267954E+04</totfact>
</mgrwt>
</event>
<event>
 6    1  0.6101889E-006  0.2617100E+03  0.7546771E-02  0.1108157E+00
          1   -1    0    0  501    0  0.00000000000E+00  0.00000000000E+00  0.11433754001E+03  0.11433754001E+03  0.00000000000E+00 0. -1.
         -1   -1    0    0    0  501 -0.00000000000E+00 -0.00000000000E+00 -0.79862992009E+03  0.79862992009E+03  0.00000000000E+00 0.  1.
          5    1    1    2  502    0 -0.27588033351E+02 -0.10095955114E+03 -0.26986048954E+02  0.10818626248E+03  0.47000000000E+01 0. -1.
         -5    1    1    2    0  502  0.10112898023E+03 -0.11791403435E+03 -0.76788679461E+02  0.17334757406E+03  0.47000000000E+01 0.  1.
        -11    1    1    2    0    0 -0.24834627257E+02  0.10579965883E+03 -0.38785192420E+03  0.40278957487E+03  0.00000000000E+00 0. -1.
         11    1    1    2    0    0 -0.48706319626E+02  0.11307392666E+03 -0.19266572747E+03  0.22864404869E+03  0.00000000000E+00 0.  1.
<mgrwt>
<rscale>  0 0.25831974E+03</rscale>
<asrwt>0</asrwt>
<pdfrwt beam="1">  1        1 0.17590391E-01 0.26170997E+03</pdfrwt>
<pdfrwt beam="2">  1       -1 0.12286614E+00 0.26170997E+03</pdfrwt>
<totfact> 0.18964373E+02</totfact>
</mgrwt>
</event>
<event>
 6    1  0.6101889E-006  0.1253138E+03  0.7546771E-02  0.1248910E+00
         -2   -1    0    0    0  501 -0.00000000000E+00  0.00000000000E+00  0.40008826195E+02  0.40008826195E+02  0.00000000000E+00 0.  1.
          2   -1    0    0  501    0  0.00000000000E+00 -0.00000000000E+00 -0.33170916447E+03  0.33170916447E+03  0.00000000000E+00 0. -1.
          5    1    1    2  502    0 -0.53713634075E+02 -0.32040372867E+02 -0.15901861262E+03  0.17094077670E+03  0.47000000000E+01 0. -1.
         -5    1    1    2    0  502  0.44885622622E+02  0.32374291481E+02 -0.62880586202E+02  0.83897985602E+02  0.47000000000E+01 0. -1.
        -11    1    1    2    0    0  0.25998319037E+02  0.18303557400E+02  0.98564899869E+01  0.33287883699E+02  0.00000000000E+00 0.  1.
         11    1    1    2    0    0 -0.17170307585E+02 -0.18637476014E+02 -0.79657629441E+02  0.83591344665E+02  0.00000000000E+00 0. -1.
<mgrwt>
<rscale>  0 0.11654369E+03</rscale>
<asrwt>0</asrwt>
<pdfrwt beam="2">  1        2 0.51032180E-01 0.12531377E+03</pdfrwt>
<pdfrwt beam="1">  1       -2 0.61552040E-02 0.12531377E+03</pdfrwt>
<totfact> 0.13056224E+04</totfact>
</mgrwt>
</event>
<event>
 6    1  0.6101889E-006  0.1358127E+03  0.7546771E-02  0.1224842E+00
         -1   -1    0    0    0  501 -0.00000000000E+00  0.00000000000E+00  0.59886389223E+02  0.59886389223E+02  0.00000000000E+00 0.  1.
          1   -1    0    0  501    0  0.00000000000E+00 -0.00000000000E+00 -0.41490433177E+03  0.41490433177E+03  0.00000000000E+00 0. -1.
          5    1    1    2  502    0  0.25122303096E+02 -0.41287783234E+01 -0.32008111441E+03  0.32112643418E+03  0.47000000000E+01 0.  1.
         -5    1    1    2    0  502  0.24664269595E+02 -0.14343516529E+02 -0.26746237896E+01  0.29039736112E+02  0.47000000000E+01 0.  1.
        -11    1    1    2    0    0 -0.55456825915E+02  0.47043783493E+02  0.98847169316E+01  0.73391312392E+02  0.00000000000E+00 0.  1.
         11    1    1    2    0    0  0.56702532245E+01 -0.28571488641E+02 -0.42146921271E+02  0.51233238307E+02  0.00000000000E+00 0. -1.
<mgrwt>
<rscale>  0 0.13177723E+03</rscale>
<asrwt>0</asrwt>
<pdfrwt beam="2">  1        1 0.63831435E-01 0.13581267E+03</pdfrwt>
<pdfrwt beam="1">  1       -1 0.92132907E-02 0.13581267E+03</pdfrwt>
<totfact> 0.38679135E+03</totfact>
</mgrwt>
</event>
<event>
 6    1  0.6101889E-006  0.3099333E+03  0.7546771E-02  0.1080378E+00
         -2   -1    0    0    0  501 -0.00000000000E+00  0.00000000000E+00  0.80499070539E+02  0.80499070539E+02  0.00000000000E+00 0.  1.
          2   -1    0    0  501    0  0.00000000000E+00 -0.00000000000E+00 -0.29832224231E+03  0.29832224231E+03  0.00000000000E+00 0. -1.
          5    1    1    2  502    0 -0.38229499889E+02  0.17805581055E+02 -0.24647478096E+03  0.25010086171E+03  0.47000000000E+01 0. -1.
         -5    1    1    2    0  502  0.29390210348E+00  0.43281043696E+01  0.28148439575E+02  0.28865957743E+02  0.47000000000E+01 0.  1.
        -11    1    1    2    0    0  0.12302702782E+02 -0.55999610312E+02 -0.11970764259E+01  0.57347587942E+02  0.00000000000E+00 0. -1.
         11    1    1    2    0    0  0.25632895004E+02  0.33865924887E+02  0.17002460393E+01  0.42506905455E+02  0.00000000000E+00 0.  1.
<mgrwt>
<rscale>  0 0.30993330E+03</rscale>
<asrwt>0</asrwt>
<pdfrwt beam="2">  1        2 0.45895728E-01 0.30993330E+03</pdfrwt>
<pdfrwt beam="1">  1       -2 0.12384473E-01 0.30993330E+03</pdfrwt>
<totfact> 0.51597783E+03</totfact>
</mgrwt>
</event>
<event>
 6    1  0.6101889E-006  0.3707120E+03  0.7546771E-02  0.1054421E+00
         -2   -1    0    0    0  501 -0.00000000000E+00  0.00000000000E+00  0.52628937667E+02  0.52628937667E+02  0.00000000000E+00 0.  1.
          2   -1    0    0  501    0  0.00000000000E+00 -0.00000000000E+00 -0.65281273317E+03  0.65281273317E+03  0.00000000000E+00 0. -1.
          5    1    1    2  502    0  0.70706278051E+02 -0.11972950660E+03 -0.41683197278E+03  0.43943772715E+03  0.47000000000E+01 0.  1.
         -5    1    1    2    0  502 -0.88061201596E+01 -0.79006250588E+01  0.50331408722E+01  0.13689051670E+02  0.47000000000E+01 0.  1.
        -11    1    1    2    0    0  0.29387716483E+01  0.23087948900E+02  0.43398790740E+01  0.23675394687E+02  0.00000000000E+00 0.  1.
         11    1    1    2    0    0 -0.64838929540E+02  0.10454218276E+03 -0.19272484267E+03  0.22863949733E+03  0.00000000000E+00 0. -1.
<mgrwt>
<rscale>  0 0.37071197E+03</rscale>
<asrwt>0</asrwt>
<pdfrwt beam="2">  1        2 0.10043273E+00 0.37071197E+03</pdfrwt>
<pdfrwt beam="1">  1       -2 0.80967596E-02 0.37071197E+03</pdfrwt>
<totfact> 0.42562810E+03</totfact>
</mgrwt>
</event>
<event>
 6    1  0.6101889E-006  0.1339319E+03  0.7546771E-02  0.1232425E+00
          2   -1    0    0  501    0  0.00000000000E+00  0.00000000000E+00  0.23458500588E+03  0.23458500588E+03  0.00000000000E+00 0. -1.
         -2   -1    0    0    0  501 -0.00000000000E+00 -0.00000000000E+00 -0.66827506252E+02  0.66827506252E+02  0.00000000000E+00 0.  1.
          5    1    1    2  502    0  0.37959420139E+00  0.34151228802E+02 -0.46624012979E+01  0.34789057278E+02  0.47000000000E+01 0.  1.
         -5    1    1    2    0  502  0.43736007329E+02 -0.53249827581E+02  0.13736622349E+03  0.15375289211E+03  0.47000000000E+01 0.  1.
        -11    1    1    2    0    0 -0.60258582754E+02  0.20968367545E+02 -0.10358733582E+02  0.64638011993E+02  0.00000000000E+00 0.  1.
         11    1    1    2    0    0  0.16142981223E+02 -0.18697687652E+01  0.45412411018E+02  0.48232550757E+02  0.00000000000E+00 0. -1.
<mgrwt>
<rscale>  0 0.12670748E+03</rscale>
<asrwt>0</asrwt>
<pdfrwt beam="1">  1        2 0.36090000E-01 0.13393193E+03</pdfrwt>
<pdfrwt beam="2">  1       -2 0.10281155E-01 0.13393193E+03</pdfrwt>
<totfact> 0.85872142E+03</totfact>
</mgrwt>
</event>
<event>
 6    1  0.6101889E-006  0.1796289E+03  0.7546771E-02  0.1173379E+00
          2   -1    0    0  501    0  0.00000000000E+00  0.00000000000E+00  0.25696709438E+03  0.25696709438E+03  0.00000000000E+00 0. -1.
         -2   -1    0    0    0  501 -0.00000000000E+00 -0.00000000000E+00 -0.13294041011E+03  0.13294041011E+03  0.00000000000E+00 0.  1.
          5    1    1    2  502    0  0.27950234421E+02  0.56823270078E+02  0.40959037881E+02  0.75563433026E+02  0.47000000000E+01 0.  1.
         -5    1    1    2    0  502 -0.10568736900E+03  0.46119032949E+02  0.10168002787E+03  0.15381060833E+03  0.47000000000E+01 0.  1.
        -11    1    1    2    0    0  0.61422017540E+02 -0.11738112221E+03 -0.94500098766E+00  0.13248352772E+03  0.00000000000E+00 0. -1.
         11    1    1    2    0    0  0.16315117042E+02  0.14438819180E+02 -0.17667380501E+02  0.28049935422E+02  0.00000000000E+00 0.  1.
<mgrwt>
<rscale>  0 0.17435680E+03</rscale>
<asrwt>0</asrwt>
<pdfrwt beam="1">  1        2 0.39533399E-01 0.17962892E+03</pdfrwt>
<pdfrwt beam="2">  1       -2 0.20452371E-01 0.17962892E+03</pdfrwt>
<totfact> 0.25700620E+03</totfact>
</mgrwt>
</event>
<event>
 6    1  0.6101889E-006  0.1656661E+03  0.7546771E-02  0.1189606E+00
          1   -1    0    0  501    0  0.00000000000E+00  0.00000000000E+00  0.31673293649E+02  0.31673293649E+02  0.00000000000E+00 0. -1.
         -1   -1    0    0    0  501 -0.00000000000E+00 -0.00000000000E+00 -0.77599090981E+03  0.77599090981E+03  0.00000000000E+00 0.  1.
          5    1    1    2  502    0  0.43742570059E+02 -0.42934880957E+01 -0.13441742873E+03  0.14149905167E+03  0.47000000000E+01 0. -1.
         -5    1    1    2    0  502 -0.50345699260E+02 -0.10422527127E+03 -0.18382874123E+03  0.21728481932E+03  0.47000000000E+01 0. -1.
        -11    1    1    2    0    0  0.21401298417E+02  0.12028563758E+03 -0.37644249841E+03  0.39577216273E+03  0.00000000000E+00 0. -1.
         11    1    1    2    0    0 -0.14798169215E+02 -0.11766878216E+02 -0.49628947795E+02  0.53108169751E+02  0.00000000000E+00 0.  1.
<mgrwt>
<rscale>  0 0.15919747E+03</rscale>
<asrwt>0</asrwt>
<pdfrwt beam="1">  1        1 0.48728141E-02 0.16566605E+03</pdfrwt>
<pdfrwt beam="2">  1       -1 0.11938322E+00 0.16566605E+03</pdfrwt>
<totfact> 0.11401470E+03</totfact>
</mgrwt>
</event>
<event>
 6    1  0.6101889E-006  0.1334427E+03  0.7546771E-02  0.1235454E+00
         -2   -1    0    0    0  501 -0.00000000000E+00  0.00000000000E+00  0.34526582015E+02  0.34526582015E+02  0.00000000000E+00 0.  1.
          2   -1    0    0  501    0  0.00000000000E+00 -0.00000000000E+00 -0.52829392748E+03  0.52829392748E+03  0.00000000000E+00 0. -1.
          5    1    1    2  502    0 -0.40352506497E+02 -0.71902489143E+02 -0.22121164508E+03  0.23612491323E+03  0.47000000000E+01 0. -1.
         -5    1    1    2    0  502 -0.25144824541E+00  0.48838428572E+02 -0.18786512731E+03  0.19416655580E+03  0.47000000000E+01 0. -1.
        -11    1    1    2    0    0 -0.16932735935E+02  0.31140851879E+02 -0.80404545322E+01  0.36347202245E+02  0.00000000000E+00 0.  1.
         11    1    1    2    0    0  0.57536690677E+02 -0.80767913084E+01 -0.76650118535E+02  0.96181838220E+02  0.00000000000E+00 0. -1.
<mgrwt>
<rscale>  0 0.12475431E+03</rscale>
<asrwt>0</asrwt>
<pdfrwt beam="2">  1        2 0.81275987E-01 0.13344266E+03</pdfrwt>
<pdfrwt beam="1">  1       -2 0.53117819E-02 0.13344266E+03</pdfrwt>
<totfact> 0.99364248E+03</totfact>
</mgrwt>
</event>
<event>
 6    1  0.1355931E-005  0.3207472E+03  0.7546771E-02  0.1076784E+00
         -3   -1    0    0    0  501 -0.00000000000E+00  0.00000000000E+00  0.54737843317E+03  0.54737843317E+03  0.00000000000E+00 0.  1.
          3   -1    0    0  501    0  0.00000000000E+00 -0.00000000000E+00 -0.18093357510E+03  0.18093357510E+03  0.00000000000E+00 0. -1.
          5    1    1    2  502    0  0.27160392236E+01  0.19643950474E+03  0.19914669027E+03  0.27978089666E+03  0.47000000000E+01 0. -1.
         -5    1    1    2    0  502 -0.43389225644E+01  0.98945862872E+02  0.26932884174E+01  0.99188980391E+02  0.47000000000E+01 0. -1.
        -11    1    1    2    0    0  0.13063526453E+02 -0.91854044635E+02  0.97839196613E+02  0.13483445269E+03  0.00000000000E+00 0.  1.
         11    1    1    2    0    0 -0.11440643112E+02 -0.20353132298E+03  0.66765682765E+02  0.21450767852E+03  0.00000000000E+00 0. -1.
<mgrwt>
<rscale>  0 0.31754574E+03</rscale>
<asrwt>0</asrwt>
<pdfrwt beam="2">  1        3 0.27835935E-01 0.32074724E+03</pdfrwt>
<pdfrwt beam="1">  1       -3 0.84212066E-01 0.32074724E+03</pdfrwt>
<totfact> 0.41323048E+01</totfact>
</mgrwt>
</event>
<event>
 6    1  0.6101889E-006  0.1451684E+03  0.7546771E-02  0.1212704E+00
          2   -1    0    0  501    0  0.00000000000E+00  0.00000000000E+00  0.78433760408E+03  0.78433760408E+03  0.00000000000E+00 0. -1.
         -2   -1    0    0    0  501 -0.00000000000E+00 -0.00000000000E+00 -0.35617932556E+02  0.35617932556E+02  0.00000000000E+00 0.  1.
          5    1    1    2  502    0 -0.17991361499E+02 -0.25970819079E+02  0.44857965896E+03  0.44971543554E+03  0.47000000000E+01 0. -1.
         -5    1    1    2    0  502  0.50619431985E+02 -0.56461289581E+02  0.17939482940E+03  0.19481991410E+03  0.47000000000E+01 0.  1.
        -11    1    1    2    0    0 -0.35580003733E+02 -0.73758279579E+01  0.45432823425E+02  0.58176291976E+02  0.00000000000E+00 0.  1.
         11    1    1    2    0    0  0.29519332467E+01  0.89807936617E+02  0.75312359745E+02  0.11724389502E+03  0.00000000000E+00 0. -1.
<mgrwt>
<rscale>  0 0.14046542E+03</rscale>
<asrwt>0</asrwt>
<pdfrwt beam="1">  1        2 0.12066731E+00 0.14516838E+03</pdfrwt>
<pdfrwt beam="2">  1       -2 0.54796825E-02 0.14516838E+03</pdfrwt>
<totfact> 0.60141135E+03</totfact>
</mgrwt>
</event>
<event>
 6    1  0.6101889E-006  0.3032242E+03  0.7546771E-02  0.1084721E+00
          2   -1    0    0  501    0  0.00000000000E+00  0.00000000000E+00  0.10550975145E+04  0.10550975145E+04  0.00000000000E+00 0. -1.
         -2   -1    0    0    0  501 -0.00000000000E+00 -0.00000000000E+00 -0.11157085667E+03  0.11157085667E+03  0.00000000000E+00 0.  1.
          5    1    1    2  502    0 -0.13202520297E+03 -0.52309241483E+02  0.41391982062E+03  0.43762840272E+03  0.47000000000E+01 0. -1.
         -5    1    1    2    0  502 -0.14486009946E+03  0.64409313390E+02  0.34937379892E+03  0.38368887062E+03  0.47000000000E+01 0.  1.
        -11    1    1    2    0    0  0.12158883007E+02  0.13296138162E+02 -0.78167339358E+01  0.19639935219E+02  0.00000000000E+00 0.  1.
         11    1    1    2    0    0  0.26472641943E+03 -0.25396210069E+02  0.18804977226E+03  0.32571116265E+03  0.00000000000E+00 0. -1.
<mgrwt>
<rscale>  0 0.30104228E+03</rscale>
<asrwt>0</asrwt>
<pdfrwt beam="1">  1        2 0.16232269E+00 0.30322420E+03</pdfrwt>
<pdfrwt beam="2">  1       -2 0.17164748E-01 0.30322420E+03</pdfrwt>
<totfact> 0.66429263E+02</totfact>
</mgrwt>
</event>
<event>
 6    1  0.6101889E-006  0.1737636E+03  0.7546771E-02  0.1179862E+00
         -3   -1    0    0    0  501 -0.00000000000E+00  0.00000000000E+00  0.16410263877E+03  0.16410263877E+03  0.00000000000E+00 0.  1.
          3   -1    0    0  501    0  0.00000000000E+00 -0.00000000000E+00 -0.16268442526E+03  0.16268442526E+03  0.00000000000E+00 0. -1.
          5    1    1    2  502    0 -0.77656903468E+02 -0.39859415342E+02  0.17335945180E+02  0.89117858160E+02  0.47000000000E+01 0. -1.
         -5    1    1    2    0  502  0.40035066680E+02 -0.74826144822E+02 -0.45550306843E+01  0.85115197336E+02  0.47000000000E+01 0. -1.
        -11    1    1    2    0    0  0.34523061562E+02  0.47963316249E+02 -0.48213842129E+02  0.76268578445E+02  0.00000000000E+00 0. -1.
         11    1    1    2    0    0  0.30987752261E+01  0.66722243915E+02  0.36851141143E+02  0.76285430093E+02  0.00000000000E+00 0.  1.
<mgrwt>
<rscale>  0 0.16808273E+03</rscale>
<asrwt>0</asrwt>
<pdfrwt beam="2">  1        3 0.25028373E-01 0.17376365E+03</pdfrwt>
<pdfrwt beam="1">  1       -3 0.25246560E-01 0.17376365E+03</pdfrwt>
<totfact> 0.53061833E+02</totfact>
</mgrwt>
</event>
<event>
 6    1  0.6101889E-006  0.1250319E+03  0.7546771E-02  0.1250267E+00
          2   -1    0    0  501    0  0.00000000000E+00  0.00000000000E+00  0.10551595236E+03  0.10551595236E+03  0.00000000000E+00 0. -1.
         -2   -1    0    0    0  501 -0.00000000000E+00 -0.00000000000E+00 -0.11283599624E+03  0.11283599624E+03  0.00000000000E+00 0.  1.
          5    1    1    2  502    0  0.45856087372E+02 -0.24566179591E+02  0.36812343304E+02  0.63902398611E+02  0.47000000000E+01 0.  1.
         -5    1    1    2    0  502 -0.46652860114E+02  0.26861655460E+02 -0.29084571470E+02  0.61368071409E+02  0.47000000000E+01 0.  1.
        -11    1    1    2    0    0 -0.37705237372E+02 -0.97679411017E+01 -0.31946555508E+02  0.50375390892E+02  0.00000000000E+00 0.  1.
         11    1    1    2    0    0  0.38502010115E+02  0.74724652328E+01  0.16898739796E+02  0.42706087695E+02  0.00000000000E+00 0. -1.
<mgrwt>
<rscale>  0 0.11575606E+03</rscale>
<asrwt>0</asrwt>
<pdfrwt beam="1">  1        2 0.16233223E-01 0.12503188E+03</pdfrwt>
<pdfrwt beam="2">  1       -2 0.17359384E-01 0.12503188E+03</pdfrwt>
<totfact> 0.88870152E+03</totfact>
</mgrwt>
</event>
<event>
 6    1  0.6101889E-006  0.2917175E+03  0.7546771E-02  0.1089456E+00
         -1   -1    0    0    0  501 -0.00000000000E+00  0.00000000000E+00  0.39584233869E+02  0.39584233869E+02  0.00000000000E+00 0.  1.
          1   -1    0    0  501    0  0.00000000000E+00 -0.00000000000E+00 -0.53745568951E+03  0.53745568951E+03  0.00000000000E+00 0. -1.
          5    1    1    2  502    0 -0.34078817594E+02 -0.23189701787E+02 -0.16529895614E+03  0.17042582838E+03  0.47000000000E+01 0.  1.
         -5    1    1    2    0  502  0.46701041662E+02  0.83095922472E+02 -0.25113283686E+03  0.26865537659E+03  0.47000000000E+01 0.  1.
        -11    1    1    2    0    0 -0.47948120059E+02 -0.13166982563E+02 -0.53538655820E+02  0.73066950901E+02  0.00000000000E+00 0. -1.
         11    1    1    2    0    0  0.35325895990E+02 -0.46739238123E+02 -0.27901006815E+02  0.64891767498E+02  0.00000000000E+00 0.  1.
<mgrwt>
<rscale>  0 0.29171748E+03</rscale>
<asrwt>0</asrwt>
<pdfrwt beam="2">  1        1 0.82685495E-01 0.29171748E+03</pdfrwt>
<pdfrwt beam="1">  1       -1 0.60898818E-02 0.29171748E+03</pdfrwt>
<totfact> 0.53393998E+03</totfact>
</mgrwt>
</event>
<event>
 6    1  0.6101889E-006  0.2831429E+03  0.7546771E-02  0.1094368E+00
          2   -1    0    0  501    0  0.00000000000E+00  0.00000000000E+00  0.67998795131E+03  0.67998795131E+03  0.00000000000E+00 0. -1.
         -2   -1    0    0    0  501 -0.00000000000E+00 -0.00000000000E+00 -0.12638739525E+03  0.12638739525E+03  0.00000000000E+00 0.  1.
          5    1    1    2  502    0 -0.11543403793E+02  0.10963784958E+03  0.98707319094E+02  0.14805044098E+03  0.47000000000E+01 0.  1.
         -5    1    1    2    0  502  0.11275100716E+03  0.12338847983E+03  0.67886429533E+02  0.18046651735E+03  0.47000000000E+01 0.  1.
        -11    1    1    2    0    0 -0.71306282269E+02 -0.20573231360E+03  0.23420773285E+03  0.31978685538E+03  0.00000000000E+00 0.  1.
         11    1    1    2    0    0 -0.29901321096E+02 -0.27294015815E+02  0.15279907458E+03  0.15807153285E+03  0.00000000000E+00 0. -1.
<mgrwt>
<rscale>  0 0.28243232E+03</rscale>
<asrwt>0</asrwt>
<pdfrwt beam="1">  1        2 0.10461353E+00 0.28314292E+03</pdfrwt>
<pdfrwt beam="2">  1       -2 0.19444215E-01 0.28314292E+03</pdfrwt>
<totfact> 0.96084188E+02</totfact>
</mgrwt>
</event>
<event>
 6    1  0.6101889E-006  0.1381326E+03  0.7546771E-02  0.1227316E+00
         -1   -1    0    0    0  501 -0.00000000000E+00  0.00000000000E+00  0.19143927179E+03  0.19143927179E+03  0.00000000000E+00 0.  1.
          1   -1    0    0  501    0  0.00000000000E+00 -0.00000000000E+00 -0.80088011369E+02  0.80088011369E+02  0.00000000000E+00 0. -1.
          5    1    1    2  502    0 -0.41585417460E+02 -0.94799943159E+01  0.87442504092E+02  0.97403792326E+02  0.47000000000E+01 0. -1.
         -5    1    1    2    0  502  0.20115779329E+01 -0.33976303494E+02 -0.36216384574E+02  0.49921459880E+02  0.47000000000E+01 0. -1.
        -11    1    1    2    0    0 -0.12410420885E+02  0.20438598002E+02 -0.16308201005E+02  0.28943259230E+02  0.00000000000E+00 0. -1.
         11    1    1    2    0    0  0.51984260412E+02  0.23017699808E+02  0.76433341904E+02  0.95258771720E+02  0.00000000000E+00 0.  1.
<mgrwt>
<rscale>  0 0.13009436E+03</rscale>
<asrwt>0</asrwt>
<pdfrwt beam="2">  1        1 0.12321233E-01 0.13813260E+03</pdfrwt>
<pdfrwt beam="1">  1       -1 0.29452196E-01 0.13813260E+03</pdfrwt>
<totfact> 0.48804995E+03</totfact>
</mgrwt>
</event>
<event>
 6    1  0.6101889E-006  0.1409670E+03  0.7546771E-02  0.1223226E+00
         -1   -1    0    0    0  501 -0.00000000000E+00  0.00000000000E+00  0.27261573290E+02  0.27261573290E+02  0.00000000000E+00 0.  1.
          1   -1    0    0  501    0  0.00000000000E+00 -0.00000000000E+00 -0.59792958364E+03  0.59792958364E+03  0.00000000000E+00 0. -1.
          5    1    1    2  502    0 -0.58979757777E+01  0.81962182662E+02 -0.22309657445E+03  0.23779562030E+03  0.47000000000E+01 0.  1.
         -5    1    1    2    0  502  0.48381397312E+02 -0.32538452340E+02 -0.14272830588E+03  0.15424969947E+03  0.47000000000E+01 0.  1.
        -11    1    1    2    0    0 -0.60295661030E+02 -0.14883622893E+02 -0.16985768990E+03  0.18085553292E+03  0.00000000000E+00 0. -1.
         11    1    1    2    0    0  0.17812239496E+02 -0.34540107428E+02 -0.34985440125E+02  0.52290304242E+02  0.00000000000E+00 0.  1.
<mgrwt>
<rscale>  0 0.13289219E+03</rscale>
<asrwt>0</asrwt>
<pdfrwt beam="2">  1        1 0.91989166E-01 0.14096698E+03</pdfrwt>
<pdfrwt beam="1">  1       -1 0.41940882E-02 0.14096698E+03</pdfrwt>
<totfact> 0.77860282E+03</totfact>
</mgrwt>
</event>
<event>
 6    1  0.6101889E-006  0.3152043E+03  0.7546771E-02  0.1124278E+00
          1   -1    0    0  501    0  0.00000000000E+00  0.00000000000E+00  0.14321508229E+04  0.14321508229E+04  0.00000000000E+00 0. -1.
         -1   -1    0    0    0  501 -0.00000000000E+00 -0.00000000000E+00 -0.31448692180E+02  0.31448692180E+02  0.00000000000E+00 0.  1.
          5    1    1    2  502    0  0.66457342075E+02  0.35113254309E+02  0.11622394440E+04  0.11646768368E+04  0.47000000000E+01 0. -1.
         -5    1    1    2    0  502 -0.72845699751E+02  0.46815878580E+00  0.51533517389E+02  0.89356077350E+02  0.47000000000E+01 0.  1.
        -11    1    1    2    0    0 -0.19368544458E+01  0.23311901411E+02  0.15371200471E+02  0.27990533336E+02  0.00000000000E+00 0.  1.
         11    1    1    2    0    0  0.83252121215E+01 -0.58893314506E+02  0.17155796886E+03  0.18157606761E+03  0.00000000000E+00 0. -1.
<mgrwt>
<rscale>  0 0.23338735E+03</rscale>
<asrwt>0</asrwt>
<pdfrwt beam="1">  1        1 0.22033084E+00 0.31520430E+03</pdfrwt>
<pdfrwt beam="2">  1       -1 0.48382615E-02 0.31520430E+03</pdfrwt>
<totfact> 0.14666738E+03</totfact>
</mgrwt>
</event>
<event>
 6    1  0.6101889E-006  0.1276066E+03  0.7546771E-02  0.1246308E+00
         -1   -1    0    0    0  501 -0.00000000000E+00  0.00000000000E+00  0.53632077744E+02  0.53632077744E+02  0.00000000000E+00 0.  1.
          1   -1    0    0  501    0  0.00000000000E+00 -0.00000000000E+00 -0.24027658255E+03  0.24027658255E+03  0.00000000000E+00 0. -1.
          5    1    1    2  502    0  0.72179491566E+01  0.61290030753E+02 -0.12845176340E+03  0.14258510504E+03  0.47000000000E+01 0.  1.
         -5    1    1    2    0  502 -0.21192182094E+02 -0.39779532788E+02 -0.11387968488E+02  0.46725749186E+02  0.47000000000E+01 0.  1.
        -11    1    1    2    0    0 -0.19284547410E+02 -0.43824376986E+02 -0.43021902191E+02  0.64368888877E+02  0.00000000000E+00 0. -1.
         11    1    1    2    0    0  0.33258780348E+02  0.22313879021E+02 -0.37828707278E+01  0.40228917188E+02  0.00000000000E+00 0.  1.
<mgrwt>
<rscale>  0 0.11807447E+03</rscale>
<asrwt>0</asrwt>
<pdfrwt beam="2">  1        1 0.36965628E-01 0.12760662E+03</pdfrwt>
<pdfrwt beam="1">  1       -1 0.82510889E-02 0.12760662E+03</pdfrwt>
<totfact> 0.89765911E+03</totfact>
</mgrwt>
</event>
<event>
 6    1  0.6101889E-006  0.4281375E+03  0.7546771E-02  0.1034450E+00
         -1   -1    0    0    0  501 -0.00000000000E+00  0.00000000000E+00  0.19173844482E+03  0.19173844482E+03  0.00000000000E+00 0.  1.
          1   -1    0    0  501    0  0.00000000000E+00 -0.00000000000E+00 -0.23899968589E+03  0.23899968589E+03  0.00000000000E+00 0. -1.
          5    1    1    2  502    0 -0.13289164768E+03  0.12988967206E+03 -0.88085609301E+02  0.20570046547E+03  0.47000000000E+01 0.  1.
         -5    1    1    2    0  502 -0.49497617678E+01 -0.25122238829E+02 -0.20978840810E+01  0.26117391580E+02  0.47000000000E+01 0.  1.
        -11    1    1    2    0    0  0.89709024185E+02 -0.11283663877E+03  0.22002529669E+02  0.14582156007E+03  0.00000000000E+00 0.  1.
         11    1    1    2    0    0  0.48132385259E+02  0.80692055370E+01  0.20919722642E+02  0.53098713583E+02  0.00000000000E+00 0. -1.
<mgrwt>
<rscale>  0 0.42813749E+03</rscale>
<asrwt>0</asrwt>
<pdfrwt beam="2">  1        1 0.36769182E-01 0.42813749E+03</pdfrwt>
<pdfrwt beam="1">  1       -1 0.29498222E-01 0.42813749E+03</pdfrwt>
<totfact> 0.12358350E+03</totfact>
</mgrwt>
</event>
<event>
 6    1  0.6101889E-006  0.1270451E+03  0.7546771E-02  0.1246993E+00
         -2   -1    0    0    0  501 -0.00000000000E+00  0.00000000000E+00  0.56799478071E+02  0.56799478071E+02  0.00000000000E+00 0.  1.
          2   -1    0    0  501    0  0.00000000000E+00 -0.00000000000E+00 -0.22066037904E+03  0.22066037904E+03  0.00000000000E+00 0. -1.
          5    1    1    2  502    0  0.46014299651E+02 -0.43257429162E+02 -0.19048939294E+02  0.66132239024E+02  0.47000000000E+01 0. -1.
         -5    1    1    2    0  502 -0.26546046157E+02  0.31631639398E+02 -0.98677268953E+02  0.10707262295E+03  0.47000000000E+01 0. -1.
        -11    1    1    2    0    0 -0.38963698985E+02  0.24791186572E+02 -0.60937923284E+02  0.76460468638E+02  0.00000000000E+00 0. -1.
         11    1    1    2    0    0  0.19495445491E+02 -0.13165396808E+02  0.14803230564E+02  0.27794526496E+02  0.00000000000E+00 0.  1.
<mgrwt>
<rscale>  0 0.11766891E+03</rscale>
<asrwt>0</asrwt>
<pdfrwt beam="2">  1        2 0.33947750E-01 0.12704513E+03</pdfrwt>
<pdfrwt beam="1">  1       -2 0.87383814E-02 0.12704513E+03</pdfrwt>
<totfact> 0.11771631E+04</totfact>
</mgrwt>
</event>
<event>
 6    1  0.6101889E-006  0.1453910E+03  0.7546771E-02  0.1216526E+00
          1   -1    0    0  501    0  0.00000000000E+00  0.00000000000E+00  0.27047668568E+03  0.27047668568E+03  0.00000000000E+00 0. -1.
         -1   -1    0    0    0  501 -0.00000000000E+00 -0.00000000000E+00 -0.86414297949E+02  0.86414297949E+02  0.00000000000E+00 0.  1.
          5    1    1    2  502    0 -0.23464757648E+02 -0.94708382822E+02  0.17119735732E+03  0.19710631086E+03  0.47000000000E+01 0. -1.
         -5    1    1    2    0  502 -0.18030926007E+02  0.33140665906E+02  0.19604322007E+02  0.42776599569E+02  0.47000000000E+01 0. -1.
        -11    1    1    2    0    0  0.61011932653E+02  0.72247409157E+02 -0.58202154527E+01  0.94741854340E+02  0.00000000000E+00 0.  1.
         11    1    1    2    0    0 -0.19516248998E+02 -0.10679692240E+02 -0.91907614274E+00  0.22266218858E+02  0.00000000000E+00 0. -1.
<mgrwt>
<rscale>  0 0.13765012E+03</rscale>
<asrwt>0</asrwt>
<pdfrwt beam="1">  1        1 0.41611797E-01 0.14539096E+03</pdfrwt>
<pdfrwt beam="2">  1       -1 0.13294508E-01 0.14539096E+03</pdfrwt>
<totfact> 0.37663639E+03</totfact>
</mgrwt>
</event>
<event>
 6    1  0.6101889E-006  0.1698757E+03  0.7546771E-02  0.1186236E+00
         -1   -1    0    0    0  501 -0.00000000000E+00  0.00000000000E+00  0.25055530860E+02  0.25055530860E+02  0.00000000000E+00 0.  1.
          1   -1    0    0  501    0  0.00000000000E+00 -0.00000000000E+00 -0.16141549652E+04  0.16141549652E+04  0.00000000000E+00 0. -1.
          5    1    1    2  502    0  0.30666202190E+02 -0.99171171280E+01 -0.76757373126E+03  0.76826446494E+03  0.47000000000E+01 0. -1.
         -5    1    1    2    0  502 -0.49486930769E+02 -0.96408860866E+02 -0.58905047342E+03  0.59895423448E+03  0.47000000000E+01 0.  1.
        -11    1    1    2    0    0 -0.31050977274E+02  0.17695796400E+02 -0.90919932775E+02  0.97692059942E+02  0.00000000000E+00 0. -1.
         11    1    1    2    0    0  0.49871705853E+02  0.88630181594E+02 -0.14155529687E+03  0.17429973668E+03  0.00000000000E+00 0.  1.
<mgrwt>
<rscale>  0 0.16219963E+03</rscale>
<asrwt>0</asrwt>
<pdfrwt beam="2">  1        1 0.24833159E+00 0.16987566E+03</pdfrwt>
<pdfrwt beam="1">  1       -1 0.38546961E-02 0.16987566E+03</pdfrwt>
<totfact> 0.15689081E+03</totfact>
</mgrwt>
</event>
<event>
 6    1  0.6101889E-006  0.2422936E+03  0.7546771E-02  0.1120997E+00
          1   -1    0    0  501    0  0.00000000000E+00  0.00000000000E+00  0.17290027593E+04  0.17290027593E+04  0.00000000000E+00 0. -1.
         -1   -1    0    0    0  501 -0.00000000000E+00 -0.00000000000E+00 -0.38921527199E+02  0.38921527199E+02  0.00000000000E+00 0.  1.
          5    1    1    2  502    0  0.61326106516E+01  0.30568330546E+02  0.41104053487E+03  0.41224803584E+03  0.47000000000E+01 0.  1.
         -5    1    1    2    0  502  0.18971148772E+03  0.38169414887E+02  0.83663794162E+03  0.85873889406E+03  0.47000000000E+01 0.  1.
        -11    1    1    2    0    0 -0.67528222723E+02 -0.69636440100E+02  0.16748333558E+03  0.19354576293E+03  0.00000000000E+00 0.  1.
         11    1    1    2    0    0 -0.12831587565E+03  0.89869466638E+00  0.27491942001E+03  0.30339159365E+03  0.00000000000E+00 0. -1.
<mgrwt>
<rscale>  0 0.23820087E+03</rscale>
<asrwt>0</asrwt>
<pdfrwt beam="1">  1        1 0.26600036E+00 0.24229361E+03</pdfrwt>
<pdfrwt beam="2">  1       -1 0.59879286E-02 0.24229361E+03</pdfrwt>
<totfact> 0.68077060E+02</totfact>
</mgrwt>
</event>
<event>
 6    1  0.6101889E-006  0.1335816E+03  0.7546771E-02  0.1229076E+00
          1   -1    0    0  501    0  0.00000000000E+00  0.00000000000E+00  0.10677224590E+04  0.10677224590E+04  0.00000000000E+00 0. -1.
         -1   -1    0    0    0  501 -0.00000000000E+00 -0.00000000000E+00 -0.15087328980E+02  0.15087328980E+02  0.00000000000E+00 0.  1.
          5    1    1    2  502    0  0.62078446718E+02 -0.22337411240E+02  0.24478145267E+03  0.25356013697E+03  0.47000000000E+01 0. -1.
         -5    1    1    2    0  502 -0.28049540683E+02  0.54927155332E+02  0.41768625513E+03  0.42224124248E+03  0.47000000000E+01 0. -1.
        -11    1    1    2    0    0  0.37846706926E+02 -0.62056555880E+01  0.10672104054E+03  0.11340310348E+03  0.00000000000E+00 0.  1.
         11    1    1    2    0    0 -0.71875612960E+02 -0.26384088505E+02  0.28344638168E+03  0.29360530505E+03  0.00000000000E+00 0. -1.
<mgrwt>
<rscale>  0 0.12891402E+03</rscale>
<asrwt>0</asrwt>
<pdfrwt beam="1">  1        1 0.16426493E+00 0.13358159E+03</pdfrwt>
<pdfrwt beam="2">  1       -1 0.23211284E-02 0.13358159E+03</pdfrwt>
<totfact> 0.76076235E+03</totfact>
</mgrwt>
</event>
<event>
 6    1  0.6101889E-006  0.1284564E+03  0.7546771E-02  0.1244021E+00
          1   -1    0    0  501    0  0.00000000000E+00  0.00000000000E+00  0.72363294036E+02  0.72363294036E+02  0.00000000000E+00 0. -1.
         -1   -1    0    0    0  501 -0.00000000000E+00 -0.00000000000E+00 -0.17704514352E+03  0.17704514352E+03  0.00000000000E+00 0.  1.
          5    1    1    2  502    0  0.46460381606E+01  0.43653794800E+02 -0.46682968596E+02  0.64254408627E+02  0.47000000000E+01 0. -1.
         -5    1    1    2    0  502 -0.21546263049E+02 -0.67922061451E+02  0.28646102480E+01  0.71469880894E+02  0.47000000000E+01 0. -1.
        -11    1    1    2    0    0 -0.29305817606E+02  0.29364663067E+02 -0.62324484061E+01  0.41951850921E+02  0.00000000000E+00 0. -1.
         11    1    1    2    0    0  0.46206042495E+02 -0.50963964155E+01 -0.54631042729E+02  0.71732297113E+02  0.00000000000E+00 0.  1.
<mgrwt>
<rscale>  0 0.11944182E+03</rscale>
<asrwt>0</asrwt>
<pdfrwt beam="1">  1        1 0.11132814E-01 0.12845635E+03</pdfrwt>
<pdfrwt beam="2">  1       -1 0.27237714E-01 0.12845635E+03</pdfrwt>
<totfact> 0.63204978E+03</totfact>
</mgrwt>
</event>
<event>
 6    1  0.6101889E-006  0.2073094E+03  0.7546771E-02  0.1147528E+00
         -2   -1    0    0    0  501 -0.00000000000E+00  0.00000000000E+00  0.38899848318E+03  0.38899848318E+03  0.00000000000E+00 0.  1.
          2   -1    0    0  501    0  0.00000000000E+00 -0.00000000000E+00 -0.10259364333E+03  0.10259364333E+03  0.00000000000E+00 0. -1.
          5    1    1    2  502    0 -0.81315467511E+02  0.78206178259E+02  0.81125231398E+02  0.13903886055E+03  0.47000000000E+01 0.  1.
         -5    1    1    2    0  502 -0.80735068896E+02 -0.45189359204E+02  0.38615471183E+02  0.10036669841E+03  0.47000000000E+01 0.  1.
        -11    1    1    2    0    0  0.12099918251E+03 -0.18559795898E+01  0.15941101662E+03  0.20014024845E+03  0.00000000000E+00 0.  1.
         11    1    1    2    0    0  0.41051353897E+02 -0.31160839466E+02  0.72531206482E+01  0.52046319102E+02  0.00000000000E+00 0. -1.
<mgrwt>
<rscale>  0 0.20264302E+03</rscale>
<asrwt>0</asrwt>
<pdfrwt beam="2">  1        2 0.15783638E-01 0.20730940E+03</pdfrwt>
<pdfrwt beam="1">  1       -2 0.59845920E-01 0.20730940E+03</pdfrwt>
<totfact> 0.96854680E+02</totfact>
</mgrwt>
</event>
<event>
 6    1  0.6101889E-006  0.2827904E+03  0.7546771E-02  0.1094175E+00
          1   -1    0    0  501    0  0.00000000000E+00  0.00000000000E+00  0.75624610330E+03  0.75624610330E+03  0.00000000000E+00 0. -1.
         -1   -1    0    0    0  501 -0.00000000000E+00 -0.00000000000E+00 -0.26436633067E+02  0.26436633067E+02  0.00000000000E+00 0.  1.
          5    1    1    2  502    0 -0.22982242622E+02  0.89102958145E+02  0.47521821651E+03  0.48406813976E+03  0.47000000000E+01 0. -1.
         -5    1    1    2    0  502  0.25239600312E+02 -0.50946712159E+01  0.18346738832E+02  0.31963822120E+02  0.47000000000E+01 0. -1.
        -11    1    1    2    0    0 -0.44309995500E+02 -0.33284082212E+02  0.82534820464E+02  0.99414296854E+02  0.00000000000E+00 0.  1.
         11    1    1    2    0    0  0.42052637810E+02 -0.50724204717E+02  0.15370969443E+03  0.16723647764E+03  0.00000000000E+00 0. -1.
<mgrwt>
<rscale>  0 0.28279039E+03</rscale>
<asrwt>0</asrwt>
<pdfrwt beam="1">  1        1 0.11634554E+00 0.28279039E+03</pdfrwt>
<pdfrwt beam="2">  1       -1 0.40671749E-02 0.28279039E+03</pdfrwt>
<totfact> 0.60176837E+03</totfact>
</mgrwt>
</event>
<event>
 6    1  0.6101889E-006  0.1432707E+03  0.7546771E-02  0.1216592E+00
         -4   -1    0    0    0  501 -0.00000000000E+00  0.00000000000E+00  0.35715364800E+03  0.35715364800E+03  0.00000000000E+00 0.  1.
          4   -1    0    0  501    0  0.00000000000E+00 -0.00000000000E+00 -0.50940795411E+02  0.50940795411E+02  0.00000000000E+00 0. -1.
          5    1    1    2  502    0  0.35981555223E+02  0.20902062126E+02  0.94156434420E+02  0.10304898185E+03  0.47000000000E+01 0.  1.
         -5    1    1    2    0  502 -0.72337255483E+02  0.38944324819E+02  0.33510660562E+02  0.88850398636E+02  0.47000000000E+01 0.  1.
        -11    1    1    2    0    0  0.43643874582E+02 -0.34396853042E+02  0.18125718181E+03  0.18958401105E+03  0.00000000000E+00 0.  1.
         11    1    1    2    0    0 -0.72881743218E+01 -0.25449533902E+02 -0.27114242045E+01  0.26611051877E+02  0.00000000000E+00 0. -1.
<mgrwt>
<rscale>  0 0.13760259E+03</rscale>
<asrwt>0</asrwt>
<pdfrwt beam="2">  1        4 0.78370457E-02 0.14327067E+03</pdfrwt>
<pdfrwt beam="1">  1       -4 0.54946713E-01 0.14327067E+03</pdfrwt>
<totfact> 0.61096123E+02</totfact>
</mgrwt>
</event>
<event>
 6    1  0.6101889E-006  0.2976174E+03  0.7546771E-02  0.1086438E+00
          1   -1    0    0  501    0  0.00000000000E+00  0.00000000000E+00  0.37185194999E+03  0.37185194999E+03  0.00000000000E+00 0. -1.
         -1   -1    0    0    0  501 -0.00000000000E+00 -0.00000000000E+00 -0.59550646836E+02  0.59550646836E+02  0.00000000000E+00 0.  1.
          5    1    1    2  502    0 -0.29470679166E+02  0.86840296466E+02  0.26930677231E+03  0.28453116812E+03  0.47000000000E+01 0. -1.
         -5    1    1    2    0  502  0.12461552241E+01 -0.16607887717E+02 -0.56453992910E+01  0.18202619878E+02  0.47000000000E+01 0.  1.
        -11    1    1    2    0    0 -0.15473992867E+02 -0.62881465094E+02  0.26607149689E+01  0.64812055296E+02  0.00000000000E+00 0. -1.
         11    1    1    2    0    0  0.43698516809E+02 -0.73509436553E+01  0.45979215164E+02  0.63856753527E+02  0.00000000000E+00 0.  1.
<mgrwt>
<rscale>  0 0.29761737E+03</rscale>
<asrwt>0</asrwt>
<pdfrwt beam="1">  1        1 0.57207991E-01 0.29761737E+03</pdfrwt>
<pdfrwt beam="2">  1       -1 0.91616382E-02 0.29761737E+03</pdfrwt>
<totfact> 0.46389882E+03</totfact>
</mgrwt>
</event>
<event>
 6    1  0.6101889E-006  0.1579550E+03  0.7546771E-02  0.1198334E+00
          1   -1    0    0  501    0  0.00000000000E+00  0.00000000000E+00  0.12794471920E+03  0.12794471920E+03  0.00000000000E+00 0. -1.
         -1   -1    0    0    0  501 -0.00000000000E+00 -0.00000000000E+00 -0.17101703533E+03  0.17101703533E+03  0.00000000000E+00 0.  1.
          5    1    1    2  502    0 -0.58053725103E+02  0.32005262453E+02 -0.14605782430E+02  0.68044035032E+02  0.47000000000E+01 0. -1.
         -5    1    1    2    0  502  0.64546413923E+02  0.64324985636E+02 -0.30857503332E+02  0.96323511353E+02  0.47000000000E+01 0. -1.
        -11    1    1    2    0    0 -0.11453886353E+02 -0.27467576177E+02  0.44640926521E+02  0.53651389305E+02  0.00000000000E+00 0. -1.
         11    1    1    2    0    0  0.49611975332E+01 -0.68862671912E+02 -0.42249956896E+02  0.80942818838E+02  0.00000000000E+00 0.  1.
<mgrwt>
<rscale>  0 0.15175377E+03</rscale>
<asrwt>0</asrwt>
<pdfrwt beam="1">  1        1 0.19683803E-01 0.15795499E+03</pdfrwt>
<pdfrwt beam="2">  1       -1 0.26310313E-01 0.15795499E+03</pdfrwt>
<totfact> 0.32364454E+03</totfact>
</mgrwt>
</event>
<event>
 6    1  0.6101889E-006  0.1151516E+03  0.7546771E-02  0.1260849E+00
         -1   -1    0    0    0  501 -0.00000000000E+00  0.00000000000E+00  0.32243620331E+02  0.32243620331E+02  0.00000000000E+00 0.  1.
          1   -1    0    0  501    0  0.00000000000E+00 -0.00000000000E+00 -0.36477302657E+03  0.36477302657E+03  0.00000000000E+00 0. -1.
          5    1    1    2  502    0  0.34711403383E+02  0.29007269588E+02 -0.22910524767E+03  0.23357570019E+03  0.47000000000E+01 0. -1.
         -5    1    1    2    0  502 -0.21871454599E+02 -0.86201619000E+00  0.50067447848E+00  0.22392951416E+02  0.47000000000E+01 0.  1.
        -11    1    1    2    0    0 -0.54306226498E+01 -0.48485835132E+02 -0.10846153797E+03  0.11892969810E+03  0.00000000000E+00 0.  1.
         11    1    1    2    0    0 -0.74093261336E+01  0.20340581734E+02  0.45367049202E+01  0.22118297189E+02  0.00000000000E+00 0. -1.
<mgrwt>
<rscale>  0 0.10984947E+03</rscale>
<asrwt>0</asrwt>
<pdfrwt beam="2">  1        1 0.56118924E-01 0.11515164E+03</pdfrwt>
<pdfrwt beam="1">  1       -1 0.49605573E-02 0.11515164E+03</pdfrwt>
<totfact> 0.11345430E+04</totfact>
</mgrwt>
</event>
<event>
 6    1  0.8797958E-006  0.1727040E+03  0.7546771E-02  0.1181477E+00
          1   -1    0    0  501    0  0.00000000000E+00  0.00000000000E+00  0.22074155734E+04  0.22074155734E+04  0.00000000000E+00 0. -1.
         -1   -1    0    0    0  501 -0.00000000000E+00 -0.00000000000E+00 -0.13783581021E+02  0.13783581021E+02  0.00000000000E+00 0.  1.
          5    1    1    2  502    0 -0.41375091893E+02 -0.12823972319E+03  0.12183777280E+04  0.12258155256E+04  0.47000000000E+01 0. -1.
         -5    1    1    2    0  502  0.36334909452E+02  0.91745984169E+01  0.37136656216E+03  0.37328221548E+03  0.47000000000E+01 0. -1.
        -11    1    1    2    0    0  0.12943362917E+01  0.21309201262E+02  0.17486131977E+02  0.27595691265E+02  0.00000000000E+00 0.  1.
         11    1    1    2    0    0  0.37458461496E+01  0.97755923514E+02  0.58640157023E+03  0.59450572202E+03  0.00000000000E+00 0. -1.
<mgrwt>
<rscale>  0 0.16656642E+03</rscale>
<asrwt>0</asrwt>
<pdfrwt beam="1">  1        1 0.33960211E+00 0.17270402E+03</pdfrwt>
<pdfrwt beam="2">  1       -1 0.21205527E-02 0.17270402E+03</pdfrwt>
<totfact> 0.15646586E+03</totfact>
</mgrwt>
</event>
<event>
 6    1  0.6101889E-006  0.1400102E+03  0.7546771E-02  0.1224460E+00
          2   -1    0    0  501    0  0.00000000000E+00  0.00000000000E+00  0.86740367700E+03  0.86740367700E+03  0.00000000000E+00 0. -1.
         -2   -1    0    0    0  501 -0.00000000000E+00 -0.00000000000E+00 -0.25262461015E+02  0.25262461015E+02  0.00000000000E+00 0.  1.
          5    1    1    2  502    0 -0.67343315519E+02  0.40391635859E+02  0.33363795757E+03  0.34278708132E+03  0.47000000000E+01 0. -1.
         -5    1    1    2    0  502  0.69133132575E+01 -0.58687699441E+02  0.35879281665E+03  0.36365700219E+03  0.47000000000E+01 0. -1.
        -11    1    1    2    0    0  0.18054560933E+02  0.41319139545E+02  0.22946051825E+02  0.50594068403E+02  0.00000000000E+00 0.  1.
         11    1    1    2    0    0  0.42375441328E+02 -0.23023075962E+02  0.12676438994E+03  0.13562798609E+03  0.00000000000E+00 0. -1.
<mgrwt>
<rscale>  0 0.13203991E+03</rscale>
<asrwt>0</asrwt>
<pdfrwt beam="1">  1        2 0.13344670E+00 0.14001024E+03</pdfrwt>
<pdfrwt beam="2">  1       -2 0.38865331E-02 0.14001024E+03</pdfrwt>
<totfact> 0.88444177E+03</totfact>
</mgrwt>
</event>
<event>
 6    1  0.6101889E-006  0.1451131E+03  0.7546771E-02  0.1216694E+00
          1   -1    0    0  501    0  0.00000000000E+00  0.00000000000E+00  0.79185412652E+03  0.79185412652E+03  0.00000000000E+00 0. -1.
         -1   -1    0    0    0  501 -0.00000000000E+00 -0.00000000000E+00 -0.21989582830E+02  0.21989582830E+02  0.00000000000E+00 0.  1.
          5    1    1    2  502    0 -0.75693921781E+02 -0.47014590613E+02  0.30994966039E+03  0.32253809620E+03  0.47000000000E+01 0.  1.
         -5    1    1    2    0  502  0.24413714039E+01  0.55161818951E+02  0.16186334063E+03  0.17108657927E+03  0.47000000000E+01 0.  1.
        -11    1    1    2    0    0  0.65847424231E+02 -0.25377103178E+02  0.29215982286E+03  0.30056154568E+03  0.00000000000E+00 0. -1.
         11    1    1    2    0    0  0.74051261455E+01  0.17229874839E+02  0.58917197998E+01  0.19657488202E+02  0.00000000000E+00 0.  1.
<mgrwt>
<rscale>  0 0.13752823E+03</rscale>
<asrwt>0</asrwt>
<pdfrwt beam="1">  1        1 0.12182369E+00 0.14511310E+03</pdfrwt>
<pdfrwt beam="2">  1       -1 0.33830133E-02 0.14511310E+03</pdfrwt>
<totfact> 0.71608573E+03</totfact>
</mgrwt>
</event>
<event>
 6    1  0.6101889E-006  0.1518997E+03  0.7546771E-02  0.1206983E+00
         -1   -1    0    0    0  501 -0.00000000000E+00  0.00000000000E+00  0.20259389535E+03  0.20259389535E+03  0.00000000000E+00 0.  1.
          1   -1    0    0  501    0  0.00000000000E+00 -0.00000000000E+00 -0.12307239721E+03  0.12307239721E+03  0.00000000000E+00 0. -1.
          5    1    1    2  502    0 -0.65294608750E+02 -0.22875900310E+02 -0.26981071770E+02  0.74409414597E+02  0.47000000000E+01 0.  1.
         -5    1    1    2    0  502  0.14224323102E+01  0.80908962230E+02 -0.78854650834E+01  0.81440493873E+02  0.47000000000E+01 0.  1.
        -11    1    1    2    0    0  0.21495353774E+02 -0.69394202736E+02  0.38650330818E+02  0.82288842983E+02  0.00000000000E+00 0. -1.
         11    1    1    2    0    0  0.42376822666E+02  0.11361140816E+02  0.75737704169E+02  0.87527541110E+02  0.00000000000E+00 0.  1.
<mgrwt>
<rscale>  0 0.14482316E+03</rscale>
<asrwt>0</asrwt>
<pdfrwt beam="2">  1        1 0.18934215E-01 0.15189970E+03</pdfrwt>
<pdfrwt beam="1">  1       -1 0.31168292E-01 0.15189970E+03</pdfrwt>
<totfact> 0.25558322E+03</totfact>
</mgrwt>
</event>
<event>
 6    1  0.6101889E-006  0.2041123E+03  0.7546771E-02  0.1179528E+00
          1   -1    0    0  501    0  0.00000000000E+00  0.00000000000E+00  0.40826180435E+03  0.40826180435E+03  0.00000000000E+00 0. -1.
         -1   -1    0    0    0  501 -0.00000000000E+00 -0.00000000000E+00 -0.61073452684E+02  0.61073452684E+02  0.00000000000E+00 0.  1.
          5    1    1    2  502    0  0.32926111696E+02 -0.10381995675E+03  0.21883026039E+03  0.24448207524E+03  0.47000000000E+01 0. -1.
         -5    1    1    2    0  502 -0.21759860493E+02  0.83634095252E+02  0.83210145573E+02  0.12005903441E+03  0.47000000000E+01 0.  1.
        -11    1    1    2    0    0 -0.13735306654E+01  0.45900146118E+02 -0.63975442411E+01  0.46364194940E+02  0.00000000000E+00 0.  1.
         11    1    1    2    0    0 -0.97927205378E+01 -0.25714284618E+02  0.51545489945E+02  0.58429952444E+02  0.00000000000E+00 0. -1.
<mgrwt>
<rscale>  0 0.16839923E+03</rscale>
<asrwt>0</asrwt>
<pdfrwt beam="1">  1        1 0.62809507E-01 0.20411226E+03</pdfrwt>
<pdfrwt beam="2">  1       -1 0.93959160E-02 0.20411226E+03</pdfrwt>
<totfact> 0.39004109E+03</totfact>
</mgrwt>
</event>
<event>
 6    1  0.6101889E-006  0.1291584E+03  0.7546771E-02  0.1243136E+00
         -3   -1    0    0    0  501 -0.00000000000E+00  0.00000000000E+00  0.28943906808E+02  0.28943906808E+02  0.00000000000E+00 0.  1.
          3   -1    0    0  501    0  0.00000000000E+00 -0.00000000000E+00 -0.56044362388E+03  0.56044362388E+03  0.00000000000E+00 0. -1.
          5    1    1    2  502    0  0.39801349618E+02 -0.68289436733E+02 -0.27354794239E+03  0.28477738918E+03  0.47000000000E+01 0.  1.
         -5    1    1    2    0  502 -0.33877268169E+02  0.36314948093E+02 -0.15894026620E+03  0.16658494222E+03  0.47000000000E+01 0.  1.
        -11    1    1    2    0    0  0.22557292424E+02 -0.24241589374E+02 -0.32415914740E+02  0.46338727058E+02  0.00000000000E+00 0.  1.
         11    1    1    2    0    0 -0.28481373873E+02  0.56216078015E+02 -0.66595593738E+02  0.91686472233E+02  0.00000000000E+00 0. -1.
<mgrwt>
<rscale>  0 0.11997650E+03</rscale>
<asrwt>0</asrwt>
<pdfrwt beam="2">  1        3 0.86222090E-01 0.12915844E+03</pdfrwt>
<pdfrwt beam="1">  1       -3 0.44529090E-02 0.12915844E+03</pdfrwt>
<totfact> 0.79589874E+02</totfact>
</mgrwt>
</event>
<event>
 6    1  0.6101889E-006  0.1436183E+03  0.7546771E-02  0.1228254E+00
          1   -1    0    0  501    0  0.00000000000E+00  0.00000000000E+00  0.75231836201E+02  0.75231836201E+02  0.00000000000E+00 0. -1.
         -1   -1    0    0    0  501 -0.00000000000E+00 -0.00000000000E+00 -0.19154042596E+03  0.19154042596E+03  0.00000000000E+00 0.  1.
          5    1    1    2  502    0  0.33050179922E+02 -0.51779353581E+02  0.15344706020E+02  0.63489887800E+02  0.47000000000E+01 0. -1.
         -5    1    1    2    0  502 -0.56615180778E+02  0.12580206402E+01 -0.70037988791E+02  0.90190194502E+02  0.47000000000E+01 0.  1.
        -11    1    1    2    0    0  0.47418066075E+02  0.38061685895E+02 -0.20917714640E+02  0.64301755102E+02  0.00000000000E+00 0. -1.
         11    1    1    2    0    0 -0.23853065219E+02  0.12459647046E+02 -0.40697592346E+02  0.48790424753E+02  0.00000000000E+00 0.  1.
<mgrwt>
<rscale>  0 0.12946363E+03</rscale>
<asrwt>0</asrwt>
<pdfrwt beam="1">  1        1 0.11574129E-01 0.14361829E+03</pdfrwt>
<pdfrwt beam="2">  1       -1 0.29467758E-01 0.14361829E+03</pdfrwt>
<totfact> 0.53070354E+03</totfact>
</mgrwt>
</event>
<event>
 6    1  0.6101889E-006  0.1377992E+03  0.7546771E-02  0.1230191E+00
          4   -1    0    0  501    0  0.00000000000E+00  0.00000000000E+00  0.30188596570E+02  0.30188596570E+02  0.00000000000E+00 0. -1.
         -4   -1    0    0    0  501 -0.00000000000E+00 -0.00000000000E+00 -0.55408393588E+03  0.55408393588E+03  0.00000000000E+00 0.  1.
          5    1    1    2  502    0 -0.68737277151E+02 -0.41188400772E+02 -0.83277614594E+02  0.11566567650E+03  0.47000000000E+01 0. -1.
         -5    1    1    2    0  502  0.20942528176E+02  0.48321887473E+02 -0.10604850855E+03  0.11849882051E+03  0.47000000000E+01 0.  1.
        -11    1    1    2    0    0 -0.11458723929E+02  0.25313663393E+02 -0.46035898123E+02  0.53771626574E+02  0.00000000000E+00 0.  1.
         11    1    1    2    0    0  0.59253472904E+02 -0.32447150095E+02 -0.28853331805E+03  0.29633640887E+03  0.00000000000E+00 0. -1.
<mgrwt>
<rscale>  0 0.12817346E+03</rscale>
<asrwt>0</asrwt>
<pdfrwt beam="1">  1        4 0.46443996E-02 0.13779924E+03</pdfrwt>
<pdfrwt beam="2">  1       -4 0.85243681E-01 0.13779924E+03</pdfrwt>
<totfact> 0.55231061E+02</totfact>
</mgrwt>
</event>
<event>
 6    1  0.6101889E-006  0.1768540E+03  0.7546771E-02  0.1188832E+00
         -2   -1    0    0    0  501 -0.00000000000E+00  0.00000000000E+00  0.26006116307E+03  0.26006116307E+03  0.00000000000E+00 0.  1.
          2   -1    0    0  501    0  0.00000000000E+00 -0.00000000000E+00 -0.12817702168E+03  0.12817702168E+03  0.00000000000E+00 0. -1.
          5    1    1    2  502    0 -0.30352231376E+02  0.47434499241E+02 -0.10086295594E+03  0.11561451271E+03  0.47000000000E+01 0. -1.
         -5    1    1    2    0  502 -0.15622610256E+02  0.10349593134E+02  0.62443807305E+02  0.65364356495E+02  0.47000000000E+01 0.  1.
        -11    1    1    2    0    0  0.38459675706E+02 -0.76020633608E+02  0.87444906235E+02  0.12208560528E+03  0.00000000000E+00 0.  1.
         11    1    1    2    0    0  0.75151659254E+01  0.18236541233E+02  0.82858383798E+02  0.85173710267E+02  0.00000000000E+00 0. -1.
<mgrwt>
<rscale>  0 0.15988045E+03</rscale>
<asrwt>0</asrwt>
<pdfrwt beam="2">  1        2 0.19719542E-01 0.17685395E+03</pdfrwt>
<pdfrwt beam="1">  1       -2 0.40009410E-01 0.17685395E+03</pdfrwt>
<totfact> 0.16545435E+03</totfact>
</mgrwt>
</event>
<event>
 6    1  0.6101889E-006  0.1794062E+03  0.7546771E-02  0.1175021E+00
         -2   -1    0    0    0  501 -0.00000000000E+00  0.00000000000E+00  0.27114420583E+02  0.27114420583E+02  0.00000000000E+00 0.  1.
          2   -1    0    0  501    0  0.00000000000E+00 -0.00000000000E+00 -0.10292863405E+04  0.10292863405E+04  0.00000000000E+00 0. -1.
          5    1    1    2  502    0 -0.14522973825E+03  0.30116810572E+02 -0.46328512970E+03  0.48647086301E+03  0.47000000000E+01 0.  1.
         -5    1    1    2    0  502  0.25450319340E+02  0.16936374256E+02 -0.10501525431E+03  0.10947535415E+03  0.47000000000E+01 0.  1.
        -11    1    1    2    0    0  0.85108094527E+02 -0.62034527124E+02 -0.22802191881E+03  0.25116860028E+03  0.00000000000E+00 0.  1.
         11    1    1    2    0    0  0.34671324386E+02  0.14981342296E+02 -0.20584961711E+03  0.20928594367E+03  0.00000000000E+00 0. -1.
<mgrwt>
<rscale>  0 0.17273904E+03</rscale>
<asrwt>0</asrwt>
<pdfrwt beam="2">  1        2 0.15835174E+00 0.17940615E+03</pdfrwt>
<pdfrwt beam="1">  1       -2 0.41714494E-02 0.17940615E+03</pdfrwt>
<totfact> 0.63922000E+03</totfact>
</mgrwt>
</event>
<event>
 6    1  0.6101889E-006  0.1499013E+03  0.7546771E-02  0.1207628E+00
          2   -1    0    0  501    0  0.00000000000E+00  0.00000000000E+00  0.35582061060E+03  0.35582061060E+03  0.00000000000E+00 0. -1.
         -2   -1    0    0    0  501 -0.00000000000E+00 -0.00000000000E+00 -0.67633479501E+02  0.67633479501E+02  0.00000000000E+00 0.  1.
          5    1    1    2  502    0 -0.31561356036E+02 -0.97690014915E+01  0.19511296424E+03  0.19794623361E+03  0.47000000000E+01 0. -1.
         -5    1    1    2    0  502 -0.40144427376E+00 -0.74137059234E+02  0.50601625870E+02  0.89883698467E+02  0.47000000000E+01 0.  1.
        -11    1    1    2    0    0  0.35545168263E+02  0.96658179833E+02  0.55547756937E+02  0.11701203364E+03  0.00000000000E+00 0.  1.
         11    1    1    2    0    0 -0.35823679533E+01 -0.12752119107E+02 -0.13075215952E+02  0.18612124383E+02  0.00000000000E+00 0. -1.
<mgrwt>
<rscale>  0 0.14432279E+03</rscale>
<asrwt>0</asrwt>
<pdfrwt beam="1">  1        2 0.54741631E-01 0.14990133E+03</pdfrwt>
<pdfrwt beam="2">  1       -2 0.10405151E-01 0.14990133E+03</pdfrwt>
<totfact> 0.54495430E+03</totfact>
</mgrwt>
</event>
<event>
 6    1  0.6101889E-006  0.1238194E+03  0.7546771E-02  0.1247876E+00
         -1   -1    0    0    0  501 -0.00000000000E+00  0.00000000000E+00  0.27075419635E+03  0.27075419635E+03  0.00000000000E+00 0.  1.
          1   -1    0    0  501    0  0.00000000000E+00 -0.00000000000E+00 -0.51118932041E+02  0.51118932041E+02  0.00000000000E+00 0. -1.
          5    1    1    2  502    0 -0.46983273530E+02 -0.13028001682E+02 -0.14247056057E+02  0.51012012563E+02  0.47000000000E+01 0. -1.
         -5    1    1    2    0  502  0.25585287381E+02 -0.23869847246E+02  0.83965818715E+02  0.91086361495E+02  0.47000000000E+01 0.  1.
        -11    1    1    2    0    0  0.53778635506E+02  0.39118360636E+02  0.94512262028E+02  0.11556364242E+03  0.00000000000E+00 0.  1.
         11    1    1    2    0    0 -0.32380649356E+02 -0.22205117081E+01  0.55404239620E+02  0.64211111911E+02  0.00000000000E+00 0. -1.
<mgrwt>
<rscale>  0 0.11714884E+03</rscale>
<asrwt>0</asrwt>
<pdfrwt beam="2">  1        1 0.78644512E-02 0.12381939E+03</pdfrwt>
<pdfrwt beam="1">  1       -1 0.41654491E-01 0.12381939E+03</pdfrwt>
<totfact> 0.48459904E+03</totfact>
</mgrwt>
</event>
<event>
 6    1  0.6101889E-006  0.3564969E+03  0.7546771E-02  0.1059980E+00
         -2   -1    0    0    0  501 -0.00000000000E+00  0.00000000000E+00  0.94818436243E+02  0.94818436243E+02  0.00000000000E+00 0.  1.
          2   -1    0    0  501    0  0.00000000000E+00 -0.00000000000E+00 -0.33508786364E+03  0.33508786364E+03  0.00000000000E+00 0. -1.
          5    1    1    2  502    0 -0.10811864924E+02  0.27994776812E+02 -0.37972868712E+02  0.48627489244E+02  0.47000000000E+01 0.  1.
         -5    1    1    2    0  502  0.10603186911E+03 -0.87307304387E+02 -0.19276484582E+03  0.23673972723E+03  0.47000000000E+01 0.  1.
        -11    1    1    2    0    0 -0.87688177994E+02  0.37035668715E+01 -0.96078760963E+00  0.87771613181E+02  0.00000000000E+00 0.  1.
         11    1    1    2    0    0 -0.75318261900E+01  0.55608960704E+02 -0.85709252570E+01  0.56767470228E+02  0.00000000000E+00 0. -1.
<mgrwt>
<rscale>  0 0.35649688E+03</rscale>
<asrwt>0</asrwt>
<pdfrwt beam="2">  1        2 0.51551979E-01 0.35649688E+03</pdfrwt>
<pdfrwt beam="1">  1       -2 0.14587452E-01 0.35649688E+03</pdfrwt>
<totfact> 0.34892415E+03</totfact>
</mgrwt>
</event>
<event>
 6    1  0.6101889E-006  0.1340080E+03  0.7546771E-02  0.1233820E+00
          2   -1    0    0  501    0  0.00000000000E+00  0.00000000000E+00  0.89927180581E+03  0.89927180581E+03  0.00000000000E+00 0. -1.
         -2   -1    0    0    0  501 -0.00000000000E+00 -0.00000000000E+00 -0.81921926822E+02  0.81921926822E+02  0.00000000000E+00 0.  1.
          5    1    1    2  502    0  0.11368114180E+02 -0.26040951004E+02  0.81470215998E+03  0.81521105527E+03  0.47000000000E+01 0.  1.
         -5    1    1    2    0  502 -0.22531021999E+02 -0.20958188798E+02  0.44076525327E+02  0.53960380975E+02  0.47000000000E+01 0.  1.
        -11    1    1    2    0    0  0.26187412329E+02  0.44913651980E+02  0.14579670303E+02  0.53996143240E+02  0.00000000000E+00 0. -1.
         11    1    1    2    0    0 -0.15024504510E+02  0.20854878227E+01 -0.56008476626E+02  0.58026153149E+02  0.00000000000E+00 0.  1.
<mgrwt>
<rscale>  0 0.12580270E+03</rscale>
<asrwt>0</asrwt>
<pdfrwt beam="1">  1        2 0.13834950E+00 0.13400804E+03</pdfrwt>
<pdfrwt beam="2">  1       -2 0.12603374E-01 0.13400804E+03</pdfrwt>
<totfact> 0.13844949E+03</totfact>
</mgrwt>
</event>
<event>
 6    1  0.6101889E-006  0.2301399E+03  0.7546771E-02  0.1130071E+00
         -1   -1    0    0    0  501 -0.00000000000E+00  0.00000000000E+00  0.44589248513E+02  0.44589248513E+02  0.00000000000E+00 0.  1.
          1   -1    0    0  501    0  0.00000000000E+00 -0.00000000000E+00 -0.11642624260E+04  0.11642624260E+04  0.00000000000E+00 0. -1.
          5    1    1    2  502    0 -0.70599759847E+02  0.11854937423E+03 -0.28791433478E+03  0.31930398430E+03  0.47000000000E+01 0.  1.
         -5    1    1    2    0  502 -0.82306893761E+01  0.57872757113E+02 -0.44624015726E+03  0.45007706919E+03  0.47000000000E+01 0.  1.
        -11    1    1    2    0    0  0.69587399457E+02 -0.15189399172E+03 -0.24511052238E+03  0.29663674598E+03  0.00000000000E+00 0.  1.
         11    1    1    2    0    0  0.92430497652E+01 -0.24528139619E+02 -0.14040816311E+03  0.14283387508E+03  0.00000000000E+00 0. -1.
<mgrwt>
<rscale>  0 0.22519093E+03</rscale>
<asrwt>0</asrwt>
<pdfrwt beam="2">  1        1 0.17911730E+00 0.23013993E+03</pdfrwt>
<pdfrwt beam="1">  1       -1 0.68598843E-02 0.23013993E+03</pdfrwt>
<totfact> 0.13241975E+03</totfact>
</mgrwt>
</event>
<event>
 6    1  0.6101889E-006  0.1379945E+03  0.7546771E-02  0.1226903E+00
          2   -1    0    0  501    0  0.00000000000E+00  0.00000000000E+00  0.39748588258E+03  0.39748588258E+03  0.00000000000E+00 0.  1.
         -2   -1    0    0    0  501 -0.00000000000E+00 -0.00000000000E+00 -0.53478596798E+02  0.53478596798E+02  0.00000000000E+00 0. -1.
          5    1    1    2  502    0  0.23417357920E+02  0.53680918745E+02  0.84167433235E+02  0.10264628832E+03  0.47000000000E+01 0.  1.
         -5    1    1    2    0  502 -0.69286248012E+02 -0.17441029149E+02  0.22003528611E+03  0.23139228767E+03  0.47000000000E+01 0.  1.
        -11    1    1    2    0    0  0.14477494616E+02 -0.12854687358E+02 -0.30693341258E+02  0.36289420428E+02  0.00000000000E+00 0. -1.
         11    1    1    2    0    0  0.31391395477E+02 -0.23385202238E+02  0.70497907702E+02  0.80636482959E+02  0.00000000000E+00 0.  1.
<mgrwt>
<rscale>  0 0.13037289E+03</rscale>
<asrwt>0</asrwt>
<pdfrwt beam="1">  1        2 0.61151672E-01 0.13799448E+03</pdfrwt>
<pdfrwt beam="2">  1       -2 0.82274767E-02 0.13799448E+03</pdfrwt>
<totfact> 0.69565731E+03</totfact>
</mgrwt>
</event>
<event>
 6    1  0.6101889E-006  0.1323433E+03  0.7546771E-02  0.1237417E+00
         -1   -1    0    0    0  501 -0.00000000000E+00  0.00000000000E+00  0.83858840165E+02  0.83858840165E+02  0.00000000000E+00 0. -1.
          1   -1    0    0  501    0  0.00000000000E+00 -0.00000000000E+00 -0.17204554342E+03  0.17204554342E+03  0.00000000000E+00 0.  1.
          5    1    1    2  502    0  0.12567829640E+02  0.41118510986E+02 -0.45140797805E+02  0.62517708803E+02  0.47000000000E+01 0.  1.
         -5    1    1    2    0  502 -0.37975714098E+02 -0.76408428252E+02 -0.36063802763E+02  0.92752847067E+02  0.47000000000E+01 0.  1.
        -11    1    1    2    0    0  0.10364672015E+02  0.17058939724E+01  0.39771483892E+02  0.41135233453E+02  0.00000000000E+00 0. -1.
         11    1    1    2    0    0  0.15043212443E+02  0.33584023294E+02 -0.46753586580E+02  0.59498594263E+02  0.00000000000E+00 0.  1.
<mgrwt>
<rscale>  0 0.12350957E+03</rscale>
<asrwt>0</asrwt>
<pdfrwt beam="2">  1        1 0.26468545E-01 0.13234334E+03</pdfrwt>
<pdfrwt beam="1">  1       -1 0.12901360E-01 0.13234334E+03</pdfrwt>
<totfact> 0.68828093E+03</totfact>
</mgrwt>
</event>
<event>
 6    1  0.6101889E-006  0.2270771E+03  0.7546771E-02  0.1128714E+00
         -1   -1    0    0    0  501 -0.00000000000E+00  0.00000000000E+00  0.56603514392E+02  0.56603514392E+02  0.00000000000E+00 0.  1.
          1   -1    0    0  501    0  0.00000000000E+00 -0.00000000000E+00 -0.22774209255E+03  0.22774209255E+03  0.00000000000E+00 0. -1.
          5    1    1    2  502    0 -0.32999631887E+01 -0.56538871553E+01 -0.14411156976E+03  0.14433672692E+03  0.47000000000E+01 0. -1.
         -5    1    1    2    0  502  0.35807505704E+02  0.97525540309E+01  0.51610619996E+01  0.37762631474E+02  0.47000000000E+01 0.  1.
        -11    1    1    2    0    0 -0.14219656008E+02 -0.47695198797E+02 -0.16291624507E+02  0.52368383920E+02  0.00000000000E+00 0.  1.
         11    1    1    2    0    0 -0.18287886507E+02  0.43596531921E+02 -0.15896445884E+02  0.49877864631E+02  0.00000000000E+00 0. -1.
<mgrwt>
<rscale>  0 0.22707710E+03</rscale>
<asrwt>0</asrwt>
<pdfrwt beam="2">  1        1 0.35037245E-01 0.22707710E+03</pdfrwt>
<pdfrwt beam="1">  1       -1 0.87082330E-02 0.22707710E+03</pdfrwt>
<totfact> 0.91992928E+03</totfact>
</mgrwt>
</event>
<event>
 6    1  0.6101889E-006  0.3218068E+03  0.7546771E-02  0.1076184E+00
          2   -1    0    0  501    0  0.00000000000E+00  0.00000000000E+00  0.96943304113E+03  0.96943304113E+03  0.00000000000E+00 0.  1.
         -2   -1    0    0    0  501 -0.00000000000E+00 -0.00000000000E+00 -0.12594827445E+03  0.12594827445E+03  0.00000000000E+00 0. -1.
          5    1    1    2  502    0  0.10129949294E+03  0.14626921708E+02  0.14359326401E+03  0.17639912011E+03  0.47000000000E+01 0. -1.
         -5    1    1    2    0  502  0.14007088656E+03  0.15763165752E+03  0.51839892830E+03  0.55966698274E+03  0.47000000000E+01 0. -1.
        -11    1    1    2    0    0 -0.15605421087E+03 -0.16070903152E+03  0.13205762853E+03  0.26003754882E+03  0.00000000000E+00 0.  1.
         11    1    1    2    0    0 -0.85316168625E+02 -0.11549547706E+02  0.49434945845E+02  0.99277663912E+02  0.00000000000E+00 0. -1.
<mgrwt>
<rscale>  0 0.31884177E+03</rscale>
<asrwt>0</asrwt>
<pdfrwt beam="1">  1        2 0.14914354E+00 0.32180684E+03</pdfrwt>
<pdfrwt beam="2">  1       -2 0.19376658E-01 0.32180684E+03</pdfrwt>
<totfact> 0.60943310E+02</totfact>
</mgrwt>
</event>
<event>
 6    1  0.6101889E-006  0.2219298E+03  0.7546771E-02  0.1135705E+00
         -2   -1    0    0    0  501 -0.00000000000E+00  0.00000000000E+00  0.10765499429E+03  0.10765499429E+03  0.00000000000E+00 0.  1.
          2   -1    0    0  501    0  0.00000000000E+00 -0.00000000000E+00 -0.59756269752E+03  0.59756269752E+03  0.00000000000E+00 0. -1.
          5    1    1    2  502    0 -0.14183410162E+03 -0.11327648991E+01 -0.29523197113E+03  0.32757014870E+03  0.47000000000E+01 0. -1.
         -5    1    1    2    0  502 -0.25901673013E+02  0.75244251165E+02 -0.14691442420E+03  0.16714823372E+03  0.47000000000E+01 0. -1.
        -11    1    1    2    0    0  0.15485768106E+03 -0.73100794893E+02 -0.11071483797E+02  0.17160188038E+03  0.00000000000E+00 0.  1.
         11    1    1    2    0    0  0.12878093572E+02 -0.10106913723E+01 -0.36689824103E+02  0.38897429012E+02  0.00000000000E+00 0. -1.
<mgrwt>
<rscale>  0 0.21757307E+03</rscale>
<asrwt>0</asrwt>
<pdfrwt beam="2">  1        2 0.91932721E-01 0.22192982E+03</pdfrwt>
<pdfrwt beam="1">  1       -2 0.16562307E-01 0.22192982E+03</pdfrwt>
<totfact> 0.14667912E+03</totfact>
</mgrwt>
</event>
<event>
 6    1  0.6101889E-006  0.2199526E+03  0.7546771E-02  0.1140400E+00
         -2   -1    0    0    0  501 -0.00000000000E+00  0.00000000000E+00  0.53653567209E+02  0.53653567209E+02  0.00000000000E+00 0.  1.
          2   -1    0    0  501    0  0.00000000000E+00 -0.00000000000E+00 -0.15989071016E+04  0.15989071016E+04  0.00000000000E+00 0. -1.
          5    1    1    2  502    0 -0.27851928114E+02  0.56840725416E+01 -0.52041282753E+03  0.52120978468E+03  0.47000000000E+01 0.  1.
         -5    1    1    2    0  502 -0.83276893877E+02 -0.14850657020E+03 -0.87372077382E+03  0.89016814314E+03  0.47000000000E+01 0.  1.
        -11    1    1    2    0    0  0.49165194069E+02  0.25994900935E+02 -0.48551213936E+02  0.73825277224E+02  0.00000000000E+00 0.  1.
         11    1    1    2    0    0  0.61963627923E+02  0.11682759672E+03 -0.10256871908E+03  0.16735746375E+03  0.00000000000E+00 0. -1.
<mgrwt>
<rscale>  0 0.21147922E+03</rscale>
<asrwt>0</asrwt>
<pdfrwt beam="2">  1        2 0.24598571E+00 0.21995262E+03</pdfrwt>
<pdfrwt beam="1">  1       -2 0.82543948E-02 0.21995262E+03</pdfrwt>
<totfact> 0.10936315E+03</totfact>
</mgrwt>
</event>
<event>
 6    1  0.6101889E-006  0.1666523E+03  0.7546771E-02  0.1188412E+00
          1   -1    0    0  501    0  0.00000000000E+00  0.00000000000E+00  0.13087068402E+04  0.13087068402E+04  0.00000000000E+00 0. -1.
         -1   -1    0    0    0  501 -0.00000000000E+00 -0.00000000000E+00 -0.18319604847E+02  0.18319604847E+02  0.00000000000E+00 0.  1.
          5    1    1    2  502    0  0.41732017577E+01  0.40009771598E+02  0.31747938111E+03  0.32005225334E+03  0.47000000000E+01 0.  1.
         -5    1    1    2    0  502  0.10557328540E+03 -0.50135787656E+02  0.41680210687E+03  0.43290345585E+03  0.47000000000E+01 0.  1.
        -11    1    1    2    0    0 -0.10766861894E+03 -0.13765574420E+02  0.51640056142E+03  0.52768509774E+03  0.00000000000E+00 0. -1.
         11    1    1    2    0    0 -0.20778682206E+01  0.23891590478E+02  0.39705185924E+02  0.46385638092E+02  0.00000000000E+00 0.  1.
<mgrwt>
<rscale>  0 0.16025263E+03</rscale>
<asrwt>0</asrwt>
<pdfrwt beam="1">  1        1 0.20133944E+00 0.16665232E+03</pdfrwt>
<pdfrwt beam="2">  1       -1 0.28184018E-02 0.16665232E+03</pdfrwt>
<totfact> 0.39439946E+03</totfact>
</mgrwt>
</event>
<event>
 6    1  0.6101889E-006  0.1389028E+03  0.7546771E-02  0.1226394E+00
         -1   -1    0    0    0  501 -0.00000000000E+00  0.00000000000E+00  0.65640355797E+02  0.65640355797E+02  0.00000000000E+00 0.  1.
          1   -1    0    0  501    0  0.00000000000E+00 -0.00000000000E+00 -0.26509195349E+03  0.26509195349E+03  0.00000000000E+00 0. -1.
          5    1    1    2  502    0  0.13227242817E+02 -0.51993246930E+02 -0.18041361789E+03  0.18828016677E+03  0.47000000000E+01 0.  1.
         -5    1    1    2    0  502  0.24323587808E+02  0.44567198936E+01  0.13746705037E+02  0.28680327325E+02  0.47000000000E+01 0.  1.
        -11    1    1    2    0    0  0.17196305470E+02  0.33846851107E+02  0.14004133737E+02  0.40465269224E+02  0.00000000000E+00 0.  1.
         11    1    1    2    0    0 -0.54747136095E+02  0.13689675930E+02 -0.46788818574E+02  0.73306545964E+02  0.00000000000E+00 0. -1.
<mgrwt>
<rscale>  0 0.13071817E+03</rscale>
<asrwt>0</asrwt>
<pdfrwt beam="2">  1        1 0.40783377E-01 0.13890283E+03</pdfrwt>
<pdfrwt beam="1">  1       -1 0.10098516E-01 0.13890283E+03</pdfrwt>
<totfact> 0.58844959E+03</totfact>
</mgrwt>
</event>
<event>
 6    1  0.6101889E-006  0.1238458E+03  0.7546771E-02  0.1249908E+00
         -1   -1    0    0    0  501 -0.00000000000E+00  0.00000000000E+00  0.25924530673E+02  0.25924530673E+02  0.00000000000E+00 0.  1.
          1   -1    0    0  501    0  0.00000000000E+00 -0.00000000000E+00 -0.62295148392E+03  0.62295148392E+03  0.00000000000E+00 0. -1.
          5    1    1    2  502    0  0.56256127318E+02  0.14953836920E+01 -0.39979777294E+03  0.40376643902E+03  0.47000000000E+01 0. -1.
         -5    1    1    2    0  502 -0.46689648363E+02 -0.30749396550E+01 -0.91212019834E+02  0.10262115318E+03  0.47000000000E+01 0.  1.
        -11    1    1    2    0    0 -0.42118219645E+02  0.28840337917E+02 -0.44370300328E+02  0.67634555284E+02  0.00000000000E+00 0.  1.
         11    1    1    2    0    0  0.32551740691E+02 -0.27260781954E+02 -0.61646860141E+02  0.74853867101E+02  0.00000000000E+00 0. -1.
<mgrwt>
<rscale>  0 0.11596362E+03</rscale>
<asrwt>0</asrwt>
<pdfrwt beam="2">  1        1 0.95838682E-01 0.12384578E+03</pdfrwt>
<pdfrwt beam="1">  1       -1 0.39883897E-02 0.12384578E+03</pdfrwt>
<totfact> 0.78631965E+03</totfact>
</mgrwt>
</event>
<event>
 6    1  0.6101889E-006  0.1399888E+03  0.7546771E-02  0.1224182E+00
         -2   -1    0    0    0  501 -0.00000000000E+00  0.00000000000E+00  0.17598906799E+02  0.17598906799E+02  0.00000000000E+00 0.  1.
          2   -1    0    0  501    0  0.00000000000E+00 -0.00000000000E+00 -0.12614578452E+04  0.12614578452E+04  0.00000000000E+00 0. -1.
          5    1    1    2  502    0  0.18515824130E+01  0.36798058948E+02 -0.18220111123E+03  0.18594854244E+03  0.47000000000E+01 0.  1.
         -5    1    1    2    0  502  0.13155273067E+02 -0.98006589783E+02 -0.83167557848E+03  0.83754684090E+03  0.47000000000E+01 0.  1.
        -11    1    1    2    0    0 -0.28155028457E+02 -0.13242110676E+02 -0.10479511578E+03  0.10931640048E+03  0.00000000000E+00 0. -1.
         11    1    1    2    0    0  0.13148172977E+02  0.74450641511E+02 -0.12518713288E+03  0.14624496817E+03  0.00000000000E+00 0.  1.
<mgrwt>
<rscale>  0 0.13223126E+03</rscale>
<asrwt>0</asrwt>
<pdfrwt beam="2">  1        2 0.19407049E+00 0.13998878E+03</pdfrwt>
<pdfrwt beam="1">  1       -2 0.27075234E-02 0.13998878E+03</pdfrwt>
<totfact> 0.88608243E+03</totfact>
</mgrwt>
</event>
<event>
 6    1  0.6101889E-006  0.3783251E+03  0.7546771E-02  0.1051555E+00
         -1   -1    0    0    0  501 -0.00000000000E+00  0.00000000000E+00  0.22336844774E+02  0.22336844774E+02  0.00000000000E+00 0.  1.
          1   -1    0    0  501    0  0.00000000000E+00 -0.00000000000E+00 -0.16019483093E+04  0.16019483093E+04  0.00000000000E+00 0. -1.
          5    1    1    2  502    0 -0.42700832011E+02  0.12381939938E+03 -0.79901114589E+03  0.80968852405E+03  0.47000000000E+01 0.  1.
         -5    1    1    2    0  502 -0.20683672654E+02  0.17376394488E+02 -0.22209707756E+02  0.35286180276E+02  0.47000000000E+01 0.  1.
        -11    1    1    2    0    0 -0.62301393296E+01 -0.67212413594E+02 -0.18367002218E+03  0.19568086320E+03  0.00000000000E+00 0.  1.
         11    1    1    2    0    0  0.69614643995E+02 -0.73983380272E+02 -0.57472058870E+03  0.58362958654E+03  0.00000000000E+00 0. -1.
<mgrwt>
<rscale>  0 0.37832510E+03</rscale>
<asrwt>0</asrwt>
<pdfrwt beam="2">  1        1 0.24645364E+00 0.37832510E+03</pdfrwt>
<pdfrwt beam="1">  1       -1 0.34364369E-02 0.37832510E+03</pdfrwt>
<totfact> 0.18848574E+03</totfact>
</mgrwt>
</event>
<event>
 6    1  0.6101889E-006  0.1345495E+03  0.7546771E-02  0.1233230E+00
          1   -1    0    0  501    0  0.00000000000E+00  0.00000000000E+00  0.19828929428E+03  0.19828929428E+03  0.00000000000E+00 0. -1.
         -1   -1    0    0    0  501 -0.00000000000E+00 -0.00000000000E+00 -0.72323930705E+02  0.72323930705E+02  0.00000000000E+00 0.  1.
          5    1    1    2  502    0  0.31168948121E+02  0.17973822226E+02  0.10863605970E+03  0.11453578078E+03  0.47000000000E+01 0.  1.
         -5    1    1    2    0  502  0.17275254266E+02 -0.29411507344E+02 -0.26193443636E+02  0.43262659000E+02  0.47000000000E+01 0.  1.
        -11    1    1    2    0    0 -0.24454550150E+02  0.23473927224E+02 -0.23078938100E+02  0.41008385315E+02  0.00000000000E+00 0.  1.
         11    1    1    2    0    0 -0.23989652237E+02 -0.12036242106E+02  0.66601685615E+02  0.71806399891E+02  0.00000000000E+00 0. -1.
<mgrwt>
<rscale>  0 0.12618416E+03</rscale>
<asrwt>0</asrwt>
<pdfrwt beam="1">  1        1 0.30506045E-01 0.13454948E+03</pdfrwt>
<pdfrwt beam="2">  1       -1 0.11126759E-01 0.13454948E+03</pdfrwt>
<totfact> 0.72532034E+03</totfact>
</mgrwt>
</event>
<event>
 6    1  0.6101889E-006  0.1251758E+03  0.7546771E-02  0.1250031E+00
          1   -1    0    0  501    0  0.00000000000E+00  0.00000000000E+00  0.33910946964E+02  0.33910946964E+02  0.00000000000E+00 0. -1.
         -1   -1    0    0    0  501 -0.00000000000E+00 -0.00000000000E+00 -0.35806629812E+03  0.35806629812E+03  0.00000000000E+00 0.  1.
          5    1    1    2  502    0 -0.45006910935E+02  0.26772304902E+02 -0.11753671215E+03  0.12876081331E+03  0.47000000000E+01 0. -1.
         -5    1    1    2    0  502  0.51201648310E+02 -0.29168480086E+02 -0.35521515975E+02  0.68965767721E+02  0.47000000000E+01 0. -1.
        -11    1    1    2    0    0  0.30961898971E+02  0.12917222992E+02 -0.14197065919E+03  0.14588064268E+03  0.00000000000E+00 0.  1.
         11    1    1    2    0    0 -0.37156636346E+02 -0.10521047809E+02 -0.29126463837E+02  0.48370021368E+02  0.00000000000E+00 0. -1.
<mgrwt>
<rscale>  0 0.11589261E+03</rscale>
<asrwt>0</asrwt>
<pdfrwt beam="1">  1        1 0.52170687E-02 0.12517579E+03</pdfrwt>
<pdfrwt beam="2">  1       -1 0.55087123E-01 0.12517579E+03</pdfrwt>
<totfact> 0.50940227E+03</totfact>
</mgrwt>
</event>
<event>
 6    1  0.6101889E-006  0.1367761E+03  0.7546771E-02  0.1229788E+00
         -2   -1    0    0    0  501 -0.00000000000E+00  0.00000000000E+00  0.82193781255E+02  0.82193781255E+02  0.00000000000E+00 0.  1.
          2   -1    0    0  501    0  0.00000000000E+00 -0.00000000000E+00 -0.20757463209E+03  0.20757463209E+03  0.00000000000E+00 0. -1.
          5    1    1    2  502    0  0.33777460680E+02 -0.65811963131E+02 -0.95230246809E+02  0.12067734356E+03  0.47000000000E+01 0. -1.
         -5    1    1    2    0  502 -0.54576921982E+02  0.14327555328E+02 -0.26886979080E+02  0.62681088844E+02  0.47000000000E+01 0. -1.
        -11    1    1    2    0    0  0.37278079277E+02  0.20570498833E+02 -0.38005641580E+02  0.57072142142E+02  0.00000000000E+00 0. -1.
         11    1    1    2    0    0 -0.16478617976E+02  0.30913908970E+02  0.34742016630E+02  0.49337838803E+02  0.00000000000E+00 0.  1.
<mgrwt>
<rscale>  0 0.12844054E+03</rscale>
<asrwt>0</asrwt>
<pdfrwt beam="2">  1        2 0.31934558E-01 0.13677609E+03</pdfrwt>
<pdfrwt beam="1">  1       -2 0.12645198E-01 0.13677609E+03</pdfrwt>
<totfact> 0.70575376E+03</totfact>
</mgrwt>
</event>
<event>
 6    1  0.6101889E-006  0.1883643E+03  0.7546771E-02  0.1164300E+00
          1   -1    0    0  501    0  0.00000000000E+00  0.00000000000E+00  0.22722970401E+03  0.22722970401E+03  0.00000000000E+00 0. -1.
         -1   -1    0    0    0  501 -0.00000000000E+00 -0.00000000000E+00 -0.14569529958E+03  0.14569529958E+03  0.00000000000E+00 0.  1.
          5    1    1    2  502    0  0.12749530220E+03 -0.60848452172E+02  0.78666115343E+02  0.16176536686E+03  0.47000000000E+01 0. -1.
         -5    1    1    2    0  502 -0.22623489571E+02 -0.33274201847E+02 -0.43202401123E+01  0.40740020416E+02  0.47000000000E+01 0. -1.
        -11    1    1    2    0    0 -0.97000918197E+01 -0.64454005654E+01 -0.25603649270E+02  0.28127954524E+02  0.00000000000E+00 0.  1.
         11    1    1    2    0    0 -0.95171720806E+02  0.10056805458E+03  0.32792178470E+02  0.14229166178E+03  0.00000000000E+00 0. -1.
<mgrwt>
<rscale>  0 0.18366746E+03</rscale>
<asrwt>0</asrwt>
<pdfrwt beam="1">  1        1 0.34958416E-01 0.18836434E+03</pdfrwt>
<pdfrwt beam="2">  1       -1 0.22414661E-01 0.18836434E+03</pdfrwt>
<totfact> 0.20559469E+03</totfact>
</mgrwt>
</event>
<event>
 6    1  0.6101889E-006  0.1317404E+03  0.7546771E-02  0.1238144E+00
         -1   -1    0    0    0  501 -0.00000000000E+00  0.00000000000E+00  0.22922255816E+02  0.22922255816E+02  0.00000000000E+00 0.  1.
          1   -1    0    0  501    0  0.00000000000E+00 -0.00000000000E+00 -0.60878798472E+03  0.60878798472E+03  0.00000000000E+00 0. -1.
          5    1    1    2  502    0  0.61450556871E+02 -0.38412515135E+02 -0.21583790392E+03  0.22772743143E+03  0.47000000000E+01 0.  1.
         -5    1    1    2    0  502 -0.22993479364E+02  0.54260877768E+02 -0.17445505721E+03  0.18419989124E+03  0.47000000000E+01 0.  1.
        -11    1    1    2    0    0  0.15685337564E+02 -0.24365639936E+02 -0.13508213541E+03  0.13815533841E+03  0.00000000000E+00 0. -1.
         11    1    1    2    0    0 -0.54142415072E+02  0.85172773034E+01 -0.60490632364E+02  0.81627579446E+02  0.00000000000E+00 0.  1.
<mgrwt>
<rscale>  0 0.12305276E+03</rscale>
<asrwt>0</asrwt>
<pdfrwt beam="2">  1        1 0.93659693E-01 0.13174036E+03</pdfrwt>
<pdfrwt beam="1">  1       -1 0.35265008E-02 0.13174036E+03</pdfrwt>
<totfact> 0.97550739E+03</totfact>
</mgrwt>
</event>
<event>
 6    1  0.6101889E-006  0.3264803E+03  0.7546771E-02  0.1074152E+00
         -2   -1    0    0    0  501 -0.00000000000E+00  0.00000000000E+00  0.12936723167E+03  0.12936723167E+03  0.00000000000E+00 0.  1.
          2   -1    0    0  501    0  0.00000000000E+00 -0.00000000000E+00 -0.14607722404E+04  0.14607722404E+04  0.00000000000E+00 0. -1.
          5    1    1    2  502    0  0.16393605311E+03  0.30113955010E+02 -0.42150685279E+03  0.45329019044E+03  0.47000000000E+01 0.  1.
         -5    1    1    2    0  502  0.13310416240E+03  0.22148331696E+02 -0.78909002536E+03  0.80055757118E+03  0.47000000000E+01 0.  1.
        -11    1    1    2    0    0 -0.26957877007E+03 -0.68651020012E+02 -0.91311493548E+02  0.29278569753E+03  0.00000000000E+00 0.  1.
         11    1    1    2    0    0 -0.27461445445E+02  0.16388733306E+02 -0.29496637068E+02  0.43506012959E+02  0.00000000000E+00 0. -1.
<mgrwt>
<rscale>  0 0.32327411E+03</rscale>
<asrwt>0</asrwt>
<pdfrwt beam="2">  1        2 0.22473419E+00 0.32648033E+03</pdfrwt>
<pdfrwt beam="1">  1       -2 0.19902651E-01 0.32648033E+03</pdfrwt>
<totfact> 0.30310923E+02</totfact>
</mgrwt>
</event>
<event>
 6    1  0.6101889E-006  0.1884598E+03  0.7546771E-02  0.1165171E+00
         -3   -1    0    0    0  501 -0.00000000000E+00  0.00000000000E+00  0.24811244627E+03  0.24811244627E+03  0.00000000000E+00 0. -1.
          3   -1    0    0  501    0  0.00000000000E+00 -0.00000000000E+00 -0.12705328672E+03  0.12705328672E+03  0.00000000000E+00 0.  1.
          5    1    1    2  502    0 -0.21826807236E+02  0.39092975296E+02 -0.37285927202E+02  0.58455116106E+02  0.47000000000E+01 0. -1.
         -5    1    1    2    0  502 -0.51344015796E+02  0.81489869445E+02  0.10309402160E+03  0.14116399707E+03  0.47000000000E+01 0. -1.
        -11    1    1    2    0    0  0.80372347212E+02 -0.13081247093E+03  0.47011849353E+02  0.16056690420E+03  0.00000000000E+00 0. -1.
         11    1    1    2    0    0 -0.72015241807E+01  0.10229626186E+02  0.82392158023E+01  0.14979715600E+02  0.00000000000E+00 0.  1.
<mgrwt>
<rscale>  0 0.18274652E+03</rscale>
<asrwt>0</asrwt>
<pdfrwt beam="2">  1        3 0.19546660E-01 0.18845977E+03</pdfrwt>
<pdfrwt beam="1">  1       -3 0.38171145E-01 0.18845977E+03</pdfrwt>
<totfact> 0.38533156E+02</totfact>
</mgrwt>
</event>
<event>
 6    1  0.6101889E-006  0.1356710E+03  0.7546771E-02  0.1247605E+00
         -3   -1    0    0    0  501 -0.00000000000E+00  0.00000000000E+00  0.27545575311E+03  0.27545575311E+03  0.00000000000E+00 0.  1.
          3   -1    0    0  501    0  0.00000000000E+00 -0.00000000000E+00 -0.43540169208E+02  0.43540169208E+02  0.00000000000E+00 0. -1.
          5    1    1    2  502    0 -0.70814423196E+02  0.48669370371E+02  0.92500311533E+02  0.12633996905E+03  0.47000000000E+01 0. -1.
         -5    1    1    2    0  502  0.18880879905E+02 -0.39487172755E+02  0.14173720125E+02  0.46246175846E+02  0.47000000000E+01 0. -1.
        -11    1    1    2    0    0  0.39489696119E+02  0.13322162433E+02  0.41523753977E+02  0.58831439348E+02  0.00000000000E+00 0.  1.
         11    1    1    2    0    0  0.12443847172E+02 -0.22504360049E+02  0.83717798271E+02  0.87578338081E+02  0.00000000000E+00 0. -1.
<mgrwt>
<rscale>  0 0.11730793E+03</rscale>
<asrwt>0</asrwt>
<pdfrwt beam="2">  1        3 0.66984877E-02 0.13567103E+03</pdfrwt>
<pdfrwt beam="1">  1       -3 0.42377807E-01 0.13567103E+03</pdfrwt>
<totfact> 0.18144102E+03</totfact>
</mgrwt>
</event>
<event>
 6    1  0.6101889E-006  0.1575826E+03  0.7546771E-02  0.1199587E+00
          1   -1    0    0  501    0  0.00000000000E+00  0.00000000000E+00  0.65018865979E+03  0.65018865979E+03  0.00000000000E+00 0. -1.
         -1   -1    0    0    0  501 -0.00000000000E+00 -0.00000000000E+00 -0.33011586515E+02  0.33011586515E+02  0.00000000000E+00 0.  1.
          5    1    1    2  502    0 -0.19917207368E+02 -0.31681010532E+02  0.89311946129E+02  0.96948931397E+02  0.47000000000E+01 0. -1.
         -5    1    1    2    0  502 -0.22986417153E+02  0.11751516293E+03  0.29876605421E+03  0.32190283323E+03  0.47000000000E+01 0. -1.
        -11    1    1    2    0    0  0.71490728233E+02 -0.59455980215E+02  0.16247287903E+03  0.18719875595E+03  0.00000000000E+00 0.  1.
         11    1    1    2    0    0 -0.28587103712E+02 -0.26378172188E+02  0.66626193900E+02  0.77149725730E+02  0.00000000000E+00 0. -1.
<mgrwt>
<rscale>  0 0.15072325E+03</rscale>
<asrwt>0</asrwt>
<pdfrwt beam="1">  1        1 0.10002901E+00 0.15758257E+03</pdfrwt>
<pdfrwt beam="2">  1       -1 0.50787061E-02 0.15758257E+03</pdfrwt>
<totfact> 0.52567776E+03</totfact>
</mgrwt>
</event>
<event>
 6    1  0.6101889E-006  0.2435631E+03  0.7546771E-02  0.1119970E+00
          2   -1    0    0  501    0  0.00000000000E+00  0.00000000000E+00  0.43834083315E+03  0.43834083315E+03  0.00000000000E+00 0. -1.
         -2   -1    0    0    0  501 -0.00000000000E+00 -0.00000000000E+00 -0.12726293776E+03  0.12726293776E+03  0.00000000000E+00 0.  1.
          5    1    1    2  502    0 -0.74779852818E+02 -0.23424747907E+02  0.61024649423E+01  0.78740556770E+02  0.47000000000E+01 0.  1.
         -5    1    1    2    0  502 -0.13086133475E+03  0.61043172851E+02  0.16276537974E+03  0.21763643244E+03  0.47000000000E+01 0.  1.
        -11    1    1    2    0    0  0.34722400709E+02 -0.25260767148E+02  0.72425723775E+02  0.84197606452E+02  0.00000000000E+00 0.  1.
         11    1    1    2    0    0  0.17091878686E+03 -0.12357657796E+02  0.69784326930E+02  0.18502917524E+03  0.00000000000E+00 0. -1.
<mgrwt>
<rscale>  0 0.23973370E+03</rscale>
<asrwt>0</asrwt>
<pdfrwt beam="1">  1        2 0.67437050E-01 0.24356307E+03</pdfrwt>
<pdfrwt beam="2">  1       -2 0.19578914E-01 0.24356307E+03</pdfrwt>
<totfact> 0.15692836E+03</totfact>
</mgrwt>
</event>
<event>
 6    1  0.6101889E-006  0.1359506E+03  0.7546771E-02  0.1232495E+00
         -2   -1    0    0    0  501 -0.00000000000E+00  0.00000000000E+00  0.28967209210E+02  0.28967209210E+02  0.00000000000E+00 0.  1.
          2   -1    0    0  501    0  0.00000000000E+00 -0.00000000000E+00 -0.61275003476E+03  0.61275003476E+03  0.00000000000E+00 0. -1.
          5    1    1    2  502    0  0.35778718353E+02  0.70537357446E+02 -0.16384591166E+03  0.18199782485E+03  0.47000000000E+01 0. -1.
         -5    1    1    2    0  502 -0.17962732221E+02 -0.20152588544E+02 -0.30310900300E+03  0.30434510719E+03  0.47000000000E+01 0. -1.
        -11    1    1    2    0    0  0.24243262296E+02  0.12083148244E+02 -0.29074169252E+02  0.39737206191E+02  0.00000000000E+00 0.  1.
         11    1    1    2    0    0 -0.42059248428E+02 -0.62467917146E+02 -0.87753741643E+02  0.11563710574E+03  0.00000000000E+00 0. -1.
<mgrwt>
<rscale>  0 0.12666166E+03</rscale>
<asrwt>0</asrwt>
<pdfrwt beam="2">  1        2 0.94269224E-01 0.13595056E+03</pdfrwt>
<pdfrwt beam="1">  1       -2 0.44564943E-02 0.13595056E+03</pdfrwt>
<totfact> 0.10956234E+04</totfact>
</mgrwt>
</event>
<event>
 6    1  0.6101889E-006  0.2819813E+03  0.7546771E-02  0.1094612E+00
         -1   -1    0    0    0  501 -0.00000000000E+00  0.00000000000E+00  0.35524974534E+02  0.35524974534E+02  0.00000000000E+00 0.  1.
          1   -1    0    0  501    0  0.00000000000E+00 -0.00000000000E+00 -0.55956039516E+03  0.55956039516E+03  0.00000000000E+00 0. -1.
          5    1    1    2  502    0 -0.13103318310E+02 -0.31975044921E+02 -0.16145500276E+03  0.16517841374E+03  0.47000000000E+01 0. -1.
         -5    1    1    2    0  502  0.10048004292E+03  0.29111910824E+02 -0.16956923595E+03  0.19929766220E+03  0.47000000000E+01 0. -1.
        -11    1    1    2    0    0 -0.39693025342E+02 -0.43298725274E+02 -0.10586246694E+03  0.12106683187E+03  0.00000000000E+00 0. -1.
         11    1    1    2    0    0 -0.47683699265E+02  0.46161859372E+02 -0.87148714970E+02  0.10954246189E+03  0.00000000000E+00 0.  1.
<mgrwt>
<rscale>  0 0.28198134E+03</rscale>
<asrwt>0</asrwt>
<pdfrwt beam="2">  1        1 0.86086213E-01 0.28198134E+03</pdfrwt>
<pdfrwt beam="1">  1       -1 0.54653808E-02 0.28198134E+03</pdfrwt>
<totfact> 0.59454459E+03</totfact>
</mgrwt>
</event>
<event>
 6    1  0.6101889E-006  0.3390479E+03  0.7546771E-02  0.1067202E+00
         -2   -1    0    0    0  501 -0.00000000000E+00  0.00000000000E+00  0.74593735372E+02  0.74593735372E+02  0.00000000000E+00 0.  1.
          2   -1    0    0  501    0  0.00000000000E+00 -0.00000000000E+00 -0.38526523188E+03  0.38526523188E+03  0.00000000000E+00 0. -1.
          5    1    1    2  502    0 -0.19288016702E+02 -0.30494784666E+02 -0.24468131750E+02  0.43849047327E+02  0.47000000000E+01 0.  1.
         -5    1    1    2    0  502 -0.70696804548E+02  0.12171792711E+03 -0.16164231186E+03  0.21439127533E+03  0.47000000000E+01 0.  1.
        -11    1    1    2    0    0  0.48053857587E+02 -0.26763000540E+02 -0.11051771188E+03  0.12344875887E+03  0.00000000000E+00 0. -1.
         11    1    1    2    0    0  0.41930963664E+02 -0.64460141906E+02 -0.14043341021E+02  0.78169885732E+02  0.00000000000E+00 0.  1.
<mgrwt>
<rscale>  0 0.33904792E+03</rscale>
<asrwt>0</asrwt>
<pdfrwt beam="2">  1        2 0.59271573E-01 0.33904792E+03</pdfrwt>
<pdfrwt beam="1">  1       -2 0.11475959E-01 0.33904792E+03</pdfrwt>
<totfact> 0.44337629E+03</totfact>
</mgrwt>
</event>
<event>
 6    1  0.6101889E-006  0.1317274E+03  0.7546771E-02  0.1259214E+00
         -3   -1    0    0    0  501 -0.00000000000E+00  0.00000000000E+00  0.23956292174E+03  0.23956292174E+03  0.00000000000E+00 0.  1.
          3   -1    0    0  501    0  0.00000000000E+00 -0.00000000000E+00 -0.59397026508E+02  0.59397026508E+02  0.00000000000E+00 0. -1.
          5    1    1    2  502    0 -0.33379403336E+02 -0.41193119244E+00 -0.32050315979E+02  0.46515234157E+02  0.47000000000E+01 0. -1.
         -5    1    1    2    0  502  0.51293240258E+02 -0.36521629507E+02  0.62170138771E+02  0.88611749068E+02  0.47000000000E+01 0. -1.
        -11    1    1    2    0    0  0.14689385622E+02  0.15892191600E+01  0.59543554713E+02  0.61349316014E+02  0.00000000000E+00 0.  1.
         11    1    1    2    0    0 -0.32603222545E+02  0.35344341539E+02  0.90502517730E+02  0.10248364901E+03  0.00000000000E+00 0. -1.
<mgrwt>
<rscale>  0 0.11073517E+03</rscale>
<asrwt>0</asrwt>
<pdfrwt beam="2">  1        3 0.91380042E-02 0.13172736E+03</pdfrwt>
<pdfrwt beam="1">  1       -3 0.36855834E-01 0.13172736E+03</pdfrwt>
<totfact> 0.14260677E+03</totfact>
</mgrwt>
</event>
<event>
 6    1  0.6101889E-006  0.1200030E+03  0.7546771E-02  0.1247608E+00
         -4   -1    0    0    0  501 -0.00000000000E+00  0.00000000000E+00  0.59638814950E+03  0.59638814950E+03  0.00000000000E+00 0.  1.
          4   -1    0    0  501    0  0.00000000000E+00 -0.00000000000E+00 -0.22866509260E+02  0.22866509260E+02  0.00000000000E+00 0. -1.
          5    1    1    2  502    0 -0.28071207391E+02 -0.45791730722E+02  0.82472824453E+02  0.98532898365E+02  0.47000000000E+01 0. -1.
         -5    1    1    2    0  502 -0.13398833416E+01  0.62957438676E+02  0.16001058694E+03  0.17202009274E+03  0.47000000000E+01 0.  1.
        -11    1    1    2    0    0  0.66650962076E+02 -0.24497828067E+02  0.19767252821E+03  0.21004028836E+03  0.00000000000E+00 0.  1.
         11    1    1    2    0    0 -0.37239871343E+02  0.73321201127E+01  0.13336570063E+03  0.13866137929E+03  0.00000000000E+00 0. -1.
<mgrwt>
<rscale>  0 0.11730629E+03</rscale>
<asrwt>0</asrwt>
<pdfrwt beam="2">  1        4 0.35179249E-02 0.12000298E+03</pdfrwt>
<pdfrwt beam="1">  1       -4 0.91752011E-01 0.12000298E+03</pdfrwt>
<totfact> 0.70730758E+02</totfact>
</mgrwt>
</event>
<event>
 6    1  0.6101889E-006  0.1398938E+03  0.7546771E-02  0.1225782E+00
          2   -1    0    0  501    0  0.00000000000E+00  0.00000000000E+00  0.85038508611E+03  0.85038508611E+03  0.00000000000E+00 0. -1.
         -2   -1    0    0    0  501 -0.00000000000E+00 -0.00000000000E+00 -0.27044847007E+02  0.27044847007E+02  0.00000000000E+00 0.  1.
          5    1    1    2  502    0  0.45643465890E+02 -0.27549814030E+02  0.27393347152E+03  0.27911279987E+03  0.47000000000E+01 0. -1.
         -5    1    1    2    0  502 -0.18508917778E+02  0.84209643887E+02  0.42447082680E+03  0.43316442255E+03  0.47000000000E+01 0. -1.
        -11    1    1    2    0    0 -0.13634577658E+02  0.23004743368E+02  0.24682972738E+02  0.36391881904E+02  0.00000000000E+00 0.  1.
         11    1    1    2    0    0 -0.13499970454E+02 -0.79664573226E+02  0.10025296805E+03  0.12876082879E+03  0.00000000000E+00 0. -1.
<mgrwt>
<rscale>  0 0.13113424E+03</rscale>
<asrwt>0</asrwt>
<pdfrwt beam="1">  1        2 0.13082845E+00 0.13989381E+03</pdfrwt>
<pdfrwt beam="2">  1       -2 0.41607463E-02 0.13989381E+03</pdfrwt>
<totfact> 0.81966836E+03</totfact>
</mgrwt>
</event>
<event>
 6    1  0.6101889E-006  0.1548700E+03  0.7546771E-02  0.1203525E+00
          3   -1    0    0  501    0  0.00000000000E+00  0.00000000000E+00  0.22041049253E+03  0.22041049253E+03  0.00000000000E+00 0. -1.
         -3   -1    0    0    0  501 -0.00000000000E+00 -0.00000000000E+00 -0.90921239895E+02  0.90921239895E+02  0.00000000000E+00 0.  1.
          5    1    1    2  502    0  0.29592281821E+02 -0.18921728512E+02  0.99007735193E+01  0.36794704368E+02  0.47000000000E+01 0.  1.
         -5    1    1    2    0  502 -0.45569170426E+02  0.10897052697E+03  0.71778742795E+02  0.13829462376E+03  0.47000000000E+01 0.  1.
        -11    1    1    2    0    0  0.18610271065E+02 -0.13571157389E+02  0.54757614983E+02  0.59404670697E+02  0.00000000000E+00 0. -1.
         11    1    1    2    0    0 -0.26333824604E+01 -0.76477641074E+02 -0.69478786635E+01  0.76837733603E+02  0.00000000000E+00 0.  1.
<mgrwt>
<rscale>  0 0.14754339E+03</rscale>
<asrwt>0</asrwt>
<pdfrwt beam="1">  1        3 0.33909306E-01 0.15487004E+03</pdfrwt>
<pdfrwt beam="2">  1       -3 0.13987883E-01 0.15487004E+03</pdfrwt>
<totfact> 0.84095857E+02</totfact>
</mgrwt>
</event>
<event>
 6    1  0.6101889E-006  0.1888219E+03  0.7546771E-02  0.1164577E+00
         -2   -1    0    0    0  501 -0.00000000000E+00  0.00000000000E+00  0.64764144497E+02  0.64764144497E+02  0.00000000000E+00 0. -1.
          2   -1    0    0  501    0  0.00000000000E+00 -0.00000000000E+00 -0.53634152284E+03  0.53634152284E+03  0.00000000000E+00 0.  1.
          5    1    1    2  502    0 -0.30841462971E+01  0.60067319840E+02 -0.17910752787E+03  0.18899521531E+03  0.47000000000E+01 0.  1.
         -5    1    1    2    0  502  0.11497423604E+03  0.26598442145E+02 -0.15621901456E+03  0.19583927744E+03  0.47000000000E+01 0.  1.
        -11    1    1    2    0    0  0.12400180773E+02 -0.27777868587E+02 -0.24822299592E+02  0.39262208591E+02  0.00000000000E+00 0. -1.
         11    1    1    2    0    0 -0.12429027052E+03 -0.58887893398E+02 -0.11142853631E+03  0.17700896598E+03  0.00000000000E+00 0.  1.
<mgrwt>
<rscale>  0 0.18337391E+03</rscale>
<asrwt>0</asrwt>
<pdfrwt beam="2">  1        2 0.82514079E-01 0.18882187E+03</pdfrwt>
<pdfrwt beam="1">  1       -2 0.99637147E-02 0.18882187E+03</pdfrwt>
<totfact> 0.37728239E+03</totfact>
</mgrwt>
</event>
<event>
 6    1  0.6101889E-006  0.1371335E+03  0.7546771E-02  0.1234537E+00
          1   -1    0    0  501    0  0.00000000000E+00  0.00000000000E+00  0.22489941119E+03  0.22489941119E+03  0.00000000000E+00 0. -1.
         -1   -1    0    0    0  501 -0.00000000000E+00 -0.00000000000E+00 -0.73946540909E+02  0.73946540909E+02  0.00000000000E+00 0.  1.
          5    1    1    2  502    0 -0.73430707401E+01  0.36960542474E+02  0.16955876978E+03  0.17375922651E+03  0.47000000000E+01 0.  1.
         -5    1    1    2    0  502  0.86788633670E+01  0.19419489708E+02 -0.19702808868E+02  0.29372264590E+02  0.47000000000E+01 0.  1.
        -11    1    1    2    0    0 -0.17170622391E+02 -0.17609919986E+02 -0.33384617670E+02  0.41466519653E+02  0.00000000000E+00 0.  1.
         11    1    1    2    0    0  0.15834829764E+02 -0.38770112195E+02  0.34481527037E+02  0.54247941344E+02  0.00000000000E+00 0. -1.
<mgrwt>
<rscale>  0 0.12534150E+03</rscale>
<asrwt>0</asrwt>
<pdfrwt beam="1">  1        1 0.34599909E-01 0.13713349E+03</pdfrwt>
<pdfrwt beam="2">  1       -1 0.11376391E-01 0.13713349E+03</pdfrwt>
<totfact> 0.60036355E+03</totfact>
</mgrwt>
</event>
<event>
 6    1  0.6101889E-006  0.1267488E+03  0.7546771E-02  0.1245250E+00
         -1   -1    0    0    0  501 -0.00000000000E+00  0.00000000000E+00  0.26885305096E+02  0.26885305096E+02  0.00000000000E+00 0.  1.
          1   -1    0    0  501    0  0.00000000000E+00 -0.00000000000E+00 -0.48156047499E+03  0.48156047499E+03  0.00000000000E+00 0. -1.
          5    1    1    2  502    0  0.15305300666E+02  0.52660748114E+02 -0.66946759584E+02  0.86668132778E+02  0.47000000000E+01 0.  1.
         -5    1    1    2    0  502  0.56888739163E+01 -0.52752474577E+02 -0.23204147848E+03  0.23807671998E+03  0.47000000000E+01 0.  1.
        -11    1    1    2    0    0 -0.34163377624E+02 -0.26991462062E+02 -0.26323300759E+02  0.50878203170E+02  0.00000000000E+00 0.  1.
         11    1    1    2    0    0  0.13169203041E+02  0.27083188525E+02 -0.12936363107E+03  0.13282272416E+03  0.00000000000E+00 0. -1.
<mgrwt>
<rscale>  0 0.11870438E+03</rscale>
<asrwt>0</asrwt>
<pdfrwt beam="2">  1        1 0.74086222E-01 0.12674878E+03</pdfrwt>
<pdfrwt beam="1">  1       -1 0.41362011E-02 0.12674878E+03</pdfrwt>
<totfact> 0.10509245E+04</totfact>
</mgrwt>
</event>
<event>
 6    1  0.1256907E-005  0.2709617E+03  0.7546771E-02  0.1102746E+00
          1   -1    0    0  501    0  0.00000000000E+00  0.00000000000E+00  0.13633644811E+04  0.13633644811E+04  0.00000000000E+00 0. -1.
         -1   -1    0    0    0  501 -0.00000000000E+00 -0.00000000000E+00 -0.52073346255E+02  0.52073346255E+02  0.00000000000E+00 0.  1.
          5    1    1    2  502    0  0.21065610788E+03 -0.50282201166E+02  0.62181086907E+03  0.65846423019E+03  0.47000000000E+01 0.  1.
         -5    1    1    2    0  502  0.29696656798E+02  0.45137740285E+02  0.14472678548E+03  0.15455497229E+03  0.47000000000E+01 0.  1.
        -11    1    1    2    0    0 -0.18019879357E+03 -0.20870892314E+02  0.31499599231E+03  0.36349645737E+03  0.00000000000E+00 0. -1.
         11    1    1    2    0    0 -0.60153971115E+02  0.26015353194E+02  0.22975748795E+03  0.23892216748E+03  0.00000000000E+00 0.  1.
<mgrwt>
<rscale>  0 0.26745375E+03</rscale>
<asrwt>0</asrwt>
<pdfrwt beam="1">  1        1 0.20974835E+00 0.27096171E+03</pdfrwt>
<pdfrwt beam="2">  1       -1 0.80112851E-02 0.27096171E+03</pdfrwt>
<totfact> 0.76024040E+02</totfact>
</mgrwt>
</event>
<event>
 6    1  0.6101889E-006  0.1605062E+03  0.7546771E-02  0.1195337E+00
          1   -1    0    0  501    0  0.00000000000E+00  0.00000000000E+00  0.98409007239E+03  0.98409007239E+03  0.00000000000E+00 0. -1.
         -1   -1    0    0    0  501 -0.00000000000E+00 -0.00000000000E+00 -0.25771225719E+02  0.25771225719E+02  0.00000000000E+00 0.  1.
          5    1    1    2  502    0 -0.36692878330E+02  0.68379036104E+02  0.36764297945E+03  0.37577321649E+03  0.47000000000E+01 0.  1.
         -5    1    1    2    0  502  0.78687266786E+02  0.23135264379E+02  0.32472305643E+03  0.33495384725E+03  0.47000000000E+01 0.  1.
        -11    1    1    2    0    0 -0.26347137253E+02 -0.10309695470E+03  0.25607449562E+03  0.27730362604E+03  0.00000000000E+00 0.  1.
         11    1    1    2    0    0 -0.15647251203E+02  0.11582654218E+02  0.98783151799E+01  0.21830608323E+02  0.00000000000E+00 0. -1.
<mgrwt>
<rscale>  0 0.15425708E+03</rscale>
<asrwt>0</asrwt>
<pdfrwt beam="1">  1        1 0.15139844E+00 0.16050617E+03</pdfrwt>
<pdfrwt beam="2">  1       -1 0.39648047E-02 0.16050617E+03</pdfrwt>
<totfact> 0.40346007E+03</totfact>
</mgrwt>
</event>
<event>
 6    1  0.6101889E-006  0.2469159E+03  0.7546771E-02  0.1115270E+00
          2   -1    0    0  501    0  0.00000000000E+00  0.00000000000E+00  0.50290695557E+03  0.50290695557E+03  0.00000000000E+00 0. -1.
         -2   -1    0    0    0  501 -0.00000000000E+00 -0.00000000000E+00 -0.30307518895E+02  0.30307518895E+02  0.00000000000E+00 0.  1.
          5    1    1    2  502    0  0.54746225669E+02  0.86145283562E+02  0.23566204597E+03  0.25685959008E+03  0.47000000000E+01 0. -1.
         -5    1    1    2    0  502 -0.25444563137E+02 -0.21619698703E+02  0.39700544097E+02  0.52087046056E+02  0.47000000000E+01 0.  1.
        -11    1    1    2    0    0  0.42733576038E+01 -0.34667465955E+02  0.17631191148E+02  0.39127403214E+02  0.00000000000E+00 0. -1.
         11    1    1    2    0    0 -0.33575020136E+02 -0.29858118904E+02  0.17960565546E+03  0.18514043512E+03  0.00000000000E+00 0.  1.
<mgrwt>
<rscale>  0 0.24691587E+03</rscale>
<asrwt>0</asrwt>
<pdfrwt beam="1">  1        2 0.77370295E-01 0.24691587E+03</pdfrwt>
<pdfrwt beam="2">  1       -2 0.46626956E-02 0.24691587E+03</pdfrwt>
<totfact> 0.13303230E+04</totfact>
</mgrwt>
</event>
<event>
 6    1  0.6101889E-006  0.1374189E+03  0.7546771E-02  0.1229582E+00
          1   -1    0    0  501    0  0.00000000000E+00  0.00000000000E+00  0.60029282262E+03  0.60029282262E+03  0.00000000000E+00 0. -1.
         -1   -1    0    0    0  501 -0.00000000000E+00 -0.00000000000E+00 -0.28390206939E+02  0.28390206939E+02  0.00000000000E+00 0.  1.
          5    1    1    2  502    0  0.46166415818E+02 -0.18721243055E+02  0.22093455362E+03  0.22653032882E+03  0.47000000000E+01 0. -1.
         -5    1    1    2    0  502 -0.35771492862E+02  0.74853754033E+02  0.21259427267E+03  0.22825665153E+03  0.47000000000E+01 0. -1.
        -11    1    1    2    0    0  0.20315502272E+02 -0.24406965168E+02  0.12316891958E+03  0.12719670724E+03  0.00000000000E+00 0. -1.
         11    1    1    2    0    0 -0.30710425227E+02 -0.31725545811E+02  0.15204869804E+02  0.46699341970E+02  0.00000000000E+00 0.  1.
<mgrwt>
<rscale>  0 0.12857712E+03</rscale>
<asrwt>0</asrwt>
<pdfrwt beam="1">  1        1 0.92352732E-01 0.13741890E+03</pdfrwt>
<pdfrwt beam="2">  1       -1 0.43677246E-02 0.13741890E+03</pdfrwt>
<totfact> 0.72843415E+03</totfact>
</mgrwt>
</event>
<event>
 6    1  0.6101889E-006  0.1445876E+03  0.7546771E-02  0.1215545E+00
          2   -1    0    0  501    0  0.00000000000E+00  0.00000000000E+00  0.92459685063E+03  0.92459685063E+03  0.00000000000E+00 0.  1.
         -2   -1    0    0    0  501 -0.00000000000E+00 -0.00000000000E+00 -0.19110614872E+02  0.19110614872E+02  0.00000000000E+00 0. -1.
          5    1    1    2  502    0 -0.72118905090E+02 -0.28423350125E+02  0.44032847897E+03  0.44712445996E+03  0.47000000000E+01 0.  1.
         -5    1    1    2    0  502  0.28495760727E+02 -0.29688326051E+02  0.54850406711E+02  0.68731813591E+02  0.47000000000E+01 0.  1.
        -11    1    1    2    0    0  0.68727484727E+02  0.65650853094E+02  0.32327827190E+03  0.33696044687E+03  0.00000000000E+00 0.  1.
         11    1    1    2    0    0 -0.25104340364E+02 -0.75391769184E+01  0.87029078173E+02  0.90890745081E+02  0.00000000000E+00 0. -1.
<mgrwt>
<rscale>  0 0.13836606E+03</rscale>
<asrwt>0</asrwt>
<pdfrwt beam="1">  1        2 0.14224563E+00 0.14458757E+03</pdfrwt>
<pdfrwt beam="2">  1       -2 0.29400953E-02 0.14458757E+03</pdfrwt>
<totfact> 0.12313330E+04</totfact>
</mgrwt>
</event>
<event>
 6    1  0.6101889E-006  0.1723046E+03  0.7546771E-02  0.1181840E+00
          1   -1    0    0  501    0  0.00000000000E+00  0.00000000000E+00  0.20321569685E+03  0.20321569685E+03  0.00000000000E+00 0. -1.
         -1   -1    0    0    0  501 -0.00000000000E+00 -0.00000000000E+00 -0.13260695859E+03  0.13260695859E+03  0.00000000000E+00 0.  1.
          5    1    1    2  502    0  0.24515880678E+02  0.71751441354E+02  0.38788586352E+02  0.85299133483E+02  0.47000000000E+01 0.  1.
         -5    1    1    2    0  502 -0.92274186760E+02  0.25410702601E+02  0.32751853109E+02  0.10126698984E+03  0.47000000000E+01 0.  1.
        -11    1    1    2    0    0 -0.21627811271E+02 -0.28578447472E+02 -0.66247273273E+01  0.36446905114E+02  0.00000000000E+00 0.  1.
         11    1    1    2    0    0  0.89386117353E+02 -0.68583696484E+02  0.56930261212E+01  0.11280962701E+03  0.00000000000E+00 0. -1.
<mgrwt>
<rscale>  0 0.16622790E+03</rscale>
<asrwt>0</asrwt>
<pdfrwt beam="1">  1        1 0.31263953E-01 0.17230463E+03</pdfrwt>
<pdfrwt beam="2">  1       -1 0.20401071E-01 0.17230463E+03</pdfrwt>
<totfact> 0.27466969E+03</totfact>
</mgrwt>
</event>
<event>
 6    1  0.6101889E-006  0.1404767E+03  0.7546771E-02  0.1221639E+00
          2   -1    0    0  501    0  0.00000000000E+00  0.00000000000E+00  0.42867008265E+03  0.42867008265E+03  0.00000000000E+00 0. -1.
         -2   -1    0    0    0  501 -0.00000000000E+00 -0.00000000000E+00 -0.42065045189E+02  0.42065045189E+02  0.00000000000E+00 0.  1.
          5    1    1    2  502    0  0.11446215387E+02 -0.65926396729E+02  0.34630561882E+02  0.75489545293E+02  0.47000000000E+01 0.  1.
         -5    1    1    2    0  502  0.47498200660E+02  0.40754377017E+02  0.10662903406E+03  0.12372889402E+03  0.47000000000E+01 0.  1.
        -11    1    1    2    0    0 -0.47715062736E+02 -0.22895029549E+02  0.61388131994E+02  0.81051911388E+02  0.00000000000E+00 0. -1.
         11    1    1    2    0    0 -0.11229353312E+02  0.48067049261E+02  0.18395730952E+03  0.19046477713E+03  0.00000000000E+00 0.  1.
<mgrwt>
<rscale>  0 0.13399951E+03</rscale>
<asrwt>0</asrwt>
<pdfrwt beam="1">  1        2 0.65949241E-01 0.14047674E+03</pdfrwt>
<pdfrwt beam="2">  1       -2 0.64715457E-02 0.14047674E+03</pdfrwt>
<totfact> 0.92860021E+03</totfact>
</mgrwt>
</event>
<event>
 6    1  0.6101889E-006  0.1574573E+03  0.7546771E-02  0.1199509E+00
          4   -1    0    0  501    0  0.00000000000E+00  0.00000000000E+00  0.40019226022E+03  0.40019226022E+03  0.00000000000E+00 0. -1.
         -4   -1    0    0    0  501 -0.00000000000E+00 -0.00000000000E+00 -0.52500239407E+02  0.52500239407E+02  0.00000000000E+00 0.  1.
          5    1    1    2  502    0  0.17751465802E+02  0.10556580409E+03  0.16525492071E+03  0.19695312222E+03  0.47000000000E+01 0. -1.
         -5    1    1    2    0  502 -0.41423022980E+02 -0.12769188225E+02  0.25943056759E+02  0.50735108108E+02  0.47000000000E+01 0. -1.
        -11    1    1    2    0    0 -0.34607118361E+02 -0.34587723599E+02  0.71571214825E+02  0.86697185978E+02  0.00000000000E+00 0. -1.
         11    1    1    2    0    0  0.58278675539E+02 -0.58208892266E+02  0.84922828516E+02  0.11830708332E+03  0.00000000000E+00 0.  1.
<mgrwt>
<rscale>  0 0.15078720E+03</rscale>
<asrwt>0</asrwt>
<pdfrwt beam="1">  1        4 0.61568038E-01 0.15745727E+03</pdfrwt>
<pdfrwt beam="2">  1       -4 0.80769601E-02 0.15745727E+03</pdfrwt>
<totfact> 0.46625844E+02</totfact>
</mgrwt>
</event>
<event>
 6    1  0.6101889E-006  0.1451358E+03  0.7546771E-02  0.1216003E+00
          2   -1    0    0  501    0  0.00000000000E+00  0.00000000000E+00  0.18628136416E+04  0.18628136416E+04  0.00000000000E+00 0. -1.
         -2   -1    0    0    0  501 -0.00000000000E+00 -0.00000000000E+00 -0.10632887405E+02  0.10632887405E+02  0.00000000000E+00 0.  1.
          5    1    1    2  502    0  0.42068485276E+02 -0.28026664134E+02  0.48827933077E+03  0.49091144437E+03  0.47000000000E+01 0.  1.
         -5    1    1    2    0  502 -0.86815132402E+01  0.93765568647E+02  0.84386612088E+03  0.84911687682E+03  0.47000000000E+01 0.  1.
        -11    1    1    2    0    0 -0.18540152006E+02 -0.88550951944E+02  0.42722299123E+03  0.43669725505E+03  0.00000000000E+00 0.  1.
         11    1    1    2    0    0 -0.14846820030E+02  0.22812047431E+02  0.92812311288E+02  0.96720952744E+02  0.00000000000E+00 0. -1.
<mgrwt>
<rscale>  0 0.13803099E+03</rscale>
<asrwt>0</asrwt>
<pdfrwt beam="1">  1        2 0.28658645E+00 0.14513579E+03</pdfrwt>
<pdfrwt beam="2">  1       -2 0.16358303E-02 0.14513579E+03</pdfrwt>
<totfact> 0.89726753E+03</totfact>
</mgrwt>
</event>
<event>
 6    1  0.6101889E-006  0.1371413E+03  0.7546771E-02  0.1227058E+00
          1   -1    0    0  501    0  0.00000000000E+00  0.00000000000E+00  0.26522054897E+03  0.26522054897E+03  0.00000000000E+00 0. -1.
         -1   -1    0    0    0  501 -0.00000000000E+00 -0.00000000000E+00 -0.61762724529E+02  0.61762724529E+02  0.00000000000E+00 0.  1.
          5    1    1    2  502    0  0.32536688823E+02 -0.37651955063E+02  0.13627127769E+03  0.14514908530E+03  0.47000000000E+01 0. -1.
         -5    1    1    2    0  502 -0.54295582719E+02 -0.14400889441E+02  0.13575419119E+02  0.57980841005E+02  0.47000000000E+01 0. -1.
        -11    1    1    2    0    0  0.54596333231E+02  0.23884883263E+02  0.54246857256E+02  0.80585164720E+02  0.00000000000E+00 0. -1.
         11    1    1    2    0    0 -0.32837439335E+02  0.28167961240E+02 -0.63572962484E+00  0.43268182475E+02  0.00000000000E+00 0.  1.
<mgrwt>
<rscale>  0 0.13026864E+03</rscale>
<asrwt>0</asrwt>
<pdfrwt beam="1">  1        1 0.40803160E-01 0.13714129E+03</pdfrwt>
<pdfrwt beam="2">  1       -1 0.95019578E-02 0.13714129E+03</pdfrwt>
<totfact> 0.64481467E+03</totfact>
</mgrwt>
</event>
<event>
 6    1  0.6101889E-006  0.1262482E+03  0.7546771E-02  0.1248352E+00
         -2   -1    0    0    0  501 -0.00000000000E+00  0.00000000000E+00  0.44636791919E+02  0.44636791919E+02  0.00000000000E+00 0.  1.
          2   -1    0    0  501    0  0.00000000000E+00 -0.00000000000E+00 -0.58358720029E+03  0.58358720029E+03  0.00000000000E+00 0. -1.
          5    1    1    2  502    0 -0.69132688313E+02  0.79874629927E+01 -0.22868767824E+03  0.23908841950E+03  0.47000000000E+01 0.  1.
         -5    1    1    2    0  502  0.52455006494E+02 -0.21002846931E+01 -0.28932789997E+03  0.29408954861E+03  0.47000000000E+01 0.  1.
        -11    1    1    2    0    0  0.30125166040E+02 -0.33478880693E+02  0.15293456952E+02  0.47563125495E+02  0.00000000000E+00 0.  1.
         11    1    1    2    0    0 -0.13447484220E+02  0.27591702393E+02 -0.36228287117E+02  0.47482898608E+02  0.00000000000E+00 0. -1.
<mgrwt>
<rscale>  0 0.11686989E+03</rscale>
<asrwt>0</asrwt>
<pdfrwt beam="2">  1        2 0.89782644E-01 0.12624819E+03</pdfrwt>
<pdfrwt beam="1">  1       -2 0.68671989E-02 0.12624819E+03</pdfrwt>
<totfact> 0.60038702E+03</totfact>
</mgrwt>
</event>
<event>
 6    1  0.6101889E-006  0.1319494E+03  0.7546771E-02  0.1237911E+00
         -2   -1    0    0    0  501 -0.00000000000E+00  0.00000000000E+00  0.27683361526E+02  0.27683361526E+02  0.00000000000E+00 0.  1.
          2   -1    0    0  501    0  0.00000000000E+00 -0.00000000000E+00 -0.48830264353E+03  0.48830264353E+03  0.00000000000E+00 0. -1.
          5    1    1    2  502    0  0.62227024460E+02 -0.10495094657E+02 -0.48875947659E+02  0.79958100556E+02  0.47000000000E+01 0. -1.
         -5    1    1    2    0  502 -0.24695453055E+02 -0.88833910727E+01 -0.19966297629E+03  0.20143528524E+03  0.47000000000E+01 0. -1.
        -11    1    1    2    0    0  0.29608924638E+02  0.38477481181E+01 -0.46704893973E+02  0.55433209404E+02  0.00000000000E+00 0.  1.
         11    1    1    2    0    0 -0.67140496042E+02  0.15530737612E+02 -0.16537546408E+03  0.17915940985E+03  0.00000000000E+00 0. -1.
<mgrwt>
<rscale>  0 0.12319884E+03</rscale>
<asrwt>0</asrwt>
<pdfrwt beam="2">  1        2 0.75123478E-01 0.13194939E+03</pdfrwt>
<pdfrwt beam="1">  1       -2 0.42589790E-02 0.13194939E+03</pdfrwt>
<totfact> 0.15069502E+04</totfact>
</mgrwt>
</event>
<event>
 6    1  0.6101889E-006  0.1580819E+03  0.7546771E-02  0.1209081E+00
         -2   -1    0    0    0  501 -0.00000000000E+00  0.00000000000E+00  0.43283438150E+03  0.43283438150E+03  0.00000000000E+00 0.  1.
          2   -1    0    0  501    0  0.00000000000E+00 -0.00000000000E+00 -0.80720579988E+02  0.80720579988E+02  0.00000000000E+00 0. -1.
          5    1    1    2  502    0  0.24090253364E+02  0.33144403717E+02 -0.65302351938E+02  0.77235865849E+02  0.47000000000E+01 0. -1.
         -5    1    1    2    0  502 -0.48416606582E+01  0.19098191012E+02  0.78867510100E+02  0.81427002446E+02  0.47000000000E+01 0.  1.
        -11    1    1    2    0    0 -0.16237058050E+02 -0.78351294709E+02  0.26297475176E+03  0.27487867778E+03  0.00000000000E+00 0.  1.
         11    1    1    2    0    0 -0.30115346557E+01  0.26108699979E+02  0.75573891596E+02  0.80013415416E+02  0.00000000000E+00 0. -1.
<mgrwt>
<rscale>  0 0.14320421E+03</rscale>
<asrwt>0</asrwt>
<pdfrwt beam="2">  1        2 0.12418551E-01 0.15808192E+03</pdfrwt>
<pdfrwt beam="1">  1       -2 0.66589904E-01 0.15808192E+03</pdfrwt>
<totfact> 0.10227709E+03</totfact>
</mgrwt>
</event>
<event>
 6    1  0.6101889E-006  0.1267537E+03  0.7546771E-02  0.1246697E+00
          2   -1    0    0  501    0  0.00000000000E+00  0.00000000000E+00  0.56256543098E+03  0.56256543098E+03  0.00000000000E+00 0. -1.
         -2   -1    0    0    0  501 -0.00000000000E+00 -0.00000000000E+00 -0.21837236287E+02  0.21837236287E+02  0.00000000000E+00 0.  1.
          5    1    1    2  502    0  0.36042698046E+02  0.15046521714E+02  0.25667648756E+02  0.46972248092E+02  0.47000000000E+01 0.  1.
         -5    1    1    2    0  502 -0.23807897576E+02 -0.32141085552E+02  0.29668157783E+03  0.29940259517E+03  0.47000000000E+01 0.  1.
        -11    1    1    2    0    0  0.27645457457E+02  0.19200864597E+02  0.28832443948E+02  0.44319909108E+02  0.00000000000E+00 0.  1.
         11    1    1    2    0    0 -0.39880257927E+02 -0.21063007594E+01  0.18954652415E+03  0.19370791490E+03  0.00000000000E+00 0. -1.
<mgrwt>
<rscale>  0 0.11784380E+03</rscale>
<asrwt>0</asrwt>
<pdfrwt beam="1">  1        2 0.86548517E-01 0.12675373E+03</pdfrwt>
<pdfrwt beam="2">  1       -2 0.33595752E-02 0.12675373E+03</pdfrwt>
<totfact> 0.18249768E+04</totfact>
</mgrwt>
</event>
<event>
 6    1  0.6101889E-006  0.1907575E+03  0.7546771E-02  0.1162529E+00
          1   -1    0    0  501    0  0.00000000000E+00  0.00000000000E+00  0.29385394570E+03  0.29385394570E+03  0.00000000000E+00 0. -1.
         -1   -1    0    0    0  501 -0.00000000000E+00 -0.00000000000E+00 -0.11279932638E+03  0.11279932638E+03  0.00000000000E+00 0.  1.
          5    1    1    2  502    0  0.31683546529E+02  0.10947209934E+03  0.17976049224E+02  0.11546954577E+03  0.47000000000E+01 0.  1.
         -5    1    1    2    0  502 -0.22551081155E+02  0.34331006529E+02  0.10154495548E+03  0.10963866678E+03  0.47000000000E+01 0.  1.
        -11    1    1    2    0    0 -0.33384521274E+01 -0.10148751000E+02 -0.21558512886E+02  0.24060587842E+02  0.00000000000E+00 0.  1.
         11    1    1    2    0    0 -0.57940132465E+01 -0.13365435487E+03  0.83092127502E+02  0.15748447168E+03  0.00000000000E+00 0. -1.
<mgrwt>
<rscale>  0 0.18555919E+03</rscale>
<asrwt>0</asrwt>
<pdfrwt beam="1">  1        1 0.45208299E-01 0.19075753E+03</pdfrwt>
<pdfrwt beam="2">  1       -1 0.17353743E-01 0.19075753E+03</pdfrwt>
<totfact> 0.22564317E+03</totfact>
</mgrwt>
</event>
<event>
 6    1  0.6101889E-006  0.1309559E+03  0.7546771E-02  0.1237498E+00
         -2   -1    0    0    0  501 -0.00000000000E+00  0.00000000000E+00  0.11993320557E+03  0.11993320557E+03  0.00000000000E+00 0.  1.
          2   -1    0    0  501    0  0.00000000000E+00 -0.00000000000E+00 -0.12750047848E+03  0.12750047848E+03  0.00000000000E+00 0. -1.
          5    1    1    2  502    0  0.99917543061E+01  0.53656388553E+02 -0.26524975131E+02  0.60864665385E+02  0.47000000000E+01 0.  1.
         -5    1    1    2    0  502 -0.48907417530E+02 -0.56963720904E+02 -0.16871487536E+02  0.77094345320E+02  0.47000000000E+01 0.  1.
        -11    1    1    2    0    0 -0.21417656348E+02  0.70981071534E+01  0.43038166624E+02  0.48594062548E+02  0.00000000000E+00 0.  1.
         11    1    1    2    0    0  0.60333319572E+02 -0.37907748028E+01 -0.72089768698E+01  0.60880610803E+02  0.00000000000E+00 0. -1.
<mgrwt>
<rscale>  0 0.12345867E+03</rscale>
<asrwt>0</asrwt>
<pdfrwt beam="2">  1        2 0.19615458E-01 0.13095585E+03</pdfrwt>
<pdfrwt beam="1">  1       -2 0.18451262E-01 0.13095585E+03</pdfrwt>
<totfact> 0.64882910E+03</totfact>
</mgrwt>
</event>
<event>
 6    1  0.6101889E-006  0.2818181E+03  0.7546771E-02  0.1094700E+00
          1   -1    0    0  501    0  0.00000000000E+00  0.00000000000E+00  0.67345299072E+03  0.67345299072E+03  0.00000000000E+00 0. -1.
         -1   -1    0    0    0  501 -0.00000000000E+00 -0.00000000000E+00 -0.29482915907E+02  0.29482915907E+02  0.00000000000E+00 0.  1.
          5    1    1    2  502    0 -0.28050919043E+02 -0.21686625073E+02  0.23858922594E+03  0.24125520202E+03  0.47000000000E+01 0. -1.
         -5    1    1    2    0  502  0.42571116463E+02  0.85028946844E+02  0.26116128736E+03  0.27797397320E+03  0.47000000000E+01 0. -1.
        -11    1    1    2    0    0 -0.52360826327E+02 -0.36931557968E+02  0.10566399624E+03  0.12357376828E+03  0.00000000000E+00 0. -1.
         11    1    1    2    0    0  0.37840628906E+02 -0.26410763803E+02  0.38555565272E+02  0.60132963124E+02  0.00000000000E+00 0.  1.
<mgrwt>
<rscale>  0 0.28181808E+03</rscale>
<asrwt>0</asrwt>
<pdfrwt beam="1">  1        1 0.10360814E+00 0.28181808E+03</pdfrwt>
<pdfrwt beam="2">  1       -1 0.45358337E-02 0.28181808E+03</pdfrwt>
<totfact> 0.60653277E+03</totfact>
</mgrwt>
</event>
<event>
 6    1  0.6101889E-006  0.2224270E+03  0.7546771E-02  0.1135322E+00
          1   -1    0    0  501    0  0.00000000000E+00  0.00000000000E+00  0.28497256817E+04  0.28497256817E+04  0.00000000000E+00 0. -1.
         -1   -1    0    0    0  501 -0.00000000000E+00 -0.00000000000E+00 -0.16198044459E+02  0.16198044459E+02  0.00000000000E+00 0.  1.
          5    1    1    2  502    0  0.16901725193E+03  0.24574321002E+02  0.12311904424E+04  0.12429894304E+04  0.47000000000E+01 0. -1.
         -5    1    1    2    0  502 -0.14194542252E+01  0.51332909407E+02  0.36927231501E+03  0.37285548818E+03  0.47000000000E+01 0. -1.
        -11    1    1    2    0    0 -0.17745225536E+03 -0.80117884874E+02  0.11778392500E+04  0.11938230511E+04  0.00000000000E+00 0.  1.
         11    1    1    2    0    0  0.98544576573E+01  0.42106544654E+01  0.55225629808E+02  0.56255756456E+02  0.00000000000E+00 0. -1.
<mgrwt>
<rscale>  0 0.21808029E+03</rscale>
<asrwt>0</asrwt>
<pdfrwt beam="1">  1        1 0.43841894E+00 0.22242698E+03</pdfrwt>
<pdfrwt beam="2">  1       -1 0.24920091E-02 0.22242698E+03</pdfrwt>
<totfact> 0.46071667E+02</totfact>
</mgrwt>
</event>
<event>
 6    1  0.6101889E-006  0.1294487E+03  0.7546771E-02  0.1242430E+00
         -2   -1    0    0    0  501 -0.00000000000E+00  0.00000000000E+00  0.19825634807E+02  0.19825634807E+02  0.00000000000E+00 0.  1.
          2   -1    0    0  501    0  0.00000000000E+00 -0.00000000000E+00 -0.75507555247E+03  0.75507555247E+03  0.00000000000E+00 0. -1.
          5    1    1    2  502    0 -0.18131008379E+01 -0.34427631961E+02 -0.47151723165E+03  0.47279925858E+03  0.47000000000E+01 0.  1.
         -5    1    1    2    0  502 -0.31503732204E+02  0.39087036352E+02 -0.87297054085E+02  0.10081243577E+03  0.47000000000E+01 0.  1.
        -11    1    1    2    0    0  0.15434657702E+02 -0.35313712475E+02 -0.25438544310E+02  0.46177987004E+02  0.00000000000E+00 0.  1.
         11    1    1    2    0    0  0.17882175340E+02  0.30654308084E+02 -0.15099708762E+03  0.15511150592E+03  0.00000000000E+00 0. -1.
<mgrwt>
<rscale>  0 0.12040500E+03</rscale>
<asrwt>0</asrwt>
<pdfrwt beam="2">  1        2 0.11616545E+00 0.12944872E+03</pdfrwt>
<pdfrwt beam="1">  1       -2 0.30500983E-02 0.12944872E+03</pdfrwt>
<totfact> 0.14969245E+04</totfact>
</mgrwt>
</event>
<event>
 6    1  0.6169961E-006  0.3307078E+03  0.7546771E-02  0.1071660E+00
          1   -1    0    0  501    0  0.00000000000E+00  0.00000000000E+00  0.32456167191E+04  0.32456167191E+04  0.00000000000E+00 0. -1.
         -1   -1    0    0    0  501 -0.00000000000E+00 -0.00000000000E+00 -0.41148103309E+02  0.41148103309E+02  0.00000000000E+00 0.  1.
          5    1    1    2  502    0  0.78891904417E+01  0.22397150810E+02  0.48346105611E+03  0.48406668390E+03  0.47000000000E+01 0. -1.
         -5    1    1    2    0  502 -0.15684535237E+03  0.24510070182E+03  0.18674516554E+04  0.18899927497E+04  0.47000000000E+01 0. -1.
        -11    1    1    2    0    0  0.97919999672E+02 -0.13277269996E+03  0.31976618081E+03  0.35981568418E+03  0.00000000000E+00 0.  1.
         11    1    1    2    0    0  0.51036162261E+02 -0.13472515267E+03  0.53378972348E+03  0.55288970466E+03  0.00000000000E+00 0. -1.
<mgrwt>
<rscale>  0 0.32882060E+03</rscale>
<asrwt>0</asrwt>
<pdfrwt beam="1">  1        1 0.49932545E+00 0.33070775E+03</pdfrwt>
<pdfrwt beam="2">  1       -1 0.63304800E-02 0.33070775E+03</pdfrwt>
<totfact> 0.58464909E+01</totfact>
</mgrwt>
</event>
<event>
 6    1  0.6101889E-006  0.1312840E+03  0.7546771E-02  0.1250830E+00
         -1   -1    0    0    0  501 -0.00000000000E+00  0.00000000000E+00  0.23507107721E+02  0.23507107721E+02  0.00000000000E+00 0.  1.
          1   -1    0    0  501    0  0.00000000000E+00 -0.00000000000E+00 -0.47983913890E+03  0.47983913890E+03  0.00000000000E+00 0. -1.
          5    1    1    2  502    0 -0.23354959512E+02 -0.34391164092E+02 -0.15333538052E+03  0.15894035114E+03  0.47000000000E+01 0. -1.
         -5    1    1    2    0  502  0.84609896860E+02  0.48014193247E+01 -0.16934825438E+03  0.18942758388E+03  0.47000000000E+01 0.  1.
        -11    1    1    2    0    0 -0.40600448804E+02  0.34683858416E+01 -0.47303142062E+02  0.62434072368E+02  0.00000000000E+00 0. -1.
         11    1    1    2    0    0 -0.20654488544E+02  0.26121358926E+02 -0.86345254222E+02  0.92544239236E+02  0.00000000000E+00 0.  1.
<mgrwt>
<rscale>  0 0.11543156E+03</rscale>
<asrwt>0</asrwt>
<pdfrwt beam="2">  1        1 0.73821402E-01 0.13128400E+03</pdfrwt>
<pdfrwt beam="1">  1       -1 0.36164783E-02 0.13128400E+03</pdfrwt>
<totfact> 0.12887552E+04</totfact>
</mgrwt>
</event>
<event>
 6    1  0.6101889E-006  0.1456385E+03  0.7546771E-02  0.1211595E+00
          1   -1    0    0  501    0  0.00000000000E+00  0.00000000000E+00  0.51928034132E+02  0.51928034132E+02  0.00000000000E+00 0. -1.
         -1   -1    0    0    0  501 -0.00000000000E+00 -0.00000000000E+00 -0.55316164964E+03  0.55316164964E+03  0.00000000000E+00 0.  1.
          5    1    1    2  502    0  0.70308171152E+02 -0.19607457517E+02 -0.72451794399E+02  0.10295165775E+03  0.47000000000E+01 0. -1.
         -5    1    1    2    0  502 -0.24872055825E+02  0.58754844017E+02 -0.11037616881E+02  0.64920488622E+02  0.47000000000E+01 0.  1.
        -11    1    1    2    0    0  0.13917946312E+02  0.32141047670E+02 -0.89237849180E+02  0.95865269526E+02  0.00000000000E+00 0. -1.
         11    1    1    2    0    0 -0.59354061639E+02 -0.71288434170E+02 -0.32850635505E+03  0.34135226788E+03  0.00000000000E+00 0.  1.
<mgrwt>
<rscale>  0 0.14129622E+03</rscale>
<asrwt>0</asrwt>
<pdfrwt beam="1">  1        1 0.79889286E-02 0.14563851E+03</pdfrwt>
<pdfrwt beam="2">  1       -1 0.85101790E-01 0.14563851E+03</pdfrwt>
<totfact> 0.12266103E+03</totfact>
</mgrwt>
</event>
<event>
 6    1  0.6101889E-006  0.2545229E+03  0.7546771E-02  0.1148833E+00
          2   -1    0    0  501    0  0.00000000000E+00  0.00000000000E+00  0.11821600730E+04  0.11821600730E+04  0.00000000000E+00 0. -1.
         -2   -1    0    0    0  501 -0.00000000000E+00 -0.00000000000E+00 -0.32565482829E+02  0.32565482829E+02  0.00000000000E+00 0.  1.
          5    1    1    2  502    0 -0.26306759779E+02 -0.48710140778E+02  0.70728293173E+03  0.70946173889E+03  0.47000000000E+01 0. -1.
         -5    1    1    2    0  502  0.59287553641E+02  0.12476900990E+03  0.31428260255E+03  0.34333360469E+03  0.47000000000E+01 0.  1.
        -11    1    1    2    0    0 -0.55323215176E+01 -0.70937303467E+02  0.94667960684E+02  0.11842605450E+03  0.00000000000E+00 0. -1.
         11    1    1    2    0    0 -0.27448472344E+02 -0.51215656555E+01  0.33361095246E+02  0.43504157787E+02  0.00000000000E+00 0.  1.
<mgrwt>
<rscale>  0 0.20107777E+03</rscale>
<asrwt>0</asrwt>
<pdfrwt beam="1">  1        2 0.18187075E+00 0.25452288E+03</pdfrwt>
<pdfrwt beam="2">  1       -2 0.50100752E-02 0.25452288E+03</pdfrwt>
<totfact> 0.39841327E+03</totfact>
</mgrwt>
</event>
<event>
 6    1  0.6101889E-006  0.1698085E+03  0.7546771E-02  0.1184324E+00
          1   -1    0    0  501    0  0.00000000000E+00  0.00000000000E+00  0.14209263611E+04  0.14209263611E+04  0.00000000000E+00 0. -1.
         -1   -1    0    0    0  501 -0.00000000000E+00 -0.00000000000E+00 -0.25074347214E+02  0.25074347214E+02  0.00000000000E+00 0.  1.
          5    1    1    2  502    0  0.12517385675E+02 -0.10592699883E+02  0.73746636984E+03  0.73766362719E+03  0.47000000000E+01 0. -1.
         -5    1    1    2    0  502  0.53426614729E+02 -0.83558175034E+02  0.38610901177E+03  0.39867108091E+03  0.47000000000E+01 0. -1.
        -11    1    1    2    0    0 -0.13365461393E+02  0.19487175129E+02  0.12441724651E+01  0.23662914399E+02  0.00000000000E+00 0.  1.
         11    1    1    2    0    0 -0.52578539012E+02  0.74663699788E+02  0.27103245986E+03  0.28600308587E+03  0.00000000000E+00 0. -1.
<mgrwt>
<rscale>  0 0.16393555E+03</rscale>
<asrwt>0</asrwt>
<pdfrwt beam="1">  1        1 0.21860399E+00 0.16980851E+03</pdfrwt>
<pdfrwt beam="2">  1       -1 0.38575930E-02 0.16980851E+03</pdfrwt>
<totfact> 0.20951964E+03</totfact>
</mgrwt>
</event>
<event>
 6    1  0.6101889E-006  0.2579274E+03  0.7546771E-02  0.1108395E+00
          2   -1    0    0  501    0  0.00000000000E+00  0.00000000000E+00  0.10255027116E+03  0.10255027116E+03  0.00000000000E+00 0. -1.
         -2   -1    0    0    0  501 -0.00000000000E+00 -0.00000000000E+00 -0.16218033116E+03  0.16218033116E+03  0.00000000000E+00 0.  1.
          5    1    1    2  502    0  0.11592551613E+01  0.13826011909E+02  0.49365225635E+02  0.51492892517E+02  0.47000000000E+01 0.  1.
         -5    1    1    2    0  502  0.38245685779E+02 -0.56150974337E+02 -0.52946694614E+02  0.86261850608E+02  0.47000000000E+01 0.  1.
        -11    1    1    2    0    0  0.13453771923E+02  0.31721419467E+02  0.15174093069E+02  0.37649774667E+02  0.00000000000E+00 0. -1.
         11    1    1    2    0    0 -0.52858712863E+02  0.10603542961E+02 -0.71222684083E+02  0.89326084527E+02  0.00000000000E+00 0.  1.
<mgrwt>
<rscale>  0 0.25792741E+03</rscale>
<asrwt>0</asrwt>
<pdfrwt beam="1">  1        2 0.15776965E-01 0.25792741E+03</pdfrwt>
<pdfrwt beam="2">  1       -2 0.24950820E-01 0.25792741E+03</pdfrwt>
<totfact> 0.51800960E+03</totfact>
</mgrwt>
</event>
<event>
 6    1  0.6101889E-006  0.2463280E+03  0.7546771E-02  0.1117710E+00
         -1   -1    0    0    0  501 -0.00000000000E+00  0.00000000000E+00  0.21437920841E+03  0.21437920841E+03  0.00000000000E+00 0.  1.
          1   -1    0    0  501    0  0.00000000000E+00 -0.00000000000E+00 -0.56145156701E+03  0.56145156701E+03  0.00000000000E+00 0. -1.
          5    1    1    2  502    0 -0.15073347793E+03 -0.42040777996E+02 -0.18866161353E+03  0.24515974956E+03  0.47000000000E+01 0.  1.
         -5    1    1    2    0  502 -0.52653584142E+02 -0.18662884899E+02 -0.26699984781E+03  0.27282175853E+03  0.47000000000E+01 0.  1.
        -11    1    1    2    0    0  0.16053451707E+03  0.46538361377E+02  0.33846092013E+02  0.17053653039E+03  0.00000000000E+00 0. -1.
         11    1    1    2    0    0  0.42852544998E+02  0.14165301518E+02  0.74743010731E+02  0.87312736946E+02  0.00000000000E+00 0.  1.
<mgrwt>
<rscale>  0 0.24315232E+03</rscale>
<asrwt>0</asrwt>
<pdfrwt beam="2">  1        1 0.86377164E-01 0.24632798E+03</pdfrwt>
<pdfrwt beam="1">  1       -1 0.32981417E-01 0.24632798E+03</pdfrwt>
<totfact> 0.33792490E+02</totfact>
</mgrwt>
</event>
<event>
 6    1  0.6101889E-006  0.1306823E+03  0.7546771E-02  0.1240104E+00
         -1   -1    0    0    0  501 -0.00000000000E+00  0.00000000000E+00  0.10594882202E+03  0.10594882202E+03  0.00000000000E+00 0.  1.
          1   -1    0    0  501    0  0.00000000000E+00 -0.00000000000E+00 -0.12932147539E+03  0.12932147539E+03  0.00000000000E+00 0. -1.
          5    1    1    2  502    0 -0.29430387737E+02  0.60884529181E+02 -0.40796875892E+02  0.79117309727E+02  0.47000000000E+01 0. -1.
         -5    1    1    2    0  502  0.48606888690E+02 -0.28218831728E+02  0.43044086200E+01  0.56564565107E+02  0.47000000000E+01 0. -1.
        -11    1    1    2    0    0 -0.25302568369E+02  0.91908972520E+01 -0.29224778618E+02  0.39733867715E+02  0.00000000000E+00 0. -1.
         11    1    1    2    0    0  0.61260674157E+01 -0.41856594705E+02  0.42344592519E+02  0.59854554863E+02  0.00000000000E+00 0.  1.
<mgrwt>
<rscale>  0 0.12183285E+03</rscale>
<asrwt>0</asrwt>
<pdfrwt beam="2">  1        1 0.19895612E-01 0.13068233E+03</pdfrwt>
<pdfrwt beam="1">  1       -1 0.16299819E-01 0.13068233E+03</pdfrwt>
<totfact> 0.68381801E+03</totfact>
</mgrwt>
</event>
<event>
 6    1  0.6101889E-006  0.3137939E+03  0.7546771E-02  0.1078542E+00
          1   -1    0    0  501    0  0.00000000000E+00  0.00000000000E+00  0.18520161028E+03  0.18520161028E+03  0.00000000000E+00 0. -1.
         -1   -1    0    0    0  501 -0.00000000000E+00 -0.00000000000E+00 -0.13291811493E+03  0.13291811493E+03  0.00000000000E+00 0.  1.
          5    1    1    2  502    0  0.23624371214E+02  0.14568032254E+02 -0.25924603663E+01  0.28269229380E+02  0.47000000000E+01 0.  1.
         -5    1    1    2    0  502 -0.12300132541E+03 -0.33730431224E+02  0.75661138664E+02  0.14837036749E+03  0.47000000000E+01 0.  1.
        -11    1    1    2    0    0  0.91450626904E+02 -0.15032834862E+02  0.11996530624E+02  0.93451163888E+02  0.00000000000E+00 0. -1.
         11    1    1    2    0    0  0.79263272959E+01  0.34195233832E+02 -0.32781713575E+02  0.48028964450E+02  0.00000000000E+00 0.  1.
<mgrwt>
<rscale>  0 0.31379387E+03</rscale>
<asrwt>0</asrwt>
<pdfrwt beam="1">  1        1 0.28492555E-01 0.31379387E+03</pdfrwt>
<pdfrwt beam="2">  1       -1 0.20448941E-01 0.31379387E+03</pdfrwt>
<totfact> 0.31449338E+03</totfact>
</mgrwt>
</event>
<event>
 6    1  0.6101889E-006  0.1284062E+03  0.7546771E-02  0.1237734E+00
         -2   -1    0    0    0  501 -0.00000000000E+00  0.00000000000E+00  0.10561769055E+03  0.10561769055E+03  0.00000000000E+00 0.  1.
          2   -1    0    0  501    0  0.00000000000E+00 -0.00000000000E+00 -0.13405110434E+03  0.13405110434E+03  0.00000000000E+00 0. -1.
          5    1    1    2  502    0  0.10147193101E+02 -0.55868855573E+02 -0.18716439403E+02  0.59972407446E+02  0.47000000000E+01 0. -1.
         -5    1    1    2    0  502 -0.39483618666E+02  0.55164783615E+02  0.99836648847E+01  0.68730437645E+02  0.47000000000E+01 0. -1.
        -11    1    1    2    0    0 -0.33597674316E+00  0.48124359027E+02 -0.25955526146E+02  0.54678662654E+02  0.00000000000E+00 0. -1.
         11    1    1    2    0    0  0.29672402308E+02 -0.47420287069E+02  0.62548868772E+01  0.56287287146E+02  0.00000000000E+00 0.  1.
<mgrwt>
<rscale>  0 0.12331002E+03</rscale>
<asrwt>0</asrwt>
<pdfrwt beam="2">  1        2 0.20623247E-01 0.12840623E+03</pdfrwt>
<pdfrwt beam="1">  1       -2 0.16248876E-01 0.12840623E+03</pdfrwt>
<totfact> 0.75602959E+03</totfact>
</mgrwt>
</event>
<event>
 6    1  0.6101889E-006  0.1283042E+03  0.7546771E-02  0.1245447E+00
         -2   -1    0    0    0  501 -0.00000000000E+00  0.00000000000E+00  0.11638607533E+03  0.11638607533E+03  0.00000000000E+00 0.  1.
          2   -1    0    0  501    0  0.00000000000E+00 -0.00000000000E+00 -0.10717742488E+03  0.10717742488E+03  0.00000000000E+00 0. -1.
          5    1    1    2  502    0 -0.26929921082E+02  0.31407577925E+02 -0.57572464878E+02  0.71051638354E+02  0.47000000000E+01 0. -1.
         -5    1    1    2    0  502  0.27115096946E+02 -0.24220476777E+01  0.50376523443E+02  0.57454146165E+02  0.47000000000E+01 0. -1.
        -11    1    1    2    0    0 -0.13516128872E+02  0.10142205692E+02 -0.29056776848E+02  0.33613187245E+02  0.00000000000E+00 0. -1.
         11    1    1    2    0    0  0.13330953008E+02 -0.39127735940E+02  0.45461368742E+02  0.61444528444E+02  0.00000000000E+00 0.  1.
<mgrwt>
<rscale>  0 0.11858671E+03</rscale>
<asrwt>0</asrwt>
<pdfrwt beam="2">  1        2 0.16488835E-01 0.12830415E+03</pdfrwt>
<pdfrwt beam="1">  1       -2 0.17905550E-01 0.12830415E+03</pdfrwt>
<totfact> 0.83073896E+03</totfact>
</mgrwt>
</event>
<event>
 6    1  0.6101889E-006  0.2350506E+03  0.7546771E-02  0.1123135E+00
          2   -1    0    0  501    0  0.00000000000E+00  0.00000000000E+00  0.12467653851E+02  0.12467653851E+02  0.00000000000E+00 0. -1.
         -2   -1    0    0    0  501 -0.00000000000E+00 -0.00000000000E+00 -0.11078425652E+04  0.11078425652E+04  0.00000000000E+00 0.  1.
          5    1    1    2  502    0 -0.28638382590E+02 -0.90914190892E+00 -0.35208872658E+02  0.45637026746E+02  0.47000000000E+01 0. -1.
         -5    1    1    2    0  502  0.48132512636E+02 -0.43732023437E+02 -0.60335820166E+03  0.60687102267E+03  0.47000000000E+01 0. -1.
        -11    1    1    2    0    0 -0.50977479367E+02  0.70967499385E+01 -0.25364429827E+03  0.25881363432E+03  0.00000000000E+00 0.  1.
         11    1    1    2    0    0  0.31483349321E+02  0.37544415407E+02 -0.20316353873E+03  0.20898853529E+03  0.00000000000E+00 0. -1.
<mgrwt>
<rscale>  0 0.23505061E+03</rscale>
<asrwt>0</asrwt>
<pdfrwt beam="1">  1        2 0.19181002E-02 0.23505061E+03</pdfrwt>
<pdfrwt beam="2">  1       -2 0.17043735E+00 0.23505061E+03</pdfrwt>
<totfact> 0.13038325E+03</totfact>
</mgrwt>
</event>
<event>
 6    1  0.6101889E-006  0.1450639E+03  0.7546771E-02  0.1216681E+00
          2   -1    0    0  501    0  0.00000000000E+00  0.00000000000E+00  0.19567817690E+04  0.19567817690E+04  0.00000000000E+00 0. -1.
         -2   -1    0    0    0  501 -0.00000000000E+00 -0.00000000000E+00 -0.13402361190E+02  0.13402361190E+02  0.00000000000E+00 0.  1.
          5    1    1    2  502    0  0.21318708089E+02  0.33149275979E+02  0.14208500259E+03  0.14752491238E+03  0.47000000000E+01 0.  1.
         -5    1    1    2    0  502 -0.40967276840E+02  0.37788556585E+02  0.14730498206E+04  0.14741113108E+04  0.47000000000E+01 0.  1.
        -11    1    1    2    0    0  0.47714899361E+02 -0.43465695923E+02  0.11643582345E+03  0.13312880727E+03  0.00000000000E+00 0.  1.
         11    1    1    2    0    0 -0.28066330610E+02 -0.27472136641E+02  0.21180876124E+03  0.21541909977E+03  0.00000000000E+00 0. -1.
<mgrwt>
<rscale>  0 0.13753791E+03</rscale>
<asrwt>0</asrwt>
<pdfrwt beam="1">  1        2 0.30104312E+00 0.14506393E+03</pdfrwt>
<pdfrwt beam="2">  1       -2 0.20619033E-02 0.14506393E+03</pdfrwt>
<totfact> 0.57398121E+03</totfact>
</mgrwt>
</event>
<event>
 6    1  0.6101889E-006  0.2499333E+03  0.7546771E-02  0.1144554E+00
         -2   -1    0    0    0  501 -0.00000000000E+00  0.00000000000E+00  0.27430478960E+03  0.27430478960E+03  0.00000000000E+00 0.  1.
          2   -1    0    0  501    0  0.00000000000E+00 -0.00000000000E+00 -0.12273339037E+03  0.12273339037E+03  0.00000000000E+00 0. -1.
          5    1    1    2  502    0 -0.13739927587E+03 -0.39537774607E+01  0.27838449077E+02  0.14032555937E+03  0.47000000000E+01 0. -1.
         -5    1    1    2    0  502  0.95609672157E+02 -0.52048408139E+02  0.61348998520E+02  0.12504413549E+03  0.47000000000E+01 0.  1.
        -11    1    1    2    0    0  0.71646448244E+02  0.38303212242E+02  0.43493192379E+02  0.92152088404E+02  0.00000000000E+00 0.  1.
         11    1    1    2    0    0 -0.29856844532E+02  0.17698973358E+02  0.18890759259E+02  0.39516396708E+02  0.00000000000E+00 0. -1.
<mgrwt>
<rscale>  0 0.20627071E+03</rscale>
<asrwt>0</asrwt>
<pdfrwt beam="2">  1        2 0.18882060E-01 0.24993334E+03</pdfrwt>
<pdfrwt beam="1">  1       -2 0.42200736E-01 0.24993334E+03</pdfrwt>
<totfact> 0.15878172E+03</totfact>
</mgrwt>
</event>
<event>
 6    1  0.6101889E-006  0.2733897E+03  0.7546771E-02  0.1099355E+00
         -2   -1    0    0    0  501 -0.00000000000E+00  0.00000000000E+00  0.30523095330E+02  0.30523095330E+02  0.00000000000E+00 0. -1.
          2   -1    0    0  501    0  0.00000000000E+00 -0.00000000000E+00 -0.61217510965E+03  0.61217510965E+03  0.00000000000E+00 0.  1.
          5    1    1    2  502    0  0.73176152084E+02  0.67110524023E+02 -0.23354318680E+03  0.25381702419E+03  0.47000000000E+01 0.  1.
         -5    1    1    2    0  502 -0.37173302341E+02 -0.55637135385E+01 -0.18393163990E+03  0.18779176625E+03  0.47000000000E+01 0.  1.
        -11    1    1    2    0    0 -0.59782212780E+01 -0.43199868937E+02 -0.15978513298E+03  0.16562987812E+03  0.00000000000E+00 0.  1.
         11    1    1    2    0    0 -0.30024628465E+02 -0.18346941548E+02 -0.43920546372E+01  0.35459536412E+02  0.00000000000E+00 0. -1.
<mgrwt>
<rscale>  0 0.27338968E+03</rscale>
<asrwt>0</asrwt>
<pdfrwt beam="2">  1        2 0.94180786E-01 0.27338968E+03</pdfrwt>
<pdfrwt beam="1">  1       -2 0.46958608E-02 0.27338968E+03</pdfrwt>
<totfact> 0.10564968E+04</totfact>
</mgrwt>
</event>
<event>
 6    1  0.6101889E-006  0.1671040E+03  0.7546771E-02  0.1188129E+00
         -2   -1    0    0    0  501 -0.00000000000E+00  0.00000000000E+00  0.54758695358E+02  0.54758695358E+02  0.00000000000E+00 0.  1.
          2   -1    0    0  501    0  0.00000000000E+00 -0.00000000000E+00 -0.43718179898E+03  0.43718179898E+03  0.00000000000E+00 0. -1.
          5    1    1    2  502    0  0.79134019377E+02 -0.89538763559E+02 -0.13058918530E+03  0.17707345516E+03  0.47000000000E+01 0. -1.
         -5    1    1    2    0  502 -0.43604671228E+02 -0.15507337561E+02 -0.69271819797E+02  0.83441715521E+02  0.47000000000E+01 0. -1.
        -11    1    1    2    0    0 -0.47429566347E+02  0.11407801355E+03 -0.17617745560E+03  0.21517865322E+03  0.00000000000E+00 0. -1.
         11    1    1    2    0    0  0.11900218198E+02 -0.90319124260E+01 -0.63846429172E+01  0.16246670441E+02  0.00000000000E+00 0.  1.
<mgrwt>
<rscale>  0 0.16050413E+03</rscale>
<asrwt>0</asrwt>
<pdfrwt beam="2">  1        2 0.67258738E-01 0.16710396E+03</pdfrwt>
<pdfrwt beam="1">  1       -2 0.84244147E-02 0.16710396E+03</pdfrwt>
<totfact> 0.61196649E+03</totfact>
</mgrwt>
</event>
<event>
 6    1  0.6101889E-006  0.2470680E+03  0.7546771E-02  0.1115172E+00
          2   -1    0    0  501    0  0.00000000000E+00  0.00000000000E+00  0.10024997738E+03  0.10024997738E+03  0.00000000000E+00 0. -1.
         -2   -1    0    0    0  501 -0.00000000000E+00 -0.00000000000E+00 -0.15222598242E+03  0.15222598242E+03  0.00000000000E+00 0.  1.
          5    1    1    2  502    0  0.55428298506E+02  0.12066533434E+02  0.58949960105E+02  0.81945624049E+02  0.47000000000E+01 0. -1.
         -5    1    1    2    0  502 -0.13485347910E+02 -0.20715588974E+02 -0.30968667321E+02  0.39901611377E+02  0.47000000000E+01 0.  1.
        -11    1    1    2    0    0 -0.57425749585E+02 -0.26233415484E+02 -0.61868750230E+02  0.88394858778E+02  0.00000000000E+00 0.  1.
         11    1    1    2    0    0  0.15482798990E+02  0.34882471024E+02 -0.18088547588E+02  0.42233865596E+02  0.00000000000E+00 0. -1.
<mgrwt>
<rscale>  0 0.24706802E+03</rscale>
<asrwt>0</asrwt>
<pdfrwt beam="1">  1        2 0.15423074E-01 0.24706802E+03</pdfrwt>
<pdfrwt beam="2">  1       -2 0.23419382E-01 0.24706802E+03</pdfrwt>
<totfact> 0.59350935E+03</totfact>
</mgrwt>
</event>
<event>
 6    1  0.6101889E-006  0.1313663E+03  0.7546771E-02  0.1239026E+00
          2   -1    0    0  501    0  0.00000000000E+00  0.00000000000E+00  0.26192435595E+03  0.26192435595E+03  0.00000000000E+00 0.  1.
         -2   -1    0    0    0  501 -0.00000000000E+00 -0.00000000000E+00 -0.52699767819E+02  0.52699767819E+02  0.00000000000E+00 0. -1.
          5    1    1    2  502    0  0.46970687221E+02 -0.21190467186E+02  0.16506202186E+03  0.17298220260E+03  0.47000000000E+01 0. -1.
         -5    1    1    2    0  502 -0.68286098630E+01  0.16559059568E+02 -0.16871926403E+02  0.25051632023E+02  0.47000000000E+01 0. -1.
        -11    1    1    2    0    0 -0.31405784213E+02  0.24347529575E+02  0.79059254473E+02  0.88484412166E+02  0.00000000000E+00 0.  1.
         11    1    1    2    0    0 -0.87362931450E+01 -0.19716121957E+02 -0.18024761796E+02  0.28105876978E+02  0.00000000000E+00 0. -1.
<mgrwt>
<rscale>  0 0.12250167E+03</rscale>
<asrwt>0</asrwt>
<pdfrwt beam="1">  1        2 0.40296054E-01 0.13136626E+03</pdfrwt>
<pdfrwt beam="2">  1       -2 0.81076567E-02 0.13136626E+03</pdfrwt>
<totfact> 0.11041332E+04</totfact>
</mgrwt>
</event>
<event>
 6    1  0.6101889E-006  0.1297839E+03  0.7546771E-02  0.1239756E+00
          1   -1    0    0  501    0  0.00000000000E+00  0.00000000000E+00  0.49056052280E+03  0.49056052280E+03  0.00000000000E+00 0. -1.
         -1   -1    0    0    0  501 -0.00000000000E+00 -0.00000000000E+00 -0.76731146266E+02  0.76731146266E+02  0.00000000000E+00 0.  1.
          5    1    1    2  502    0  0.18557825566E+02  0.50690071782E+02  0.43632776190E+03  0.43967929457E+03  0.47000000000E+01 0. -1.
         -5    1    1    2    0  502 -0.12390499744E+01 -0.20364889554E+02  0.67238957088E+01  0.21990105613E+02  0.47000000000E+01 0. -1.
        -11    1    1    2    0    0 -0.24579706248E+01 -0.64071852636E+02 -0.13437479887E+02  0.65511905678E+02  0.00000000000E+00 0. -1.
         11    1    1    2    0    0 -0.14860804967E+02  0.33746670409E+02 -0.15784801190E+02  0.40110363206E+02  0.00000000000E+00 0.  1.
<mgrwt>
<rscale>  0 0.12204823E+03</rscale>
<asrwt>0</asrwt>
<pdfrwt beam="1">  1        1 0.75470848E-01 0.12978391E+03</pdfrwt>
<pdfrwt beam="2">  1       -1 0.11804792E-01 0.12978391E+03</pdfrwt>
<totfact> 0.21328089E+03</totfact>
</mgrwt>
</event>
<event>
 6    1  0.6101889E-006  0.2465581E+03  0.7546771E-02  0.1115500E+00
          1   -1    0    0  501    0  0.00000000000E+00  0.00000000000E+00  0.45748565868E+03  0.45748565868E+03  0.00000000000E+00 0. -1.
         -1   -1    0    0    0  501 -0.00000000000E+00 -0.00000000000E+00 -0.33220106852E+02  0.33220106852E+02  0.00000000000E+00 0.  1.
          5    1    1    2  502    0 -0.55413511048E+02  0.47699601556E+01  0.24902190675E+03  0.25520072447E+03  0.47000000000E+01 0.  1.
         -5    1    1    2    0  502  0.47425702020E+00  0.23217194791E+01 -0.14963882394E+02  0.15862631476E+02  0.47000000000E+01 0.  1.
        -11    1    1    2    0    0 -0.16526045710E+02 -0.30168930190E+02  0.51974516231E+02  0.62326758884E+02  0.00000000000E+00 0.  1.
         11    1    1    2    0    0  0.71465299738E+02  0.23077250555E+02  0.13823301124E+03  0.15731565070E+03  0.00000000000E+00 0. -1.
<mgrwt>
<rscale>  0 0.24655809E+03</rscale>
<asrwt>0</asrwt>
<pdfrwt beam="1">  1        1 0.70382405E-01 0.24655809E+03</pdfrwt>
<pdfrwt beam="2">  1       -1 0.51107860E-02 0.24655809E+03</pdfrwt>
<totfact> 0.85576904E+03</totfact>
</mgrwt>
</event>
<event>
 6    1  0.6101889E-006  0.1444823E+03  0.7546771E-02  0.1218409E+00
         -2   -1    0    0    0  501 -0.00000000000E+00  0.00000000000E+00  0.39014962362E+02  0.39014962362E+02  0.00000000000E+00 0.  1.
          2   -1    0    0  501    0  0.00000000000E+00 -0.00000000000E+00 -0.51779750001E+03  0.51779750001E+03  0.00000000000E+00 0. -1.
          5    1    1    2  502    0 -0.44232601092E+02  0.31304704061E+02 -0.58052381601E+02  0.79552979236E+02  0.47000000000E+01 0.  1.
         -5    1    1    2    0  502  0.40800124846E+02  0.41077561316E+02 -0.31876407036E+03  0.32401333118E+03  0.47000000000E+01 0.  1.
        -11    1    1    2    0    0 -0.33787272340E+02 -0.19911206861E+02 -0.72629609128E+02  0.82541480801E+02  0.00000000000E+00 0. -1.
         11    1    1    2    0    0  0.37219748585E+02 -0.52471058516E+02 -0.29336476567E+02  0.70704671160E+02  0.00000000000E+00 0.  1.
<mgrwt>
<rscale>  0 0.13629100E+03</rscale>
<asrwt>0</asrwt>
<pdfrwt beam="2">  1        2 0.79661152E-01 0.14448228E+03</pdfrwt>
<pdfrwt beam="1">  1       -2 0.60023021E-02 0.14448228E+03</pdfrwt>
<totfact> 0.84892682E+03</totfact>
</mgrwt>
</event>
<event>
 6    1  0.6101889E-006  0.1181819E+03  0.7546771E-02  0.1258590E+00
          2   -1    0    0  501    0  0.00000000000E+00  0.00000000000E+00  0.12293705974E+04  0.12293705974E+04  0.00000000000E+00 0. -1.
         -2   -1    0    0    0  501 -0.00000000000E+00 -0.00000000000E+00 -0.12751403036E+02  0.12751403036E+02  0.00000000000E+00 0.  1.
          5    1    1    2  502    0  0.33385409094E+02  0.15853395294E+02  0.81319191628E+03  0.81404489949E+03  0.47000000000E+01 0. -1.
         -5    1    1    2    0  502 -0.45859057970E+02 -0.12550438288E+02  0.18304949177E+03  0.18918185203E+03  0.47000000000E+01 0.  1.
        -11    1    1    2    0    0 -0.34892378036E+02  0.16250419202E+02  0.68079783362E+02  0.78207487313E+02  0.00000000000E+00 0. -1.
         11    1    1    2    0    0  0.47366026912E+02 -0.19553376209E+02  0.15229800295E+03  0.16068776160E+03  0.00000000000E+00 0.  1.
<mgrwt>
<rscale>  0 0.11107592E+03</rscale>
<asrwt>0</asrwt>
<pdfrwt beam="1">  1        2 0.18913384E+00 0.11818194E+03</pdfrwt>
<pdfrwt beam="2">  1       -2 0.19617553E-02 0.11818194E+03</pdfrwt>
<totfact> 0.14612068E+04</totfact>
</mgrwt>
</event>
<event>
 6    1  0.6101889E-006  0.1576917E+03  0.7546771E-02  0.1200700E+00
          1   -1    0    0  501    0  0.00000000000E+00  0.00000000000E+00  0.54146401062E+03  0.54146401062E+03  0.00000000000E+00 0. -1.
         -1   -1    0    0    0  501 -0.00000000000E+00 -0.00000000000E+00 -0.39292253157E+02  0.39292253157E+02  0.00000000000E+00 0.  1.
          5    1    1    2  502    0 -0.26590587229E+02 -0.48390995735E+02  0.31910131754E+03  0.32387727406E+03  0.47000000000E+01 0.  1.
         -5    1    1    2    0  502 -0.26777778331E+02 -0.31561485623E+02  0.12797269873E+02  0.43577940558E+02  0.47000000000E+01 0.  1.
        -11    1    1    2    0    0  0.39409704834E+02  0.59857133121E+02  0.42741837094E+02  0.83443788617E+02  0.00000000000E+00 0.  1.
         11    1    1    2    0    0  0.13958660726E+02  0.20095348236E+02  0.12753133296E+03  0.12985726055E+03  0.00000000000E+00 0. -1.
<mgrwt>
<rscale>  0 0.14981541E+03</rscale>
<asrwt>0</asrwt>
<pdfrwt beam="1">  1        1 0.83302150E-01 0.15769167E+03</pdfrwt>
<pdfrwt beam="2">  1       -1 0.60449624E-02 0.15769167E+03</pdfrwt>
<totfact> 0.52060760E+03</totfact>
</mgrwt>
</event>
<event>
 6    1  0.6101889E-006  0.3079838E+03  0.7546771E-02  0.1082767E+00
         -1   -1    0    0    0  501 -0.00000000000E+00  0.00000000000E+00  0.10455175641E+04  0.10455175641E+04  0.00000000000E+00 0.  1.
          1   -1    0    0  501    0  0.00000000000E+00 -0.00000000000E+00 -0.87606597130E+02  0.87606597130E+02  0.00000000000E+00 0. -1.
          5    1    1    2  502    0 -0.42111992570E+02  0.12319662601E+03  0.23381236156E+03  0.26765862399E+03  0.47000000000E+01 0. -1.
         -5    1    1    2    0  502  0.78186726615E+02  0.15596159822E+03  0.22058233650E+03  0.28127538376E+03  0.47000000000E+01 0. -1.
        -11    1    1    2    0    0  0.24651734808E+02 -0.14521777643E+03  0.28469076548E+03  0.32053820766E+03  0.00000000000E+00 0.  1.
         11    1    1    2    0    0 -0.60726468853E+02 -0.13394044780E+03  0.21882550340E+03  0.26365194578E+03  0.00000000000E+00 0. -1.
<mgrwt>
<rscale>  0 0.30500114E+03</rscale>
<asrwt>0</asrwt>
<pdfrwt beam="2">  1        1 0.13477939E-01 0.30798377E+03</pdfrwt>
<pdfrwt beam="1">  1       -1 0.16084885E+00 0.30798377E+03</pdfrwt>
<totfact> 0.13459501E+02</totfact>
</mgrwt>
</event>
<event>
 6    1  0.6101889E-006  0.1599670E+03  0.7546771E-02  0.1264231E+00
          4   -1    0    0  501    0  0.00000000000E+00  0.00000000000E+00  0.46570137810E+03  0.46570137810E+03  0.00000000000E+00 0. -1.
         -4   -1    0    0    0  501 -0.00000000000E+00 -0.00000000000E+00 -0.33801184819E+02  0.33801184819E+02  0.00000000000E+00 0.  1.
          5    1    1    2  502    0  0.63399420358E+02  0.37973185328E+02  0.19188746488E+03  0.20568018496E+03  0.47000000000E+01 0. -1.
         -5    1    1    2    0  502 -0.57946657037E+02 -0.63021037324E+02  0.24553503008E+03  0.26007500303E+03  0.47000000000E+01 0.  1.
        -11    1    1    2    0    0 -0.13555133984E+02  0.13066667797E+02 -0.32656054880E+01  0.19108732136E+02  0.00000000000E+00 0.  1.
         11    1    1    2    0    0  0.81023706628E+01  0.11981184199E+02 -0.22566961883E+01  0.14638642795E+02  0.00000000000E+00 0. -1.
<mgrwt>
<rscale>  0 0.10804619E+03</rscale>
<asrwt>0</asrwt>
<pdfrwt beam="1">  1        4 0.71646361E-01 0.15996705E+03</pdfrwt>
<pdfrwt beam="2">  1       -4 0.52001826E-02 0.15996705E+03</pdfrwt>
<totfact> 0.69523770E+02</totfact>
</mgrwt>
</event>
<event>
 6    1  0.6101889E-006  0.1604130E+03  0.7546771E-02  0.1196402E+00
          1   -1    0    0  501    0  0.00000000000E+00  0.00000000000E+00  0.44570208224E+02  0.44570208224E+02  0.00000000000E+00 0. -1.
         -1   -1    0    0    0  501 -0.00000000000E+00 -0.00000000000E+00 -0.77525814539E+03  0.77525814539E+03  0.00000000000E+00 0.  1.
          5    1    1    2  502    0 -0.60490445538E+02 -0.40677284168E+02 -0.21777888717E+02  0.76224024334E+02  0.47000000000E+01 0. -1.
         -5    1    1    2    0  502  0.39627859829E+02 -0.57667974421E+02 -0.11445908692E+03  0.13423462715E+03  0.47000000000E+01 0. -1.
        -11    1    1    2    0    0  0.20818817486E+02 -0.10257021364E+02 -0.68548191333E+02  0.72370464858E+02  0.00000000000E+00 0.  1.
         11    1    1    2    0    0  0.43768222557E-01  0.10860227995E+03 -0.52590277020E+03  0.53699923727E+03  0.00000000000E+00 0. -1.
<mgrwt>
<rscale>  0 0.15336152E+03</rscale>
<asrwt>0</asrwt>
<pdfrwt beam="1">  1        1 0.68569551E-02 0.16041300E+03</pdfrwt>
<pdfrwt beam="2">  1       -1 0.11927048E+00 0.16041300E+03</pdfrwt>
<totfact> 0.71594041E+02</totfact>
</mgrwt>
</event>
<event>
 6    1  0.6101889E-006  0.2416691E+03  0.7546771E-02  0.1118686E+00
          1   -1    0    0  501    0  0.00000000000E+00  0.00000000000E+00  0.78323992948E+03  0.78323992948E+03  0.00000000000E+00 0. -1.
         -1   -1    0    0    0  501 -0.00000000000E+00 -0.00000000000E+00 -0.18641779304E+02  0.18641779304E+02  0.00000000000E+00 0.  1.
          5    1    1    2  502    0  0.25949300262E+02 -0.83029191334E+01  0.31784318882E+03  0.31904339412E+03  0.47000000000E+01 0. -1.
         -5    1    1    2    0  502 -0.74821639995E+02 -0.32654579630E+01  0.14877387473E+03  0.16662741920E+03  0.47000000000E+01 0. -1.
        -11    1    1    2    0    0  0.30325523650E+02 -0.31396789018E+02  0.22722128544E+03  0.23137611870E+03  0.00000000000E+00 0. -1.
         11    1    1    2    0    0  0.18546816084E+02  0.42965166114E+02  0.70759801184E+02  0.84834776770E+02  0.00000000000E+00 0.  1.
<mgrwt>
<rscale>  0 0.24166908E+03</rscale>
<asrwt>0</asrwt>
<pdfrwt beam="1">  1        1 0.12049842E+00 0.24166908E+03</pdfrwt>
<pdfrwt beam="2">  1       -1 0.28679667E-02 0.24166908E+03</pdfrwt>
<totfact> 0.95220650E+03</totfact>
</mgrwt>
</event>
<event>
 6    1  0.6101889E-006  0.2044141E+03  0.7546771E-02  0.1168104E+00
         -2   -1    0    0    0  501 -0.00000000000E+00  0.00000000000E+00  0.33734359504E+02  0.33734359504E+02  0.00000000000E+00 0.  1.
          2   -1    0    0  501    0  0.00000000000E+00 -0.00000000000E+00 -0.79822074816E+03  0.79822074816E+03  0.00000000000E+00 0. -1.
          5    1    1    2  502    0 -0.47853266175E+02 -0.81384041222E+02 -0.52258900867E+03  0.53106935445E+03  0.47000000000E+01 0. -1.
         -5    1    1    2    0  502 -0.11285660706E+02  0.23343005604E+02  0.37215604587E+01  0.26612066069E+02  0.47000000000E+01 0.  1.
        -11    1    1    2    0    0 -0.20640102768E+02 -0.11028890027E+01 -0.64279080422E+02  0.67520592314E+02  0.00000000000E+00 0. -1.
         11    1    1    2    0    0  0.79779029650E+02  0.59143924621E+02 -0.18133986002E+03  0.20675309484E+03  0.00000000000E+00 0.  1.
<mgrwt>
<rscale>  0 0.17968920E+03</rscale>
<asrwt>0</asrwt>
<pdfrwt beam="2">  1        2 0.12280319E+00 0.20441413E+03</pdfrwt>
<pdfrwt beam="1">  1       -2 0.51899014E-02 0.20441413E+03</pdfrwt>
<totfact> 0.64850118E+03</totfact>
</mgrwt>
</event>
<event>
 6    1  0.6101889E-006  0.1270821E+03  0.7546771E-02  0.1246826E+00
          1   -1    0    0  501    0  0.00000000000E+00  0.00000000000E+00  0.54472745558E+03  0.54472745558E+03  0.00000000000E+00 0. -1.
         -1   -1    0    0    0  501 -0.00000000000E+00 -0.00000000000E+00 -0.25919341047E+02  0.25919341047E+02  0.00000000000E+00 0.  1.
          5    1    1    2  502    0 -0.31974643217E+02 -0.49213598456E+02  0.97246059386E+02  0.11368043872E+03  0.47000000000E+01 0.  1.
         -5    1    1    2    0  502  0.96811041760E+01  0.43871003198E+02  0.30044263119E+03  0.30381944200E+03  0.47000000000E+01 0.  1.
        -11    1    1    2    0    0 -0.13874696871E+02  0.68549580607E+01 -0.91248639272E+01  0.17965544939E+02  0.00000000000E+00 0.  1.
         11    1    1    2    0    0  0.36168235912E+02 -0.15123628026E+01  0.13024428789E+03  0.13518137097E+03  0.00000000000E+00 0. -1.
<mgrwt>
<rscale>  0 0.11776742E+03</rscale>
<asrwt>0</asrwt>
<pdfrwt beam="1">  1        1 0.83804215E-01 0.12708208E+03</pdfrwt>
<pdfrwt beam="2">  1       -1 0.39875913E-02 0.12708208E+03</pdfrwt>
<totfact> 0.94398287E+03</totfact>
</mgrwt>
</event>
<event>
 6    1  0.6101889E-006  0.1348227E+03  0.7546771E-02  0.1231600E+00
          2   -1    0    0  501    0  0.00000000000E+00  0.00000000000E+00  0.21984139212E+04  0.21984139212E+04  0.00000000000E+00 0. -1.
         -2   -1    0    0    0  501 -0.00000000000E+00 -0.00000000000E+00 -0.99696441615E+01  0.99696441615E+01  0.00000000000E+00 0.  1.
          5    1    1    2  502    0  0.79577443195E+01  0.38683168077E+02  0.25040952135E+03  0.25354828252E+03  0.47000000000E+01 0. -1.
         -5    1    1    2    0  502 -0.57053603872E+02 -0.50630407087E+02  0.15623055620E+04  0.15641736831E+04  0.47000000000E+01 0. -1.
        -11    1    1    2    0    0  0.76645192551E+02  0.17201754550E+02  0.26176039966E+03  0.27329268694E+03  0.00000000000E+00 0.  1.
         11    1    1    2    0    0 -0.27549332999E+02 -0.52545155402E+01  0.11396879408E+03  0.11736891286E+03  0.00000000000E+00 0. -1.
<mgrwt>
<rscale>  0 0.12724621E+03</rscale>
<asrwt>0</asrwt>
<pdfrwt beam="1">  1        2 0.33821714E+00 0.13482274E+03</pdfrwt>
<pdfrwt beam="2">  1       -2 0.15337932E-02 0.13482274E+03</pdfrwt>
<totfact> 0.66094870E+03</totfact>
</mgrwt>
</event>
<event>
 6    1  0.6101889E-006  0.1437227E+03  0.7546771E-02  0.1218976E+00
         -1   -1    0    0    0  501 -0.00000000000E+00  0.00000000000E+00  0.16258680088E+02  0.16258680088E+02  0.00000000000E+00 0. -1.
          1   -1    0    0  501    0  0.00000000000E+00 -0.00000000000E+00 -0.10704705704E+04  0.10704705704E+04  0.00000000000E+00 0.  1.
          5    1    1    2  502    0  0.83214359115E+01  0.86065166162E+02 -0.43437359966E+03  0.44292095593E+03  0.47000000000E+01 0.  1.
         -5    1    1    2    0  502 -0.49271398466E+02 -0.28154911628E+02 -0.25683193338E+03  0.26306862557E+03  0.47000000000E+01 0.  1.
        -11    1    1    2    0    0  0.22635168848E+02  0.20031791260E+02 -0.58047367881E+02  0.65445553308E+02  0.00000000000E+00 0. -1.
         11    1    1    2    0    0  0.18314793707E+02 -0.77942045794E+02 -0.30495898939E+03  0.31529411567E+03  0.00000000000E+00 0.  1.
<mgrwt>
<rscale>  0 0.13588475E+03</rscale>
<asrwt>0</asrwt>
<pdfrwt beam="2">  1        1 0.16468781E+00 0.14372265E+03</pdfrwt>
<pdfrwt beam="1">  1       -1 0.25013350E-02 0.14372265E+03</pdfrwt>
<totfact> 0.68191171E+03</totfact>
</mgrwt>
</event>
<event>
 6    1  0.6101889E-006  0.1507334E+03  0.7546771E-02  0.1208052E+00
          1   -1    0    0  501    0  0.00000000000E+00  0.00000000000E+00  0.70958904227E+03  0.70958904227E+03  0.00000000000E+00 0.  1.
         -1   -1    0    0    0  501 -0.00000000000E+00 -0.00000000000E+00 -0.33085980062E+02  0.33085980062E+02  0.00000000000E+00 0. -1.
          5    1    1    2  502    0  0.14765264640E+02 -0.35440289132E+01  0.29669674231E+03  0.29712223088E+03  0.47000000000E+01 0. -1.
         -5    1    1    2    0  502 -0.98542871276E+02  0.12477973582E+02  0.22678052775E+03  0.24762450418E+03  0.47000000000E+01 0. -1.
        -11    1    1    2    0    0  0.98565056865E+02  0.34732736489E+01  0.95640961739E+02  0.13738386960E+03  0.00000000000E+00 0.  1.
         11    1    1    2    0    0 -0.14787450229E+02 -0.12407218318E+02  0.57384830402E+02  0.60544417669E+02  0.00000000000E+00 0. -1.
<mgrwt>
<rscale>  0 0.14399492E+03</rscale>
<asrwt>0</asrwt>
<pdfrwt beam="1">  1        1 0.10916753E+00 0.15073338E+03</pdfrwt>
<pdfrwt beam="2">  1       -1 0.50901513E-02 0.15073338E+03</pdfrwt>
<totfact> 0.46176975E+03</totfact>
</mgrwt>
</event>
<event>
 6    1  0.6101889E-006  0.2182181E+03  0.7546771E-02  0.1138604E+00
          2   -1    0    0  501    0  0.00000000000E+00  0.00000000000E+00  0.10005486597E+04  0.10005486597E+04  0.00000000000E+00 0. -1.
         -2   -1    0    0    0  501 -0.00000000000E+00 -0.00000000000E+00 -0.43934739095E+02  0.43934739095E+02  0.00000000000E+00 0.  1.
          5    1    1    2  502    0 -0.13899747517E+02 -0.11318252988E+03  0.43800257072E+03  0.45262769470E+03  0.47000000000E+01 0.  1.
         -5    1    1    2    0  502  0.31197507821E+02 -0.64844034970E+02  0.71085690448E+02  0.10125857372E+03  0.47000000000E+01 0.  1.
        -11    1    1    2    0    0 -0.24051553270E+02  0.40288638170E+02  0.44641764135E+02  0.64765258321E+02  0.00000000000E+00 0.  1.
         11    1    1    2    0    0  0.67537929649E+01  0.13773792668E+03  0.40288389534E+03  0.42583187210E+03  0.00000000000E+00 0. -1.
<mgrwt>
<rscale>  0 0.21378354E+03</rscale>
<asrwt>0</asrwt>
<pdfrwt beam="1">  1        2 0.15393055E+00 0.21821810E+03</pdfrwt>
<pdfrwt beam="2">  1       -2 0.67591914E-02 0.21821810E+03</pdfrwt>
<totfact> 0.32108416E+03</totfact>
</mgrwt>
</event>
<event>
 6    1  0.6101889E-006  0.1548538E+03  0.7546771E-02  0.1206564E+00
         -2   -1    0    0    0  501 -0.00000000000E+00  0.00000000000E+00  0.14726694102E+03  0.14726694102E+03  0.00000000000E+00 0.  1.
          2   -1    0    0  501    0  0.00000000000E+00 -0.00000000000E+00 -0.12793920007E+03  0.12793920007E+03  0.00000000000E+00 0. -1.
          5    1    1    2  502    0  0.39406626252E+02 -0.84209397445E+02 -0.33845999770E+02  0.99054260439E+02  0.47000000000E+01 0. -1.
         -5    1    1    2    0  502 -0.27539352059E+02  0.22632023527E+01  0.49115506501E+02  0.56550517023E+02  0.47000000000E+01 0.  1.
        -11    1    1    2    0    0  0.74444927254E+01 -0.75554954299E+01 -0.21983461629E+02  0.24408575712E+02  0.00000000000E+00 0.  1.
         11    1    1    2    0    0 -0.19311766918E+02  0.89501690522E+02  0.26041695847E+02  0.95192787912E+02  0.00000000000E+00 0. -1.
<mgrwt>
<rscale>  0 0.14514859E+03</rscale>
<asrwt>0</asrwt>
<pdfrwt beam="2">  1        2 0.19682954E-01 0.15485377E+03</pdfrwt>
<pdfrwt beam="1">  1       -2 0.22656452E-01 0.15485377E+03</pdfrwt>
<totfact> 0.46095879E+03</totfact>
</mgrwt>
</event>
<event>
 6    1  0.6101889E-006  0.1514079E+03  0.7546771E-02  0.1208604E+00
          1   -1    0    0  501    0  0.00000000000E+00  0.00000000000E+00  0.10405169261E+03  0.10405169261E+03  0.00000000000E+00 0. -1.
         -1   -1    0    0    0  501 -0.00000000000E+00 -0.00000000000E+00 -0.21371728553E+03  0.21371728553E+03  0.00000000000E+00 0.  1.
          5    1    1    2  502    0 -0.91988294578E+02 -0.20121710533E+02 -0.29508676759E+02  0.98790594584E+02  0.47000000000E+01 0. -1.
         -5    1    1    2    0  502  0.89402523399E+01  0.40199669330E+02  0.32458858930E+02  0.52646073445E+02  0.47000000000E+01 0. -1.
        -11    1    1    2    0    0  0.55073345754E+02 -0.22625914815E+02 -0.10544746254E+02  0.60466495742E+02  0.00000000000E+00 0. -1.
         11    1    1    2    0    0  0.27974696485E+02  0.25479560187E+01 -0.10207102884E+03  0.10586581437E+03  0.00000000000E+00 0.  1.
<mgrwt>
<rscale>  0 0.14357056E+03</rscale>
<asrwt>0</asrwt>
<pdfrwt beam="1">  1        1 0.16007953E-01 0.15140793E+03</pdfrwt>
<pdfrwt beam="2">  1       -1 0.32879582E-01 0.15140793E+03</pdfrwt>
<totfact> 0.28961871E+03</totfact>
</mgrwt>
</event>
<event>
 6    1  0.9234065E-006  0.2700499E+03  0.7546771E-02  0.1101251E+00
         -3   -1    0    0    0  501 -0.00000000000E+00  0.00000000000E+00  0.27709187711E+03  0.27709187711E+03  0.00000000000E+00 0.  1.
          3   -1    0    0  501    0  0.00000000000E+00 -0.00000000000E+00 -0.65796720245E+02  0.65796720245E+02  0.00000000000E+00 0. -1.
          5    1    1    2  502    0 -0.31111349391E+02 -0.44070687120E+02  0.10834821228E+03  0.12112624253E+03  0.47000000000E+01 0. -1.
         -5    1    1    2    0  502 -0.13362550090E+02 -0.13756522751E+02 -0.35713141858E+02  0.40808309993E+02  0.47000000000E+01 0. -1.
        -11    1    1    2    0    0  0.50796299793E+02  0.74453923410E-01  0.33610675640E+02  0.60909335351E+02  0.00000000000E+00 0.  1.
         11    1    1    2    0    0 -0.63224003115E+01  0.57752755948E+02  0.10504941080E+03  0.12004470948E+03  0.00000000000E+00 0. -1.
<mgrwt>
<rscale>  0 0.27004990E+03</rscale>
<asrwt>0</asrwt>
<pdfrwt beam="2">  1        3 0.10122572E-01 0.27004990E+03</pdfrwt>
<pdfrwt beam="1">  1       -3 0.42629519E-01 0.27004990E+03</pdfrwt>
<totfact> 0.10062666E+03</totfact>
</mgrwt>
</event>
<event>
 6    1  0.6101889E-006  0.1357357E+03  0.7546771E-02  0.1233107E+00
         -2   -1    0    0    0  501 -0.00000000000E+00  0.00000000000E+00  0.28856264287E+02  0.28856264287E+02  0.00000000000E+00 0. -1.
          2   -1    0    0  501    0  0.00000000000E+00 -0.00000000000E+00 -0.54051970409E+03  0.54051970409E+03  0.00000000000E+00 0.  1.
          5    1    1    2  502    0 -0.15394042222E+02 -0.64859708429E+02 -0.13243429536E+03  0.14833978192E+03  0.47000000000E+01 0.  1.
         -5    1    1    2    0  502 -0.35617128403E+02  0.50800202308E+02 -0.24438059750E+03  0.25217693555E+03  0.47000000000E+01 0.  1.
        -11    1    1    2    0    0  0.28728837081E+02  0.45793735988E+02 -0.42714566381E+02  0.68898087905E+02  0.00000000000E+00 0. -1.
         11    1    1    2    0    0  0.22282333543E+02 -0.31734229866E+02 -0.92133980560E+02  0.99961162995E+02  0.00000000000E+00 0.  1.
<mgrwt>
<rscale>  0 0.12626398E+03</rscale>
<asrwt>0</asrwt>
<pdfrwt beam="2">  1        2 0.83156882E-01 0.13573569E+03</pdfrwt>
<pdfrwt beam="1">  1       -2 0.44394250E-02 0.13573569E+03</pdfrwt>
<totfact> 0.12691470E+04</totfact>
</mgrwt>
</event>
<event>
 6    1  0.6101889E-006  0.1203708E+03  0.7546771E-02  0.1257060E+00
          2   -1    0    0  501    0  0.00000000000E+00  0.00000000000E+00  0.99889786463E+03  0.99889786463E+03  0.00000000000E+00 0. -1.
         -2   -1    0    0    0  501 -0.00000000000E+00 -0.00000000000E+00 -0.84551732844E+02  0.84551732844E+02  0.00000000000E+00 0.  1.
          5    1    1    2  502    0 -0.66911277117E+02  0.59923106639E+01  0.67460518299E+03  0.67795816221E+03  0.47000000000E+01 0. -1.
         -5    1    1    2    0  502  0.47612512683E+02 -0.11951130699E+02  0.29554586384E+03  0.29963182161E+03  0.47000000000E+01 0.  1.
        -11    1    1    2    0    0  0.20774871249E+02 -0.33158733560E+02 -0.53981758386E+02  0.66671786576E+02  0.00000000000E+00 0.  1.
         11    1    1    2    0    0 -0.14761068144E+01  0.39117553595E+02 -0.18231566600E+01  0.39187827074E+02  0.00000000000E+00 0. -1.
<mgrwt>
<rscale>  0 0.11191756E+03</rscale>
<asrwt>0</asrwt>
<pdfrwt beam="1">  1        2 0.15367659E+00 0.12037077E+03</pdfrwt>
<pdfrwt beam="2">  1       -2 0.13007960E-01 0.12037077E+03</pdfrwt>
<totfact> 0.11430805E+03</totfact>
</mgrwt>
</event>
<event>
 6    1  0.6101889E-006  0.1501530E+03  0.7546771E-02  0.1209540E+00
         -1   -1    0    0    0  501 -0.00000000000E+00  0.00000000000E+00  0.17129984486E+03  0.17129984486E+03  0.00000000000E+00 0.  1.
          1   -1    0    0  501    0  0.00000000000E+00 -0.00000000000E+00 -0.12801781320E+03  0.12801781320E+03  0.00000000000E+00 0. -1.
          5    1    1    2  502    0 -0.22522813241E+02  0.19363399525E+02 -0.66918238353E+02  0.73364562165E+02  0.47000000000E+01 0. -1.
         -5    1    1    2    0  502  0.39231063894E+02  0.62140656649E+02  0.32804394510E+02  0.80614861423E+02  0.47000000000E+01 0. -1.
        -11    1    1    2    0    0 -0.31010490880E+02  0.64546482177E+01  0.33130037252E+02  0.45835710931E+02  0.00000000000E+00 0.  1.
         11    1    1    2    0    0  0.14302240227E+02 -0.87958704392E+02  0.44265838258E+02  0.99502523539E+02  0.00000000000E+00 0. -1.
<mgrwt>
<rscale>  0 0.14285364E+03</rscale>
<asrwt>0</asrwt>
<pdfrwt beam="2">  1        1 0.19695048E-01 0.15015295E+03</pdfrwt>
<pdfrwt beam="1">  1       -1 0.26353822E-01 0.15015295E+03</pdfrwt>
<totfact> 0.32171270E+03</totfact>
</mgrwt>
</event>
<event>
 6    1  0.6101889E-006  0.1236612E+03  0.7546771E-02  0.1250614E+00
          1   -1    0    0  501    0  0.00000000000E+00  0.00000000000E+00  0.27960888806E+03  0.27960888806E+03  0.00000000000E+00 0. -1.
         -1   -1    0    0    0  501 -0.00000000000E+00 -0.00000000000E+00 -0.42767758031E+02  0.42767758031E+02  0.00000000000E+00 0.  1.
          5    1    1    2  502    0  0.40571302898E+02 -0.19279719423E+02  0.94725657603E+02  0.10494178581E+03  0.47000000000E+01 0. -1.
         -5    1    1    2    0  502 -0.50598794025E+02  0.47923769247E+02  0.52819766120E+02  0.87572503154E+02  0.47000000000E+01 0.  1.
        -11    1    1    2    0    0 -0.19043409564E+02 -0.37622185962E+02  0.90042992831E+02  0.99427465433E+02  0.00000000000E+00 0.  1.
         11    1    1    2    0    0  0.29070900691E+02  0.89781361381E+01 -0.74728652486E+00  0.30434891698E+02  0.00000000000E+00 0. -1.
<mgrwt>
<rscale>  0 0.11555560E+03</rscale>
<asrwt>0</asrwt>
<pdfrwt beam="1">  1        1 0.43016751E-01 0.12366123E+03</pdfrwt>
<pdfrwt beam="2">  1       -1 0.65796553E-02 0.12366123E+03</pdfrwt>
<totfact> 0.10430516E+04</totfact>
</mgrwt>
</event>
<event>
 6    1  0.6101889E-006  0.1609229E+03  0.7546771E-02  0.1195462E+00
          2   -1    0    0  501    0  0.00000000000E+00  0.00000000000E+00  0.73521520109E+03  0.73521520109E+03  0.00000000000E+00 0. -1.
         -2   -1    0    0    0  501 -0.00000000000E+00 -0.00000000000E+00 -0.30886184845E+02  0.30886184845E+02  0.00000000000E+00 0.  1.
          5    1    1    2  502    0  0.82708614151E+02  0.36236296894E+02  0.20278689296E+03  0.22203242561E+03  0.47000000000E+01 0.  1.
         -5    1    1    2    0  502  0.14673539472E+02 -0.64157886487E+02  0.24756463754E+03  0.25620672692E+03  0.47000000000E+01 0.  1.
        -11    1    1    2    0    0 -0.23940141309E+02 -0.28098364790E+02  0.38079618935E+02  0.53034949307E+02  0.00000000000E+00 0.  1.
         11    1    1    2    0    0 -0.73442012314E+02  0.56019954383E+02  0.21589786681E+03  0.23482728409E+03  0.00000000000E+00 0. -1.
<mgrwt>
<rscale>  0 0.15415152E+03</rscale>
<asrwt>0</asrwt>
<pdfrwt beam="1">  1        2 0.11311002E+00 0.16092292E+03</pdfrwt>
<pdfrwt beam="2">  1       -2 0.47517213E-02 0.16092292E+03</pdfrwt>
<totfact> 0.81130244E+03</totfact>
</mgrwt>
</event>
<event>
 6    1  0.6101889E-006  0.2158933E+03  0.7546771E-02  0.1140577E+00
          2   -1    0    0  501    0  0.00000000000E+00  0.00000000000E+00  0.83278721665E+03  0.83278721665E+03  0.00000000000E+00 0. -1.
         -2   -1    0    0    0  501 -0.00000000000E+00 -0.00000000000E+00 -0.59791456717E+02  0.59791456717E+02  0.00000000000E+00 0.  1.
          5    1    1    2  502    0 -0.23692762221E+01  0.12596828416E+02  0.16755814260E+01  0.13754676626E+02  0.47000000000E+01 0.  1.
         -5    1    1    2    0  502 -0.16192030717E+03 -0.75799829868E+02  0.56623062895E+03  0.59380385250E+03  0.47000000000E+01 0.  1.
        -11    1    1    2    0    0  0.15721358145E+03  0.82027439890E+02  0.18988096488E+03  0.25980645086E+03  0.00000000000E+00 0.  1.
         11    1    1    2    0    0  0.70760019463E+01 -0.18824438439E+02  0.15208584685E+02  0.25213693387E+02  0.00000000000E+00 0. -1.
<mgrwt>
<rscale>  0 0.21125408E+03</rscale>
<asrwt>0</asrwt>
<pdfrwt beam="1">  1        2 0.12812110E+00 0.21589327E+03</pdfrwt>
<pdfrwt beam="2">  1       -2 0.91986863E-02 0.21589327E+03</pdfrwt>
<totfact> 0.25394906E+03</totfact>
</mgrwt>
</event>
<event>
 6    1  0.6101889E-006  0.1946317E+03  0.7546771E-02  0.1182308E+00
         -1   -1    0    0    0  501 -0.00000000000E+00  0.00000000000E+00  0.19683225287E+03  0.19683225287E+03  0.00000000000E+00 0.  1.
          1   -1    0    0  501    0  0.00000000000E+00 -0.00000000000E+00 -0.11845995693E+03  0.11845995693E+03  0.00000000000E+00 0. -1.
          5    1    1    2  502    0 -0.77312444502E+02 -0.52426141551E+02 -0.53369527513E+02  0.10768523975E+03  0.47000000000E+01 0. -1.
         -5    1    1    2    0  502  0.51353967083E+02  0.14634731184E+02  0.69278253947E+02  0.87595500808E+02  0.47000000000E+01 0.  1.
        -11    1    1    2    0    0 -0.26746357263E+02  0.71829848994E+01  0.50942996140E+02  0.57984064662E+02  0.00000000000E+00 0.  1.
         11    1    1    2    0    0  0.52704834683E+02  0.30608425468E+02  0.11520573372E+02  0.62027404584E+02  0.00000000000E+00 0. -1.
<mgrwt>
<rscale>  0 0.16579225E+03</rscale>
<asrwt>0</asrwt>
<pdfrwt beam="2">  1        1 0.18224609E-01 0.19463165E+03</pdfrwt>
<pdfrwt beam="1">  1       -1 0.30281885E-01 0.19463165E+03</pdfrwt>
<totfact> 0.28489455E+03</totfact>
</mgrwt>
</event>
<event>
 6    1  0.6101889E-006  0.1861284E+03  0.7546771E-02  0.1167282E+00
          1   -1    0    0  501    0  0.00000000000E+00  0.00000000000E+00  0.46839881743E+03  0.46839881743E+03  0.00000000000E+00 0. -1.
         -1   -1    0    0    0  501 -0.00000000000E+00 -0.00000000000E+00 -0.70995873375E+02  0.70995873375E+02  0.00000000000E+00 0.  1.
          5    1    1    2  502    0  0.49284142284E+02 -0.92914596168E+02  0.28699733195E+03  0.30569855644E+03  0.47000000000E+01 0. -1.
         -5    1    1    2    0  502  0.16746488570E+02 -0.28158265450E+02 -0.36670427236E+01  0.33299699622E+02  0.47000000000E+01 0. -1.
        -11    1    1    2    0    0 -0.20204435919E+02  0.26693026469E+02 -0.12730525402E+02  0.35816241705E+02  0.00000000000E+00 0.  1.
         11    1    1    2    0    0 -0.45826194935E+02  0.94379835148E+02  0.12680318023E+03  0.16458019304E+03  0.00000000000E+00 0. -1.
<mgrwt>
<rscale>  0 0.18053980E+03</rscale>
<asrwt>0</asrwt>
<pdfrwt beam="1">  1        1 0.72061355E-01 0.18612836E+03</pdfrwt>
<pdfrwt beam="2">  1       -1 0.10922442E-01 0.18612836E+03</pdfrwt>
<totfact> 0.25816612E+03</totfact>
</mgrwt>
</event>
<event>
 6    1  0.6101889E-006  0.1922332E+03  0.7546771E-02  0.1161291E+00
          1   -1    0    0  501    0  0.00000000000E+00  0.00000000000E+00  0.93984305192E+03  0.93984305192E+03  0.00000000000E+00 0. -1.
         -1   -1    0    0    0  501 -0.00000000000E+00 -0.00000000000E+00 -0.38624664625E+02  0.38624664625E+02  0.00000000000E+00 0.  1.
          5    1    1    2  502    0  0.78975673405E+02  0.80680191478E+01  0.35393823104E+03  0.36276247231E+03  0.47000000000E+01 0.  1.
         -5    1    1    2    0  502  0.13764269963E+02  0.10475347316E+03  0.26435769290E+03  0.28472763312E+03  0.47000000000E+01 0.  1.
        -11    1    1    2    0    0 -0.93553959918E+02 -0.74972729671E+02  0.14598986583E+03  0.18890816429E+03  0.00000000000E+00 0.  1.
         11    1    1    2    0    0  0.81401654973E+00 -0.37848762642E+02  0.13693259753E+03  0.14206944683E+03  0.00000000000E+00 0. -1.
<mgrwt>
<rscale>  0 0.18689640E+03</rscale>
<asrwt>0</asrwt>
<pdfrwt beam="1">  1        1 0.14459122E+00 0.19223316E+03</pdfrwt>
<pdfrwt beam="2">  1       -1 0.59422568E-02 0.19223316E+03</pdfrwt>
<totfact> 0.23961944E+03</totfact>
</mgrwt>
</event>
<event>
 6    1  0.6101889E-006  0.2064032E+03  0.7546771E-02  0.1148417E+00
          2   -1    0    0  501    0  0.00000000000E+00  0.00000000000E+00  0.80573363385E+03  0.80573363385E+03  0.00000000000E+00 0. -1.
         -2   -1    0    0    0  501 -0.00000000000E+00 -0.00000000000E+00 -0.50303881563E+02  0.50303881563E+02  0.00000000000E+00 0.  1.
          5    1    1    2  502    0 -0.12734419771E+02  0.23646107496E+02  0.14178797124E+03  0.14438567323E+03  0.47000000000E+01 0. -1.
         -5    1    1    2    0  502  0.16452768311E+03  0.39090571196E+02  0.34037331006E+03  0.38009671330E+03  0.47000000000E+01 0. -1.
        -11    1    1    2    0    0 -0.54280048677E+01 -0.35251086925E+02  0.79792686632E+02  0.87401231148E+02  0.00000000000E+00 0. -1.
         11    1    1    2    0    0 -0.14636525847E+03 -0.27485591767E+02  0.19347578436E+03  0.24415389773E+03  0.00000000000E+00 0.  1.
<mgrwt>
<rscale>  0 0.20157516E+03</rscale>
<asrwt>0</asrwt>
<pdfrwt beam="1">  1        2 0.12395901E+00 0.20640318E+03</pdfrwt>
<pdfrwt beam="2">  1       -2 0.77390593E-02 0.20640318E+03</pdfrwt>
<totfact> 0.34690700E+03</totfact>
</mgrwt>
</event>
<event>
 6    1  0.6101889E-006  0.2177464E+03  0.7546771E-02  0.1138667E+00
          3   -1    0    0  501    0  0.00000000000E+00  0.00000000000E+00  0.41011745311E+03  0.41011745311E+03  0.00000000000E+00 0. -1.
         -3   -1    0    0    0  501 -0.00000000000E+00 -0.00000000000E+00 -0.10845612507E+03  0.10845612507E+03  0.00000000000E+00 0.  1.
          5    1    1    2  502    0  0.15109924574E+01 -0.51605888972E+02  0.34414221611E+02  0.62224428675E+02  0.47000000000E+01 0. -1.
         -5    1    1    2    0  502 -0.16364768364E+03 -0.22555419825E+02  0.14748658217E+03  0.22150325786E+03  0.47000000000E+01 0. -1.
        -11    1    1    2    0    0  0.98086220756E+02  0.83137949326E+02  0.45556973278E+02  0.13641210773E+03  0.00000000000E+00 0.  1.
         11    1    1    2    0    0  0.64050470422E+02 -0.89766405279E+01  0.74203550984E+02  0.98433783911E+02  0.00000000000E+00 0. -1.
<mgrwt>
<rscale>  0 0.21370225E+03</rscale>
<asrwt>0</asrwt>
<pdfrwt beam="1">  1        3 0.63094992E-01 0.21774641E+03</pdfrwt>
<pdfrwt beam="2">  1       -3 0.16685558E-01 0.21774641E+03</pdfrwt>
<totfact> 0.18854698E+02</totfact>
</mgrwt>
</event>
<event>
 6    1  0.6101889E-006  0.2732213E+03  0.7546771E-02  0.1099450E+00
          2   -1    0    0  501    0  0.00000000000E+00  0.00000000000E+00  0.27670638851E+03  0.27670638851E+03  0.00000000000E+00 0. -1.
         -2   -1    0    0    0  501 -0.00000000000E+00 -0.00000000000E+00 -0.67445025948E+02  0.67445025948E+02  0.00000000000E+00 0.  1.
          5    1    1    2  502    0  0.26563990277E+02 -0.51759281572E+01  0.94334783474E+00  0.27484827030E+02  0.47000000000E+01 0. -1.
         -5    1    1    2    0  502 -0.10285767900E+03  0.34046874468E+02  0.14699017321E+03  0.18266661657E+03  0.47000000000E+01 0. -1.
        -11    1    1    2    0    0  0.19461754541E+02 -0.38677090159E+02  0.62835612978E+02  0.76308528038E+02  0.00000000000E+00 0. -1.
         11    1    1    2    0    0  0.56831934181E+02  0.98061438482E+01 -0.15077714570E+01  0.57691442821E+02  0.00000000000E+00 0.  1.
<mgrwt>
<rscale>  0 0.27322130E+03</rscale>
<asrwt>0</asrwt>
<pdfrwt beam="1">  1        2 0.42570213E-01 0.27322130E+03</pdfrwt>
<pdfrwt beam="2">  1       -2 0.10376158E-01 0.27322130E+03</pdfrwt>
<totfact> 0.74075742E+03</totfact>
</mgrwt>
</event>
<event>
 6    1  0.6101889E-006  0.1548138E+03  0.7546771E-02  0.1203277E+00
         -1   -1    0    0    0  501 -0.00000000000E+00  0.00000000000E+00  0.25176263125E+02  0.25176263125E+02  0.00000000000E+00 0.  1.
          1   -1    0    0  501    0  0.00000000000E+00 -0.00000000000E+00 -0.91453514394E+03  0.91453514394E+03  0.00000000000E+00 0. -1.
          5    1    1    2  502    0  0.38146991086E+02  0.96890024980E+02 -0.45035562917E+03  0.46226091398E+03  0.47000000000E+01 0.  1.
         -5    1    1    2    0  502  0.32155112772E+02 -0.38576947039E+02 -0.19860853022E+03  0.20491356811E+03  0.47000000000E+01 0.  1.
        -11    1    1    2    0    0 -0.49346036395E+02 -0.81680004268E+02 -0.19790530264E+03  0.21971154548E+03  0.00000000000E+00 0.  1.
         11    1    1    2    0    0 -0.20956067463E+02  0.23366926328E+02 -0.42489418780E+02  0.52825379486E+02  0.00000000000E+00 0. -1.
<mgrwt>
<rscale>  0 0.14774035E+03</rscale>
<asrwt>0</asrwt>
<pdfrwt beam="2">  1        1 0.14069770E+00 0.15481379E+03</pdfrwt>
<pdfrwt beam="1">  1       -1 0.38732716E-02 0.15481379E+03</pdfrwt>
<totfact> 0.47055849E+03</totfact>
</mgrwt>
</event>
<event>
 6    1  0.6101889E-006  0.4745118E+03  0.7546771E-02  0.1077781E+00
         -2   -1    0    0    0  501 -0.00000000000E+00  0.00000000000E+00  0.11215001858E+04  0.11215001858E+04  0.00000000000E+00 0.  1.
          2   -1    0    0  501    0  0.00000000000E+00 -0.00000000000E+00 -0.71898879423E+02  0.71898879423E+02  0.00000000000E+00 0. -1.
          5    1    1    2  502    0 -0.57830880737E+02 -0.44611447395E+02 -0.37100694505E+02  0.82055734341E+02  0.47000000000E+01 0. -1.
         -5    1    1    2    0  502  0.67656921492E+02  0.46956026227E+02  0.89116104672E+03  0.89497063003E+03  0.47000000000E+01 0.  1.
        -11    1    1    2    0    0 -0.21571733333E+02  0.41710563762E+02  0.10371526230E+03  0.11385063215E+03  0.00000000000E+00 0.  1.
         11    1    1    2    0    0  0.11745692577E+02 -0.44055142594E+02  0.91825691824E+02  0.10252206866E+03  0.00000000000E+00 0. -1.
<mgrwt>
<rscale>  0 0.31541093E+03</rscale>
<asrwt>0</asrwt>
<pdfrwt beam="2">  1        2 0.11061367E-01 0.47451178E+03</pdfrwt>
<pdfrwt beam="1">  1       -2 0.17253848E+00 0.47451178E+03</pdfrwt>
<totfact> 0.12254452E+02</totfact>
</mgrwt>
</event>
<event>
 6    1  0.6101889E-006  0.1398386E+03  0.7546771E-02  0.1224425E+00
          1   -1    0    0  501    0  0.00000000000E+00  0.00000000000E+00  0.32185066714E+02  0.32185066714E+02  0.00000000000E+00 0. -1.
         -1   -1    0    0    0  501 -0.00000000000E+00 -0.00000000000E+00 -0.54910158916E+03  0.54910158916E+03  0.00000000000E+00 0.  1.
          5    1    1    2  502    0  0.30226257226E+02 -0.17494666669E+02  0.55495743061E+00  0.35243268371E+02  0.47000000000E+01 0.  1.
         -5    1    1    2    0  502 -0.45631830859E+02 -0.43279226626E+02 -0.19020247619E+03  0.20038569658E+03  0.47000000000E+01 0.  1.
        -11    1    1    2    0    0  0.53169840054E+02  0.44085353486E+02 -0.22522177767E+03  0.23557461540E+03  0.00000000000E+00 0.  1.
         11    1    1    2    0    0 -0.37764266421E+02  0.16688539809E+02 -0.10204722602E+03  0.11008307552E+03  0.00000000000E+00 0. -1.
<mgrwt>
<rscale>  0 0.13206419E+03</rscale>
<asrwt>0</asrwt>
<pdfrwt beam="1">  1        1 0.49515489E-02 0.13983858E+03</pdfrwt>
<pdfrwt beam="2">  1       -1 0.84477164E-01 0.13983858E+03</pdfrwt>
<totfact> 0.23798798E+03</totfact>
</mgrwt>
</event>
<event>
 6    1  0.6101889E-006  0.1272862E+03  0.7546771E-02  0.1246258E+00
          2   -1    0    0  501    0  0.00000000000E+00  0.00000000000E+00  0.20468845441E+03  0.20468845441E+03  0.00000000000E+00 0. -1.
         -2   -1    0    0    0  501 -0.00000000000E+00 -0.00000000000E+00 -0.97362998614E+02  0.97362998614E+02  0.00000000000E+00 0.  1.
          5    1    1    2  502    0 -0.37562867329E+02  0.30342112458E+02  0.31649870292E+02  0.57925962055E+02  0.47000000000E+01 0.  1.
         -5    1    1    2    0  502  0.58232809711E+02 -0.42521541070E+02  0.11985387548E+03  0.13995064505E+03  0.47000000000E+01 0.  1.
        -11    1    1    2    0    0 -0.90770159782E+01  0.51914737972E+02 -0.20974333949E+02  0.56722613853E+02  0.00000000000E+00 0. -1.
         11    1    1    2    0    0 -0.11592926404E+02 -0.39735309360E+02 -0.23203956031E+02  0.47452232066E+02  0.00000000000E+00 0.  1.
<mgrwt>
<rscale>  0 0.11810377E+03</rscale>
<asrwt>0</asrwt>
<pdfrwt beam="1">  1        2 0.31490532E-01 0.12728616E+03</pdfrwt>
<pdfrwt beam="2">  1       -2 0.14978923E-01 0.12728616E+03</pdfrwt>
<totfact> 0.54213864E+03</totfact>
</mgrwt>
</event>
<event>
 6    1  0.6101889E-006  0.1384066E+03  0.7546771E-02  0.1227091E+00
         -2   -1    0    0    0  501 -0.00000000000E+00  0.00000000000E+00  0.20934652040E+02  0.20934652040E+02  0.00000000000E+00 0.  1.
          2   -1    0    0  501    0  0.00000000000E+00 -0.00000000000E+00 -0.72960379956E+03  0.72960379956E+03  0.00000000000E+00 0. -1.
          5    1    1    2  502    0  0.35404006741E+02  0.20742426040E+02 -0.35125685525E+02  0.54218038649E+02  0.47000000000E+01 0.  1.
         -5    1    1    2    0  502  0.17346482252E+02 -0.48106382330E+02 -0.37808191389E+03  0.38155359791E+03  0.47000000000E+01 0.  1.
        -11    1    1    2    0    0 -0.72896741921E+02  0.19646329911E+02 -0.27447562714E+03  0.28466960349E+03  0.00000000000E+00 0. -1.
         11    1    1    2    0    0  0.20146252929E+02  0.77176263780E+01 -0.20985920966E+02  0.30097211544E+02  0.00000000000E+00 0.  1.
<mgrwt>
<rscale>  0 0.13024580E+03</rscale>
<asrwt>0</asrwt>
<pdfrwt beam="2">  1        2 0.11224673E+00 0.13840664E+03</pdfrwt>
<pdfrwt beam="1">  1       -2 0.32207159E-02 0.13840664E+03</pdfrwt>
<totfact> 0.14472187E+04</totfact>
</mgrwt>
</event>
<event>
 6    1  0.6101889E-006  0.1296870E+03  0.7546771E-02  0.1241597E+00
          2   -1    0    0  501    0  0.00000000000E+00  0.00000000000E+00  0.17290198663E+03  0.17290198663E+03  0.00000000000E+00 0. -1.
         -2   -1    0    0    0  501 -0.00000000000E+00 -0.00000000000E+00 -0.82121000349E+02  0.82121000349E+02  0.00000000000E+00 0.  1.
          5    1    1    2  502    0  0.50846189685E+02  0.98337274464E+01  0.11256643041E+03  0.12399729213E+03  0.47000000000E+01 0. -1.
         -5    1    1    2    0  502 -0.20835338457E+02  0.72896678699E+01 -0.24078827078E+02  0.33001977209E+02  0.47000000000E+01 0. -1.
        -11    1    1    2    0    0 -0.14482875315E+01 -0.21233998822E+02 -0.40883380259E+02  0.46091550464E+02  0.00000000000E+00 0.  1.
         11    1    1    2    0    0 -0.28562563697E+02  0.41106035058E+01  0.43176763212E+02  0.51932167176E+02  0.00000000000E+00 0. -1.
<mgrwt>
<rscale>  0 0.12091366E+03</rscale>
<asrwt>0</asrwt>
<pdfrwt beam="1">  1        2 0.26600306E-01 0.12968699E+03</pdfrwt>
<pdfrwt beam="2">  1       -2 0.12634000E-01 0.12968699E+03</pdfrwt>
<totfact> 0.85853345E+03</totfact>
</mgrwt>
</event>
<event>
 6    1  0.6101889E-006  0.1254167E+03  0.7546771E-02  0.1249935E+00
          2   -1    0    0  501    0  0.00000000000E+00  0.00000000000E+00  0.33429849526E+03  0.33429849526E+03  0.00000000000E+00 0. -1.
         -2   -1    0    0    0  501 -0.00000000000E+00 -0.00000000000E+00 -0.37864610347E+02  0.37864610347E+02  0.00000000000E+00 0.  1.
          5    1    1    2  502    0  0.52460149717E+02  0.17046479718E+02  0.54003071001E+02  0.77337387186E+02  0.47000000000E+01 0. -1.
         -5    1    1    2    0  502 -0.51664082358E+02 -0.27214216188E+02  0.16424629235E+03  0.17438097809E+03  0.47000000000E+01 0. -1.
        -11    1    1    2    0    0 -0.15535215332E+02  0.38904086275E+02  0.77551709552E+02  0.88142716651E+02  0.00000000000E+00 0. -1.
         11    1    1    2    0    0  0.14739147972E+02 -0.28736349805E+02  0.63281201372E+00  0.32302023685E+02  0.00000000000E+00 0.  1.
<mgrwt>
<rscale>  0 0.11594804E+03</rscale>
<asrwt>0</asrwt>
<pdfrwt beam="1">  1        2 0.51430536E-01 0.12541671E+03</pdfrwt>
<pdfrwt beam="2">  1       -2 0.58253249E-02 0.12541671E+03</pdfrwt>
<totfact> 0.14075590E+04</totfact>
</mgrwt>
</event>
<event>
 6    1  0.6101889E-006  0.1271887E+03  0.7546771E-02  0.1244335E+00
          2   -1    0    0  501    0  0.00000000000E+00  0.00000000000E+00  0.96816053133E+03  0.96816053133E+03  0.00000000000E+00 0. -1.
         -2   -1    0    0    0  501 -0.00000000000E+00 -0.00000000000E+00 -0.23236037420E+02  0.23236037420E+02  0.00000000000E+00 0.  1.
          5    1    1    2  502    0 -0.45867740966E+02 -0.33641067275E+02  0.62854915546E+03  0.63113524849E+03  0.47000000000E+01 0.  1.
         -5    1    1    2    0  502  0.52750812622E+02  0.11259638429E+02  0.20353005506E+03  0.21060864417E+03  0.47000000000E+01 0.  1.
        -11    1    1    2    0    0  0.37040020087E+02 -0.23393806681E+01  0.15876075400E+02  0.40366886926E+02  0.00000000000E+00 0.  1.
         11    1    1    2    0    0 -0.43923091743E+02  0.24720809514E+02  0.96969207997E+02  0.10928578915E+03  0.00000000000E+00 0. -1.
<mgrwt>
<rscale>  0 0.11925293E+03</rscale>
<asrwt>0</asrwt>
<pdfrwt beam="1">  1        2 0.14894774E+00 0.12718871E+03</pdfrwt>
<pdfrwt beam="2">  1       -2 0.35747757E-02 0.12718871E+03</pdfrwt>
<totfact> 0.86165274E+03</totfact>
</mgrwt>
</event>
<event>
 6    1  0.6101889E-006  0.1646446E+03  0.7546771E-02  0.1190570E+00
         -3   -1    0    0    0  501 -0.00000000000E+00  0.00000000000E+00  0.15254554549E+03  0.15254554549E+03  0.00000000000E+00 0.  1.
          3   -1    0    0  501    0  0.00000000000E+00 -0.00000000000E+00 -0.15528129865E+03  0.15528129865E+03  0.00000000000E+00 0. -1.
          5    1    1    2  502    0 -0.34936011654E+02  0.10350364805E+03  0.12566723634E+02  0.11006154012E+03  0.47000000000E+01 0.  1.
         -5    1    1    2    0  502 -0.44852796741E+02 -0.31978117459E+02  0.46373090534E+01  0.55479437695E+02  0.47000000000E+01 0.  1.
        -11    1    1    2    0    0 -0.10955408353E+02 -0.15322470099E+02 -0.29626985820E+02  0.35107796155E+02  0.00000000000E+00 0. -1.
         11    1    1    2    0    0  0.90744216748E+02 -0.56203060496E+02  0.96871999708E+01  0.10717807017E+03  0.00000000000E+00 0.  1.
<mgrwt>
<rscale>  0 0.15835226E+03</rscale>
<asrwt>0</asrwt>
<pdfrwt beam="2">  1        3 0.23889430E-01 0.16464458E+03</pdfrwt>
<pdfrwt beam="1">  1       -3 0.23468546E-01 0.16464458E+03</pdfrwt>
<totfact> 0.65416460E+02</totfact>
</mgrwt>
</event>
<event>
 6    1  0.6101889E-006  0.1461987E+03  0.7546771E-02  0.1214690E+00
         -2   -1    0    0    0  501 -0.00000000000E+00  0.00000000000E+00  0.11407733612E+03  0.11407733612E+03  0.00000000000E+00 0.  1.
          2   -1    0    0  501    0  0.00000000000E+00 -0.00000000000E+00 -0.15471156071E+03  0.15471156071E+03  0.00000000000E+00 0. -1.
          5    1    1    2  502    0  0.20365696331E+02 -0.29429445191E+02 -0.11186926532E+02  0.37790093365E+02  0.47000000000E+01 0.  1.
         -5    1    1    2    0  502 -0.85951045325E+02  0.67497781986E+02 -0.83058075695E+01  0.10970236645E+03  0.47000000000E+01 0.  1.
        -11    1    1    2    0    0  0.67822295698E+02 -0.61077232661E+02 -0.20152728775E+01  0.91292680254E+02  0.00000000000E+00 0.  1.
         11    1    1    2    0    0 -0.22369467029E+01  0.23008895866E+02 -0.19126217607E+02  0.30003756756E+02  0.00000000000E+00 0. -1.
<mgrwt>
<rscale>  0 0.13899363E+03</rscale>
<asrwt>0</asrwt>
<pdfrwt beam="2">  1        2 0.23801778E-01 0.14619870E+03</pdfrwt>
<pdfrwt beam="1">  1       -2 0.17550360E-01 0.14619870E+03</pdfrwt>
<totfact> 0.57204741E+03</totfact>
</mgrwt>
</event>
<event>
 6    1  0.6101889E-006  0.1819638E+03  0.7546771E-02  0.1171716E+00
         -1   -1    0    0    0  501 -0.00000000000E+00  0.00000000000E+00  0.12322806952E+03  0.12322806952E+03  0.00000000000E+00 0.  1.
          1   -1    0    0  501    0  0.00000000000E+00 -0.00000000000E+00 -0.24634389052E+03  0.24634389052E+03  0.00000000000E+00 0. -1.
          5    1    1    2  502    0  0.11322337704E+03 -0.16468415905E+02 -0.33904570924E+02  0.11942508849E+03  0.47000000000E+01 0.  1.
         -5    1    1    2    0  502 -0.32611104362E+01 -0.56981525642E+02 -0.68824188562E+02  0.89534284143E+02  0.47000000000E+01 0.  1.
        -11    1    1    2    0    0  0.92715479260E+01  0.12213848725E+02  0.15550270130E+02  0.21839198766E+02  0.00000000000E+00 0.  1.
         11    1    1    2    0    0 -0.11923381453E+03  0.61236092821E+02 -0.35937331637E+02  0.13877338865E+03  0.00000000000E+00 0. -1.
<mgrwt>
<rscale>  0 0.17601587E+03</rscale>
<asrwt>0</asrwt>
<pdfrwt beam="2">  1        1 0.37899060E-01 0.18196379E+03</pdfrwt>
<pdfrwt beam="1">  1       -1 0.18958165E-01 0.18196379E+03</pdfrwt>
<totfact> 0.24362711E+03</totfact>
</mgrwt>
</event>
<event>
 6    1  0.6101889E-006  0.1271326E+03  0.7546771E-02  0.1243673E+00
          1   -1    0    0  501    0  0.00000000000E+00  0.00000000000E+00  0.77567976426E+02  0.77567976426E+02  0.00000000000E+00 0. -1.
         -1   -1    0    0    0  501 -0.00000000000E+00 -0.00000000000E+00 -0.17274972124E+03  0.17274972124E+03  0.00000000000E+00 0.  1.
          5    1    1    2  502    0  0.66034430080E+02  0.87316704060E+01 -0.19722067982E+02  0.69626417325E+02  0.47000000000E+01 0. -1.
         -5    1    1    2    0  502 -0.58354499059E+02  0.13198170010E+02 -0.86409170185E+01  0.60631631175E+02  0.47000000000E+01 0. -1.
        -11    1    1    2    0    0 -0.52388543423E+02 -0.12060291593E+02 -0.39896958174E+02  0.66946078204E+02  0.00000000000E+00 0. -1.
         11    1    1    2    0    0  0.44708612402E+02 -0.98695488231E+01 -0.26921801638E+02  0.53113570962E+02  0.00000000000E+00 0.  1.
<mgrwt>
<rscale>  0 0.11965153E+03</rscale>
<asrwt>0</asrwt>
<pdfrwt beam="1">  1        1 0.11933535E-01 0.12713261E+03</pdfrwt>
<pdfrwt beam="2">  1       -1 0.26576880E-01 0.12713261E+03</pdfrwt>
<totfact> 0.60042950E+03</totfact>
</mgrwt>
</event>
<event>
 6    1  0.6101889E-006  0.1530985E+03  0.7546771E-02  0.1202363E+00
         -2   -1    0    0    0  501 -0.00000000000E+00  0.00000000000E+00  0.37174190068E+03  0.37174190068E+03  0.00000000000E+00 0.  1.
          2   -1    0    0  501    0  0.00000000000E+00 -0.00000000000E+00 -0.71415546078E+02  0.71415546078E+02  0.00000000000E+00 0. -1.
          5    1    1    2  502    0 -0.50023176597E+02  0.30256633153E+02 -0.31566442623E+02  0.66605648007E+02  0.47000000000E+01 0. -1.
         -5    1    1    2    0  502 -0.30531439888E+02  0.28880604344E+02  0.86083219863E+02  0.95909691225E+02  0.47000000000E+01 0.  1.
        -11    1    1    2    0    0  0.43139309467E+02  0.19289611576E+02  0.68957876415E+02  0.83595920090E+02  0.00000000000E+00 0.  1.
         11    1    1    2    0    0  0.37415307019E+02 -0.78426849072E+02  0.17685170095E+03  0.19704618743E+03  0.00000000000E+00 0. -1.
<mgrwt>
<rscale>  0 0.14847256E+03</rscale>
<asrwt>0</asrwt>
<pdfrwt beam="2">  1        2 0.10987007E-01 0.15309852E+03</pdfrwt>
<pdfrwt beam="1">  1       -2 0.57191061E-01 0.15309852E+03</pdfrwt>
<totfact> 0.16236379E+03</totfact>
</mgrwt>
</event>
<event>
 6    1  0.6101889E-006  0.3274957E+03  0.7546771E-02  0.1073573E+00
         -2   -1    0    0    0  501 -0.00000000000E+00  0.00000000000E+00  0.71101397090E+02  0.71101397090E+02  0.00000000000E+00 0.  1.
          2   -1    0    0  501    0  0.00000000000E+00 -0.00000000000E+00 -0.15172741678E+04  0.15172741678E+04  0.00000000000E+00 0. -1.
          5    1    1    2  502    0 -0.41067687551E+02 -0.13391998704E+02 -0.41825559234E+02  0.60310596045E+02  0.47000000000E+01 0.  1.
         -5    1    1    2    0  502 -0.26135236878E+03  0.26439509207E+02 -0.85407157550E+03  0.89356838260E+03  0.47000000000E+01 0.  1.
        -11    1    1    2    0    0  0.28434200640E+02  0.15875187015E+01 -0.13189082339E+02  0.31384325301E+02  0.00000000000E+00 0.  1.
         11    1    1    2    0    0  0.27398585569E+03 -0.14635029205E+02 -0.53708655367E+03  0.60311226097E+03  0.00000000000E+00 0. -1.
<mgrwt>
<rscale>  0 0.32455333E+03</rscale>
<asrwt>0</asrwt>
<pdfrwt beam="2">  1        2 0.23342677E+00 0.32749569E+03</pdfrwt>
<pdfrwt beam="1">  1       -2 0.10938678E-01 0.32749569E+03</pdfrwt>
<totfact> 0.76499394E+02</totfact>
</mgrwt>
</event>
<event>
 6    1  0.6101889E-006  0.1261910E+03  0.7546771E-02  0.1246666E+00
          2   -1    0    0  501    0  0.00000000000E+00  0.00000000000E+00  0.17652185952E+02  0.17652185952E+02  0.00000000000E+00 0. -1.
         -2   -1    0    0    0  501 -0.00000000000E+00 -0.00000000000E+00 -0.70034252821E+03  0.70034252821E+03  0.00000000000E+00 0.  1.
          5    1    1    2  502    0  0.44685449199E+02  0.50302888077E+02 -0.27260814989E+03  0.28082817399E+03  0.47000000000E+01 0. -1.
         -5    1    1    2    0  502 -0.38967191525E+02 -0.33985113203E+02 -0.10181837932E+03  0.11429130458E+03  0.47000000000E+01 0. -1.
        -11    1    1    2    0    0  0.33688805607E+02 -0.37775723475E+02 -0.18043412152E+03  0.18739907448E+03  0.00000000000E+00 0.  1.
         11    1    1    2    0    0 -0.39407063281E+02  0.21457948601E+02 -0.12782969153E+03  0.13547616112E+03  0.00000000000E+00 0. -1.
<mgrwt>
<rscale>  0 0.11786193E+03</rscale>
<asrwt>0</asrwt>
<pdfrwt beam="1">  1        2 0.27157208E-02 0.12619103E+03</pdfrwt>
<pdfrwt beam="2">  1       -2 0.10774501E+00 0.12619103E+03</pdfrwt>
<totfact> 0.24539475E+03</totfact>
</mgrwt>
</event>
<event>
 6    1  0.6101889E-006  0.1632475E+03  0.7546771E-02  0.1192214E+00
         -1   -1    0    0    0  501 -0.00000000000E+00  0.00000000000E+00  0.12135985235E+03  0.12135985235E+03  0.00000000000E+00 0.  1.
          1   -1    0    0  501    0  0.00000000000E+00 -0.00000000000E+00 -0.18867894787E+03  0.18867894787E+03  0.00000000000E+00 0. -1.
          5    1    1    2  502    0 -0.92475583976E+01  0.31854371900E+02 -0.76315594078E+02  0.83344935329E+02  0.47000000000E+01 0.  1.
         -5    1    1    2    0  502 -0.51528776773E+02  0.53766928031E+02  0.38877292548E+02  0.84140544694E+02  0.47000000000E+01 0.  1.
        -11    1    1    2    0    0 -0.30517338964E+01  0.15088077468E+02  0.81298670461E+01  0.17408558230E+02  0.00000000000E+00 0.  1.
         11    1    1    2    0    0  0.63828069067E+02 -0.10070937740E+03 -0.38010661038E+02  0.12514476197E+03  0.00000000000E+00 0. -1.
<mgrwt>
<rscale>  0 0.15692428E+03</rscale>
<asrwt>0</asrwt>
<pdfrwt beam="2">  1        1 0.29027530E-01 0.16324754E+03</pdfrwt>
<pdfrwt beam="1">  1       -1 0.18670747E-01 0.16324754E+03</pdfrwt>
<totfact> 0.34684443E+03</totfact>
</mgrwt>
</event>
<event>
 6    1  0.6101889E-006  0.1791361E+03  0.7546771E-02  0.1174261E+00
          2   -1    0    0  501    0  0.00000000000E+00  0.00000000000E+00  0.20273517323E+03  0.20273517323E+03  0.00000000000E+00 0. -1.
         -2   -1    0    0    0  501 -0.00000000000E+00 -0.00000000000E+00 -0.22793477788E+03  0.22793477788E+03  0.00000000000E+00 0.  1.
          5    1    1    2  502    0 -0.63559148656E+02 -0.62346403279E+02  0.35798709978E+02  0.96075371535E+02  0.47000000000E+01 0.  1.
         -5    1    1    2    0  502  0.53441746154E+02 -0.65569162779E+02  0.84831342798E+02  0.11989070882E+03  0.47000000000E+01 0.  1.
        -11    1    1    2    0    0 -0.10551444299E+02  0.26417343375E+01 -0.61100839848E+02  0.62061456374E+02  0.00000000000E+00 0.  1.
         11    1    1    2    0    0  0.20668846801E+02  0.12527383172E+03 -0.84728817574E+02  0.15264241439E+03  0.00000000000E+00 0. -1.
<mgrwt>
<rscale>  0 0.17348527E+03</rscale>
<asrwt>0</asrwt>
<pdfrwt beam="1">  1        2 0.31190027E-01 0.17913609E+03</pdfrwt>
<pdfrwt beam="2">  1       -2 0.35066889E-01 0.17913609E+03</pdfrwt>
<totfact> 0.12729458E+03</totfact>
</mgrwt>
</event>
<event>
 6    1  0.6101889E-006  0.4906256E+03  0.7546771E-02  0.1016255E+00
         -2   -1    0    0    0  501 -0.00000000000E+00  0.00000000000E+00  0.19541314929E+03  0.19541314929E+03  0.00000000000E+00 0.  1.
          2   -1    0    0  501    0  0.00000000000E+00 -0.00000000000E+00 -0.30795453548E+03  0.30795453548E+03  0.00000000000E+00 0. -1.
          5    1    1    2  502    0  0.16546944474E+01 -0.31740889294E+01  0.13478359655E+02  0.14716284628E+02  0.47000000000E+01 0. -1.
         -5    1    1    2    0  502 -0.13350403264E+03  0.89159629077E+01 -0.24992940354E+03  0.28353062953E+03  0.47000000000E+01 0. -1.
        -11    1    1    2    0    0  0.18285546564E+02 -0.17929923282E+02  0.77873021348E+02  0.81975916073E+02  0.00000000000E+00 0.  1.
         11    1    1    2    0    0  0.11356379163E+03  0.12188049303E+02  0.46036636346E+02  0.12314485454E+03  0.00000000000E+00 0. -1.
<mgrwt>
<rscale>  0 0.49062558E+03</rscale>
<asrwt>0</asrwt>
<pdfrwt beam="2">  1        2 0.47377621E-01 0.49062558E+03</pdfrwt>
<pdfrwt beam="1">  1       -2 0.30063562E-01 0.49062558E+03</pdfrwt>
<totfact> 0.10892707E+03</totfact>
</mgrwt>
</event>
<event>
 6    1  0.6101889E-006  0.1317991E+03  0.7546771E-02  0.1242236E+00
          1   -1    0    0  501    0  0.00000000000E+00  0.00000000000E+00  0.36648002477E+02  0.36648002477E+02  0.00000000000E+00 0. -1.
         -1   -1    0    0    0  501 -0.00000000000E+00 -0.00000000000E+00 -0.43909660844E+03  0.43909660844E+03  0.00000000000E+00 0.  1.
          5    1    1    2  502    0 -0.41375742555E+02 -0.21977350959E+02  0.98263718213E+01  0.48099933580E+02  0.47000000000E+01 0.  1.
         -5    1    1    2    0  502  0.48166460928E+00  0.13401480170E+02 -0.12840990600E+03  0.12919375229E+03  0.47000000000E+01 0.  1.
        -11    1    1    2    0    0 -0.16528960188E+02 -0.17508101171E+02 -0.12913640188E+03  0.13136190628E+03  0.00000000000E+00 0.  1.
         11    1    1    2    0    0  0.57423038134E+02  0.26083971961E+02 -0.15472866990E+03  0.16708901876E+03  0.00000000000E+00 0. -1.
<mgrwt>
<rscale>  0 0.12052318E+03</rscale>
<asrwt>0</asrwt>
<pdfrwt beam="1">  1        1 0.56381539E-02 0.13179908E+03</pdfrwt>
<pdfrwt beam="2">  1       -1 0.67553328E-01 0.13179908E+03</pdfrwt>
<totfact> 0.31180942E+03</totfact>
</mgrwt>
</event>
<event>
 6    1  0.6101889E-006  0.2687818E+03  0.7546771E-02  0.1103914E+00
         -2   -1    0    0    0  501 -0.00000000000E+00  0.00000000000E+00  0.50325261204E+02  0.50325261204E+02  0.00000000000E+00 0.  1.
          2   -1    0    0  501    0  0.00000000000E+00 -0.00000000000E+00 -0.13820297698E+04  0.13820297698E+04  0.00000000000E+00 0. -1.
          5    1    1    2  502    0 -0.92121824113E+02  0.64803506667E+02 -0.25942298292E+03  0.28285738283E+03  0.47000000000E+01 0.  1.
         -5    1    1    2    0  502 -0.14565102360E+03 -0.55729235941E+02 -0.34687652303E+03  0.38034902477E+03  0.47000000000E+01 0.  1.
        -11    1    1    2    0    0  0.14995091056E+03  0.34514709158E+02 -0.37648832744E+03  0.40671857767E+03  0.00000000000E+00 0.  1.
         11    1    1    2    0    0  0.87821937146E+02 -0.43588979884E+02 -0.34891667523E+03  0.36243004575E+03  0.00000000000E+00 0. -1.
<mgrwt>
<rscale>  0 0.26544720E+03</rscale>
<asrwt>0</asrwt>
<pdfrwt beam="2">  1        2 0.21261991E+00 0.26878179E+03</pdfrwt>
<pdfrwt beam="1">  1       -2 0.77423498E-02 0.26878179E+03</pdfrwt>
<totfact> 0.15746568E+03</totfact>
</mgrwt>
</event>
<event>
 6    1  0.6101889E-006  0.1546735E+03  0.7546771E-02  0.1203171E+00
         -1   -1    0    0    0  501 -0.00000000000E+00  0.00000000000E+00  0.56802024333E+02  0.56802024333E+02  0.00000000000E+00 0.  1.
          1   -1    0    0  501    0  0.00000000000E+00 -0.00000000000E+00 -0.37615972401E+03  0.37615972401E+03  0.00000000000E+00 0. -1.
          5    1    1    2  502    0 -0.38610498447E+02 -0.46675547646E+02 -0.17538507871E+02  0.63238173572E+02  0.47000000000E+01 0.  1.
         -5    1    1    2    0  502 -0.21025691795E+02 -0.22197562279E+02 -0.20772360132E+03  0.21001427578E+03  0.47000000000E+01 0.  1.
        -11    1    1    2    0    0 -0.10540573889E+02  0.53013948795E+02 -0.57766302218E+02  0.79110859790E+02  0.00000000000E+00 0.  1.
         11    1    1    2    0    0  0.70176764131E+02  0.15859161130E+02 -0.36329288271E+02  0.80598439203E+02  0.00000000000E+00 0. -1.
<mgrwt>
<rscale>  0 0.14782528E+03</rscale>
<asrwt>0</asrwt>
<pdfrwt beam="2">  1        1 0.57870726E-01 0.15467347E+03</pdfrwt>
<pdfrwt beam="1">  1       -1 0.87387730E-02 0.15467347E+03</pdfrwt>
<totfact> 0.47741879E+03</totfact>
</mgrwt>
</event>
<event>
 6    1  0.6101889E-006  0.1788975E+03  0.7546771E-02  0.1174175E+00
          3   -1    0    0  501    0  0.00000000000E+00  0.00000000000E+00  0.72471441364E+02  0.72471441364E+02  0.00000000000E+00 0. -1.
         -3   -1    0    0    0  501 -0.00000000000E+00 -0.00000000000E+00 -0.46532745760E+03  0.46532745760E+03  0.00000000000E+00 0.  1.
          5    1    1    2  502    0  0.24021843053E+02  0.84609478219E+02 -0.12068067206E+03  0.14940457609E+03  0.47000000000E+01 0.  1.
         -5    1    1    2    0  502  0.46799577474E+02  0.21992015198E+02  0.20278072335E+02  0.55741720478E+02  0.47000000000E+01 0.  1.
        -11    1    1    2    0    0 -0.28284217179E+01 -0.50315146560E+02 -0.19393694798E+03  0.20037752802E+03  0.00000000000E+00 0.  1.
         11    1    1    2    0    0 -0.67992998809E+02 -0.56286346857E+02 -0.98516468529E+02  0.13227507438E+03  0.00000000000E+00 0. -1.
<mgrwt>
<rscale>  0 0.17356997E+03</rscale>
<asrwt>0</asrwt>
<pdfrwt beam="1">  1        3 0.11149453E-01 0.17889752E+03</pdfrwt>
<pdfrwt beam="2">  1       -3 0.71588839E-01 0.17889752E+03</pdfrwt>
<totfact> 0.28122217E+02</totfact>
</mgrwt>
</event>
<event>
 6    1  0.6101889E-006  0.1389493E+03  0.7546771E-02  0.1225536E+00
          2   -1    0    0  501    0  0.00000000000E+00  0.00000000000E+00  0.50045732002E+02  0.50045732002E+02  0.00000000000E+00 0. -1.
         -2   -1    0    0    0  501 -0.00000000000E+00 -0.00000000000E+00 -0.33150769612E+03  0.33150769612E+03  0.00000000000E+00 0.  1.
          5    1    1    2  502    0 -0.44002702585E+02  0.25310938377E+01 -0.32838185149E+02  0.55164124888E+02  0.47000000000E+01 0. -1.
         -5    1    1    2    0  502  0.78618274524E+02 -0.52373852035E+02 -0.76305539837E+02  0.12152563053E+03  0.47000000000E+01 0. -1.
        -11    1    1    2    0    0 -0.47900025916E+02  0.71098968685E+02 -0.13337809118E+03  0.15855343275E+03  0.00000000000E+00 0.  1.
         11    1    1    2    0    0  0.13284453976E+02 -0.21256210488E+02 -0.38940147954E+02  0.46310239952E+02  0.00000000000E+00 0. -1.
<mgrwt>
<rscale>  0 0.13130234E+03</rscale>
<asrwt>0</asrwt>
<pdfrwt beam="1">  1        2 0.76993434E-02 0.13894933E+03</pdfrwt>
<pdfrwt beam="2">  1       -2 0.51001184E-01 0.13894933E+03</pdfrwt>
<totfact> 0.31609703E+03</totfact>
</mgrwt>
</event>
<event>
 6    1  0.6101889E-006  0.1383309E+03  0.7546771E-02  0.1227023E+00
         -2   -1    0    0    0  501 -0.00000000000E+00  0.00000000000E+00  0.48309038750E+02  0.48309038750E+02  0.00000000000E+00 0.  1.
          2   -1    0    0  501    0  0.00000000000E+00 -0.00000000000E+00 -0.34686224180E+03  0.34686224180E+03  0.00000000000E+00 0. -1.
          5    1    1    2  502    0 -0.65102255703E+02  0.19760219603E+02 -0.42241149059E+02  0.80219540327E+02  0.47000000000E+01 0.  1.
         -5    1    1    2    0  502  0.16321839585E+02  0.13866459588E+02 -0.18157932529E+03  0.18289839398E+03  0.47000000000E+01 0.  1.
        -11    1    1    2    0    0 -0.18179534453E+02  0.14322325669E+02 -0.31353445512E+02  0.38970027341E+02  0.00000000000E+00 0.  1.
         11    1    1    2    0    0  0.66959950572E+02 -0.47949004860E+02 -0.43379283193E+02  0.93083318903E+02  0.00000000000E+00 0. -1.
<mgrwt>
<rscale>  0 0.13029221E+03</rscale>
<asrwt>0</asrwt>
<pdfrwt beam="2">  1        2 0.53363422E-01 0.13833092E+03</pdfrwt>
<pdfrwt beam="1">  1       -2 0.74321598E-02 0.13833092E+03</pdfrwt>
<totfact> 0.94102294E+03</totfact>
</mgrwt>
</event>
<event>
 6    1  0.6101889E-006  0.1332617E+03  0.7546771E-02  0.1235709E+00
          2   -1    0    0  501    0  0.00000000000E+00  0.00000000000E+00  0.26891216109E+03  0.26891216109E+03  0.00000000000E+00 0. -1.
         -2   -1    0    0    0  501 -0.00000000000E+00 -0.00000000000E+00 -0.51705543247E+02  0.51705543247E+02  0.00000000000E+00 0.  1.
          5    1    1    2  502    0  0.74771425983E+02 -0.44118619625E+02  0.85106631876E+02  0.12166530948E+03  0.47000000000E+01 0.  1.
         -5    1    1    2    0  502 -0.29419769722E+02  0.35337055274E+02  0.50580654077E+02  0.68518047935E+02  0.47000000000E+01 0.  1.
        -11    1    1    2    0    0  0.19239919394E+02 -0.17640072807E+02  0.44767771730E+01  0.26483734646E+02  0.00000000000E+00 0.  1.
         11    1    1    2    0    0 -0.64591575655E+02  0.26421637158E+02  0.77042554721E+02  0.10395061228E+03  0.00000000000E+00 0. -1.
<mgrwt>
<rscale>  0 0.12459176E+03</rscale>
<asrwt>0</asrwt>
<pdfrwt beam="1">  1        2 0.41371101E-01 0.13326166E+03</pdfrwt>
<pdfrwt beam="2">  1       -2 0.79546991E-02 0.13326166E+03</pdfrwt>
<totfact> 0.11070207E+04</totfact>
</mgrwt>
</event>
<event>
 6    1  0.6101889E-006  0.1332685E+03  0.7546771E-02  0.1237107E+00
          1   -1    0    0  501    0  0.00000000000E+00  0.00000000000E+00  0.18692113472E+03  0.18692113472E+03  0.00000000000E+00 0. -1.
         -1   -1    0    0    0  501 -0.00000000000E+00 -0.00000000000E+00 -0.75255230341E+02  0.75255230341E+02  0.00000000000E+00 0.  1.
          5    1    1    2  502    0  0.30730409613E+02 -0.38818329099E+02  0.44708385513E+02  0.66874139129E+02  0.47000000000E+01 0. -1.
         -5    1    1    2    0  502 -0.12421849493E+02  0.81239957022E+02  0.45522181341E+02  0.94066954643E+02  0.47000000000E+01 0. -1.
        -11    1    1    2    0    0 -0.34883055337E+02 -0.63088390254E+02  0.11822147071E+02  0.73052965003E+02  0.00000000000E+00 0.  1.
         11    1    1    2    0    0  0.16574495216E+02  0.20666762331E+02  0.96131904556E+01  0.28182306287E+02  0.00000000000E+00 0. -1.
<mgrwt>
<rscale>  0 0.12370533E+03</rscale>
<asrwt>0</asrwt>
<pdfrwt beam="1">  1        1 0.28757098E-01 0.13326845E+03</pdfrwt>
<pdfrwt beam="2">  1       -1 0.11577728E-01 0.13326845E+03</pdfrwt>
<totfact> 0.73386916E+03</totfact>
</mgrwt>
</event>
<event>
 6    1  0.6101889E-006  0.3123805E+03  0.7546771E-02  0.1079210E+00
         -1   -1    0    0    0  501 -0.00000000000E+00  0.00000000000E+00  0.30214400225E+02  0.30214400225E+02  0.00000000000E+00 0.  1.
          1   -1    0    0  501    0  0.00000000000E+00 -0.00000000000E+00 -0.80740925951E+03  0.80740925951E+03  0.00000000000E+00 0. -1.
          5    1    1    2  502    0 -0.11755341030E+02  0.16793782723E+02 -0.10726965089E+02  0.23608832265E+02  0.47000000000E+01 0. -1.
         -5    1    1    2    0  502  0.64847711678E+02  0.77533325083E+02 -0.52096474024E+03  0.53070047370E+03  0.47000000000E+01 0.  1.
        -11    1    1    2    0    0  0.10100521721E+02 -0.31072372373E+02 -0.14757366557E+02  0.35850979507E+02  0.00000000000E+00 0.  1.
         11    1    1    2    0    0 -0.63192892369E+02 -0.63254735433E+02 -0.23074578739E+03  0.24746337426E+03  0.00000000000E+00 0. -1.
<mgrwt>
<rscale>  0 0.31238045E+03</rscale>
<asrwt>0</asrwt>
<pdfrwt beam="2">  1        1 0.12421682E+00 0.31238045E+03</pdfrwt>
<pdfrwt beam="1">  1       -1 0.46483689E-02 0.31238045E+03</pdfrwt>
<totfact> 0.44678438E+03</totfact>
</mgrwt>
</event>
<event>
 6    1  0.6101889E-006  0.1390805E+03  0.7546771E-02  0.1225661E+00
          2   -1    0    0  501    0  0.00000000000E+00  0.00000000000E+00  0.99047063545E+03  0.99047063545E+03  0.00000000000E+00 0. -1.
         -2   -1    0    0    0  501 -0.00000000000E+00 -0.00000000000E+00 -0.18045229042E+02  0.18045229042E+02  0.00000000000E+00 0.  1.
          5    1    1    2  502    0 -0.17515114634E+02 -0.23063969042E+02  0.49161211386E+03  0.49248683881E+03  0.47000000000E+01 0. -1.
         -5    1    1    2    0  502  0.75713244836E+02  0.48656565268E+01  0.22490605943E+03  0.23740470852E+03  0.47000000000E+01 0. -1.
        -11    1    1    2    0    0 -0.70854406838E+02  0.29989101604E+02  0.24789653636E+03  0.25956191154E+03  0.00000000000E+00 0. -1.
         11    1    1    2    0    0  0.12656276637E+02 -0.11790789089E+02  0.80106967597E+01  0.19062405625E+02  0.00000000000E+00 0.  1.
<mgrwt>
<rscale>  0 0.13121708E+03</rscale>
<asrwt>0</asrwt>
<pdfrwt beam="1">  1        2 0.15238006E+00 0.13908047E+03</pdfrwt>
<pdfrwt beam="2">  1       -2 0.27761899E-02 0.13908047E+03</pdfrwt>
<totfact> 0.12180486E+04</totfact>
</mgrwt>
</event>
<event>
 6    1  0.6101889E-006  0.1554102E+03  0.7546771E-02  0.1202262E+00
          2   -1    0    0  501    0  0.00000000000E+00  0.00000000000E+00  0.11035641321E+03  0.11035641321E+03  0.00000000000E+00 0. -1.
         -2   -1    0    0    0  501 -0.00000000000E+00 -0.00000000000E+00 -0.19209350045E+03  0.19209350045E+03  0.00000000000E+00 0.  1.
          5    1    1    2  502    0 -0.10248284592E+03  0.27583197571E+02 -0.56119653500E+01  0.10638209742E+03  0.47000000000E+01 0.  1.
         -5    1    1    2    0  502  0.34267680295E+02  0.34642983946E+02 -0.82594307987E+01  0.49645930816E+02  0.47000000000E+01 0.  1.
        -11    1    1    2    0    0  0.16626924650E+01 -0.38874858021E+02 -0.65094261249E+02  0.75837207094E+02  0.00000000000E+00 0.  1.
         11    1    1    2    0    0  0.66552473157E+02 -0.23351323496E+02 -0.27714298344E+01  0.70584678335E+02  0.00000000000E+00 0. -1.
<mgrwt>
<rscale>  0 0.14855313E+03</rscale>
<asrwt>0</asrwt>
<pdfrwt beam="1">  1        2 0.16977910E-01 0.15541020E+03</pdfrwt>
<pdfrwt beam="2">  1       -2 0.29552846E-01 0.15541020E+03</pdfrwt>
<totfact> 0.34210731E+03</totfact>
</mgrwt>
</event>
<event>
 6    1  0.6101889E-006  0.1339084E+03  0.7546771E-02  0.1233561E+00
          2   -1    0    0  501    0  0.00000000000E+00  0.00000000000E+00  0.16354694994E+03  0.16354694994E+03  0.00000000000E+00 0. -1.
         -2   -1    0    0    0  501 -0.00000000000E+00 -0.00000000000E+00 -0.87160726934E+02  0.87160726934E+02  0.00000000000E+00 0.  1.
          5    1    1    2  502    0 -0.36864898781E+01 -0.78462341195E+02 -0.97266532115E+01  0.79288252447E+02  0.47000000000E+01 0.  1.
         -5    1    1    2    0  502 -0.71357103965E+01  0.31648067219E+02  0.51383907813E+02  0.60950098472E+02  0.47000000000E+01 0.  1.
        -11    1    1    2    0    0  0.19495436718E+02  0.10212820996E+02 -0.29037273293E+02  0.36435381236E+02  0.00000000000E+00 0. -1.
         11    1    1    2    0    0 -0.86732364430E+01  0.36601452979E+02  0.63766241696E+02  0.74033944719E+02  0.00000000000E+00 0.  1.
<mgrwt>
<rscale>  0 0.12596998E+03</rscale>
<asrwt>0</asrwt>
<pdfrwt beam="1">  1        2 0.25161069E-01 0.13390843E+03</pdfrwt>
<pdfrwt beam="2">  1       -2 0.13409343E-01 0.13390843E+03</pdfrwt>
<totfact> 0.83127419E+03</totfact>
</mgrwt>
</event>
<event>
 6    1  0.6101889E-006  0.1342514E+03  0.7546771E-02  0.1233786E+00
         -1   -1    0    0    0  501 -0.00000000000E+00  0.00000000000E+00  0.40533722956E+03  0.40533722956E+03  0.00000000000E+00 0.  1.
          1   -1    0    0  501    0  0.00000000000E+00 -0.00000000000E+00 -0.45089465059E+02  0.45089465059E+02  0.00000000000E+00 0. -1.
          5    1    1    2  502    0  0.37817422582E+02  0.58802699960E+01  0.11727717989E+03  0.12345348091E+03  0.47000000000E+01 0. -1.
         -5    1    1    2    0  502 -0.34257916790E+01  0.28976709254E+02 -0.25611109197E+02  0.39107603380E+02  0.47000000000E+01 0. -1.
        -11    1    1    2    0    0  0.18264129325E+02 -0.33844026281E+02  0.50282847643E+02  0.63303722655E+02  0.00000000000E+00 0. -1.
         11    1    1    2    0    0 -0.52655760228E+02 -0.10129529688E+01  0.21829884616E+03  0.22456188767E+03  0.00000000000E+00 0.  1.
<mgrwt>
<rscale>  0 0.12582488E+03</rscale>
<asrwt>0</asrwt>
<pdfrwt beam="2">  1        1 0.69368411E-02 0.13425140E+03</pdfrwt>
<pdfrwt beam="1">  1       -1 0.62359571E-01 0.13425140E+03</pdfrwt>
<totfact> 0.27516101E+03</totfact>
</mgrwt>
</event>
<event>
 6    1  0.6101889E-006  0.1348366E+03  0.7546771E-02  0.1233085E+00
          2   -1    0    0  501    0  0.00000000000E+00  0.00000000000E+00  0.58537388618E+03  0.58537388618E+03  0.00000000000E+00 0. -1.
         -2   -1    0    0    0  501 -0.00000000000E+00 -0.00000000000E+00 -0.38224973831E+02  0.38224973831E+02  0.00000000000E+00 0.  1.
          5    1    1    2  502    0 -0.18787871689E+01 -0.20876727564E+02  0.78148901949E+01  0.22858917379E+02  0.47000000000E+01 0.  1.
         -5    1    1    2    0  502 -0.47659752216E+02  0.30998894662E+02  0.47557429269E+03  0.47898369630E+03  0.47000000000E+01 0.  1.
        -11    1    1    2    0    0 -0.18513669371E+02 -0.87654313373E+01  0.47568266023E+02  0.51791202656E+02  0.00000000000E+00 0. -1.
         11    1    1    2    0    0  0.68052208756E+02 -0.13567357610E+01  0.16191463441E+02  0.69965043678E+02  0.00000000000E+00 0.  1.
<mgrwt>
<rscale>  0 0.12627830E+03</rscale>
<asrwt>0</asrwt>
<pdfrwt beam="1">  1        2 0.90057514E-01 0.13483659E+03</pdfrwt>
<pdfrwt beam="2">  1       -2 0.58807656E-02 0.13483659E+03</pdfrwt>
<totfact> 0.76023859E+03</totfact>
</mgrwt>
</event>
<event>
 6    1  0.6101889E-006  0.1269912E+03  0.7546771E-02  0.1246109E+00
          1   -1    0    0  501    0  0.00000000000E+00  0.00000000000E+00  0.61228746963E+02  0.61228746963E+02  0.00000000000E+00 0. -1.
         -1   -1    0    0    0  501 -0.00000000000E+00 -0.00000000000E+00 -0.20486143612E+03  0.20486143612E+03  0.00000000000E+00 0.  1.
          5    1    1    2  502    0  0.13965592202E+02  0.66338840094E+02 -0.32140788547E+02  0.75173131896E+02  0.47000000000E+01 0. -1.
         -5    1    1    2    0  502  0.44025456341E+01 -0.53677624881E+02 -0.66033317619E+02  0.85341425209E+02  0.47000000000E+01 0. -1.
        -11    1    1    2    0    0 -0.11141300300E+02 -0.33484303759E+02 -0.66385467153E+02  0.75182161579E+02  0.00000000000E+00 0.  1.
         11    1    1    2    0    0 -0.72268375360E+01  0.20823088546E+02  0.20926884163E+02  0.30393464399E+02  0.00000000000E+00 0. -1.
<mgrwt>
<rscale>  0 0.11819235E+03</rscale>
<asrwt>0</asrwt>
<pdfrwt beam="1">  1        1 0.94198072E-02 0.12699121E+03</pdfrwt>
<pdfrwt beam="2">  1       -1 0.31517144E-01 0.12699121E+03</pdfrwt>
<totfact> 0.61702419E+03</totfact>
</mgrwt>
</event>
<event>
 6    1  0.6101889E-006  0.1260832E+03  0.7546771E-02  0.1248933E+00
          2   -1    0    0  501    0  0.00000000000E+00  0.00000000000E+00  0.17687753083E+03  0.17687753083E+03  0.00000000000E+00 0.  1.
         -2   -1    0    0    0  501 -0.00000000000E+00 -0.00000000000E+00 -0.68197925608E+02  0.68197925608E+02  0.00000000000E+00 0. -1.
          5    1    1    2  502    0 -0.10445356030E+01  0.34676366155E+02  0.10375567129E+03  0.10950283443E+03  0.47000000000E+01 0. -1.
         -5    1    1    2    0  502  0.13355924739E+02 -0.23731383258E+02 -0.26565614469E+02  0.38332507733E+02  0.47000000000E+01 0. -1.
        -11    1    1    2    0    0 -0.51628306985E+02 -0.19864866437E+01  0.17005669555E+02  0.54393207373E+02  0.00000000000E+00 0.  1.
         11    1    1    2    0    0  0.39316917849E+02 -0.89584962534E+01  0.14483878847E+02  0.42846906898E+02  0.00000000000E+00 0. -1.
<mgrwt>
<rscale>  0 0.11653068E+03</rscale>
<asrwt>0</asrwt>
<pdfrwt beam="1">  1        2 0.27211928E-01 0.12608324E+03</pdfrwt>
<pdfrwt beam="2">  1       -2 0.10491989E-01 0.12608324E+03</pdfrwt>
<totfact> 0.11223538E+04</totfact>
</mgrwt>
</event>
<event>
 6    1  0.6101889E-006  0.5406279E+03  0.7546771E-02  0.1003687E+00
         -2   -1    0    0    0  501 -0.00000000000E+00  0.00000000000E+00  0.40321451457E+02  0.40321451457E+02  0.00000000000E+00 0.  1.
          2   -1    0    0  501    0  0.00000000000E+00 -0.00000000000E+00 -0.18121778895E+04  0.18121778895E+04  0.00000000000E+00 0. -1.
          5    1    1    2  502    0 -0.18848027096E+02 -0.79202435976E+00 -0.85130096668E+03  0.85152293058E+03  0.47000000000E+01 0.  1.
         -5    1    1    2    0  502 -0.13010396813E+03  0.26586345584E+02 -0.74163045276E+03  0.75343990786E+03  0.47000000000E+01 0.  1.
        -11    1    1    2    0    0  0.77013662163E+02 -0.23236786915E+02 -0.14950492336E+03  0.16977271434E+03  0.00000000000E+00 0. -1.
         11    1    1    2    0    0  0.71938333058E+02 -0.25575343090E+01 -0.29420095213E+02  0.77763788149E+02  0.00000000000E+00 0.  1.
<mgrwt>
<rscale>  0 0.54062794E+03</rscale>
<asrwt>0</asrwt>
<pdfrwt beam="2">  1        2 0.27879660E+00 0.54062794E+03</pdfrwt>
<pdfrwt beam="1">  1       -2 0.62033001E-02 0.54062794E+03</pdfrwt>
<totfact> 0.12882898E+03</totfact>
</mgrwt>
</event>
<event>
 6    1  0.6101889E-006  0.1368216E+03  0.7546771E-02  0.1229903E+00
         -1   -1    0    0    0  501 -0.00000000000E+00  0.00000000000E+00  0.16226851409E+02  0.16226851409E+02  0.00000000000E+00 0.  1.
          1   -1    0    0  501    0  0.00000000000E+00 -0.00000000000E+00 -0.91117657746E+03  0.91117657746E+03  0.00000000000E+00 0. -1.
          5    1    1    2  502    0 -0.29468673481E+02  0.12274200327E+02 -0.30849767083E+02  0.44641425151E+02  0.47000000000E+01 0.  1.
         -5    1    1    2    0  502  0.42966132966E+02  0.41694932614E+02 -0.49850963969E+03  0.50211403769E+03  0.47000000000E+01 0.  1.
        -11    1    1    2    0    0 -0.39182827534E+02 -0.42802400754E+02 -0.33143982021E+03  0.33648134258E+03  0.00000000000E+00 0. -1.
         11    1    1    2    0    0  0.25685368050E+02 -0.11166732187E+02 -0.34150499069E+02  0.44166623442E+02  0.00000000000E+00 0.  1.
<mgrwt>
<rscale>  0 0.12836463E+03</rscale>
<asrwt>0</asrwt>
<pdfrwt beam="2">  1        1 0.14018104E+00 0.13682162E+03</pdfrwt>
<pdfrwt beam="1">  1       -1 0.24964381E-02 0.13682162E+03</pdfrwt>
<totfact> 0.89379705E+03</totfact>
</mgrwt>
</event>
<event>
 6    1  0.6101889E-006  0.1688393E+03  0.7546771E-02  0.1185216E+00
          1   -1    0    0  501    0  0.00000000000E+00  0.00000000000E+00  0.36141235150E+03  0.36141235150E+03  0.00000000000E+00 0. -1.
         -1   -1    0    0    0  501 -0.00000000000E+00 -0.00000000000E+00 -0.74021029855E+02  0.74021029855E+02  0.00000000000E+00 0.  1.
          5    1    1    2  502    0 -0.68175750131E+02  0.51411130433E+02  0.95883502470E+02  0.12847868805E+03  0.47000000000E+01 0. -1.
         -5    1    1    2    0  502  0.55414620811E+02  0.61366631541E+02  0.11332368183E+03  0.14036021705E+03  0.47000000000E+01 0. -1.
        -11    1    1    2    0    0 -0.14217865747E+02 -0.68537569151E+02 -0.32498639153E+01  0.70072160713E+02  0.00000000000E+00 0.  1.
         11    1    1    2    0    0  0.26978995066E+02 -0.44240192824E+02  0.81434001264E+02  0.96522315542E+02  0.00000000000E+00 0. -1.
<mgrwt>
<rscale>  0 0.16312282E+03</rscale>
<asrwt>0</asrwt>
<pdfrwt beam="1">  1        1 0.55601900E-01 0.16883931E+03</pdfrwt>
<pdfrwt beam="2">  1       -1 0.11387851E-01 0.16883931E+03</pdfrwt>
<totfact> 0.33593250E+03</totfact>
</mgrwt>
</event>
<event>
 6    1  0.6101889E-006  0.1956075E+03  0.7546771E-02  0.1158171E+00
          1   -1    0    0  501    0  0.00000000000E+00  0.00000000000E+00  0.24272043053E+03  0.24272043053E+03  0.00000000000E+00 0.  1.
         -1   -1    0    0    0  501 -0.00000000000E+00 -0.00000000000E+00 -0.23716089627E+03  0.23716089627E+03  0.00000000000E+00 0. -1.
          5    1    1    2  502    0  0.48584313425E+02  0.90413133062E+02  0.18476162065E+02  0.10439553968E+03  0.47000000000E+01 0. -1.
         -5    1    1    2    0  502  0.34691617905E+02  0.34876297202E+02  0.13648223259E+03  0.14515286518E+03  0.47000000000E+01 0. -1.
        -11    1    1    2    0    0 -0.59107492344E+02 -0.97156142537E+02 -0.15560033060E+03  0.19272901849E+03  0.00000000000E+00 0. -1.
         11    1    1    2    0    0 -0.24168438986E+02 -0.28133287727E+02  0.62014702094E+01  0.37603903442E+02  0.00000000000E+00 0.  1.
<mgrwt>
<rscale>  0 0.19032253E+03</rscale>
<asrwt>0</asrwt>
<pdfrwt beam="1">  1        1 0.37341604E-01 0.19560752E+03</pdfrwt>
<pdfrwt beam="2">  1       -1 0.36486292E-01 0.19560752E+03</pdfrwt>
<totfact> 0.83338909E+02</totfact>
</mgrwt>
</event>
<event>
 6    1  0.6101889E-006  0.1912565E+03  0.7546771E-02  0.1162280E+00
          1   -1    0    0  501    0  0.00000000000E+00  0.00000000000E+00  0.12158923139E+04  0.12158923139E+04  0.00000000000E+00 0. -1.
         -1   -1    0    0    0  501 -0.00000000000E+00 -0.00000000000E+00 -0.28654662847E+02  0.28654662847E+02  0.00000000000E+00 0.  1.
          5    1    1    2  502    0  0.35898895805E+02  0.50113621422E+02  0.61607385402E+03  0.61916814306E+03  0.47000000000E+01 0. -1.
         -5    1    1    2    0  502  0.53292885778E+02  0.63898075427E+02  0.16337901394E+03  0.18340634644E+03  0.47000000000E+01 0. -1.
        -11    1    1    2    0    0 -0.72705525116E+02 -0.11052620347E+03  0.40343042180E+03  0.42456829871E+03  0.00000000000E+00 0.  1.
         11    1    1    2    0    0 -0.16486256468E+02 -0.34854933787E+01  0.43543612907E+01  0.17404188538E+02  0.00000000000E+00 0. -1.
<mgrwt>
<rscale>  0 0.18582653E+03</rscale>
<asrwt>0</asrwt>
<pdfrwt beam="1">  1        1 0.18706032E+00 0.19125647E+03</pdfrwt>
<pdfrwt beam="2">  1       -1 0.44084106E-02 0.19125647E+03</pdfrwt>
<totfact> 0.23657226E+03</totfact>
</mgrwt>
</event>
<event>
 6    1  0.6101889E-006  0.1684034E+03  0.7546771E-02  0.1186457E+00
         -1   -1    0    0    0  501 -0.00000000000E+00  0.00000000000E+00  0.49679210489E+02  0.49679210489E+02  0.00000000000E+00 0.  1.
          1   -1    0    0  501    0  0.00000000000E+00 -0.00000000000E+00 -0.49265521083E+03  0.49265521083E+03  0.00000000000E+00 0. -1.
          5    1    1    2  502    0 -0.64084920358E+02 -0.75422944975E+02 -0.20304655329E+03  0.22593249091E+03  0.47000000000E+01 0.  1.
         -5    1    1    2    0  502  0.46561298802E+02 -0.36066477268E+02 -0.46815462625E+02  0.75382510369E+02  0.47000000000E+01 0.  1.
        -11    1    1    2    0    0  0.51655314698E+02  0.62092041866E+02 -0.84359423868E+02  0.11679129075E+03  0.00000000000E+00 0.  1.
         11    1    1    2    0    0 -0.34131693142E+02  0.49397380378E+02 -0.10875456056E+03  0.12422812929E+03  0.00000000000E+00 0. -1.
<mgrwt>
<rscale>  0 0.16199967E+03</rscale>
<asrwt>0</asrwt>
<pdfrwt beam="2">  1        1 0.75793112E-01 0.16840339E+03</pdfrwt>
<pdfrwt beam="1">  1       -1 0.76429552E-02 0.16840339E+03</pdfrwt>
<totfact> 0.41568675E+03</totfact>
</mgrwt>
</event>
<event>
 6    1  0.6101889E-006  0.1279348E+03  0.7546771E-02  0.1245610E+00
          3   -1    0    0  501    0  0.00000000000E+00  0.00000000000E+00  0.10365768929E+04  0.10365768929E+04  0.00000000000E+00 0. -1.
         -3   -1    0    0    0  501 -0.00000000000E+00 -0.00000000000E+00 -0.13586607126E+02  0.13586607126E+02  0.00000000000E+00 0.  1.
          5    1    1    2  502    0  0.52954691684E+02 -0.27358689945E+02  0.21983687725E+03  0.22782238671E+03  0.47000000000E+01 0.  1.
         -5    1    1    2    0  502 -0.53664242134E+02  0.13228433067E+00  0.54327118110E+03  0.54593546743E+03  0.47000000000E+01 0.  1.
        -11    1    1    2    0    0  0.29154071372E+01 -0.32712539349E+02  0.11502789546E+03  0.11962452326E+03  0.00000000000E+00 0. -1.
         11    1    1    2    0    0 -0.22058566870E+01  0.59938944963E+02  0.14485433200E+03  0.15678112267E+03  0.00000000000E+00 0.  1.
<mgrwt>
<rscale>  0 0.11848918E+03</rscale>
<asrwt>0</asrwt>
<pdfrwt beam="1">  1        3 0.15947331E+00 0.12793478E+03</pdfrwt>
<pdfrwt beam="2">  1       -3 0.20902481E-02 0.12793478E+03</pdfrwt>
<totfact> 0.60435838E+02</totfact>
</mgrwt>
</event>
<event>
 6    1  0.6101889E-006  0.1271275E+03  0.7546771E-02  0.1250057E+00
          2   -1    0    0  501    0  0.00000000000E+00  0.00000000000E+00  0.56885295544E+03  0.56885295544E+03  0.00000000000E+00 0. -1.
         -2   -1    0    0    0  501 -0.00000000000E+00 -0.00000000000E+00 -0.27157988567E+02  0.27157988567E+02  0.00000000000E+00 0.  1.
          5    1    1    2  502    0  0.11828758069E+02  0.11692228233E+02  0.79674397094E+00  0.17301806827E+02  0.47000000000E+01 0. -1.
         -5    1    1    2    0  502 -0.27560712689E+02  0.53195033300E+01  0.45507091783E+03  0.45595999853E+03  0.47000000000E+01 0. -1.
        -11    1    1    2    0    0  0.39752841007E+02 -0.38620065920E+02  0.52891796375E+02  0.76611617811E+02  0.00000000000E+00 0. -1.
         11    1    1    2    0    0 -0.24020886387E+02  0.21608334357E+02  0.32935508693E+02  0.46137520841E+02  0.00000000000E+00 0.  1.
<mgrwt>
<rscale>  0 0.11587728E+03</rscale>
<asrwt>0</asrwt>
<pdfrwt beam="1">  1        2 0.87515831E-01 0.12712754E+03</pdfrwt>
<pdfrwt beam="2">  1       -2 0.41781525E-02 0.12712754E+03</pdfrwt>
<totfact> 0.13057098E+04</totfact>
</mgrwt>
</event>
<event>
 6    1  0.6101889E-006  0.3211868E+03  0.7546771E-02  0.1075104E+00
          2   -1    0    0  501    0  0.00000000000E+00  0.00000000000E+00  0.92960789651E+03  0.92960789651E+03  0.00000000000E+00 0. -1.
         -2   -1    0    0    0  501 -0.00000000000E+00 -0.00000000000E+00 -0.27743130453E+02  0.27743130453E+02  0.00000000000E+00 0.  1.
          5    1    1    2  502    0 -0.19788566639E+02 -0.97427096464E+02  0.69412361351E+03  0.70122272305E+03  0.47000000000E+01 0.  1.
         -5    1    1    2    0  502  0.21904444664E+02  0.11378780085E+02  0.32496126562E+02  0.41077604285E+02  0.47000000000E+01 0.  1.
        -11    1    1    2    0    0  0.29715272676E+02  0.20138372861E+02  0.15044936405E+02  0.38921736898E+02  0.00000000000E+00 0.  1.
         11    1    1    2    0    0 -0.31831150701E+02  0.65909943517E+02  0.16020008958E+03  0.17612896272E+03  0.00000000000E+00 0. -1.
<mgrwt>
<rscale>  0 0.32118676E+03</rscale>
<asrwt>0</asrwt>
<pdfrwt beam="1">  1        2 0.14301658E+00 0.32118676E+03</pdfrwt>
<pdfrwt beam="2">  1       -2 0.42681746E-02 0.32118676E+03</pdfrwt>
<totfact> 0.72616217E+03</totfact>
</mgrwt>
</event>
<event>
 6    1  0.6101889E-006  0.5273428E+03  0.7546771E-02  0.1006879E+00
         -2   -1    0    0    0  501 -0.00000000000E+00  0.00000000000E+00  0.34068894448E+02  0.34068894448E+02  0.00000000000E+00 0.  1.
          2   -1    0    0  501    0  0.00000000000E+00 -0.00000000000E+00 -0.20406474277E+04  0.20406474277E+04  0.00000000000E+00 0. -1.
          5    1    1    2  502    0  0.55215795004E+02 -0.46773817021E+02 -0.17961078323E+04  0.17975711417E+04  0.47000000000E+01 0. -1.
         -5    1    1    2    0  502 -0.30939926041E+02  0.15234847725E-01 -0.14848066822E+03  0.15174280243E+03  0.47000000000E+01 0. -1.
        -11    1    1    2    0    0  0.32348598385E+02  0.34011342245E+02 -0.11152780121E+02  0.48245079783E+02  0.00000000000E+00 0.  1.
         11    1    1    2    0    0 -0.56624467348E+02  0.12747239928E+02 -0.50837252618E+02  0.77157298307E+02  0.00000000000E+00 0. -1.
<mgrwt>
<rscale>  0 0.52734278E+03</rscale>
<asrwt>0</asrwt>
<pdfrwt beam="2">  1        2 0.31394575E+00 0.52734278E+03</pdfrwt>
<pdfrwt beam="1">  1       -2 0.52413685E-02 0.52734278E+03</pdfrwt>
<totfact> 0.12624387E+03</totfact>
</mgrwt>
</event>
<event>
 6    1  0.6101889E-006  0.3337943E+03  0.7546771E-02  0.1069470E+00
          1   -1    0    0  501    0  0.00000000000E+00  0.00000000000E+00  0.43724030272E+03  0.43724030272E+03  0.00000000000E+00 0. -1.
         -1   -1    0    0    0  501 -0.00000000000E+00 -0.00000000000E+00 -0.63705604939E+02  0.63705604939E+02  0.00000000000E+00 0.  1.
          5    1    1    2  502    0 -0.32693594633E+02  0.11960608912E+02  0.21527967361E+03  0.21812692444E+03  0.47000000000E+01 0.  1.
         -5    1    1    2    0  502  0.28255503828E+02  0.73874496345E+02  0.73530320605E+02  0.10809538730E+03  0.47000000000E+01 0.  1.
        -11    1    1    2    0    0 -0.45259846357E+02  0.29076731938E+01  0.49378267489E+02  0.67045667689E+02  0.00000000000E+00 0. -1.
         11    1    1    2    0    0  0.49697937161E+02 -0.88742778451E+02  0.35346436078E+02  0.10767792823E+03  0.00000000000E+00 0.  1.
<mgrwt>
<rscale>  0 0.33379430E+03</rscale>
<asrwt>0</asrwt>
<pdfrwt beam="1">  1        1 0.67267737E-01 0.33379430E+03</pdfrwt>
<pdfrwt beam="2">  1       -1 0.98008626E-02 0.33379430E+03</pdfrwt>
<totfact> 0.33992711E+03</totfact>
</mgrwt>
</event>
<event>
 6    1  0.6101889E-006  0.2256150E+03  0.7546771E-02  0.1132914E+00
         -1   -1    0    0    0  501 -0.00000000000E+00  0.00000000000E+00  0.10140473733E+03  0.10140473733E+03  0.00000000000E+00 0.  1.
          1   -1    0    0  501    0  0.00000000000E+00 -0.00000000000E+00 -0.48669568356E+03  0.48669568356E+03  0.00000000000E+00 0. -1.
          5    1    1    2  502    0 -0.68046393513E+02 -0.17920206496E+03 -0.24407780263E+03  0.31038646152E+03  0.47000000000E+01 0. -1.
         -5    1    1    2    0  502  0.29532516540E+02 -0.46338311202E+01 -0.17149170733E+02  0.34782552823E+02  0.47000000000E+01 0. -1.
        -11    1    1    2    0    0  0.32546574592E+02  0.72870986963E+02 -0.10220964811E+03  0.12967757102E+03  0.00000000000E+00 0. -1.
         11    1    1    2    0    0  0.59673023823E+01  0.11096490912E+03 -0.21854324766E+02  0.11325383554E+03  0.00000000000E+00 0.  1.
<mgrwt>
<rscale>  0 0.22130508E+03</rscale>
<asrwt>0</asrwt>
<pdfrwt beam="2">  1        1 0.74876261E-01 0.22561497E+03</pdfrwt>
<pdfrwt beam="1">  1       -1 0.15600728E-01 0.22561497E+03</pdfrwt>
<totfact> 0.14097053E+03</totfact>
</mgrwt>
</event>
<event>
 6    1  0.6101889E-006  0.1257321E+03  0.7546771E-02  0.1248718E+00
         -4   -1    0    0    0  501 -0.00000000000E+00  0.00000000000E+00  0.48265133428E+02  0.48265133428E+02  0.00000000000E+00 0.  1.
          4   -1    0    0  501    0  0.00000000000E+00 -0.00000000000E+00 -0.24833416455E+03  0.24833416455E+03  0.00000000000E+00 0. -1.
          5    1    1    2  502    0 -0.62078966861E+01 -0.31349324322E+02  0.13891067835E+02  0.35162051737E+02  0.47000000000E+01 0. -1.
         -5    1    1    2    0  502 -0.74049869989E+01  0.36816430295E+02 -0.13209162491E+03  0.13740658916E+03  0.47000000000E+01 0. -1.
        -11    1    1    2    0    0  0.24659622874E+02  0.38105003212E+02 -0.25942107323E+02  0.52278879124E+02  0.00000000000E+00 0.  1.
         11    1    1    2    0    0 -0.11046739189E+02 -0.43572109185E+02 -0.55926366725E+02  0.71751777962E+02  0.00000000000E+00 0. -1.
<mgrwt>
<rscale>  0 0.11665594E+03</rscale>
<asrwt>0</asrwt>
<pdfrwt beam="2">  1        4 0.38205256E-01 0.12573211E+03</pdfrwt>
<pdfrwt beam="1">  1       -4 0.74254052E-02 0.12573211E+03</pdfrwt>
<totfact> 0.13489700E+03</totfact>
</mgrwt>
</event>
<event>
 6    1  0.6101889E-006  0.1273544E+03  0.7546771E-02  0.1244773E+00
         -2   -1    0    0    0  501 -0.00000000000E+00  0.00000000000E+00  0.22212312853E+02  0.22212312853E+02  0.00000000000E+00 0.  1.
          2   -1    0    0  501    0  0.00000000000E+00 -0.00000000000E+00 -0.65649874179E+03  0.65649874179E+03  0.00000000000E+00 0. -1.
          5    1    1    2  502    0  0.91505090020E+00  0.66481755556E+02 -0.33328054901E+03  0.33988038409E+03  0.47000000000E+01 0. -1.
         -5    1    1    2    0  502  0.18407613930E+02 -0.51597217718E+02 -0.14529947813E+03  0.15535488879E+03  0.47000000000E+01 0. -1.
        -11    1    1    2    0    0  0.28205300758E+01 -0.41651235648E+02 -0.13860581496E+03  0.14475618385E+03  0.00000000000E+00 0. -1.
         11    1    1    2    0    0 -0.22143194906E+02  0.26766697810E+02 -0.17100586829E+02  0.38719597908E+02  0.00000000000E+00 0.  1.
<mgrwt>
<rscale>  0 0.11898995E+03</rscale>
<asrwt>0</asrwt>
<pdfrwt beam="2">  1        2 0.10099980E+00 0.12735436E+03</pdfrwt>
<pdfrwt beam="1">  1       -2 0.34172790E-02 0.12735436E+03</pdfrwt>
<totfact> 0.14932965E+04</totfact>
</mgrwt>
</event>
<event>
 6    1  0.6101889E-006  0.1268400E+03  0.7546771E-02  0.1248852E+00
          3   -1    0    0  501    0  0.00000000000E+00  0.00000000000E+00  0.35843532798E+02  0.35843532798E+02  0.00000000000E+00 0. -1.
         -3   -1    0    0    0  501 -0.00000000000E+00 -0.00000000000E+00 -0.35586974855E+03  0.35586974855E+03  0.00000000000E+00 0.  1.
          5    1    1    2  502    0  0.53739255146E+02  0.15749617341E+02 -0.12619586007E+03  0.13814283582E+03  0.47000000000E+01 0.  1.
         -5    1    1    2    0  502 -0.44244108069E+02  0.35275388616E+01 -0.59520992118E+01  0.45027792687E+02  0.47000000000E+01 0.  1.
        -11    1    1    2    0    0 -0.55055500600E+01 -0.52865517368E+02 -0.85033681602E+02  0.10027861694E+03  0.00000000000E+00 0.  1.
         11    1    1    2    0    0 -0.39895970177E+01  0.33588361166E+02 -0.10284457486E+03  0.10826403590E+03  0.00000000000E+00 0. -1.
<mgrwt>
<rscale>  0 0.11657749E+03</rscale>
<asrwt>0</asrwt>
<pdfrwt beam="1">  1        3 0.55143896E-02 0.12684004E+03</pdfrwt>
<pdfrwt beam="2">  1       -3 0.54749192E-01 0.12684004E+03</pdfrwt>
<totfact> 0.14727809E+03</totfact>
</mgrwt>
</event>
<event>
 6    1  0.6101889E-006  0.1265520E+03  0.7546771E-02  0.1248791E+00
          2   -1    0    0  501    0  0.00000000000E+00  0.00000000000E+00  0.23190390675E+03  0.23190390675E+03  0.00000000000E+00 0. -1.
         -2   -1    0    0    0  501 -0.00000000000E+00 -0.00000000000E+00 -0.60581666261E+02  0.60581666261E+02  0.00000000000E+00 0.  1.
          5    1    1    2  502    0  0.24741457690E+02  0.47363910913E+02  0.10612692495E+03  0.11891380906E+03  0.47000000000E+01 0. -1.
         -5    1    1    2    0  502 -0.44467339469E+02 -0.46786777381E+02  0.48363426429E+02  0.80792684280E+02  0.47000000000E+01 0. -1.
        -11    1    1    2    0    0 -0.10856297773E+02 -0.39923142802E+02  0.88797502515E+01  0.42315085927E+02  0.00000000000E+00 0. -1.
         11    1    1    2    0    0  0.30582179552E+02  0.39346009269E+02  0.79521388506E+01  0.50463993737E+02  0.00000000000E+00 0.  1.
<mgrwt>
<rscale>  0 0.11661315E+03</rscale>
<asrwt>0</asrwt>
<pdfrwt beam="1">  1        2 0.35677524E-01 0.12655202E+03</pdfrwt>
<pdfrwt beam="2">  1       -2 0.93202565E-02 0.12655202E+03</pdfrwt>
<totfact> 0.10094078E+04</totfact>
</mgrwt>
</event>
<event>
 6    1  0.6101889E-006  0.1658567E+03  0.7546771E-02  0.1190616E+00
         -1   -1    0    0    0  501 -0.00000000000E+00  0.00000000000E+00  0.25265260253E+02  0.25265260253E+02  0.00000000000E+00 0.  1.
          1   -1    0    0  501    0  0.00000000000E+00 -0.00000000000E+00 -0.99059685539E+03  0.99059685539E+03  0.00000000000E+00 0. -1.
          5    1    1    2  502    0  0.95287236441E+02  0.49441300786E+02 -0.34236314871E+03  0.35882964656E+03  0.47000000000E+01 0. -1.
         -5    1    1    2    0  502 -0.35887033099E+02  0.34707627369E+02 -0.32436602878E+03  0.32821930042E+03  0.47000000000E+01 0.  1.
        -11    1    1    2    0    0 -0.55672224228E+02 -0.48675883595E+02 -0.86809811769E+02  0.11403807090E+03  0.00000000000E+00 0.  1.
         11    1    1    2    0    0 -0.37279791139E+01 -0.35473044560E+02 -0.21179260588E+03  0.21477509777E+03  0.00000000000E+00 0. -1.
<mgrwt>
<rscale>  0 0.15831223E+03</rscale>
<asrwt>0</asrwt>
<pdfrwt beam="2">  1        1 0.15239952E+00 0.16585674E+03</pdfrwt>
<pdfrwt beam="1">  1       -1 0.38869631E-02 0.16585674E+03</pdfrwt>
<totfact> 0.41125527E+03</totfact>
</mgrwt>
</event>
<event>
 6    1  0.6101889E-006  0.1349227E+03  0.7546771E-02  0.1232788E+00
         -2   -1    0    0    0  501 -0.00000000000E+00  0.00000000000E+00  0.30319558318E+02  0.30319558318E+02  0.00000000000E+00 0.  1.
          2   -1    0    0  501    0  0.00000000000E+00 -0.00000000000E+00 -0.51208611332E+03  0.51208611332E+03  0.00000000000E+00 0. -1.
          5    1    1    2  502    0 -0.37548584823E+02 -0.83933113162E+02 -0.22104136133E+03  0.23944944586E+03  0.47000000000E+01 0. -1.
         -5    1    1    2    0  502  0.22825091346E+02  0.35349217592E+02 -0.12429347852E+03  0.13130693349E+03  0.47000000000E+01 0. -1.
        -11    1    1    2    0    0  0.24463420065E+02 -0.15145730707E+02 -0.83228468071E+02  0.88061512463E+02  0.00000000000E+00 0. -1.
         11    1    1    2    0    0 -0.97399265882E+01  0.63729626278E+02 -0.53203247084E+02  0.83587779823E+02  0.00000000000E+00 0.  1.
<mgrwt>
<rscale>  0 0.12647127E+03</rscale>
<asrwt>0</asrwt>
<pdfrwt beam="2">  1        2 0.78782472E-01 0.13492272E+03</pdfrwt>
<pdfrwt beam="1">  1       -2 0.46645479E-02 0.13492272E+03</pdfrwt>
<totfact> 0.12508547E+04</totfact>
</mgrwt>
</event>
<event>
 6    1  0.6101889E-006  0.1123701E+03  0.7546771E-02  0.1265596E+00
         -1   -1    0    0    0  501 -0.00000000000E+00  0.00000000000E+00  0.52832397246E+02  0.52832397246E+02  0.00000000000E+00 0.  1.
          1   -1    0    0  501    0  0.00000000000E+00 -0.00000000000E+00 -0.25443876807E+03  0.25443876807E+03  0.00000000000E+00 0. -1.
          5    1    1    2  502    0  0.11445628820E+01  0.63077347804E+02 -0.82116985375E+02  0.10365978544E+03  0.47000000000E+01 0. -1.
         -5    1    1    2    0  502 -0.33427300029E+01 -0.46719063567E+02 -0.96398578071E+02  0.10727823917E+03  0.47000000000E+01 0.  1.
        -11    1    1    2    0    0 -0.14525887863E+02 -0.51108965911E+02 -0.39524700757E+01  0.53279919617E+02  0.00000000000E+00 0.  1.
         11    1    1    2    0    0  0.16724054984E+02  0.34750681674E+02 -0.19138337302E+02  0.43053221094E+02  0.00000000000E+00 0. -1.
<mgrwt>
<rscale>  0 0.10732968E+03</rscale>
<asrwt>0</asrwt>
<pdfrwt beam="2">  1        1 0.39144426E-01 0.11237012E+03</pdfrwt>
<pdfrwt beam="1">  1       -1 0.81280611E-02 0.11237012E+03</pdfrwt>
<totfact> 0.84735667E+03</totfact>
</mgrwt>
</event>
<event>
 6    1  0.6101889E-006  0.1288536E+03  0.7546771E-02  0.1243833E+00
          2   -1    0    0  501    0  0.00000000000E+00  0.00000000000E+00  0.20868605054E+03  0.20868605054E+03  0.00000000000E+00 0. -1.
         -2   -1    0    0    0  501 -0.00000000000E+00 -0.00000000000E+00 -0.71693588163E+02  0.71693588163E+02  0.00000000000E+00 0.  1.
          5    1    1    2  502    0 -0.25550932465E+02  0.40097698392E+02  0.81722469686E+02  0.94664289031E+02  0.47000000000E+01 0.  1.
         -5    1    1    2    0  502  0.21546075746E+02 -0.71148271763E+02  0.50712273632E+02  0.90111789750E+02  0.47000000000E+01 0.  1.
        -11    1    1    2    0    0  0.31987311173E+02  0.56790275679E+00  0.32554516425E+02  0.45643259407E+02  0.00000000000E+00 0. -1.
         11    1    1    2    0    0 -0.27982454454E+02  0.30482670615E+02 -0.27996797365E+02  0.49960300517E+02  0.00000000000E+00 0.  1.
<mgrwt>
<rscale>  0 0.11955488E+03</rscale>
<asrwt>0</asrwt>
<pdfrwt beam="1">  1        2 0.32105546E-01 0.12885355E+03</pdfrwt>
<pdfrwt beam="2">  1       -2 0.11029783E-01 0.12885355E+03</pdfrwt>
<totfact> 0.86871624E+03</totfact>
</mgrwt>
</event>
<event>
 6    1  0.6101889E-006  0.1902146E+03  0.7546771E-02  0.1164163E+00
         -2   -1    0    0    0  501 -0.00000000000E+00  0.00000000000E+00  0.16060105434E+03  0.16060105434E+03  0.00000000000E+00 0.  1.
          2   -1    0    0  501    0  0.00000000000E+00 -0.00000000000E+00 -0.20917042809E+03  0.20917042809E+03  0.00000000000E+00 0. -1.
          5    1    1    2  502    0  0.21617261093E+02  0.24103856440E+02  0.14024127233E+02  0.35595898880E+02  0.47000000000E+01 0.  1.
         -5    1    1    2    0  502 -0.12032086375E+03  0.79865286016E+02 -0.83669856222E+02  0.16696798796E+03  0.47000000000E+01 0.  1.
        -11    1    1    2    0    0  0.52963173043E+02 -0.10764263870E+03  0.16389029688E+02  0.12108111190E+03  0.00000000000E+00 0.  1.
         11    1    1    2    0    0  0.45740429617E+02  0.36734962411E+01  0.46873255461E+01  0.46126483683E+02  0.00000000000E+00 0. -1.
<mgrwt>
<rscale>  0 0.18381352E+03</rscale>
<asrwt>0</asrwt>
<pdfrwt beam="2">  1        2 0.32180066E-01 0.19021462E+03</pdfrwt>
<pdfrwt beam="1">  1       -2 0.24707855E-01 0.19021462E+03</pdfrwt>
<totfact> 0.23191225E+03</totfact>
</mgrwt>
</event>
<event>
 6    1  0.6101889E-006  0.1583194E+03  0.7546771E-02  0.1197987E+00
         -2   -1    0    0    0  501 -0.00000000000E+00  0.00000000000E+00  0.73179492051E+02  0.73179492051E+02  0.00000000000E+00 0.  1.
          2   -1    0    0  501    0  0.00000000000E+00 -0.00000000000E+00 -0.49078160585E+03  0.49078160585E+03  0.00000000000E+00 0. -1.
          5    1    1    2  502    0 -0.46906875525E+00 -0.10507967986E+03 -0.23158537267E+03  0.25435375755E+03  0.47000000000E+01 0.  1.
         -5    1    1    2    0  502  0.46626066975E+02  0.19603261579E+02 -0.16583654192E+03  0.17344199786E+03  0.47000000000E+01 0.  1.
        -11    1    1    2    0    0 -0.33960860298E+02  0.12640054412E+02 -0.45435226212E+02  0.58116011466E+02  0.00000000000E+00 0. -1.
         11    1    1    2    0    0 -0.12196137921E+02  0.72836363873E+02  0.25255027012E+02  0.78049331014E+02  0.00000000000E+00 0.  1.
<mgrwt>
<rscale>  0 0.15204130E+03</rscale>
<asrwt>0</asrwt>
<pdfrwt beam="2">  1        2 0.75504859E-01 0.15831939E+03</pdfrwt>
<pdfrwt beam="1">  1       -2 0.11258384E-01 0.15831939E+03</pdfrwt>
<totfact> 0.34071969E+03</totfact>
</mgrwt>
</event>
<event>
 6    1  0.6101889E-006  0.1319330E+03  0.7546771E-02  0.1238406E+00
         -2   -1    0    0    0  501 -0.00000000000E+00  0.00000000000E+00  0.35676599948E+02  0.35676599948E+02  0.00000000000E+00 0.  1.
          2   -1    0    0  501    0  0.00000000000E+00 -0.00000000000E+00 -0.57387178585E+03  0.57387178585E+03  0.00000000000E+00 0. -1.
          5    1    1    2  502    0 -0.72425633455E+02  0.13856853587E+02 -0.15749378964E+03  0.17396513601E+03  0.47000000000E+01 0. -1.
         -5    1    1    2    0  502  0.31088151278E+02 -0.53165444459E+01 -0.31477023637E+03  0.31638130555E+03  0.47000000000E+01 0. -1.
        -11    1    1    2    0    0  0.29163666018E+02 -0.37182150956E+02 -0.10771333006E+01  0.47267240045E+02  0.00000000000E+00 0.  1.
         11    1    1    2    0    0  0.12173816158E+02  0.28641841814E+02 -0.64854026588E+02  0.71934704191E+02  0.00000000000E+00 0. -1.
<mgrwt>
<rscale>  0 0.12288865E+03</rscale>
<asrwt>0</asrwt>
<pdfrwt beam="2">  1        2 0.88287959E-01 0.13193302E+03</pdfrwt>
<pdfrwt beam="1">  1       -2 0.54887082E-02 0.13193302E+03</pdfrwt>
<totfact> 0.86171719E+03</totfact>
</mgrwt>
</event>
<event>
 6    1  0.6101889E-006  0.3250652E+03  0.7546771E-02  0.1117846E+00
          1   -1    0    0  501    0  0.00000000000E+00  0.00000000000E+00  0.70843877345E+03  0.70843877345E+03  0.00000000000E+00 0. -1.
         -1   -1    0    0    0  501 -0.00000000000E+00 -0.00000000000E+00 -0.91656869425E+02  0.91656869425E+02  0.00000000000E+00 0.  1.
          5    1    1    2  502    0  0.70464076817E+02  0.15756886522E+03  0.45227252190E+03  0.48411326926E+03  0.47000000000E+01 0. -1.
         -5    1    1    2    0  502 -0.55443274797E+02 -0.12379556882E+03  0.16616252898E+03  0.21454923821E+03  0.47000000000E+01 0.  1.
        -11    1    1    2    0    0  0.13648164339E+02 -0.49968474431E+02 -0.28344231147E+02  0.59046729512E+02  0.00000000000E+00 0.  1.
         11    1    1    2    0    0 -0.28668966360E+02  0.16195178029E+02  0.26691084291E+02  0.42386405889E+02  0.00000000000E+00 0. -1.
<mgrwt>
<rscale>  0 0.24294525E+03</rscale>
<asrwt>0</asrwt>
<pdfrwt beam="1">  1        1 0.10899058E+00 0.32506520E+03</pdfrwt>
<pdfrwt beam="2">  1       -1 0.14101057E-01 0.32506520E+03</pdfrwt>
<totfact> 0.98357193E+02</totfact>
</mgrwt>
</event>
<event>
 6    1  0.6101889E-006  0.1351303E+03  0.7546771E-02  0.1233077E+00
          3   -1    0    0  501    0  0.00000000000E+00  0.00000000000E+00  0.35565867293E+03  0.35565867293E+03  0.00000000000E+00 0. -1.
         -3   -1    0    0    0  501 -0.00000000000E+00 -0.00000000000E+00 -0.72563266186E+02  0.72563266186E+02  0.00000000000E+00 0.  1.
          5    1    1    2  502    0 -0.43623426085E+02  0.10470238937E+02  0.22046644062E+03  0.22503371002E+03  0.47000000000E+01 0. -1.
         -5    1    1    2    0  502  0.30072907444E+02  0.58369018580E+02  0.74525305607E+02  0.99435573453E+02  0.47000000000E+01 0.  1.
        -11    1    1    2    0    0  0.27077835312E+02 -0.57508663495E+02 -0.36634664389E+02  0.73365892464E+02  0.00000000000E+00 0.  1.
         11    1    1    2    0    0 -0.13527316671E+02 -0.11330594022E+02  0.24738324901E+02  0.30386763173E+02  0.00000000000E+00 0. -1.
<mgrwt>
<rscale>  0 0.12628327E+03</rscale>
<asrwt>0</asrwt>
<pdfrwt beam="1">  1        3 0.54716718E-01 0.13513025E+03</pdfrwt>
<pdfrwt beam="2">  1       -3 0.11163580E-01 0.13513025E+03</pdfrwt>
<totfact> 0.47391926E+02</totfact>
</mgrwt>
</event>
<event>
 6    1  0.6101889E-006  0.1640720E+03  0.7546771E-02  0.1194978E+00
         -1   -1    0    0    0  501 -0.00000000000E+00  0.00000000000E+00  0.12663287691E+03  0.12663287691E+03  0.00000000000E+00 0.  1.
          1   -1    0    0  501    0  0.00000000000E+00 -0.00000000000E+00 -0.17327956754E+03  0.17327956754E+03  0.00000000000E+00 0. -1.
          5    1    1    2  502    0  0.86563613897E+02 -0.49477025807E+02 -0.72843976529E+02  0.12357010257E+03  0.47000000000E+01 0. -1.
         -5    1    1    2    0  502 -0.30971893318E+02 -0.24046335328E+02  0.25728100605E+02  0.47132892752E+02  0.47000000000E+01 0.  1.
        -11    1    1    2    0    0  0.21720346824E+02  0.23163617701E+02  0.16140353576E+02  0.35620747672E+02  0.00000000000E+00 0. -1.
         11    1    1    2    0    0 -0.77312067403E+02  0.50359743434E+02 -0.15671168285E+02  0.93588701457E+02  0.00000000000E+00 0.  1.
<mgrwt>
<rscale>  0 0.15456054E+03</rscale>
<asrwt>0</asrwt>
<pdfrwt beam="2">  1        1 0.26658395E-01 0.16407196E+03</pdfrwt>
<pdfrwt beam="1">  1       -1 0.19481981E-01 0.16407196E+03</pdfrwt>
<totfact> 0.36055228E+03</totfact>
</mgrwt>
</event>
<event>
 6    1  0.6101889E-006  0.1391465E+03  0.7546771E-02  0.1225600E+00
          2   -1    0    0  501    0  0.00000000000E+00  0.00000000000E+00  0.59195841933E+03  0.59195841933E+03  0.00000000000E+00 0. -1.
         -2   -1    0    0    0  501 -0.00000000000E+00 -0.00000000000E+00 -0.26608714442E+02  0.26608714442E+02  0.00000000000E+00 0.  1.
          5    1    1    2  502    0 -0.64948506556E+02  0.38594008975E+02  0.31838567771E+03  0.32726034866E+03  0.47000000000E+01 0.  1.
         -5    1    1    2    0  502  0.38148180378E+01 -0.37685367378E+02  0.32225715801E+02  0.49953243238E+02  0.47000000000E+01 0.  1.
        -11    1    1    2    0    0  0.24471226039E+02 -0.40765118446E+02  0.55090188686E+02  0.72770630582E+02  0.00000000000E+00 0. -1.
         11    1    1    2    0    0  0.36662462479E+02  0.39856476850E+02  0.15964812269E+03  0.16858291130E+03  0.00000000000E+00 0.  1.
<mgrwt>
<rscale>  0 0.13125837E+03</rscale>
<asrwt>0</asrwt>
<pdfrwt beam="1">  1        2 0.91070517E-01 0.13914649E+03</pdfrwt>
<pdfrwt beam="2">  1       -2 0.40936488E-02 0.13914649E+03</pdfrwt>
<totfact> 0.12954788E+04</totfact>
</mgrwt>
</event>
<event>
 6    1  0.6101889E-006  0.1358764E+03  0.7546771E-02  0.1231327E+00
          1   -1    0    0  501    0  0.00000000000E+00  0.00000000000E+00  0.25821381690E+03  0.25821381690E+03  0.00000000000E+00 0. -1.
         -1   -1    0    0    0  501 -0.00000000000E+00 -0.00000000000E+00 -0.58562018185E+02  0.58562018185E+02  0.00000000000E+00 0.  1.
          5    1    1    2  502    0 -0.67828342948E+02  0.50151099737E+02  0.13517678599E+03  0.15940724696E+03  0.47000000000E+01 0. -1.
         -5    1    1    2    0  502  0.36282779757E+02 -0.72207114611E+01  0.83113195162E+01  0.38206633102E+02  0.47000000000E+01 0. -1.
        -11    1    1    2    0    0  0.13846650536E+02  0.16842108250E+02 -0.13527308399E+02  0.25658807725E+02  0.00000000000E+00 0.  1.
         11    1    1    2    0    0  0.17698912656E+02 -0.59772496526E+02  0.69691001605E+02  0.93503147299E+02  0.00000000000E+00 0. -1.
<mgrwt>
<rscale>  0 0.12742507E+03</rscale>
<asrwt>0</asrwt>
<pdfrwt beam="1">  1        1 0.39725202E-01 0.13587645E+03</pdfrwt>
<pdfrwt beam="2">  1       -1 0.90095414E-02 0.13587645E+03</pdfrwt>
<totfact> 0.72221364E+03</totfact>
</mgrwt>
</event>
<event>
 6    1  0.6101889E-006  0.1255275E+03  0.7546771E-02  0.1238586E+00
          4   -1    0    0  501    0  0.00000000000E+00  0.00000000000E+00  0.47611353186E+03  0.47611353186E+03  0.00000000000E+00 0. -1.
         -4   -1    0    0    0  501 -0.00000000000E+00 -0.00000000000E+00 -0.31064265382E+02  0.31064265382E+02  0.00000000000E+00 0.  1.
          5    1    1    2  502    0  0.29881374803E+02 -0.28751638399E+02  0.23905869495E+03  0.24267406722E+03  0.47000000000E+01 0.  1.
         -5    1    1    2    0  502 -0.39636285345E+02  0.22522185473E+02  0.31574066568E+02  0.55653352407E+02  0.47000000000E+01 0.  1.
        -11    1    1    2    0    0  0.34946088011E+02  0.39905318798E+02  0.15242740941E+03  0.16139324234E+03  0.00000000000E+00 0.  1.
         11    1    1    2    0    0 -0.25191177469E+02 -0.33675865873E+02  0.21989095547E+02  0.47457135265E+02  0.00000000000E+00 0. -1.
<mgrwt>
<rscale>  0 0.12277646E+03</rscale>
<asrwt>0</asrwt>
<pdfrwt beam="1">  1        4 0.73248231E-01 0.12552752E+03</pdfrwt>
<pdfrwt beam="2">  1       -4 0.47791181E-02 0.12552752E+03</pdfrwt>
<totfact> 0.72324889E+02</totfact>
</mgrwt>
</event>
<event>
 6    1  0.6101889E-006  0.1271699E+03  0.7546771E-02  0.1246006E+00
          2   -1    0    0  501    0  0.00000000000E+00  0.00000000000E+00  0.16811820313E+03  0.16811820313E+03  0.00000000000E+00 0. -1.
         -2   -1    0    0    0  501 -0.00000000000E+00 -0.00000000000E+00 -0.21210515968E+03  0.21210515968E+03  0.00000000000E+00 0.  1.
          5    1    1    2  502    0 -0.20194927306E+02  0.78143723123E+01  0.14249193367E+03  0.14420450986E+03  0.47000000000E+01 0. -1.
         -5    1    1    2    0  502  0.16928280236E+02 -0.30945093338E+02 -0.12434199304E+02  0.37694360132E+02  0.47000000000E+01 0. -1.
        -11    1    1    2    0    0 -0.24593497058E+02  0.16054245763E+02 -0.88881335156E+01  0.30685140083E+02  0.00000000000E+00 0. -1.
         11    1    1    2    0    0  0.27860144127E+02  0.70764752627E+01 -0.16515655740E+03  0.16763935274E+03  0.00000000000E+00 0.  1.
<mgrwt>
<rscale>  0 0.11825394E+03</rscale>
<asrwt>0</asrwt>
<pdfrwt beam="1">  1        2 0.25864339E-01 0.12716990E+03</pdfrwt>
<pdfrwt beam="2">  1       -2 0.32631563E-01 0.12716990E+03</pdfrwt>
<totfact> 0.17628500E+03</totfact>
</mgrwt>
</event>
<event>
 6    1  0.6101889E-006  0.1480375E+03  0.7546771E-02  0.1216158E+00
          2   -1    0    0  501    0  0.00000000000E+00  0.00000000000E+00  0.59335847116E+03  0.59335847116E+03  0.00000000000E+00 0. -1.
         -2   -1    0    0    0  501 -0.00000000000E+00 -0.00000000000E+00 -0.38350367579E+02  0.38350367579E+02  0.00000000000E+00 0.  1.
          5    1    1    2  502    0 -0.26770798540E+02  0.14195097888E+02  0.28934968213E+03  0.29096993832E+03  0.47000000000E+01 0. -1.
         -5    1    1    2    0  502  0.87900983789E+02 -0.15714085270E+02  0.17686791370E+03  0.19818643829E+03  0.47000000000E+01 0.  1.
        -11    1    1    2    0    0 -0.60143852225E+02  0.39257409495E+02  0.45085619640E+02  0.84800591148E+02  0.00000000000E+00 0.  1.
         11    1    1    2    0    0 -0.98633302460E+00 -0.37738422112E+02  0.43704888111E+02  0.57751870975E+02  0.00000000000E+00 0. -1.
<mgrwt>
<rscale>  0 0.13791780E+03</rscale>
<asrwt>0</asrwt>
<pdfrwt beam="1">  1        2 0.91285912E-01 0.14803754E+03</pdfrwt>
<pdfrwt beam="2">  1       -2 0.59000570E-02 0.14803754E+03</pdfrwt>
<totfact> 0.74896342E+03</totfact>
</mgrwt>
</event>
<event>
 6    1  0.6101889E-006  0.1618023E+03  0.7546771E-02  0.1194721E+00
         -1   -1    0    0    0  501 -0.00000000000E+00  0.00000000000E+00  0.22003659361E+02  0.22003659361E+02  0.00000000000E+00 0.  1.
          1   -1    0    0  501    0  0.00000000000E+00 -0.00000000000E+00 -0.10154306328E+04  0.10154306328E+04  0.00000000000E+00 0. -1.
          5    1    1    2  502    0  0.80294519418E+02  0.33371795648E+01 -0.20309224702E+03  0.21846486541E+03  0.47000000000E+01 0.  1.
         -5    1    1    2    0  502 -0.79502341308E+01  0.69609408682E+02 -0.39159734520E+03  0.39784324397E+03  0.47000000000E+01 0.  1.
        -11    1    1    2    0    0  0.51514670340E+01 -0.10516429187E+02 -0.17310827501E+01  0.11837632489E+02  0.00000000000E+00 0.  1.
         11    1    1    2    0    0 -0.77495752321E+02 -0.62430159059E+02 -0.39700629847E+03  0.40928855031E+03  0.00000000000E+00 0. -1.
<mgrwt>
<rscale>  0 0.15477828E+03</rscale>
<asrwt>0</asrwt>
<pdfrwt beam="2">  1        1 0.15622004E+00 0.16180227E+03</pdfrwt>
<pdfrwt beam="1">  1       -1 0.33851797E-02 0.16180227E+03</pdfrwt>
<totfact> 0.48280806E+03</totfact>
</mgrwt>
</event>
<event>
 6    1  0.6101889E-006  0.3301483E+03  0.7546771E-02  0.1071071E+00
          2   -1    0    0  501    0  0.00000000000E+00  0.00000000000E+00  0.35089848003E+03  0.35089848003E+03  0.00000000000E+00 0. -1.
         -2   -1    0    0    0  501 -0.00000000000E+00 -0.00000000000E+00 -0.77656306540E+02  0.77656306540E+02  0.00000000000E+00 0.  1.
          5    1    1    2  502    0  0.22344126103E+02  0.16860223022E+02  0.12000317750E+02  0.30815981532E+02  0.47000000000E+01 0. -1.
         -5    1    1    2    0  502 -0.31623184181E+02 -0.98719000285E+02  0.25475234218E+03  0.27507510363E+03  0.47000000000E+01 0. -1.
        -11    1    1    2    0    0 -0.39850549748E+02  0.34472500229E+02 -0.67848132603E+01  0.53126766119E+02  0.00000000000E+00 0. -1.
         11    1    1    2    0    0  0.49129607826E+02  0.47386277034E+02  0.13274326826E+02  0.69536935286E+02  0.00000000000E+00 0.  1.
<mgrwt>
<rscale>  0 0.33014833E+03</rscale>
<asrwt>0</asrwt>
<pdfrwt beam="1">  1        2 0.53984380E-01 0.33014833E+03</pdfrwt>
<pdfrwt beam="2">  1       -2 0.11947124E-01 0.33014833E+03</pdfrwt>
<totfact> 0.45961772E+03</totfact>
</mgrwt>
</event>
<event>
 6    1  0.6101889E-006  0.1369334E+03  0.7546771E-02  0.1228110E+00
         -2   -1    0    0    0  501 -0.00000000000E+00  0.00000000000E+00  0.22846583506E+02  0.22846583506E+02  0.00000000000E+00 0.  1.
          2   -1    0    0  501    0  0.00000000000E+00 -0.00000000000E+00 -0.71132043234E+03  0.71132043234E+03  0.00000000000E+00 0. -1.
          5    1    1    2  502    0 -0.27171179028E+02 -0.56788023312E+02 -0.25994131827E+03  0.26749716168E+03  0.47000000000E+01 0. -1.
         -5    1    1    2    0  502 -0.27934127711E+02  0.66251811841E+02 -0.21212655326E+03  0.22402987002E+03  0.47000000000E+01 0. -1.
        -11    1    1    2    0    0  0.10914615977E+02 -0.21357650992E+02 -0.27548446884E+01  0.24142644161E+02  0.00000000000E+00 0.  1.
         11    1    1    2    0    0  0.44190690761E+02  0.11893862463E+02 -0.21365113262E+03  0.21849734000E+03  0.00000000000E+00 0. -1.
<mgrwt>
<rscale>  0 0.12956034E+03</rscale>
<asrwt>0</asrwt>
<pdfrwt beam="2">  1        2 0.10943390E+00 0.13693337E+03</pdfrwt>
<pdfrwt beam="1">  1       -2 0.35148596E-02 0.13693337E+03</pdfrwt>
<totfact> 0.13103481E+04</totfact>
</mgrwt>
</event>
<event>
 6    1  0.6101889E-006  0.2098316E+03  0.7546771E-02  0.1145789E+00
         -1   -1    0    0    0  501 -0.00000000000E+00  0.00000000000E+00  0.33844682992E+02  0.33844682992E+02  0.00000000000E+00 0.  1.
          1   -1    0    0  501    0  0.00000000000E+00 -0.00000000000E+00 -0.12597606448E+04  0.12597606448E+04  0.00000000000E+00 0. -1.
          5    1    1    2  502    0 -0.78407479454E+02 -0.78797847527E+02 -0.25373614499E+03  0.27705767429E+03  0.47000000000E+01 0.  1.
         -5    1    1    2    0  502 -0.61849962766E+02 -0.14661981006E+02 -0.54754536316E+03  0.55124260203E+03  0.47000000000E+01 0.  1.
        -11    1    1    2    0    0  0.12031452872E+03  0.42701681900E+02 -0.35227876150E+03  0.37469900622E+03  0.00000000000E+00 0. -1.
         11    1    1    2    0    0  0.19942913505E+02  0.50758146633E+02 -0.72355692191E+02  0.90606045279E+02  0.00000000000E+00 0.  1.
<mgrwt>
<rscale>  0 0.20475441E+03</rscale>
<asrwt>0</asrwt>
<pdfrwt beam="2">  1        1 0.19380929E+00 0.20983158E+03</pdfrwt>
<pdfrwt beam="1">  1       -1 0.52068753E-02 0.20983158E+03</pdfrwt>
<totfact> 0.17226746E+03</totfact>
</mgrwt>
</event>
<event>
 6    1  0.6101889E-006  0.1439754E+03  0.7546771E-02  0.1218385E+00
          2   -1    0    0  501    0  0.00000000000E+00  0.00000000000E+00  0.10064844749E+04  0.10064844749E+04  0.00000000000E+00 0. -1.
         -2   -1    0    0    0  501 -0.00000000000E+00 -0.00000000000E+00 -0.29218937234E+02  0.29218937234E+02  0.00000000000E+00 0.  1.
          5    1    1    2  502    0  0.61085890887E+02 -0.15276467170E+02  0.36117904967E+03  0.36665685925E+03  0.47000000000E+01 0.  1.
         -5    1    1    2    0  502 -0.57929679310E+02 -0.56058748022E+02  0.49518113289E+03  0.50172191037E+03  0.47000000000E+01 0.  1.
        -11    1    1    2    0    0  0.39806887189E+02  0.27844831618E+02  0.80576319031E+02  0.94087544894E+02  0.00000000000E+00 0. -1.
         11    1    1    2    0    0 -0.42963098766E+02  0.43490383574E+02  0.40329036104E+02  0.73237097649E+02  0.00000000000E+00 0.  1.
<mgrwt>
<rscale>  0 0.13630789E+03</rscale>
<asrwt>0</asrwt>
<pdfrwt beam="1">  1        2 0.15484374E+00 0.14397543E+03</pdfrwt>
<pdfrwt beam="2">  1       -2 0.44952219E-02 0.14397543E+03</pdfrwt>
<totfact> 0.58471020E+03</totfact>
</mgrwt>
</event>
<event>
 6    1  0.6101889E-006  0.1375579E+03  0.7546771E-02  0.1227724E+00
         -2   -1    0    0    0  501 -0.00000000000E+00  0.00000000000E+00  0.45047153582E+02  0.45047153582E+02  0.00000000000E+00 0.  1.
          2   -1    0    0  501    0  0.00000000000E+00 -0.00000000000E+00 -0.35712617491E+03  0.35712617491E+03  0.00000000000E+00 0. -1.
          5    1    1    2  502    0 -0.23456970705E+02 -0.80266343969E+02 -0.17608931252E+03  0.19499346510E+03  0.47000000000E+01 0.  1.
         -5    1    1    2    0  502  0.39579443024E+02  0.25148229367E+02 -0.43567951468E+02  0.64181166595E+02  0.47000000000E+01 0.  1.
        -11    1    1    2    0    0 -0.43364109963E+02 -0.78263957873E+00 -0.20655162498E+02  0.48038466830E+02  0.00000000000E+00 0. -1.
         11    1    1    2    0    0  0.27241637644E+02  0.55900754180E+02 -0.71766594836E+02  0.94960229959E+02  0.00000000000E+00 0.  1.
<mgrwt>
<rscale>  0 0.12981915E+03</rscale>
<asrwt>0</asrwt>
<pdfrwt beam="2">  1        2 0.54942490E-01 0.13755790E+03</pdfrwt>
<pdfrwt beam="1">  1       -2 0.69303311E-02 0.13755790E+03</pdfrwt>
<totfact> 0.10151353E+04</totfact>
</mgrwt>
</event>
<event>
 6    1  0.6101889E-006  0.2429926E+03  0.7546771E-02  0.1120455E+00
         -2   -1    0    0    0  501 -0.00000000000E+00  0.00000000000E+00  0.14649843757E+03  0.14649843757E+03  0.00000000000E+00 0.  1.
          2   -1    0    0  501    0  0.00000000000E+00 -0.00000000000E+00 -0.38007334923E+03  0.38007334923E+03  0.00000000000E+00 0. -1.
          5    1    1    2  502    0  0.19222599069E+03 -0.75026159874E+02 -0.49658376700E+02  0.21229178161E+03  0.47000000000E+01 0.  1.
         -5    1    1    2    0  502  0.27474131256E+01  0.15045733998E+01 -0.50041169764E+02  0.50358918688E+02  0.47000000000E+01 0.  1.
        -11    1    1    2    0    0 -0.52794402815E+02  0.55573283057E+02 -0.15864028465E+02  0.78277111325E+02  0.00000000000E+00 0.  1.
         11    1    1    2    0    0 -0.14217900100E+03  0.17948303417E+02 -0.11801133673E+03  0.18564397518E+03  0.00000000000E+00 0. -1.
<mgrwt>
<rscale>  0 0.23900906E+03</rscale>
<asrwt>0</asrwt>
<pdfrwt beam="2">  1        2 0.58472821E-01 0.24299257E+03</pdfrwt>
<pdfrwt beam="1">  1       -2 0.22538222E-01 0.24299257E+03</pdfrwt>
<totfact> 0.14384657E+03</totfact>
</mgrwt>
</event>
<event>
 6    1  0.6101889E-006  0.1151615E+03  0.7546771E-02  0.1260582E+00
          1   -1    0    0  501    0  0.00000000000E+00  0.00000000000E+00  0.16066260133E+04  0.16066260133E+04  0.00000000000E+00 0. -1.
         -1   -1    0    0    0  501 -0.00000000000E+00 -0.00000000000E+00 -0.10394196891E+02  0.10394196891E+02  0.00000000000E+00 0.  1.
          5    1    1    2  502    0  0.36768257712E+02  0.33409297590E+02  0.80847196457E+03  0.81001055144E+03  0.47000000000E+01 0. -1.
         -5    1    1    2    0  502 -0.58113239707E+02 -0.12042637084E+02  0.50395485522E+03  0.50745912135E+03  0.47000000000E+01 0.  1.
        -11    1    1    2    0    0  0.25857807838E+01  0.31616118983E+02  0.51030202832E+02  0.60086161825E+02  0.00000000000E+00 0.  1.
         11    1    1    2    0    0  0.18759201211E+02 -0.52982779488E+02  0.23277479383E+03  0.23946437562E+03  0.00000000000E+00 0. -1.
<mgrwt>
<rscale>  0 0.10999349E+03</rscale>
<asrwt>0</asrwt>
<pdfrwt beam="1">  1        1 0.24717304E+00 0.11516154E+03</pdfrwt>
<pdfrwt beam="2">  1       -1 0.15991085E-02 0.11516154E+03</pdfrwt>
<totfact> 0.56553516E+03</totfact>
</mgrwt>
</event>
<event>
 6    1  0.6101889E-006  0.1757854E+03  0.7546771E-02  0.1199311E+00
          2   -1    0    0  501    0  0.00000000000E+00  0.00000000000E+00  0.11133113892E+04  0.11133113892E+04  0.00000000000E+00 0. -1.
         -2   -1    0    0    0  501 -0.00000000000E+00 -0.00000000000E+00 -0.22503616808E+02  0.22503616808E+02  0.00000000000E+00 0.  1.
          5    1    1    2  502    0 -0.26014338329E+02 -0.13354496137E+02  0.88071431654E+03  0.88121216839E+03  0.47000000000E+01 0. -1.
         -5    1    1    2    0  502  0.23861080563E+02  0.41543114574E+02  0.66036352872E+02  0.81719467905E+02  0.47000000000E+01 0.  1.
        -11    1    1    2    0    0  0.27200390451E+02 -0.52012499015E+02  0.10808621067E+03  0.12299508215E+03  0.00000000000E+00 0.  1.
         11    1    1    2    0    0 -0.25047132685E+02  0.23823880578E+02  0.35970892268E+02  0.49888287524E+02  0.00000000000E+00 0. -1.
<mgrwt>
<rscale>  0 0.15094991E+03</rscale>
<asrwt>0</asrwt>
<pdfrwt beam="1">  1        2 0.17127863E+00 0.17578540E+03</pdfrwt>
<pdfrwt beam="2">  1       -2 0.34620958E-02 0.17578540E+03</pdfrwt>
<totfact> 0.75321276E+03</totfact>
</mgrwt>
</event>
<event>
 6    1  0.6101889E-006  0.1453471E+03  0.7546771E-02  0.1216137E+00
          2   -1    0    0  501    0  0.00000000000E+00  0.00000000000E+00  0.11501896557E+04  0.11501896557E+04  0.00000000000E+00 0. -1.
         -2   -1    0    0    0  501 -0.00000000000E+00 -0.00000000000E+00 -0.17303886126E+02  0.17303886126E+02  0.00000000000E+00 0.  1.
          5    1    1    2  502    0  0.27873277192E+02  0.30041385943E+02  0.65755432812E+02  0.77622621671E+02  0.47000000000E+01 0. -1.
         -5    1    1    2    0  502  0.31830297814E+02  0.13957971534E+02  0.76129457023E+03  0.76210203089E+03  0.47000000000E+01 0. -1.
        -11    1    1    2    0    0 -0.56095528218E+02 -0.67171628607E+02  0.27758043806E+03  0.29104919785E+03  0.00000000000E+00 0. -1.
         11    1    1    2    0    0 -0.36080467883E+01  0.23172271130E+02  0.28255328506E+02  0.36719691447E+02  0.00000000000E+00 0.  1.
<mgrwt>
<rscale>  0 0.13793347E+03</rscale>
<asrwt>0</asrwt>
<pdfrwt beam="1">  1        2 0.17695220E+00 0.14534712E+03</pdfrwt>
<pdfrwt beam="2">  1       -2 0.26621372E-02 0.14534712E+03</pdfrwt>
<totfact> 0.10486978E+04</totfact>
</mgrwt>
</event>
<event>
 6    1  0.6101889E-006  0.1259000E+03  0.7546771E-02  0.1247610E+00
          1   -1    0    0  501    0  0.00000000000E+00  0.00000000000E+00  0.17909978507E+03  0.17909978507E+03  0.00000000000E+00 0. -1.
         -1   -1    0    0    0  501 -0.00000000000E+00 -0.00000000000E+00 -0.90237550011E+02  0.90237550011E+02  0.00000000000E+00 0.  1.
          5    1    1    2  502    0 -0.26931076660E+02 -0.19309868842E+02 -0.11296503799E+02  0.35324990062E+02  0.47000000000E+01 0.  1.
         -5    1    1    2    0  502  0.41229026667E+02  0.23956482915E+02  0.12672408014E+03  0.13547999189E+03  0.47000000000E+01 0.  1.
        -11    1    1    2    0    0 -0.26249226421E+02 -0.37426331531E+01 -0.58605177514E+02  0.64324148048E+02  0.00000000000E+00 0.  1.
         11    1    1    2    0    0  0.11951276415E+02 -0.90398091933E+00  0.32039836227E+02  0.34208205082E+02  0.00000000000E+00 0. -1.
<mgrwt>
<rscale>  0 0.11730519E+03</rscale>
<asrwt>0</asrwt>
<pdfrwt beam="1">  1        1 0.27553813E-01 0.12590003E+03</pdfrwt>
<pdfrwt beam="2">  1       -1 0.13882700E-01 0.12590003E+03</pdfrwt>
<totfact> 0.58217017E+03</totfact>
</mgrwt>
</event>
<event>
 6    1  0.6101889E-006  0.1320454E+03  0.7546771E-02  0.1272580E+00
          1   -1    0    0  501    0  0.00000000000E+00  0.00000000000E+00  0.16294427724E+04  0.16294427724E+04  0.00000000000E+00 0. -1.
         -1   -1    0    0    0  501 -0.00000000000E+00 -0.00000000000E+00 -0.79446266568E+01  0.79446266568E+01  0.00000000000E+00 0.  1.
          5    1    1    2  502    0  0.30585028957E+02  0.68721774546E+02  0.88104787936E+03  0.88426556080E+03  0.47000000000E+01 0. -1.
         -5    1    1    2    0  502 -0.84013486849E+01 -0.55785157308E+02  0.61991742454E+03  0.62249680295E+03  0.47000000000E+01 0.  1.
        -11    1    1    2    0    0  0.65721374003E+01  0.91350605260E+01  0.50815033130E+02  0.52046228613E+02  0.00000000000E+00 0. -1.
         11    1    1    2    0    0 -0.28755817672E+02 -0.22071677764E+02  0.69717808705E+02  0.78578806684E+02  0.00000000000E+00 0.  1.
<mgrwt>
<rscale>  0 0.10376094E+03</rscale>
<asrwt>0</asrwt>
<pdfrwt beam="1">  1        1 0.25068324E+00 0.13204536E+03</pdfrwt>
<pdfrwt beam="2">  1       -1 0.12222516E-02 0.13204536E+03</pdfrwt>
<totfact> 0.80716602E+03</totfact>
</mgrwt>
</event>
<event>
 6    1  0.6101889E-006  0.1673173E+03  0.7546771E-02  0.1209102E+00
          1   -1    0    0  501    0  0.00000000000E+00  0.00000000000E+00  0.16756062233E+04  0.16756062233E+04  0.00000000000E+00 0. -1.
         -1   -1    0    0    0  501 -0.00000000000E+00 -0.00000000000E+00 -0.57042811677E+02  0.57042811677E+02  0.00000000000E+00 0.  1.
          5    1    1    2  502    0 -0.72581768770E+02 -0.19615519951E+01  0.12682193840E+04  0.12703048677E+04  0.47000000000E+01 0. -1.
         -5    1    1    2    0  502  0.68319728402E+02  0.83322419183E+01  0.36495484060E+03  0.37141773951E+03  0.47000000000E+01 0.  1.
        -11    1    1    2    0    0  0.80785140797E+01  0.22434952996E+02 -0.43717835950E+02  0.49797978732E+02  0.00000000000E+00 0. -1.
         11    1    1    2    0    0 -0.38164737114E+01 -0.28805642919E+02  0.29107022907E+02  0.41128449012E+02  0.00000000000E+00 0.  1.
<mgrwt>
<rscale>  0 0.14318845E+03</rscale>
<asrwt>0</asrwt>
<pdfrwt beam="1">  1        1 0.25778554E+00 0.16731728E+03</pdfrwt>
<pdfrwt beam="2">  1       -1 0.87758184E-02 0.16731728E+03</pdfrwt>
<totfact> 0.41803542E+02</totfact>
</mgrwt>
</event>
<event>
 6    1  0.6101889E-006  0.1254849E+03  0.7546771E-02  0.1237471E+00
          2   -1    0    0  501    0  0.00000000000E+00  0.00000000000E+00  0.55326586035E+03  0.55326586035E+03  0.00000000000E+00 0. -1.
         -2   -1    0    0    0  501 -0.00000000000E+00 -0.00000000000E+00 -0.30227528068E+02  0.30227528068E+02  0.00000000000E+00 0.  1.
          5    1    1    2  502    0 -0.40018506333E+02 -0.28943808897E+02  0.23520240864E+03  0.24037780254E+03  0.47000000000E+01 0. -1.
         -5    1    1    2    0  502  0.58768503851E+02 -0.16746706988E+01  0.11834677683E+03  0.13222931276E+03  0.47000000000E+01 0.  1.
        -11    1    1    2    0    0  0.50820081029E+02  0.10271565749E+02  0.85001001675E+02  0.99565837437E+02  0.00000000000E+00 0.  1.
         11    1    1    2    0    0 -0.69570078547E+02  0.20346913846E+02  0.84488145136E+02  0.11132043568E+03  0.00000000000E+00 0. -1.
<mgrwt>
<rscale>  0 0.12347576E+03</rscale>
<asrwt>0</asrwt>
<pdfrwt beam="1">  1        2 0.85117817E-01 0.12548486E+03</pdfrwt>
<pdfrwt beam="2">  1       -2 0.46503893E-02 0.12548486E+03</pdfrwt>
<totfact> 0.11471651E+04</totfact>
</mgrwt>
</event>
<event>
 6    1  0.6101889E-006  0.4677489E+03  0.7546771E-02  0.1022557E+00
          1   -1    0    0  501    0  0.00000000000E+00  0.00000000000E+00  0.15807585515E+04  0.15807585515E+04  0.00000000000E+00 0. -1.
         -1   -1    0    0    0  501 -0.00000000000E+00 -0.00000000000E+00 -0.34601910596E+02  0.34601910596E+02  0.00000000000E+00 0.  1.
          5    1    1    2  502    0 -0.32414918637E+02 -0.15796434592E+03  0.11458732365E+04  0.11571737232E+04  0.47000000000E+01 0. -1.
         -5    1    1    2    0  502  0.10842850783E+02  0.15593757348E+02  0.17609452804E+03  0.17717817440E+03  0.47000000000E+01 0.  1.
        -11    1    1    2    0    0  0.45071106224E+02  0.29752298903E+02  0.80534135611E+02  0.96965720257E+02  0.00000000000E+00 0. -1.
         11    1    1    2    0    0 -0.23499038370E+02  0.11261828967E+03  0.14365474076E+03  0.18404284424E+03  0.00000000000E+00 0.  1.
<mgrwt>
<rscale>  0 0.46774893E+03</rscale>
<asrwt>0</asrwt>
<pdfrwt beam="1">  1        1 0.24319357E+00 0.46774893E+03</pdfrwt>
<pdfrwt beam="2">  1       -1 0.53233721E-02 0.46774893E+03</pdfrwt>
<totfact> 0.10016603E+03</totfact>
</mgrwt>
</event>
<event>
 6    1  0.6101889E-006  0.1422889E+03  0.7546771E-02  0.1221214E+00
          2   -1    0    0  501    0  0.00000000000E+00  0.00000000000E+00  0.74798868362E+03  0.74798868362E+03  0.00000000000E+00 0. -1.
         -2   -1    0    0    0  501 -0.00000000000E+00 -0.00000000000E+00 -0.23257904781E+02  0.23257904781E+02  0.00000000000E+00 0.  1.
          5    1    1    2  502    0 -0.25434456965E+02 -0.50067630943E+02  0.12511108133E+03  0.13721717073E+03  0.47000000000E+01 0. -1.
         -5    1    1    2    0  502  0.76431619149E+02  0.51200878017E+01  0.37325660076E+03  0.38106507019E+03  0.47000000000E+01 0. -1.
        -11    1    1    2    0    0 -0.30504835770E+02  0.55613874202E+02  0.22005787409E+03  0.22901728310E+03  0.00000000000E+00 0. -1.
         11    1    1    2    0    0 -0.20492326414E+02 -0.10666331060E+02  0.63052226542E+01  0.23947064390E+02  0.00000000000E+00 0.  1.
<mgrwt>
<rscale>  0 0.13429817E+03</rscale>
<asrwt>0</asrwt>
<pdfrwt beam="1">  1        2 0.11507516E+00 0.14228891E+03</pdfrwt>
<pdfrwt beam="2">  1       -2 0.35781398E-02 0.14228891E+03</pdfrwt>
<totfact> 0.12043169E+04</totfact>
</mgrwt>
</event>
<event>
 6    1  0.6101889E-006  0.3334458E+03  0.7546771E-02  0.1069622E+00
         -2   -1    0    0    0  501 -0.00000000000E+00  0.00000000000E+00  0.78321460460E+02  0.78321460460E+02  0.00000000000E+00 0.  1.
          2   -1    0    0  501    0  0.00000000000E+00 -0.00000000000E+00 -0.35490302507E+03  0.35490302507E+03  0.00000000000E+00 0. -1.
          5    1    1    2  502    0 -0.15323209515E+02  0.18962259949E+02 -0.10611382487E+02  0.27001101653E+02  0.47000000000E+01 0.  1.
         -5    1    1    2    0  502  0.12044078440E+03 -0.87582151500E+02 -0.16831819430E+03  0.22478816770E+03  0.47000000000E+01 0.  1.
        -11    1    1    2    0    0 -0.68542994203E+02 -0.49591858188E+01 -0.29934395464E+02  0.74958679352E+02  0.00000000000E+00 0. -1.
         11    1    1    2    0    0 -0.36574580678E+02  0.73579077370E+02 -0.67717592360E+02  0.10647653682E+03  0.00000000000E+00 0.  1.
<mgrwt>
<rscale>  0 0.33344579E+03</rscale>
<asrwt>0</asrwt>
<pdfrwt beam="2">  1        2 0.54600465E-01 0.33344579E+03</pdfrwt>
<pdfrwt beam="1">  1       -2 0.12049455E-01 0.33344579E+03</pdfrwt>
<totfact> 0.44785593E+03</totfact>
</mgrwt>
</event>
<event>
 6    1  0.6101889E-006  0.1507552E+03  0.7546771E-02  0.1210929E+00
          1   -1    0    0  501    0  0.00000000000E+00  0.00000000000E+00  0.22157360753E+03  0.22157360753E+03  0.00000000000E+00 0. -1.
         -1   -1    0    0    0  501 -0.00000000000E+00 -0.00000000000E+00 -0.10394978456E+03  0.10394978456E+03  0.00000000000E+00 0.  1.
          5    1    1    2  502    0  0.52362145586E+02  0.90054835502E+02  0.14025417489E+03  0.17477125411E+03  0.47000000000E+01 0. -1.
         -5    1    1    2    0  502 -0.18741032557E+02 -0.23873122065E+02 -0.61584326136E+00  0.30718423159E+02  0.47000000000E+01 0.  1.
        -11    1    1    2    0    0 -0.40999509575E+02 -0.42293112590E+02 -0.53675282003E+02  0.79691298496E+02  0.00000000000E+00 0.  1.
         11    1    1    2    0    0  0.73783965462E+01 -0.23888600848E+02  0.31660773343E+02  0.40342416323E+02  0.00000000000E+00 0. -1.
<mgrwt>
<rscale>  0 0.14179885E+03</rscale>
<asrwt>0</asrwt>
<pdfrwt beam="1">  1        1 0.34088247E-01 0.15075524E+03</pdfrwt>
<pdfrwt beam="2">  1       -1 0.15992275E-01 0.15075524E+03</pdfrwt>
<totfact> 0.36171175E+03</totfact>
</mgrwt>
</event>
<event>
 6    1  0.6101889E-006  0.1691190E+03  0.7546771E-02  0.1184946E+00
         -2   -1    0    0    0  501 -0.00000000000E+00  0.00000000000E+00  0.40948803148E+02  0.40948803148E+02  0.00000000000E+00 0.  1.
          2   -1    0    0  501    0  0.00000000000E+00 -0.00000000000E+00 -0.62362967372E+03  0.62362967372E+03  0.00000000000E+00 0. -1.
          5    1    1    2  502    0 -0.61363342205E+02 -0.33495079450E+02 -0.21473984452E+03  0.22588198454E+03  0.47000000000E+01 0. -1.
         -5    1    1    2    0  502  0.45592891771E+02 -0.79340580085E+02 -0.14330178286E+03  0.17009153535E+03  0.47000000000E+01 0. -1.
        -11    1    1    2    0    0  0.50362605901E+02  0.44774037885E+02 -0.76492057018E+02  0.10194185268E+03  0.00000000000E+00 0.  1.
         11    1    1    2    0    0 -0.34592155468E+02  0.68061621650E+02 -0.14814718618E+03  0.16666310429E+03  0.00000000000E+00 0. -1.
<mgrwt>
<rscale>  0 0.16336771E+03</rscale>
<asrwt>0</asrwt>
<pdfrwt beam="2">  1        2 0.95943023E-01 0.16911896E+03</pdfrwt>
<pdfrwt beam="1">  1       -2 0.62998161E-02 0.16911896E+03</pdfrwt>
<totfact> 0.64467654E+03</totfact>
</mgrwt>
</event>
<event>
 6    1  0.6101889E-006  0.1311736E+03  0.7546771E-02  0.1239024E+00
         -1   -1    0    0    0  501 -0.00000000000E+00  0.00000000000E+00  0.27983902736E+03  0.27983902736E+03  0.00000000000E+00 0.  1.
          1   -1    0    0  501    0  0.00000000000E+00 -0.00000000000E+00 -0.54350809734E+02  0.54350809734E+02  0.00000000000E+00 0. -1.
          5    1    1    2  502    0 -0.46862855438E+02  0.53920737705E+02  0.46331003207E+02  0.85277341848E+02  0.47000000000E+01 0.  1.
         -5    1    1    2    0  502  0.72962259168E+01 -0.57949143081E+02  0.21665477217E+02  0.62472561973E+02  0.47000000000E+01 0.  1.
        -11    1    1    2    0    0  0.31337001318E+02 -0.32785087375E+02  0.13524423115E+03  0.14264596617E+03  0.00000000000E+00 0.  1.
         11    1    1    2    0    0  0.82296282029E+01  0.36813492751E+02  0.22247506052E+02  0.43793967101E+02  0.00000000000E+00 0. -1.
<mgrwt>
<rscale>  0 0.12250295E+03</rscale>
<asrwt>0</asrwt>
<pdfrwt beam="2">  1        1 0.83616632E-02 0.13117360E+03</pdfrwt>
<pdfrwt beam="1">  1       -1 0.43052157E-01 0.13117360E+03</pdfrwt>
<totfact> 0.42277975E+03</totfact>
</mgrwt>
</event>
<event>
 6    1  0.6101889E-006  0.1394204E+03  0.7546771E-02  0.1226064E+00
          1   -1    0    0  501    0  0.00000000000E+00  0.00000000000E+00  0.97735837379E+02  0.97735837379E+02  0.00000000000E+00 0. -1.
         -1   -1    0    0    0  501 -0.00000000000E+00 -0.00000000000E+00 -0.16741737783E+03  0.16741737783E+03  0.00000000000E+00 0.  1.
          5    1    1    2  502    0 -0.73310930820E+02 -0.11553938577E+02 -0.43620457167E+02  0.86213806074E+02  0.47000000000E+01 0. -1.
         -5    1    1    2    0  502  0.15935856365E+02  0.34426496653E+02  0.37220487706E+02  0.53353443141E+02  0.47000000000E+01 0. -1.
        -11    1    1    2    0    0  0.38226276052E+02 -0.55946981455E+02 -0.52955930451E+02  0.85997927211E+02  0.00000000000E+00 0.  1.
         11    1    1    2    0    0  0.19148798402E+02  0.33074423378E+02 -0.10325640537E+02  0.39588038782E+02  0.00000000000E+00 0. -1.
<mgrwt>
<rscale>  0 0.13094211E+03</rscale>
<asrwt>0</asrwt>
<pdfrwt beam="1">  1        1 0.15036283E-01 0.13942043E+03</pdfrwt>
<pdfrwt beam="2">  1       -1 0.25756519E-01 0.13942043E+03</pdfrwt>
<totfact> 0.47081163E+03</totfact>
</mgrwt>
</event>
<event>
 6    1  0.6101889E-006  0.2016454E+03  0.7546771E-02  0.1153576E+00
         -2   -1    0    0    0  501 -0.00000000000E+00  0.00000000000E+00  0.71346659375E+02  0.71346659375E+02  0.00000000000E+00 0.  1.
          2   -1    0    0  501    0  0.00000000000E+00 -0.00000000000E+00 -0.53575166370E+03  0.53575166370E+03  0.00000000000E+00 0. -1.
          5    1    1    2  502    0 -0.12891921381E+03  0.49692475479E+02 -0.18663943688E+03  0.23226251356E+03  0.47000000000E+01 0.  1.
         -5    1    1    2    0  502 -0.25954625407E+02 -0.17276785265E+02  0.12743687608E+02  0.34009137933E+02  0.47000000000E+01 0.  1.
        -11    1    1    2    0    0  0.11368541686E+03 -0.49244351430E+02 -0.25639787369E+03  0.28476174214E+03  0.00000000000E+00 0.  1.
         11    1    1    2    0    0  0.41188422356E+02  0.16828661216E+02 -0.34111381363E+02  0.56064929438E+02  0.00000000000E+00 0. -1.
<mgrwt>
<rscale>  0 0.19551882E+03</rscale>
<asrwt>0</asrwt>
<pdfrwt beam="2">  1        2 0.82423332E-01 0.20164538E+03</pdfrwt>
<pdfrwt beam="1">  1       -2 0.10976409E-01 0.20164538E+03</pdfrwt>
<totfact> 0.32457873E+03</totfact>
</mgrwt>
</event>
<event>
 6    1  0.6101889E-006  0.1274741E+03  0.7546771E-02  0.1247005E+00
         -1   -1    0    0    0  501 -0.00000000000E+00  0.00000000000E+00  0.99734522771E+02  0.99734522771E+02  0.00000000000E+00 0.  1.
          1   -1    0    0  501    0  0.00000000000E+00 -0.00000000000E+00 -0.12596897713E+03  0.12596897713E+03  0.00000000000E+00 0. -1.
          5    1    1    2  502    0 -0.64247679380E+02 -0.10607734019E+02  0.81248328734E+01  0.65790510227E+02  0.47000000000E+01 0.  1.
         -5    1    1    2    0  502  0.48673509488E+02 -0.88847960781E+01 -0.44654521711E+02  0.66814417879E+02  0.47000000000E+01 0.  1.
        -11    1    1    2    0    0 -0.12974958863E+02 -0.15512812040E+02  0.35878597577E+02  0.41185806523E+02  0.00000000000E+00 0.  1.
         11    1    1    2    0    0  0.28549128755E+02  0.35005342137E+02 -0.25583363099E+02  0.51912765273E+02  0.00000000000E+00 0. -1.
<mgrwt>
<rscale>  0 0.11766147E+03</rscale>
<asrwt>0</asrwt>
<pdfrwt beam="2">  1        1 0.19379843E-01 0.12747411E+03</pdfrwt>
<pdfrwt beam="1">  1       -1 0.15343773E-01 0.12747411E+03</pdfrwt>
<totfact> 0.77601703E+03</totfact>
</mgrwt>
</event>
<event>
 6    1  0.6101889E-006  0.1277116E+03  0.7546771E-02  0.1245770E+00
          2   -1    0    0  501    0  0.00000000000E+00  0.00000000000E+00  0.34925445668E+03  0.34925445668E+03  0.00000000000E+00 0. -1.
         -2   -1    0    0    0  501 -0.00000000000E+00 -0.00000000000E+00 -0.41165191941E+02  0.41165191941E+02  0.00000000000E+00 0.  1.
          5    1    1    2  502    0 -0.26117741938E+02 -0.41176609751E+02  0.64051776928E+02  0.80637272785E+02  0.47000000000E+01 0. -1.
         -5    1    1    2    0  502  0.36778440292E+02  0.64291001335E+02  0.18287810819E+03  0.19736382389E+03  0.47000000000E+01 0. -1.
        -11    1    1    2    0    0  0.66090537596E+01  0.26313547237E+02 -0.54719844916E+01  0.27677156177E+02  0.00000000000E+00 0.  1.
         11    1    1    2    0    0 -0.17269752113E+02 -0.49427938821E+02  0.66631364108E+02  0.84741395770E+02  0.00000000000E+00 0. -1.
<mgrwt>
<rscale>  0 0.11839433E+03</rscale>
<asrwt>0</asrwt>
<pdfrwt beam="1">  1        2 0.53731453E-01 0.12771156E+03</pdfrwt>
<pdfrwt beam="2">  1       -2 0.63331067E-02 0.12771156E+03</pdfrwt>
<totfact> 0.11858071E+04</totfact>
</mgrwt>
</event>
<event>
 6    1  0.6101889E-006  0.1257960E+03  0.7546771E-02  0.1249223E+00
         -2   -1    0    0    0  501 -0.00000000000E+00  0.00000000000E+00  0.29669908424E+02  0.29669908424E+02  0.00000000000E+00 0. -1.
          2   -1    0    0  501    0  0.00000000000E+00 -0.00000000000E+00 -0.40207994785E+03  0.40207994785E+03  0.00000000000E+00 0.  1.
          5    1    1    2  502    0 -0.28693755631E+02  0.47577222434E+02 -0.11034191816E+03  0.12362990177E+03  0.47000000000E+01 0.  1.
         -5    1    1    2    0  502  0.36329355612E+02 -0.59406289267E+02 -0.11970900298E+03  0.13856862804E+03  0.47000000000E+01 0.  1.
        -11    1    1    2    0    0 -0.28095643063E+02 -0.27552070425E+02 -0.10289756721E+03  0.11016528982E+03  0.00000000000E+00 0.  1.
         11    1    1    2    0    0  0.20460043083E+02  0.39381137258E+02 -0.39461551072E+02  0.59386036639E+02  0.00000000000E+00 0. -1.
<mgrwt>
<rscale>  0 0.11636156E+03</rscale>
<asrwt>0</asrwt>
<pdfrwt beam="2">  1        2 0.61858455E-01 0.12579604E+03</pdfrwt>
<pdfrwt beam="1">  1       -2 0.45646012E-02 0.12579604E+03</pdfrwt>
<totfact> 0.16690145E+04</totfact>
</mgrwt>
</event>
<event>
 6    1  0.6101889E-006  0.1625731E+03  0.7546771E-02  0.1192583E+00
          2   -1    0    0  501    0  0.00000000000E+00  0.00000000000E+00  0.24793180839E+03  0.24793180839E+03  0.00000000000E+00 0. -1.
         -2   -1    0    0    0  501 -0.00000000000E+00 -0.00000000000E+00 -0.10082106755E+03  0.10082106755E+03  0.00000000000E+00 0.  1.
          5    1    1    2  502    0  0.69813709826E+02 -0.40029174814E+02  0.14903993747E+03  0.16944403760E+03  0.47000000000E+01 0.  1.
         -5    1    1    2    0  502  0.30128388374E+02  0.11452820724E+02 -0.19907061449E+02  0.38174179547E+02  0.47000000000E+01 0.  1.
        -11    1    1    2    0    0 -0.80456598858E+02  0.61511898726E+02  0.18016134835E+02  0.10286670549E+03  0.00000000000E+00 0. -1.
         11    1    1    2    0    0 -0.19485499341E+02 -0.32935544636E+02 -0.38270020550E-01  0.38267953298E+02  0.00000000000E+00 0.  1.
<mgrwt>
<rscale>  0 0.15660547E+03</rscale>
<asrwt>0</asrwt>
<pdfrwt beam="1">  1        2 0.38143355E-01 0.16257314E+03</pdfrwt>
<pdfrwt beam="2">  1       -2 0.15510934E-01 0.16257314E+03</pdfrwt>
<totfact> 0.42269171E+03</totfact>
</mgrwt>
</event>
<event>
 6    1  0.6101889E-006  0.3721923E+03  0.7546771E-02  0.1053858E+00
          1   -1    0    0  501    0  0.00000000000E+00  0.00000000000E+00  0.13838050048E+04  0.13838050048E+04  0.00000000000E+00 0. -1.
         -1   -1    0    0    0  501 -0.00000000000E+00 -0.00000000000E+00 -0.25026489025E+02  0.25026489025E+02  0.00000000000E+00 0.  1.
          5    1    1    2  502    0  0.10765823586E+03 -0.42277283865E+02  0.66391231034E+03  0.67392826791E+03  0.47000000000E+01 0. -1.
         -5    1    1    2    0  502 -0.17589618564E+02  0.13622765332E+02  0.49645113791E+03  0.49697162570E+03  0.47000000000E+01 0. -1.
        -11    1    1    2    0    0 -0.27951181807E+02  0.51845575660E+02  0.12967339500E+03  0.14242338871E+03  0.00000000000E+00 0. -1.
         11    1    1    2    0    0 -0.62117435490E+02 -0.23191057127E+02  0.68741672523E+02  0.95508211499E+02  0.00000000000E+00 0.  1.
<mgrwt>
<rscale>  0 0.37219232E+03</rscale>
<asrwt>0</asrwt>
<pdfrwt beam="1">  1        1 0.21289302E+00 0.37219232E+03</pdfrwt>
<pdfrwt beam="2">  1       -1 0.38502302E-02 0.37219232E+03</pdfrwt>
<totfact> 0.22278317E+03</totfact>
</mgrwt>
</event>
<event>
 6    1  0.6101889E-006  0.4699106E+03  0.7546771E-02  0.1078989E+00
          2   -1    0    0  501    0  0.00000000000E+00  0.00000000000E+00  0.12959384487E+04  0.12959384487E+04  0.00000000000E+00 0. -1.
         -2   -1    0    0    0  501 -0.00000000000E+00 -0.00000000000E+00 -0.61108351681E+02  0.61108351681E+02  0.00000000000E+00 0.  1.
          5    1    1    2  502    0 -0.15005803597E+03 -0.16168760586E+03  0.77315547169E+03  0.80402224438E+03  0.47000000000E+01 0. -1.
         -5    1    1    2    0  502  0.15803088337E+03  0.13654907638E+03  0.28117788276E+03  0.35028916927E+03  0.47000000000E+01 0.  1.
        -11    1    1    2    0    0 -0.13846575893E+02 -0.22304534673E+02  0.14498164216E+02  0.29990276700E+02  0.00000000000E+00 0.  1.
         11    1    1    2    0    0  0.58737285000E+01  0.47443064153E+02  0.16599857832E+03  0.17274510999E+03  0.00000000000E+00 0. -1.
<mgrwt>
<rscale>  0 0.31284754E+03</rscale>
<asrwt>0</asrwt>
<pdfrwt beam="1">  1        2 0.19937512E+00 0.46991065E+03</pdfrwt>
<pdfrwt beam="2">  1       -2 0.94012859E-02 0.46991065E+03</pdfrwt>
<totfact> 0.12830951E+03</totfact>
</mgrwt>
</event>
<event>
 6    1  0.6101889E-006  0.1386870E+03  0.7546771E-02  0.1226746E+00
         -2   -1    0    0    0  501 -0.00000000000E+00  0.00000000000E+00  0.23017140936E+02  0.23017140936E+02  0.00000000000E+00 0.  1.
          2   -1    0    0  501    0  0.00000000000E+00 -0.00000000000E+00 -0.66630092245E+03  0.66630092245E+03  0.00000000000E+00 0. -1.
          5    1    1    2  502    0  0.61711940151E+02  0.64609593031E+02 -0.27984523832E+03  0.29379960940E+03  0.47000000000E+01 0. -1.
         -5    1    1    2    0  502 -0.46367079241E+02 -0.65198282143E+01 -0.98512359411E+02  0.10917503906E+03  0.47000000000E+01 0. -1.
        -11    1    1    2    0    0 -0.51678455616E+02 -0.48585683378E+02 -0.16543901432E+03  0.18000360792E+03  0.00000000000E+00 0.  1.
         11    1    1    2    0    0  0.36333594705E+02 -0.95040814379E+01 -0.99487169464E+02  0.10633980702E+03  0.00000000000E+00 0. -1.
<mgrwt>
<rscale>  0 0.13047967E+03</rscale>
<asrwt>0</asrwt>
<pdfrwt beam="2">  1        2 0.10250781E+00 0.13868704E+03</pdfrwt>
<pdfrwt beam="1">  1       -2 0.35410994E-02 0.13868704E+03</pdfrwt>
<totfact> 0.14013892E+04</totfact>
</mgrwt>
</event>
<event>
 6    1  0.6101889E-006  0.1799483E+03  0.7546771E-02  0.1187782E+00
          1   -1    0    0  501    0  0.00000000000E+00  0.00000000000E+00  0.69107905970E+03  0.69107905970E+03  0.00000000000E+00 0. -1.
         -1   -1    0    0    0  501 -0.00000000000E+00 -0.00000000000E+00 -0.31423595201E+02  0.31423595201E+02  0.00000000000E+00 0.  1.
          5    1    1    2  502    0  0.87262764744E+02 -0.15730774595E+02  0.11926549598E+03  0.14868959584E+03  0.47000000000E+01 0. -1.
         -5    1    1    2    0  502 -0.55316469072E+02 -0.46277968527E+02  0.28134869873E+03  0.29048363534E+03  0.47000000000E+01 0.  1.
        -11    1    1    2    0    0  0.17111977240E+02  0.63360123113E+02  0.15299291788E+03  0.16647569759E+03  0.00000000000E+00 0. -1.
         11    1    1    2    0    0 -0.49058272913E+02 -0.13513799912E+01  0.10604835191E+03  0.11685372613E+03  0.00000000000E+00 0.  1.
<mgrwt>
<rscale>  0 0.16081338E+03</rscale>
<asrwt>0</asrwt>
<pdfrwt beam="1">  1        1 0.10631984E+00 0.17994831E+03</pdfrwt>
<pdfrwt beam="2">  1       -1 0.48343998E-02 0.17994831E+03</pdfrwt>
<totfact> 0.52177355E+03</totfact>
</mgrwt>
</event>
<event>
 6    1  0.6101889E-006  0.4009218E+03  0.7546771E-02  0.1043461E+00
          2   -1    0    0  501    0  0.00000000000E+00  0.00000000000E+00  0.52751990386E+03  0.52751990386E+03  0.00000000000E+00 0. -1.
         -2   -1    0    0    0  501 -0.00000000000E+00 -0.00000000000E+00 -0.76176392757E+02  0.76176392757E+02  0.00000000000E+00 0.  1.
          5    1    1    2  502    0  0.83057637161E+02  0.92514646894E+02  0.38769287566E+03  0.40716751690E+03  0.47000000000E+01 0.  1.
         -5    1    1    2    0  502 -0.11851455611E+02  0.20431127181E+02  0.30695947167E+01  0.24277569271E+02  0.47000000000E+01 0.  1.
        -11    1    1    2    0    0 -0.21855382061E+02 -0.10923592157E+03  0.36616615908E+02  0.11726432043E+03  0.00000000000E+00 0. -1.
         11    1    1    2    0    0 -0.49350799489E+02 -0.37098525052E+01  0.23964424811E+02  0.54986890005E+02  0.00000000000E+00 0.  1.
<mgrwt>
<rscale>  0 0.40092175E+03</rscale>
<asrwt>0</asrwt>
<pdfrwt beam="1">  1        2 0.81156906E-01 0.40092175E+03</pdfrwt>
<pdfrwt beam="2">  1       -2 0.11719445E-01 0.40092175E+03</pdfrwt>
<totfact> 0.30268419E+03</totfact>
</mgrwt>
</event>
<event>
 6    1  0.6101889E-006  0.1491454E+03  0.7546771E-02  0.1210499E+00
         -2   -1    0    0    0  501 -0.00000000000E+00  0.00000000000E+00  0.20245516884E+02  0.20245516884E+02  0.00000000000E+00 0.  1.
          2   -1    0    0  501    0  0.00000000000E+00 -0.00000000000E+00 -0.93594412833E+03  0.93594412833E+03  0.00000000000E+00 0. -1.
          5    1    1    2  502    0 -0.24612213058E+02 -0.72938952704E+02 -0.48512403745E+03  0.49121611696E+03  0.47000000000E+01 0. -1.
         -5    1    1    2    0  502  0.49088392764E+02 -0.46623392111E+01 -0.87858871260E+02  0.10085969943E+03  0.47000000000E+01 0. -1.
        -11    1    1    2    0    0 -0.57463525414E+01  0.91522240317E+02 -0.31397028601E+03  0.32708818617E+03  0.00000000000E+00 0. -1.
         11    1    1    2    0    0 -0.18729827165E+02 -0.13920948402E+02 -0.28745416733E+02  0.37025642644E+02  0.00000000000E+00 0.  1.
<mgrwt>
<rscale>  0 0.14212444E+03</rscale>
<asrwt>0</asrwt>
<pdfrwt beam="2">  1        2 0.14399140E+00 0.14914543E+03</pdfrwt>
<pdfrwt beam="1">  1       -2 0.31146951E-02 0.14914543E+03</pdfrwt>
<totfact> 0.11148350E+04</totfact>
</mgrwt>
</event>
<event>
 6    1  0.6101889E-006  0.1522303E+03  0.7546771E-02  0.1207219E+00
          3   -1    0    0  501    0  0.00000000000E+00  0.00000000000E+00  0.13758836920E+03  0.13758836920E+03  0.00000000000E+00 0. -1.
         -3   -1    0    0    0  501 -0.00000000000E+00 -0.00000000000E+00 -0.16998651810E+03  0.16998651810E+03  0.00000000000E+00 0.  1.
          5    1    1    2  502    0  0.21767684521E+01  0.10248016877E+03  0.40457726535E+02  0.11029887102E+03  0.47000000000E+01 0. -1.
         -5    1    1    2    0  502 -0.41576101911E+02 -0.25038377452E+02  0.76835071572E+01  0.49362119867E+02  0.47000000000E+01 0. -1.
        -11    1    1    2    0    0  0.34234921612E+02 -0.10344341813E+02 -0.71589361458E+02  0.80025445574E+02  0.00000000000E+00 0.  1.
         11    1    1    2    0    0  0.51644118477E+01 -0.67097449505E+02 -0.89500211363E+01  0.67888450845E+02  0.00000000000E+00 0. -1.
<mgrwt>
<rscale>  0 0.14463966E+03</rscale>
<asrwt>0</asrwt>
<pdfrwt beam="1">  1        3 0.21167441E-01 0.15223027E+03</pdfrwt>
<pdfrwt beam="2">  1       -3 0.26151772E-01 0.15223027E+03</pdfrwt>
<totfact> 0.66042946E+02</totfact>
</mgrwt>
</event>
<event>
 6    1  0.6101889E-006  0.1503684E+03  0.7546771E-02  0.1208825E+00
          1   -1    0    0  501    0  0.00000000000E+00  0.00000000000E+00  0.87186324334E+02  0.87186324334E+02  0.00000000000E+00 0. -1.
         -1   -1    0    0    0  501 -0.00000000000E+00 -0.00000000000E+00 -0.23016721605E+03  0.23016721605E+03  0.00000000000E+00 0.  1.
          5    1    1    2  502    0  0.34667667149E+02 -0.65186604443E+02 -0.74928965870E+02  0.10529758055E+03  0.47000000000E+01 0. -1.
         -5    1    1    2    0  502  0.31766968752E+02  0.14441514678E+02  0.35659673282E+02  0.50113869821E+02  0.47000000000E+01 0. -1.
        -11    1    1    2    0    0  0.33191910338E+01  0.51706924506E+02 -0.27632437744E+02  0.58721160468E+02  0.00000000000E+00 0. -1.
         11    1    1    2    0    0 -0.69753826935E+02 -0.96183474127E+00 -0.76079161378E+02  0.10322092954E+03  0.00000000000E+00 0.  1.
<mgrwt>
<rscale>  0 0.14340048E+03</rscale>
<asrwt>0</asrwt>
<pdfrwt beam="1">  1        1 0.13413281E-01 0.15036835E+03</pdfrwt>
<pdfrwt beam="2">  1       -1 0.35410341E-01 0.15036835E+03</pdfrwt>
<totfact> 0.32086760E+03</totfact>
</mgrwt>
</event>
<event>
 6    1  0.6101889E-006  0.1708288E+03  0.7546771E-02  0.1183436E+00
          2   -1    0    0  501    0  0.00000000000E+00  0.00000000000E+00  0.12108412265E+03  0.12108412265E+03  0.00000000000E+00 0. -1.
         -2   -1    0    0    0  501 -0.00000000000E+00 -0.00000000000E+00 -0.22295794646E+03  0.22295794646E+03  0.00000000000E+00 0.  1.
          5    1    1    2  502    0  0.77382687807E+02  0.58810839215E+02 -0.49004044448E+02  0.10895082172E+03  0.47000000000E+01 0. -1.
         -5    1    1    2    0  502 -0.23429955254E+02  0.44411126932E+02  0.36621626984E+02  0.62326114603E+02  0.47000000000E+01 0. -1.
        -11    1    1    2    0    0 -0.31700164242E+01 -0.84864518134E+02 -0.24743047603E+02  0.88454812458E+02  0.00000000000E+00 0.  1.
         11    1    1    2    0    0 -0.50782716129E+02 -0.18357448012E+02 -0.64748358741E+02  0.84310320333E+02  0.00000000000E+00 0. -1.
<mgrwt>
<rscale>  0 0.16474985E+03</rscale>
<asrwt>0</asrwt>
<pdfrwt beam="1">  1        2 0.18628327E-01 0.17082876E+03</pdfrwt>
<pdfrwt beam="2">  1       -2 0.34301223E-01 0.17082876E+03</pdfrwt>
<totfact> 0.23535069E+03</totfact>
</mgrwt>
</event>
<event>
 6    1  0.6101889E-006  0.1349793E+03  0.7546771E-02  0.1232433E+00
          2   -1    0    0  501    0  0.00000000000E+00  0.00000000000E+00  0.26882156747E+03  0.26882156747E+03  0.00000000000E+00 0. -1.
         -2   -1    0    0    0  501 -0.00000000000E+00 -0.00000000000E+00 -0.53570833425E+02  0.53570833425E+02  0.00000000000E+00 0.  1.
          5    1    1    2  502    0  0.47581056556E+02  0.43867328227E+00  0.90023255069E+02  0.10193343824E+03  0.47000000000E+01 0. -1.
         -5    1    1    2    0  502 -0.48518071936E+02 -0.51369645092E+02  0.24037399578E+02  0.74784559367E+02  0.47000000000E+01 0. -1.
        -11    1    1    2    0    0 -0.23984437272E+02  0.62499409324E+02  0.38493244199E+02  0.77221494715E+02  0.00000000000E+00 0.  1.
         11    1    1    2    0    0  0.24921452652E+02 -0.11568437514E+02  0.62696835198E+02  0.68452908576E+02  0.00000000000E+00 0. -1.
<mgrwt>
<rscale>  0 0.12670205E+03</rscale>
<asrwt>0</asrwt>
<pdfrwt beam="1">  1        2 0.41357164E-01 0.13497932E+03</pdfrwt>
<pdfrwt beam="2">  1       -2 0.82416668E-02 0.13497932E+03</pdfrwt>
<totfact> 0.10494278E+04</totfact>
</mgrwt>
</event>
<event>
 6    1  0.6101889E-006  0.1594660E+03  0.7546771E-02  0.1214363E+00
         -1   -1    0    0    0  501 -0.00000000000E+00  0.00000000000E+00  0.46944279838E+02  0.46944279838E+02  0.00000000000E+00 0.  1.
          1   -1    0    0  501    0  0.00000000000E+00 -0.00000000000E+00 -0.51414560593E+03  0.51414560593E+03  0.00000000000E+00 0. -1.
          5    1    1    2  502    0  0.12405160753E+02 -0.30968957198E+02 -0.44378341062E+03  0.44506041147E+03  0.47000000000E+01 0. -1.
         -5    1    1    2    0  502  0.11418032143E+02  0.86669910993E+01  0.93278233350E+01  0.17736585943E+02  0.47000000000E+01 0.  1.
        -11    1    1    2    0    0 -0.16252198867E+02  0.47853055075E+02 -0.46171067955E+02  0.68453023046E+02  0.00000000000E+00 0.  1.
         11    1    1    2    0    0 -0.75709940291E+01 -0.25551088976E+02  0.13425329148E+02  0.29839865301E+02  0.00000000000E+00 0. -1.
<mgrwt>
<rscale>  0 0.13923397E+03</rscale>
<asrwt>0</asrwt>
<pdfrwt beam="2">  1        1 0.79099324E-01 0.15946599E+03</pdfrwt>
<pdfrwt beam="1">  1       -1 0.72221969E-02 0.15946599E+03</pdfrwt>
<totfact> 0.42709270E+03</totfact>
</mgrwt>
</event>
<event>
 6    1  0.6101889E-006  0.1276138E+03  0.7546771E-02  0.1246077E+00
          2   -1    0    0  501    0  0.00000000000E+00  0.00000000000E+00  0.24446745579E+03  0.24446745579E+03  0.00000000000E+00 0. -1.
         -2   -1    0    0    0  501 -0.00000000000E+00 -0.00000000000E+00 -0.58261437480E+02  0.58261437480E+02  0.00000000000E+00 0.  1.
          5    1    1    2  502    0 -0.19283420549E+02  0.25609865759E+02  0.17477753292E+03  0.17775542621E+03  0.47000000000E+01 0. -1.
         -5    1    1    2    0  502  0.23561399178E+02 -0.27652106432E+00 -0.13769080047E+02  0.27692843127E+02  0.47000000000E+01 0. -1.
        -11    1    1    2    0    0  0.20159609823E+02  0.28079305093E+02  0.38345599394E+01  0.34778744840E+02  0.00000000000E+00 0.  1.
         11    1    1    2    0    0 -0.24437588452E+02 -0.53412649788E+02  0.21363005498E+02  0.62501879097E+02  0.00000000000E+00 0. -1.
<mgrwt>
<rscale>  0 0.11821147E+03</rscale>
<asrwt>0</asrwt>
<pdfrwt beam="1">  1        2 0.37610377E-01 0.12761375E+03</pdfrwt>
<pdfrwt beam="2">  1       -2 0.89632982E-02 0.12761375E+03</pdfrwt>
<totfact> 0.10147070E+04</totfact>
</mgrwt>
</event>
<event>
 6    1  0.6101889E-006  0.1391522E+03  0.7546771E-02  0.1225583E+00
         -2   -1    0    0    0  501 -0.00000000000E+00  0.00000000000E+00  0.22089524290E+02  0.22089524290E+02  0.00000000000E+00 0.  1.
          2   -1    0    0  501    0  0.00000000000E+00 -0.00000000000E+00 -0.82719987888E+03  0.82719987888E+03  0.00000000000E+00 0. -1.
          5    1    1    2  502    0 -0.62033604848E+02  0.16693473065E+02 -0.15995445909E+03  0.17243653661E+03  0.47000000000E+01 0.  1.
         -5    1    1    2    0  502  0.12576563990E+02 -0.52666080608E+02 -0.44548889102E+03  0.44879207662E+03  0.47000000000E+01 0.  1.
        -11    1    1    2    0    0 -0.10171235467E+02  0.26821122465E+02 -0.14108227056E+03  0.14396886367E+03  0.00000000000E+00 0. -1.
         11    1    1    2    0    0  0.59628276325E+02  0.91514850780E+01 -0.58584733917E+02  0.84091926276E+02  0.00000000000E+00 0.  1.
<mgrwt>
<rscale>  0 0.13127029E+03</rscale>
<asrwt>0</asrwt>
<pdfrwt beam="2">  1        2 0.12726151E+00 0.13915222E+03</pdfrwt>
<pdfrwt beam="1">  1       -2 0.33983886E-02 0.13915222E+03</pdfrwt>
<totfact> 0.11458215E+04</totfact>
</mgrwt>
</event>
<event>
 6    1  0.6101889E-006  0.6163626E+03  0.7546771E-02  0.9872029E-01
          2   -1    0    0  501    0  0.00000000000E+00  0.00000000000E+00  0.29262422970E+03  0.29262422970E+03  0.00000000000E+00 0. -1.
         -2   -1    0    0    0  501 -0.00000000000E+00 -0.00000000000E+00 -0.32456542696E+03  0.32456542696E+03  0.00000000000E+00 0.  1.
          5    1    1    2  502    0  0.67481491500E+02 -0.14739141624E+03  0.20526043202E+03  0.26159494688E+03  0.47000000000E+01 0. -1.
         -5    1    1    2    0  502  0.88821074092E+01  0.25942149433E+02  0.28663587465E+02  0.39944689204E+02  0.47000000000E+01 0. -1.
        -11    1    1    2    0    0 -0.70641167729E+02  0.34874577340E+02 -0.90437219763E+02  0.11993874037E+03  0.00000000000E+00 0. -1.
         11    1    1    2    0    0 -0.57224311796E+01  0.86574689466E+02 -0.17542799699E+03  0.19571128021E+03  0.00000000000E+00 0.  1.
<mgrwt>
<rscale>  0 0.61636258E+03</rscale>
<asrwt>0</asrwt>
<pdfrwt beam="1">  1        2 0.45019112E-01 0.61636258E+03</pdfrwt>
<pdfrwt beam="2">  1       -2 0.49933143E-01 0.61636258E+03</pdfrwt>
<totfact> 0.43224284E+02</totfact>
</mgrwt>
</event>
<event>
 6    1  0.6101889E-006  0.1397207E+03  0.7546771E-02  0.1225058E+00
          1   -1    0    0  501    0  0.00000000000E+00  0.00000000000E+00  0.19285445472E+03  0.19285445472E+03  0.00000000000E+00 0. -1.
         -1   -1    0    0    0  501 -0.00000000000E+00 -0.00000000000E+00 -0.89203952133E+02  0.89203952133E+02  0.00000000000E+00 0.  1.
          5    1    1    2  502    0 -0.30244492303E+02  0.14286632945E+02 -0.29625434381E+02  0.44928760920E+02  0.47000000000E+01 0. -1.
         -5    1    1    2    0  502  0.36208080618E+02 -0.76431622222E+02  0.44218522916E+02  0.95552005454E+02  0.47000000000E+01 0. -1.
        -11    1    1    2    0    0  0.14037550178E+02 -0.20585598239E+02  0.18823382302E+02  0.31227221957E+02  0.00000000000E+00 0.  1.
         11    1    1    2    0    0 -0.20001138493E+02  0.82730587516E+02  0.70234031749E+02  0.11035041852E+03  0.00000000000E+00 0. -1.
<mgrwt>
<rscale>  0 0.13162918E+03</rscale>
<asrwt>0</asrwt>
<pdfrwt beam="1">  1        1 0.29669916E-01 0.13972075E+03</pdfrwt>
<pdfrwt beam="2">  1       -1 0.13723685E-01 0.13972075E+03</pdfrwt>
<totfact> 0.54416335E+03</totfact>
</mgrwt>
</event>
<event>
 6    1  0.6101889E-006  0.1300415E+03  0.7546771E-02  0.1240805E+00
          2   -1    0    0  501    0  0.00000000000E+00  0.00000000000E+00  0.30113167937E+02  0.30113167937E+02  0.00000000000E+00 0. -1.
         -2   -1    0    0    0  501 -0.00000000000E+00 -0.00000000000E+00 -0.45178180581E+03  0.45178180581E+03  0.00000000000E+00 0.  1.
          5    1    1    2  502    0  0.47719423148E+02 -0.80805027233E+01 -0.69516790276E+02  0.84835794333E+02  0.47000000000E+01 0. -1.
         -5    1    1    2    0  502 -0.81095143437E+02 -0.50353794600E+01 -0.12254342285E+03  0.14710798014E+03  0.47000000000E+01 0. -1.
        -11    1    1    2    0    0  0.39777406156E+02 -0.23080002099E+02 -0.55850217376E+02  0.72347600640E+02  0.00000000000E+00 0. -1.
         11    1    1    2    0    0 -0.64016858669E+01  0.36195884282E+02 -0.17375820737E+03  0.17760359864E+03  0.00000000000E+00 0.  1.
<mgrwt>
<rscale>  0 0.12139982E+03</rscale>
<asrwt>0</asrwt>
<pdfrwt beam="1">  1        2 0.46327954E-02 0.13004149E+03</pdfrwt>
<pdfrwt beam="2">  1       -2 0.69504889E-01 0.13004149E+03</pdfrwt>
<totfact> 0.32068875E+03</totfact>
</mgrwt>
</event>
<event>
 6    1  0.6101889E-006  0.1921876E+03  0.7546771E-02  0.1161948E+00
          1   -1    0    0  501    0  0.00000000000E+00  0.00000000000E+00  0.89842511796E+03  0.89842511796E+03  0.00000000000E+00 0. -1.
         -1   -1    0    0    0  501 -0.00000000000E+00 -0.00000000000E+00 -0.60140153442E+02  0.60140153442E+02  0.00000000000E+00 0.  1.
          5    1    1    2  502    0 -0.25143981031E+02  0.79835370923E+02  0.34715413484E+03  0.35713301384E+03  0.47000000000E+01 0. -1.
         -5    1    1    2    0  502  0.10057004047E+03  0.38888953278E+02  0.38908243313E+03  0.40377458253E+03  0.47000000000E+01 0.  1.
        -11    1    1    2    0    0 -0.39968458799E+02 -0.26892716713E+02  0.85072845035E+02  0.97765458488E+02  0.00000000000E+00 0. -1.
         11    1    1    2    0    0 -0.35457600642E+02 -0.91831607489E+02  0.16975551506E+02  0.99892216545E+02  0.00000000000E+00 0.  1.
<mgrwt>
<rscale>  0 0.18618450E+03</rscale>
<asrwt>0</asrwt>
<pdfrwt beam="1">  1        1 0.13821924E+00 0.19218763E+03</pdfrwt>
<pdfrwt beam="2">  1       -1 0.92523319E-02 0.19218763E+03</pdfrwt>
<totfact> 0.13176272E+03</totfact>
</mgrwt>
</event>
<event>
 6    1  0.6101889E-006  0.1385590E+03  0.7546771E-02  0.1229564E+00
         -1   -1    0    0    0  501 -0.00000000000E+00  0.00000000000E+00  0.28056594141E+03  0.28056594141E+03  0.00000000000E+00 0.  1.
          1   -1    0    0  501    0  0.00000000000E+00 -0.00000000000E+00 -0.59297773416E+02  0.59297773416E+02  0.00000000000E+00 0. -1.
          5    1    1    2  502    0 -0.26840532894E+02  0.17852271324E+02 -0.10522853075E+02  0.34233583428E+02  0.47000000000E+01 0.  1.
         -5    1    1    2    0  502  0.67611815149E+02 -0.61580537602E+02  0.76070096424E+02  0.11904734239E+03  0.47000000000E+01 0.  1.
        -11    1    1    2    0    0 -0.28567969077E+02 -0.19977423006E+02  0.77410784722E+02  0.84897914453E+02  0.00000000000E+00 0.  1.
         11    1    1    2    0    0 -0.12203313177E+02  0.63705689283E+02  0.78310139927E+02  0.10168487456E+03  0.00000000000E+00 0. -1.
<mgrwt>
<rscale>  0 0.12858944E+03</rscale>
<asrwt>0</asrwt>
<pdfrwt beam="2">  1        1 0.91227346E-02 0.13855902E+03</pdfrwt>
<pdfrwt beam="1">  1       -1 0.43163990E-01 0.13855902E+03</pdfrwt>
<totfact> 0.37587107E+03</totfact>
</mgrwt>
</event>
<event>
 6    1  0.6101889E-006  0.1217194E+03  0.7546771E-02  0.1255451E+00
          3   -1    0    0  501    0  0.00000000000E+00  0.00000000000E+00  0.14742333554E+03  0.14742333554E+03  0.00000000000E+00 0. -1.
         -3   -1    0    0    0  501 -0.00000000000E+00 -0.00000000000E+00 -0.24905774327E+03  0.24905774327E+03  0.00000000000E+00 0.  1.
          5    1    1    2  502    0  0.22556906093E+02  0.19240427130E+02  0.13214956460E+03  0.13551607090E+03  0.47000000000E+01 0. -1.
         -5    1    1    2    0  502 -0.12615614449E+02 -0.16499980784E+02 -0.20569423909E+02  0.29607335134E+02  0.47000000000E+01 0.  1.
        -11    1    1    2    0    0  0.36015709080E+02 -0.12800980040E+01 -0.14267022271E+03  0.14715149472E+03  0.00000000000E+00 0. -1.
         11    1    1    2    0    0 -0.45957000724E+02 -0.14603483418E+01 -0.70544325711E+02  0.84206178057E+02  0.00000000000E+00 0.  1.
<mgrwt>
<rscale>  0 0.11281105E+03</rscale>
<asrwt>0</asrwt>
<pdfrwt beam="1">  1        3 0.22680513E-01 0.12171940E+03</pdfrwt>
<pdfrwt beam="2">  1       -3 0.38316576E-01 0.12171940E+03</pdfrwt>
<totfact> 0.27787145E+02</totfact>
</mgrwt>
</event>
<event>
 6    1  0.6101889E-006  0.1420486E+03  0.7546771E-02  0.1221399E+00
          1   -1    0    0  501    0  0.00000000000E+00  0.00000000000E+00  0.45490665802E+03  0.45490665802E+03  0.00000000000E+00 0. -1.
         -1   -1    0    0    0  501 -0.00000000000E+00 -0.00000000000E+00 -0.40379702258E+02  0.40379702258E+02  0.00000000000E+00 0.  1.
          5    1    1    2  502    0  0.40822433405E+02  0.22549038163E+02  0.26941655838E+03  0.27346352979E+03  0.47000000000E+01 0. -1.
         -5    1    1    2    0  502  0.20725205086E+02 -0.50187993411E+02  0.41957664793E+02  0.68781570521E+02  0.47000000000E+01 0. -1.
        -11    1    1    2    0    0 -0.32830297390E+02 -0.29871780641E+02  0.63628215546E+02  0.77580290790E+02  0.00000000000E+00 0. -1.
         11    1    1    2    0    0 -0.28717341101E+02  0.57510735889E+02  0.39524517035E+02  0.75460969178E+02  0.00000000000E+00 0.  1.
<mgrwt>
<rscale>  0 0.13416799E+03</rscale>
<asrwt>0</asrwt>
<pdfrwt beam="1">  1        1 0.69985636E-01 0.14204859E+03</pdfrwt>
<pdfrwt beam="2">  1       -1 0.62122622E-02 0.14204859E+03</pdfrwt>
<totfact> 0.62410979E+03</totfact>
</mgrwt>
</event>
<event>
 6    1  0.6101889E-006  0.1322370E+03  0.7546771E-02  0.1236832E+00
         -2   -1    0    0    0  501 -0.00000000000E+00  0.00000000000E+00  0.15782481474E+02  0.15782481474E+02  0.00000000000E+00 0.  1.
          2   -1    0    0  501    0  0.00000000000E+00 -0.00000000000E+00 -0.94017199784E+03  0.94017199784E+03  0.00000000000E+00 0. -1.
          5    1    1    2  502    0  0.52676220642E+01  0.38159624279E+02 -0.58153682795E+02  0.69913128881E+02  0.47000000000E+01 0. -1.
         -5    1    1    2    0  502 -0.40706428735E+02 -0.13566921911E+02 -0.59090043710E+03  0.59247488662E+03  0.47000000000E+01 0. -1.
        -11    1    1    2    0    0 -0.67474577144E+01 -0.39512295727E+02 -0.51285427433E+02  0.65091817967E+02  0.00000000000E+00 0.  1.
         11    1    1    2    0    0  0.42186264385E+02  0.14919593359E+02 -0.22404996904E+03  0.22847464584E+03  0.00000000000E+00 0. -1.
<mgrwt>
<rscale>  0 0.12387852E+03</rscale>
<asrwt>0</asrwt>
<pdfrwt beam="2">  1        2 0.14464186E+00 0.13223703E+03</pdfrwt>
<pdfrwt beam="1">  1       -2 0.24280738E-02 0.13223703E+03</pdfrwt>
<totfact> 0.15846975E+04</totfact>
</mgrwt>
</event>
<event>
 6    1  0.6101889E-006  0.1540135E+03  0.7546771E-02  0.1204725E+00
         -2   -1    0    0    0  501 -0.00000000000E+00  0.00000000000E+00  0.37116191364E+02  0.37116191364E+02  0.00000000000E+00 0. -1.
          2   -1    0    0  501    0  0.00000000000E+00 -0.00000000000E+00 -0.55631742042E+03  0.55631742042E+03  0.00000000000E+00 0.  1.
          5    1    1    2  502    0 -0.18821822994E+02  0.67430681316E+02 -0.32700899197E+03  0.33445198256E+03  0.47000000000E+01 0. -1.
         -5    1    1    2    0  502  0.35304911628E+02  0.21022142155E+02 -0.21590747252E+02  0.46654234672E+02  0.47000000000E+01 0. -1.
        -11    1    1    2    0    0  0.17492273258E+02 -0.47992340144E+02 -0.23887305059E+02  0.56390138138E+02  0.00000000000E+00 0. -1.
         11    1    1    2    0    0 -0.33975361892E+02 -0.40460483328E+02 -0.14671418477E+03  0.15593725642E+03  0.00000000000E+00 0.  1.
<mgrwt>
<rscale>  0 0.14659180E+03</rscale>
<asrwt>0</asrwt>
<pdfrwt beam="2">  1        2 0.85587297E-01 0.15401354E+03</pdfrwt>
<pdfrwt beam="1">  1       -2 0.57101832E-02 0.15401354E+03</pdfrwt>
<totfact> 0.84859755E+03</totfact>
</mgrwt>
</event>
<event>
 6    1  0.6101889E-006  0.2032689E+03  0.7546771E-02  0.1150457E+00
          2   -1    0    0  501    0  0.00000000000E+00  0.00000000000E+00  0.17212687147E+04  0.17212687147E+04  0.00000000000E+00 0. -1.
         -2   -1    0    0    0  501 -0.00000000000E+00 -0.00000000000E+00 -0.24982122839E+02  0.24982122839E+02  0.00000000000E+00 0.  1.
          5    1    1    2  502    0  0.76523206485E+02 -0.46828235793E+02  0.90408798494E+03  0.90854051055E+03  0.47000000000E+01 0.  1.
         -5    1    1    2    0  502  0.18051276708E+02 -0.82577707242E+02  0.26833441846E+03  0.28137230933E+03  0.47000000000E+01 0.  1.
        -11    1    1    2    0    0 -0.34227936851E+02  0.21595725603E+02  0.39826410470E+02  0.56780894642E+02  0.00000000000E+00 0.  1.
         11    1    1    2    0    0 -0.60346546343E+02  0.10781021743E+03  0.48403777794E+03  0.49955712297E+03  0.00000000000E+00 0. -1.
<mgrwt>
<rscale>  0 0.19915121E+03</rscale>
<asrwt>0</asrwt>
<pdfrwt beam="1">  1        2 0.26481048E+00 0.20326885E+03</pdfrwt>
<pdfrwt beam="2">  1       -2 0.38434049E-02 0.20326885E+03</pdfrwt>
<totfact> 0.30383711E+03</totfact>
</mgrwt>
</event>
<event>
 6    1  0.6101889E-006  0.1792484E+03  0.7546771E-02  0.1174104E+00
         -1   -1    0    0    0  501 -0.00000000000E+00  0.00000000000E+00  0.16763304492E+02  0.16763304492E+02  0.00000000000E+00 0.  1.
          1   -1    0    0  501    0  0.00000000000E+00 -0.00000000000E+00 -0.20543226103E+04  0.20543226103E+04  0.00000000000E+00 0. -1.
          5    1    1    2  502    0 -0.17888094895E+02  0.11106518914E+03 -0.60428353158E+03  0.61468376968E+03  0.47000000000E+01 0. -1.
         -5    1    1    2    0  502 -0.15463778428E+02  0.12988212311E+02 -0.90041604069E+03  0.90065473875E+03  0.47000000000E+01 0. -1.
        -11    1    1    2    0    0  0.58753146469E+02 -0.99349998026E+02 -0.46597005799E+03  0.48005254845E+03  0.00000000000E+00 0.  1.
         11    1    1    2    0    0 -0.25401273145E+02 -0.24703403427E+02 -0.66889675534E+02  0.75694857892E+02  0.00000000000E+00 0. -1.
<mgrwt>
<rscale>  0 0.17364032E+03</rscale>
<asrwt>0</asrwt>
<pdfrwt beam="2">  1        1 0.31604973E+00 0.17924841E+03</pdfrwt>
<pdfrwt beam="1">  1       -1 0.25789692E-02 0.17924841E+03</pdfrwt>
<totfact> 0.14752849E+03</totfact>
</mgrwt>
</event>
<event>
 6    1  0.6101889E-006  0.2917093E+03  0.7546771E-02  0.1089460E+00
          2   -1    0    0  501    0  0.00000000000E+00  0.00000000000E+00  0.20804698472E+03  0.20804698472E+03  0.00000000000E+00 0. -1.
         -2   -1    0    0    0  501 -0.00000000000E+00 -0.00000000000E+00 -0.10225372488E+03  0.10225372488E+03  0.00000000000E+00 0.  1.
          5    1    1    2  502    0 -0.35142144477E+02 -0.10011719180E+03  0.10053148220E+03  0.14624326079E+03  0.47000000000E+01 0. -1.
         -5    1    1    2    0  502 -0.20982120614E+02  0.27020671005E+02 -0.67356056941E+01  0.35182729159E+02  0.47000000000E+01 0. -1.
        -11    1    1    2    0    0 -0.35403402907E+01  0.45826441670E+02 -0.26257304430E+02  0.52934325361E+02  0.00000000000E+00 0.  1.
         11    1    1    2    0    0  0.59664605382E+02  0.27270079121E+02  0.38254687762E+02  0.75940394300E+02  0.00000000000E+00 0. -1.
<mgrwt>
<rscale>  0 0.29170930E+03</rscale>
<asrwt>0</asrwt>
<pdfrwt beam="1">  1        2 0.32007228E-01 0.29170930E+03</pdfrwt>
<pdfrwt beam="2">  1       -2 0.15731342E-01 0.29170930E+03</pdfrwt>
<totfact> 0.51394077E+03</totfact>
</mgrwt>
</event>
<event>
 6    1  0.8550405E-006  0.1902108E+03  0.7546771E-02  0.1162880E+00
          1   -1    0    0  501    0  0.00000000000E+00  0.00000000000E+00  0.11678381347E+04  0.11678381347E+04  0.00000000000E+00 0. -1.
         -1   -1    0    0    0  501 -0.00000000000E+00 -0.00000000000E+00 -0.28387036954E+02  0.28387036954E+02  0.00000000000E+00 0.  1.
          5    1    1    2  502    0  0.68800570375E+02  0.58880583403E+02  0.36321559634E+03  0.37436359466E+03  0.47000000000E+01 0. -1.
         -5    1    1    2    0  502  0.74474333184E+02 -0.64132400201E+02  0.31376812074E+03  0.32883417501E+03  0.47000000000E+01 0. -1.
        -11    1    1    2    0    0 -0.83812274289E+02  0.14266772222E+02  0.38850692632E+03  0.39770047763E+03  0.00000000000E+00 0. -1.
         11    1    1    2    0    0 -0.59462629269E+02 -0.90149554244E+01  0.73960454387E+02  0.95326924392E+02  0.00000000000E+00 0.  1.
<mgrwt>
<rscale>  0 0.18518215E+03</rscale>
<asrwt>0</asrwt>
<pdfrwt beam="1">  1        1 0.17966737E+00 0.19021080E+03</pdfrwt>
<pdfrwt beam="2">  1       -1 0.43672374E-02 0.19021080E+03</pdfrwt>
<totfact> 0.25902972E+03</totfact>
</mgrwt>
</event>
<event>
 6    1  0.6101889E-006  0.2660687E+03  0.7546771E-02  0.1103551E+00
          2   -1    0    0  501    0  0.00000000000E+00  0.00000000000E+00  0.91472872912E+03  0.91472872912E+03  0.00000000000E+00 0. -1.
         -2   -1    0    0    0  501 -0.00000000000E+00 -0.00000000000E+00 -0.19347964170E+02  0.19347964170E+02  0.00000000000E+00 0.  1.
          5    1    1    2  502    0 -0.27618922802E+01 -0.50539220882E+02  0.93524885726E+02  0.10644639565E+03  0.47000000000E+01 0.  1.
         -5    1    1    2    0  502  0.50759382227E+01 -0.16906278755E+00  0.60214042074E+03  0.60218018070E+03  0.47000000000E+01 0.  1.
        -11    1    1    2    0    0 -0.36154617859E+02  0.24014665155E+02  0.36721226791E+02  0.56853399477E+02  0.00000000000E+00 0.  1.
         11    1    1    2    0    0  0.33840571916E+02  0.26693618515E+02  0.16299423169E+03  0.16859671747E+03  0.00000000000E+00 0. -1.
<mgrwt>
<rscale>  0 0.26606870E+03</rscale>
<asrwt>0</asrwt>
<pdfrwt beam="1">  1        2 0.14072746E+00 0.26606870E+03</pdfrwt>
<pdfrwt beam="2">  1       -2 0.29766106E-02 0.26606870E+03</pdfrwt>
<totfact> 0.12678757E+04</totfact>
</mgrwt>
</event>
<event>
 6    1  0.6101889E-006  0.1613180E+03  0.7546771E-02  0.1204843E+00
          1   -1    0    0  501    0  0.00000000000E+00  0.00000000000E+00  0.29016185606E+03  0.29016185606E+03  0.00000000000E+00 0. -1.
         -1   -1    0    0    0  501 -0.00000000000E+00 -0.00000000000E+00 -0.15029957671E+03  0.15029957671E+03  0.00000000000E+00 0.  1.
          5    1    1    2  502    0 -0.81640285570E+02 -0.40916653535E+02  0.15244038828E+03  0.17776239969E+03  0.47000000000E+01 0. -1.
         -5    1    1    2    0  502  0.24370201221E+02  0.64403242513E+02  0.89374603215E+02  0.11292295627E+03  0.47000000000E+01 0.  1.
        -11    1    1    2    0    0 -0.15348789005E+02 -0.31445681015E+02 -0.21337271356E+02  0.40984086269E+02  0.00000000000E+00 0. -1.
         11    1    1    2    0    0  0.72618873353E+02  0.79590920371E+01 -0.80615440781E+02  0.10879199054E+03  0.00000000000E+00 0.  1.
<mgrwt>
<rscale>  0 0.14649867E+03</rscale>
<asrwt>0</asrwt>
<pdfrwt beam="1">  1        1 0.44640286E-01 0.16131797E+03</pdfrwt>
<pdfrwt beam="2">  1       -1 0.23123012E-01 0.16131797E+03</pdfrwt>
<totfact> 0.14348298E+03</totfact>
</mgrwt>
</event>
<event>
 6    1  0.6101889E-006  0.1289351E+03  0.7546771E-02  0.1247515E+00
         -1   -1    0    0    0  501 -0.00000000000E+00  0.00000000000E+00  0.54309498121E+02  0.54309498121E+02  0.00000000000E+00 0.  1.
          1   -1    0    0  501    0  0.00000000000E+00 -0.00000000000E+00 -0.24587896526E+03  0.24587896526E+03  0.00000000000E+00 0. -1.
          5    1    1    2  502    0  0.51502033523E+02  0.73333333117E+01 -0.14545719557E+02  0.54220892577E+02  0.47000000000E+01 0. -1.
         -5    1    1    2    0  502 -0.28149737754E+02 -0.28626912813E+02 -0.14707559575E+03  0.15252943564E+03  0.47000000000E+01 0. -1.
        -11    1    1    2    0    0 -0.11090084828E+02  0.50070050610E+02 -0.34528985371E+02  0.61824354265E+02  0.00000000000E+00 0.  1.
         11    1    1    2    0    0 -0.12262210941E+02 -0.28776471109E+02  0.45808335376E+01  0.31613780896E+02  0.00000000000E+00 0. -1.
<mgrwt>
<rscale>  0 0.11736126E+03</rscale>
<asrwt>0</asrwt>
<pdfrwt beam="2">  1        1 0.37827532E-01 0.12893506E+03</pdfrwt>
<pdfrwt beam="1">  1       -1 0.83553076E-02 0.12893506E+03</pdfrwt>
<totfact> 0.85677485E+03</totfact>
</mgrwt>
</event>
<event>
 6    1  0.6101889E-006  0.1563606E+03  0.7546771E-02  0.1212987E+00
          2   -1    0    0  501    0  0.00000000000E+00  0.00000000000E+00  0.48610100098E+03  0.48610100098E+03  0.00000000000E+00 0. -1.
         -2   -1    0    0    0  501 -0.00000000000E+00 -0.00000000000E+00 -0.67783137116E+02  0.67783137116E+02  0.00000000000E+00 0.  1.
          5    1    1    2  502    0  0.17238064017E+02  0.85750385680E+02  0.24293150150E+03  0.25824036074E+03  0.47000000000E+01 0. -1.
         -5    1    1    2    0  502  0.60279922160E+02 -0.32679612552E+02  0.18165929071E+03  0.19422619286E+03  0.47000000000E+01 0. -1.
        -11    1    1    2    0    0 -0.31933410698E+02 -0.13148150085E+01 -0.55913393965E+01  0.32445870824E+02  0.00000000000E+00 0.  1.
         11    1    1    2    0    0 -0.45584575479E+02 -0.51755958120E+02 -0.68158895134E+00  0.68971713666E+02  0.00000000000E+00 0. -1.
<mgrwt>
<rscale>  0 0.14025416E+03</rscale>
<asrwt>0</asrwt>
<pdfrwt beam="1">  1        2 0.74784767E-01 0.15636061E+03</pdfrwt>
<pdfrwt beam="2">  1       -2 0.10428175E-01 0.15636061E+03</pdfrwt>
<totfact> 0.38865453E+03</totfact>
</mgrwt>
</event>
<event>
 6    1  0.6101889E-006  0.1641112E+03  0.7546771E-02  0.1210107E+00
         -1   -1    0    0    0  501 -0.00000000000E+00  0.00000000000E+00  0.24524548738E+03  0.24524548738E+03  0.00000000000E+00 0.  1.
          1   -1    0    0  501    0  0.00000000000E+00 -0.00000000000E+00 -0.72013799036E+02  0.72013799036E+02  0.00000000000E+00 0. -1.
          5    1    1    2  502    0 -0.72632069733E+00  0.70094685790E+02  0.48417287182E+02  0.85323597063E+02  0.47000000000E+01 0. -1.
         -5    1    1    2    0  502 -0.59713013240E+01 -0.90313031089E+02  0.22044069152E+02  0.93274492809E+02  0.47000000000E+01 0.  1.
        -11    1    1    2    0    0 -0.37181755746E+02 -0.61396409491E+01  0.23862537901E+02  0.44604919756E+02  0.00000000000E+00 0.  1.
         11    1    1    2    0    0  0.43879377767E+02  0.26357986249E+02  0.78907794109E+02  0.94056276789E+02  0.00000000000E+00 0. -1.
<mgrwt>
<rscale>  0 0.14242159E+03</rscale>
<asrwt>0</asrwt>
<pdfrwt beam="2">  1        1 0.11079046E-01 0.16411117E+03</pdfrwt>
<pdfrwt beam="1">  1       -1 0.37730074E-01 0.16411117E+03</pdfrwt>
<totfact> 0.37140697E+03</totfact>
</mgrwt>
</event>
<event>
 6    1  0.6101889E-006  0.1612098E+03  0.7546771E-02  0.1194511E+00
         -2   -1    0    0    0  501 -0.00000000000E+00  0.00000000000E+00  0.30372789644E+02  0.30372789644E+02  0.00000000000E+00 0.  1.
          2   -1    0    0  501    0  0.00000000000E+00 -0.00000000000E+00 -0.10387927326E+04  0.10387927326E+04  0.00000000000E+00 0. -1.
          5    1    1    2  502    0  0.39122689669E+02  0.61467372988E+02 -0.38978095892E+03  0.39656034689E+03  0.47000000000E+01 0. -1.
         -5    1    1    2    0  502 -0.82361276604E+02  0.30785550578E+02 -0.43105160785E+03  0.43995307550E+03  0.47000000000E+01 0. -1.
        -11    1    1    2    0    0  0.26373964337E+02 -0.99127284234E+02 -0.10022440847E+03  0.14341107533E+03  0.00000000000E+00 0.  1.
         11    1    1    2    0    0  0.16864622597E+02  0.68743606675E+01 -0.87362967676E+02  0.89241024485E+02  0.00000000000E+00 0. -1.
<mgrwt>
<rscale>  0 0.15495668E+03</rscale>
<asrwt>0</asrwt>
<pdfrwt beam="2">  1        2 0.15981426E+00 0.16120981E+03</pdfrwt>
<pdfrwt beam="1">  1       -2 0.46727369E-02 0.16120981E+03</pdfrwt>
<totfact> 0.53011259E+03</totfact>
</mgrwt>
</event>
<event>
 6    1  0.6101889E-006  0.1536835E+03  0.7546771E-02  0.1204075E+00
          3   -1    0    0  501    0  0.00000000000E+00  0.00000000000E+00  0.24155305737E+03  0.24155305737E+03  0.00000000000E+00 0. -1.
         -3   -1    0    0    0  501 -0.00000000000E+00 -0.00000000000E+00 -0.12307125818E+03  0.12307125818E+03  0.00000000000E+00 0.  1.
          5    1    1    2  502    0  0.47821529412E+02  0.10199233930E+03  0.16504346261E+03  0.19987688836E+03  0.47000000000E+01 0.  1.
         -5    1    1    2    0  502  0.51563894400E-01 -0.26489535209E+02  0.18039525083E+01  0.26963723390E+02  0.47000000000E+01 0.  1.
        -11    1    1    2    0    0  0.84915868095E+01  0.12189697566E+02 -0.27813617981E+02  0.31532413775E+02  0.00000000000E+00 0.  1.
         11    1    1    2    0    0 -0.56364680115E+02 -0.87692501659E+02 -0.20551997954E+02  0.10625129002E+03  0.00000000000E+00 0. -1.
<mgrwt>
<rscale>  0 0.14710627E+03</rscale>
<asrwt>0</asrwt>
<pdfrwt beam="1">  1        3 0.37162009E-01 0.15368345E+03</pdfrwt>
<pdfrwt beam="2">  1       -3 0.18934040E-01 0.15368345E+03</pdfrwt>
<totfact> 0.41831323E+02</totfact>
</mgrwt>
</event>
<event>
 6    1  0.6101889E-006  0.3150576E+03  0.7546771E-02  0.1077947E+00
          1   -1    0    0  501    0  0.00000000000E+00  0.00000000000E+00  0.10715833031E+04  0.10715833031E+04  0.00000000000E+00 0. -1.
         -1   -1    0    0    0  501 -0.00000000000E+00 -0.00000000000E+00 -0.23157620621E+02  0.23157620621E+02  0.00000000000E+00 0.  1.
          5    1    1    2  502    0 -0.56952452063E+01 -0.78604280719E+01  0.59466619950E+03  0.59476398762E+03  0.47000000000E+01 0. -1.
         -5    1    1    2    0  502  0.24787148806E+02 -0.77717692369E+02  0.23412867421E+03  0.24797735489E+03  0.47000000000E+01 0. -1.
        -11    1    1    2    0    0 -0.19528513254E+02  0.25652435961E+02  0.96773066996E+01  0.33660965013E+02  0.00000000000E+00 0.  1.
         11    1    1    2    0    0  0.43660965460E+00  0.59925684480E+02  0.20995350209E+03  0.21833861621E+03  0.00000000000E+00 0. -1.
<mgrwt>
<rscale>  0 0.31505758E+03</rscale>
<asrwt>0</asrwt>
<pdfrwt beam="1">  1        1 0.16485893E+00 0.31505758E+03</pdfrwt>
<pdfrwt beam="2">  1       -1 0.35627117E-02 0.31505758E+03</pdfrwt>
<totfact> 0.41445200E+03</totfact>
</mgrwt>
</event>
<event>
 6    1  0.6101889E-006  0.1326627E+03  0.7546771E-02  0.1236192E+00
         -2   -1    0    0    0  501 -0.00000000000E+00  0.00000000000E+00  0.13531256188E+03  0.13531256188E+03  0.00000000000E+00 0.  1.
          2   -1    0    0  501    0  0.00000000000E+00 -0.00000000000E+00 -0.10504303486E+03  0.10504303486E+03  0.00000000000E+00 0. -1.
          5    1    1    2  502    0 -0.60116056909E+01  0.74206432759E+02 -0.23835420497E+02  0.78313161959E+02  0.47000000000E+01 0.  1.
         -5    1    1    2    0  502  0.32251759396E+02 -0.38541471474E+02  0.20281512320E+02  0.54397157551E+02  0.47000000000E+01 0.  1.
        -11    1    1    2    0    0 -0.39142529402E+02  0.15961681504E+02  0.34286711735E+02  0.54428774431E+02  0.00000000000E+00 0.  1.
         11    1    1    2    0    0  0.12902375697E+02 -0.51626642789E+02 -0.46327654044E+00  0.53216502792E+02  0.00000000000E+00 0. -1.
<mgrwt>
<rscale>  0 0.12428461E+03</rscale>
<asrwt>0</asrwt>
<pdfrwt beam="2">  1        2 0.16160467E-01 0.13266273E+03</pdfrwt>
<pdfrwt beam="1">  1       -2 0.20817317E-01 0.13266273E+03</pdfrwt>
<totfact> 0.66157761E+03</totfact>
</mgrwt>
</event>
<event>
 6    1  0.6101889E-006  0.2269323E+03  0.7546771E-02  0.1131944E+00
          1   -1    0    0  501    0  0.00000000000E+00  0.00000000000E+00  0.30100629981E+04  0.30100629981E+04  0.00000000000E+00 0. -1.
         -1   -1    0    0    0  501 -0.00000000000E+00 -0.00000000000E+00 -0.23872153716E+02  0.23872153716E+02  0.00000000000E+00 0.  1.
          5    1    1    2  502    0 -0.12486419386E+03  0.54459354321E+02  0.96053923301E+03  0.97016214951E+03  0.47000000000E+01 0. -1.
         -5    1    1    2    0  502 -0.42056159647E+02  0.35048039318E+02  0.14485627642E+04  0.14496045176E+04  0.47000000000E+01 0. -1.
        -11    1    1    2    0    0  0.55114095023E+02 -0.29125782349E+02  0.81833972335E+02  0.10287212303E+03  0.00000000000E+00 0.  1.
         11    1    1    2    0    0  0.11180625848E+03 -0.60381611290E+02  0.49525487480E+03  0.51129636164E+03  0.00000000000E+00 0. -1.
<mgrwt>
<rscale>  0 0.22262039E+03</rscale>
<asrwt>0</asrwt>
<pdfrwt beam="1">  1        1 0.46308632E+00 0.22693235E+03</pdfrwt>
<pdfrwt beam="2">  1       -1 0.36726414E-02 0.22693235E+03</pdfrwt>
<totfact> 0.20124508E+02</totfact>
</mgrwt>
</event>
<event>
 6    1  0.6101889E-006  0.1549481E+03  0.7546771E-02  0.1202759E+00
          1   -1    0    0  501    0  0.00000000000E+00  0.00000000000E+00  0.24890205021E+03  0.24890205021E+03  0.00000000000E+00 0. -1.
         -1   -1    0    0    0  501 -0.00000000000E+00 -0.00000000000E+00 -0.95951129623E+02  0.95951129623E+02  0.00000000000E+00 0.  1.
          5    1    1    2  502    0  0.73429185765E+02  0.14482945808E+02  0.15025075928E+03  0.16792552428E+03  0.47000000000E+01 0.  1.
         -5    1    1    2    0  502  0.12770778725E+02 -0.45369409877E+02 -0.77046710850E+00  0.47372563382E+02  0.47000000000E+01 0.  1.
        -11    1    1    2    0    0 -0.52130596854E+02 -0.20285740108E+02 -0.25640243900E+02  0.61534807121E+02  0.00000000000E+00 0.  1.
         11    1    1    2    0    0 -0.34069367635E+02  0.51172204177E+02  0.29110872324E+02  0.68020285054E+02  0.00000000000E+00 0. -1.
<mgrwt>
<rscale>  0 0.14815432E+03</rscale>
<asrwt>0</asrwt>
<pdfrwt beam="1">  1        1 0.38292623E-01 0.15494808E+03</pdfrwt>
<pdfrwt beam="2">  1       -1 0.14761712E-01 0.15494808E+03</pdfrwt>
<totfact> 0.35559364E+03</totfact>
</mgrwt>
</event>
<event>
 6    1  0.6101889E-006  0.1397598E+03  0.7546771E-02  0.1226840E+00
         -2   -1    0    0    0  501 -0.00000000000E+00  0.00000000000E+00  0.16417333584E+02  0.16417333584E+02  0.00000000000E+00 0.  1.
          2   -1    0    0  501    0  0.00000000000E+00 -0.00000000000E+00 -0.98497611141E+03  0.98497611141E+03  0.00000000000E+00 0. -1.
          5    1    1    2  502    0 -0.71196748509E+01 -0.21285544091E+02 -0.23922980269E+02  0.33138544659E+02  0.47000000000E+01 0. -1.
         -5    1    1    2    0  502 -0.12559477575E+02  0.80615762843E+02 -0.65049247990E+03  0.65560597778E+03  0.47000000000E+01 0. -1.
        -11    1    1    2    0    0  0.38484059319E+02  0.51012623104E+01 -0.11120389878E+03  0.11778519772E+03  0.00000000000E+00 0. -1.
         11    1    1    2    0    0 -0.18804906893E+02 -0.64431481063E+02 -0.18293941888E+03  0.19486372483E+03  0.00000000000E+00 0.  1.
<mgrwt>
<rscale>  0 0.13041563E+03</rscale>
<asrwt>0</asrwt>
<pdfrwt beam="2">  1        2 0.15153481E+00 0.13975981E+03</pdfrwt>
<pdfrwt beam="1">  1       -2 0.25257433E-02 0.13975981E+03</pdfrwt>
<totfact> 0.14100526E+04</totfact>
</mgrwt>
</event>
<event>
 6    1  0.6101889E-006  0.1426912E+03  0.7546771E-02  0.1220042E+00
          1   -1    0    0  501    0  0.00000000000E+00  0.00000000000E+00  0.76926865515E+03  0.76926865515E+03  0.00000000000E+00 0. -1.
         -1   -1    0    0    0  501 -0.00000000000E+00 -0.00000000000E+00 -0.24453395281E+02  0.24453395281E+02  0.00000000000E+00 0.  1.
          5    1    1    2  502    0  0.53574623754E+02 -0.61957587067E+02  0.34397261683E+03  0.35362159724E+03  0.47000000000E+01 0.  1.
         -5    1    1    2    0  502  0.15098279514E+02  0.57703383560E+02  0.20032436499E+03  0.20906836138E+03  0.47000000000E+01 0.  1.
        -11    1    1    2    0    0 -0.45992584679E+02 -0.39756908618E+02  0.14142851079E+03  0.15394139565E+03  0.00000000000E+00 0. -1.
         11    1    1    2    0    0 -0.22680318589E+02  0.44011112125E+02  0.59089767246E+02  0.77090696164E+02  0.00000000000E+00 0.  1.
<mgrwt>
<rscale>  0 0.13512601E+03</rscale>
<asrwt>0</asrwt>
<pdfrwt beam="1">  1        1 0.11834901E+00 0.14269122E+03</pdfrwt>
<pdfrwt beam="2">  1       -1 0.37620614E-02 0.14269122E+03</pdfrwt>
<totfact> 0.63942098E+03</totfact>
</mgrwt>
</event>
<event>
 6    1  0.6101889E-006  0.1411403E+03  0.7546771E-02  0.1223071E+00
         -1   -1    0    0    0  501 -0.00000000000E+00  0.00000000000E+00  0.94954969822E+02  0.94954969822E+02  0.00000000000E+00 0.  1.
          1   -1    0    0  501    0  0.00000000000E+00 -0.00000000000E+00 -0.18488111982E+03  0.18488111982E+03  0.00000000000E+00 0. -1.
          5    1    1    2  502    0  0.91396148336E+01 -0.34292598468E+02 -0.55539488156E+02  0.66077527297E+02  0.47000000000E+01 0. -1.
         -5    1    1    2    0  502 -0.62516256383E+02  0.72314696809E+02 -0.36549317910E+02  0.10244823242E+03  0.47000000000E+01 0. -1.
        -11    1    1    2    0    0 -0.21007465891E+02 -0.24077866572E+02  0.13679931732E+02  0.34759140007E+02  0.00000000000E+00 0. -1.
         11    1    1    2    0    0  0.74384107440E+02 -0.13944231770E+02 -0.11517275668E+02  0.76551189920E+02  0.00000000000E+00 0.  1.
<mgrwt>
<rscale>  0 0.13300000E+03</rscale>
<asrwt>0</asrwt>
<pdfrwt beam="2">  1        1 0.28443249E-01 0.14114030E+03</pdfrwt>
<pdfrwt beam="1">  1       -1 0.14608457E-01 0.14114030E+03</pdfrwt>
<totfact> 0.52056787E+03</totfact>
</mgrwt>
</event>
<event>
 6    1  0.6101889E-006  0.1630973E+03  0.7546771E-02  0.1192548E+00
         -1   -1    0    0    0  501 -0.00000000000E+00  0.00000000000E+00  0.29484221181E+02  0.29484221181E+02  0.00000000000E+00 0.  1.
          1   -1    0    0  501    0  0.00000000000E+00 -0.00000000000E+00 -0.77280325381E+03  0.77280325381E+03  0.00000000000E+00 0. -1.
          5    1    1    2  502    0 -0.70133623668E+02 -0.24476711655E+02 -0.92447439952E+02  0.11868636710E+03  0.47000000000E+01 0.  1.
         -5    1    1    2    0  502 -0.30716943409E+02  0.52858436480E+02 -0.30179576744E+03  0.30796155631E+03  0.47000000000E+01 0.  1.
        -11    1    1    2    0    0  0.54767442892E+02 -0.56290485990E+02 -0.14892899825E+03  0.16836845944E+03  0.00000000000E+00 0.  1.
         11    1    1    2    0    0  0.46083124185E+02  0.27908761165E+02 -0.20014682698E+03  0.20727109213E+03  0.00000000000E+00 0. -1.
<mgrwt>
<rscale>  0 0.15663623E+03</rscale>
<asrwt>0</asrwt>
<pdfrwt beam="2">  1        1 0.11889280E+00 0.16309735E+03</pdfrwt>
<pdfrwt beam="1">  1       -1 0.45360342E-02 0.16309735E+03</pdfrwt>
<totfact> 0.48493666E+03</totfact>
</mgrwt>
</event>
<event>
 6    1  0.6101889E-006  0.1646740E+03  0.7546771E-02  0.1190476E+00
          1   -1    0    0  501    0  0.00000000000E+00  0.00000000000E+00  0.42886423170E+02  0.42886423170E+02  0.00000000000E+00 0. -1.
         -1   -1    0    0    0  501 -0.00000000000E+00 -0.00000000000E+00 -0.69196984844E+03  0.69196984844E+03  0.00000000000E+00 0.  1.
          5    1    1    2  502    0  0.36877184627E+02  0.75591659325E+02 -0.24309862948E+02  0.87676023758E+02  0.47000000000E+01 0. -1.
         -5    1    1    2    0  502  0.12054071099E+02  0.19805462225E+02 -0.15101754312E+03  0.15285923359E+03  0.47000000000E+01 0. -1.
        -11    1    1    2    0    0  0.26270189601E+02 -0.16876210672E+02 -0.13414822624E+03  0.13773407695E+03  0.00000000000E+00 0.  1.
         11    1    1    2    0    0 -0.75201445328E+02 -0.78520910878E+02 -0.33960779297E+03  0.35658693732E+03  0.00000000000E+00 0. -1.
<mgrwt>
<rscale>  0 0.15843404E+03</rscale>
<asrwt>0</asrwt>
<pdfrwt beam="1">  1        1 0.65979110E-02 0.16467395E+03</pdfrwt>
<pdfrwt beam="2">  1       -1 0.10645690E+00 0.16467395E+03</pdfrwt>
<totfact> 0.98058805E+02</totfact>
</mgrwt>
</event>
<event>
 6    1  0.6101889E-006  0.1311129E+03  0.7546771E-02  0.1239307E+00
          2   -1    0    0  501    0  0.00000000000E+00  0.00000000000E+00  0.21418187349E+03  0.21418187349E+03  0.00000000000E+00 0.  1.
         -2   -1    0    0    0  501 -0.00000000000E+00 -0.00000000000E+00 -0.63335052877E+02  0.63335052877E+02  0.00000000000E+00 0. -1.
          5    1    1    2  502    0  0.17006129351E+02 -0.61711212724E+02  0.41471544234E+02  0.76416367308E+02  0.47000000000E+01 0. -1.
         -5    1    1    2    0  502  0.22559341265E+02  0.61711723767E+02  0.64137416891E+02  0.91939974843E+02  0.47000000000E+01 0. -1.
        -11    1    1    2    0    0 -0.27263996882E+02 -0.95337327787E+01  0.72348351830E+02  0.77900587926E+02  0.00000000000E+00 0.  1.
         11    1    1    2    0    0 -0.12301473734E+02  0.95332217354E+01 -0.27110492346E+02  0.31259996288E+02  0.00000000000E+00 0. -1.
<mgrwt>
<rscale>  0 0.12232676E+03</rscale>
<asrwt>0</asrwt>
<pdfrwt beam="1">  1        2 0.32951057E-01 0.13111295E+03</pdfrwt>
<pdfrwt beam="2">  1       -2 0.97438544E-02 0.13111295E+03</pdfrwt>
<totfact> 0.10282427E+04</totfact>
</mgrwt>
</event>
<event>
 6    1  0.6101889E-006  0.2818949E+03  0.7546771E-02  0.1094658E+00
          2   -1    0    0  501    0  0.00000000000E+00  0.00000000000E+00  0.92943512415E+03  0.92943512415E+03  0.00000000000E+00 0. -1.
         -2   -1    0    0    0  501 -0.00000000000E+00 -0.00000000000E+00 -0.21374463452E+02  0.21374463452E+02  0.00000000000E+00 0.  1.
          5    1    1    2  502    0 -0.84888025496E+01 -0.94049249518E+02  0.23121048770E+03  0.24979531767E+03  0.47000000000E+01 0. -1.
         -5    1    1    2    0  502 -0.26942060944E+02  0.13561888375E+02  0.34471624929E+03  0.34606528574E+03  0.47000000000E+01 0. -1.
        -11    1    1    2    0    0  0.23759643411E+02  0.47501202615E+02  0.30775291515E+03  0.31230232418E+03  0.00000000000E+00 0. -1.
         11    1    1    2    0    0  0.11671220083E+02  0.32986158529E+02  0.24381008546E+02  0.42646660015E+02  0.00000000000E+00 0.  1.
<mgrwt>
<rscale>  0 0.28189485E+03</rscale>
<asrwt>0</asrwt>
<pdfrwt beam="1">  1        2 0.14298999E+00 0.28189485E+03</pdfrwt>
<pdfrwt beam="2">  1       -2 0.32883797E-02 0.28189485E+03</pdfrwt>
<totfact> 0.10716714E+04</totfact>
</mgrwt>
</event>
<event>
 6    1  0.6101889E-006  0.1400092E+03  0.7546771E-02  0.1224683E+00
         -1   -1    0    0    0  501 -0.00000000000E+00  0.00000000000E+00  0.42006905831E+03  0.42006905831E+03  0.00000000000E+00 0.  1.
          1   -1    0    0  501    0  0.00000000000E+00 -0.00000000000E+00 -0.38307466177E+02  0.38307466177E+02  0.00000000000E+00 0. -1.
          5    1    1    2  502    0  0.48147248157E+00  0.70155351203E+02  0.67294458032E+02  0.97327484299E+02  0.47000000000E+01 0. -1.
         -5    1    1    2    0  502  0.54226305777E+02 -0.38769321578E+02  0.10821829546E+03  0.12718821489E+03  0.47000000000E+01 0. -1.
        -11    1    1    2    0    0 -0.34823138308E+02 -0.27513443133E+01  0.19367629277E+03  0.19680123789E+03  0.00000000000E+00 0.  1.
         11    1    1    2    0    0 -0.19884639950E+02 -0.28634685312E+02  0.12572545871E+02  0.37059587404E+02  0.00000000000E+00 0. -1.
<mgrwt>
<rscale>  0 0.13188631E+03</rscale>
<asrwt>0</asrwt>
<pdfrwt beam="2">  1        1 0.58934566E-02 0.14000919E+03</pdfrwt>
<pdfrwt beam="1">  1       -1 0.64626006E-01 0.14000919E+03</pdfrwt>
<totfact> 0.32108013E+03</totfact>
</mgrwt>
</event>
<event>
 6    1  0.6101889E-006  0.3396898E+03  0.7546771E-02  0.1066928E+00
          1   -1    0    0  501    0  0.00000000000E+00  0.00000000000E+00  0.56382971738E+02  0.56382971738E+02  0.00000000000E+00 0. -1.
         -1   -1    0    0    0  501 -0.00000000000E+00 -0.00000000000E+00 -0.51163130737E+03  0.51163130737E+03  0.00000000000E+00 0.  1.
          5    1    1    2  502    0 -0.43875975634E+02 -0.13240470618E+03 -0.11031588949E+03  0.17789826568E+03  0.47000000000E+01 0. -1.
         -5    1    1    2    0  502  0.26029843715E+02  0.97403269266E+01 -0.63566589171E+02  0.69535803665E+02  0.47000000000E+01 0. -1.
        -11    1    1    2    0    0  0.17985495736E+02  0.84141704127E+02 -0.26518939577E+03  0.27879870886E+03  0.00000000000E+00 0.  1.
         11    1    1    2    0    0 -0.13936381736E+00  0.38522675127E+02 -0.16176461192E+02  0.41781500905E+02  0.00000000000E+00 0. -1.
<mgrwt>
<rscale>  0 0.33968982E+03</rscale>
<asrwt>0</asrwt>
<pdfrwt beam="1">  1        1 0.86743037E-02 0.33968982E+03</pdfrwt>
<pdfrwt beam="2">  1       -1 0.78712506E-01 0.33968982E+03</pdfrwt>
<totfact> 0.13173722E+03</totfact>
</mgrwt>
</event>
<event>
 6    1  0.6101889E-006  0.3398898E+03  0.7546771E-02  0.1112337E+00
          2   -1    0    0  501    0  0.00000000000E+00  0.00000000000E+00  0.22459837259E+04  0.22459837259E+04  0.00000000000E+00 0. -1.
         -2   -1    0    0    0  501 -0.00000000000E+00 -0.00000000000E+00 -0.21868191491E+02  0.21868191491E+02  0.00000000000E+00 0.  1.
          5    1    1    2  502    0 -0.28106185569E+02  0.17046553324E+03  0.12165708871E+04  0.12287860957E+04  0.47000000000E+01 0. -1.
         -5    1    1    2    0  502  0.59498015957E+02 -0.13917525109E+03  0.56650125163E+03  0.58639195298E+03  0.47000000000E+01 0.  1.
        -11    1    1    2    0    0 -0.19822498111E+02  0.27845900878E+02  0.85827992258E+02  0.92383818291E+02  0.00000000000E+00 0.  1.
         11    1    1    2    0    0 -0.11569332277E+02 -0.59136183029E+02  0.35521540344E+03  0.36029005042E+03  0.00000000000E+00 0. -1.
<mgrwt>
<rscale>  0 0.25153783E+03</rscale>
<asrwt>0</asrwt>
<pdfrwt beam="1">  1        2 0.34553578E+00 0.33988983E+03</pdfrwt>
<pdfrwt beam="2">  1       -2 0.33643389E-02 0.33988983E+03</pdfrwt>
<totfact> 0.19513245E+03</totfact>
</mgrwt>
</event>
<event>
 6    1  0.6101889E-006  0.1715698E+03  0.7546771E-02  0.1182798E+00
          1   -1    0    0  501    0  0.00000000000E+00  0.00000000000E+00  0.21908518041E+03  0.21908518041E+03  0.00000000000E+00 0. -1.
         -1   -1    0    0    0  501 -0.00000000000E+00 -0.00000000000E+00 -0.13339789660E+03  0.13339789660E+03  0.00000000000E+00 0.  1.
          5    1    1    2  502    0  0.54289911875E+02  0.12324293318E+03  0.94581254135E+02  0.16463267824E+03  0.47000000000E+01 0.  1.
         -5    1    1    2    0  502 -0.34597979251E+02 -0.73866096569E+01  0.13579160028E+02  0.38184627241E+02  0.47000000000E+01 0.  1.
        -11    1    1    2    0    0  0.19222924627E+02 -0.33511161320E+01  0.15273280629E+02  0.24779505881E+02  0.00000000000E+00 0. -1.
         11    1    1    2    0    0 -0.38914857251E+02 -0.11250520739E+03 -0.37746410987E+02  0.12488626564E+03  0.00000000000E+00 0.  1.
<mgrwt>
<rscale>  0 0.16533820E+03</rscale>
<asrwt>0</asrwt>
<pdfrwt beam="1">  1        1 0.33705412E-01 0.17156976E+03</pdfrwt>
<pdfrwt beam="2">  1       -1 0.20522753E-01 0.17156976E+03</pdfrwt>
<totfact> 0.24760544E+03</totfact>
</mgrwt>
</event>
<event>
 6    1  0.6101889E-006  0.1393850E+03  0.7546771E-02  0.1230274E+00
          1   -1    0    0  501    0  0.00000000000E+00  0.00000000000E+00  0.14392440798E+04  0.14392440798E+04  0.00000000000E+00 0. -1.
         -1   -1    0    0    0  501 -0.00000000000E+00 -0.00000000000E+00 -0.10309907375E+02  0.10309907375E+02  0.00000000000E+00 0.  1.
          5    1    1    2  502    0  0.38691591343E+02 -0.40471111281E+00  0.14024822847E+03  0.14556393310E+03  0.47000000000E+01 0.  1.
         -5    1    1    2    0  502 -0.69336780481E+02  0.53922353528E+02  0.82937448181E+03  0.83402597707E+03  0.47000000000E+01 0.  1.
        -11    1    1    2    0    0  0.53511085207E+02 -0.51880105122E+02  0.38679577668E+03  0.39391109963E+03  0.00000000000E+00 0. -1.
         11    1    1    2    0    0 -0.22865896068E+02 -0.16375372924E+01  0.72515685503E+02  0.76052977426E+02  0.00000000000E+00 0.  1.
<mgrwt>
<rscale>  0 0.12811861E+03</rscale>
<asrwt>0</asrwt>
<pdfrwt beam="1">  1        1 0.22142201E+00 0.13938505E+03</pdfrwt>
<pdfrwt beam="2">  1       -1 0.15861407E-02 0.13938505E+03</pdfrwt>
<totfact> 0.73902354E+03</totfact>
</mgrwt>
</event>
<event>
 6    1  0.6101889E-006  0.2407437E+03  0.7546771E-02  0.1122110E+00
         -2   -1    0    0    0  501 -0.00000000000E+00  0.00000000000E+00  0.87129838225E+03  0.87129838225E+03  0.00000000000E+00 0.  1.
          2   -1    0    0  501    0  0.00000000000E+00 -0.00000000000E+00 -0.62333185062E+02  0.62333185062E+02  0.00000000000E+00 0. -1.
          5    1    1    2  502    0  0.18682662383E+01 -0.65200404541E+01  0.14331377594E+03  0.14355113974E+03  0.47000000000E+01 0. -1.
         -5    1    1    2    0  502  0.17771285603E+03 -0.93899994723E+02  0.30477791050E+03  0.36511742349E+03  0.47000000000E+01 0. -1.
        -11    1    1    2    0    0 -0.12732348136E+03  0.23184110874E+02  0.18316197931E+03  0.22427011073E+03  0.00000000000E+00 0. -1.
         11    1    1    2    0    0 -0.52257640906E+02  0.77235924303E+02  0.17771153144E+03  0.20069289335E+03  0.00000000000E+00 0.  1.
<mgrwt>
<rscale>  0 0.23655445E+03</rscale>
<asrwt>0</asrwt>
<pdfrwt beam="2">  1        2 0.95897214E-02 0.24074374E+03</pdfrwt>
<pdfrwt beam="1">  1       -2 0.13404590E+00 0.24074374E+03</pdfrwt>
<totfact> 0.28524762E+02</totfact>
</mgrwt>
</event>
<event>
 6    1  0.6101889E-006  0.1322795E+03  0.7546771E-02  0.1236968E+00
         -2   -1    0    0    0  501 -0.00000000000E+00  0.00000000000E+00  0.10393121198E+03  0.10393121198E+03  0.00000000000E+00 0.  1.
          2   -1    0    0  501    0  0.00000000000E+00 -0.00000000000E+00 -0.13455799559E+03  0.13455799559E+03  0.00000000000E+00 0. -1.
          5    1    1    2  502    0 -0.44284987910E+02 -0.55326906432E+02  0.16974841078E+01  0.71043635758E+02  0.47000000000E+01 0.  1.
         -5    1    1    2    0  502  0.52720052113E+02  0.12903067302E+02 -0.37032180048E+02  0.65873859760E+02  0.47000000000E+01 0.  1.
        -11    1    1    2    0    0  0.29191511861E+02  0.44767924818E+02  0.24726016031E+02  0.58887072656E+02  0.00000000000E+00 0.  1.
         11    1    1    2    0    0 -0.37626576065E+02 -0.23440856884E+01 -0.20018103706E+02  0.42684639393E+02  0.00000000000E+00 0. -1.
<mgrwt>
<rscale>  0 0.12379291E+03</rscale>
<asrwt>0</asrwt>
<pdfrwt beam="2">  1        2 0.20701230E-01 0.13227948E+03</pdfrwt>
<pdfrwt beam="1">  1       -2 0.15989417E-01 0.13227948E+03</pdfrwt>
<totfact> 0.77479672E+03</totfact>
</mgrwt>
</event>
<event>
 6    1  0.6101889E-006  0.1610553E+03  0.7546771E-02  0.1208131E+00
          2   -1    0    0  501    0  0.00000000000E+00  0.00000000000E+00  0.22953648604E+03  0.22953648604E+03  0.00000000000E+00 0. -1.
         -2   -1    0    0    0  501 -0.00000000000E+00 -0.00000000000E+00 -0.95010233205E+02  0.95010233205E+02  0.00000000000E+00 0.  1.
          5    1    1    2  502    0  0.45037794079E+02  0.80866808962E+02  0.11213015065E+03  0.14547544251E+03  0.47000000000E+01 0. -1.
         -5    1    1    2    0  502 -0.55035238335E+00 -0.64248399028E+02  0.38542728252E+02  0.75071909304E+02  0.47000000000E+01 0.  1.
        -11    1    1    2    0    0 -0.66874828997E+02  0.52703129235E+01 -0.24793483624E+02  0.71517380978E+02  0.00000000000E+00 0.  1.
         11    1    1    2    0    0  0.22387387301E+02 -0.21888722857E+02  0.86468575514E+01  0.32481986454E+02  0.00000000000E+00 0. -1.
<mgrwt>
<rscale>  0 0.14393433E+03</rscale>
<asrwt>0</asrwt>
<pdfrwt beam="1">  1        2 0.35313305E-01 0.16105533E+03</pdfrwt>
<pdfrwt beam="2">  1       -2 0.14616959E-01 0.16105533E+03</pdfrwt>
<totfact> 0.50592744E+03</totfact>
</mgrwt>
</event>
<event>
 6    1  0.6524863E-006  0.2801957E+03  0.7546771E-02  0.1097667E+00
          1   -1    0    0  501    0  0.00000000000E+00  0.00000000000E+00  0.10225412348E+04  0.10225412348E+04  0.00000000000E+00 0. -1.
         -1   -1    0    0    0  501 -0.00000000000E+00 -0.00000000000E+00 -0.83625736582E+02  0.83625736582E+02  0.00000000000E+00 0.  1.
          5    1    1    2  502    0  0.26209934658E+03  0.25991677988E+02  0.63893943021E+03  0.69111310238E+03  0.47000000000E+01 0.  1.
         -5    1    1    2    0  502 -0.11779577186E+02 -0.10969814770E+02  0.40889901101E+02  0.44194674869E+02  0.47000000000E+01 0.  1.
        -11    1    1    2    0    0 -0.14258946734E+03  0.18778083250E+02  0.19070883513E+03  0.23886027799E+03  0.00000000000E+00 0.  1.
         11    1    1    2    0    0 -0.10773030206E+03 -0.33799946469E+02  0.68377331796E+02  0.13199891616E+03  0.00000000000E+00 0. -1.
<mgrwt>
<rscale>  0 0.27640827E+03</rscale>
<asrwt>0</asrwt>
<pdfrwt beam="1">  1        1 0.15731403E+00 0.28019566E+03</pdfrwt>
<pdfrwt beam="2">  1       -1 0.12865499E-01 0.28019566E+03</pdfrwt>
<totfact> 0.63295155E+02</totfact>
</mgrwt>
</event>
<event>
 6    1  0.6101889E-006  0.1318244E+03  0.7546771E-02  0.1238280E+00
          3   -1    0    0  501    0  0.00000000000E+00  0.00000000000E+00  0.46102067683E+03  0.46102067683E+03  0.00000000000E+00 0. -1.
         -3   -1    0    0    0  501 -0.00000000000E+00 -0.00000000000E+00 -0.29762691057E+02  0.29762691057E+02  0.00000000000E+00 0.  1.
          5    1    1    2  502    0 -0.52200238869E+01 -0.42869010542E+02  0.64548477350E+02  0.77804862589E+02  0.47000000000E+01 0.  1.
         -5    1    1    2    0  502  0.81450780032E+01  0.84568554041E+02  0.21660923082E+03  0.23272264931E+03  0.47000000000E+01 0.  1.
        -11    1    1    2    0    0  0.38689736935E+02  0.13129150052E+01  0.45461543517E+02  0.59710731270E+02  0.00000000000E+00 0. -1.
         11    1    1    2    0    0 -0.41614791051E+02 -0.43012458504E+02  0.10463873409E+03  0.12054512471E+03  0.00000000000E+00 0.  1.
<mgrwt>
<rscale>  0 0.12296759E+03</rscale>
<asrwt>0</asrwt>
<pdfrwt beam="1">  1        3 0.70926253E-01 0.13182442E+03</pdfrwt>
<pdfrwt beam="2">  1       -3 0.45788759E-02 0.13182442E+03</pdfrwt>
<totfact> 0.11647048E+03</totfact>
</mgrwt>
</event>
<event>
 6    1  0.6101889E-006  0.2342192E+03  0.7546771E-02  0.1126754E+00
          1   -1    0    0  501    0  0.00000000000E+00  0.00000000000E+00  0.17365831596E+04  0.17365831596E+04  0.00000000000E+00 0. -1.
         -1   -1    0    0    0  501 -0.00000000000E+00 -0.00000000000E+00 -0.33741752864E+02  0.33741752864E+02  0.00000000000E+00 0.  1.
          5    1    1    2  502    0  0.10660935334E+03 -0.16779342664E+02  0.52919773253E+03  0.54011057264E+03  0.47000000000E+01 0.  1.
         -5    1    1    2    0  502  0.36067627582E+02 -0.12064402708E+03  0.66991523430E+03  0.68166294176E+03  0.47000000000E+01 0.  1.
        -11    1    1    2    0    0 -0.66885887086E+02  0.78023039653E+02  0.36836027956E+03  0.38242726389E+03  0.00000000000E+00 0. -1.
         11    1    1    2    0    0 -0.75791093839E+02  0.59400330091E+02  0.13536816037E+03  0.16612413419E+03  0.00000000000E+00 0.  1.
<mgrwt>
<rscale>  0 0.22983744E+03</rscale>
<asrwt>0</asrwt>
<pdfrwt beam="1">  1        1 0.26716657E+00 0.23421916E+03</pdfrwt>
<pdfrwt beam="2">  1       -1 0.51910403E-02 0.23421916E+03</pdfrwt>
<totfact> 0.83534575E+02</totfact>
</mgrwt>
</event>
<event>
 6    1  0.6101889E-006  0.2007617E+03  0.7546771E-02  0.1153050E+00
         -1   -1    0    0    0  501 -0.00000000000E+00  0.00000000000E+00  0.35609034606E+02  0.35609034606E+02  0.00000000000E+00 0.  1.
          1   -1    0    0  501    0  0.00000000000E+00 -0.00000000000E+00 -0.12988241469E+04  0.12988241469E+04  0.00000000000E+00 0. -1.
          5    1    1    2  502    0 -0.20911971624E+02 -0.39825402864E+02 -0.38077317068E+03  0.38344969785E+03  0.47000000000E+01 0.  1.
         -5    1    1    2    0  502  0.12084279977E+03 -0.81379463248E+02 -0.57581081877E+03  0.59397456874E+03  0.47000000000E+01 0.  1.
        -11    1    1    2    0    0 -0.48324180984E+02 -0.23158192401E+01 -0.94627122403E+02  0.10627738132E+03  0.00000000000E+00 0. -1.
         11    1    1    2    0    0 -0.51606647159E+02  0.12352068535E+03 -0.21200400048E+03  0.25073153364E+03  0.00000000000E+00 0.  1.
<mgrwt>
<rscale>  0 0.19612463E+03</rscale>
<asrwt>0</asrwt>
<pdfrwt beam="2">  1        1 0.19981911E+00 0.20076172E+03</pdfrwt>
<pdfrwt beam="1">  1       -1 0.54783128E-02 0.20076172E+03</pdfrwt>
<totfact> 0.15015233E+03</totfact>
</mgrwt>
</event>
<event>
 6    1  0.6101889E-006  0.1288637E+03  0.7546771E-02  0.1243816E+00
         -2   -1    0    0    0  501 -0.00000000000E+00  0.00000000000E+00  0.47720380353E+02  0.47720380353E+02  0.00000000000E+00 0.  1.
          2   -1    0    0  501    0  0.00000000000E+00 -0.00000000000E+00 -0.30996292632E+03  0.30996292632E+03  0.00000000000E+00 0. -1.
          5    1    1    2  502    0  0.11614730022E+02  0.37824906121E+02 -0.21609934628E+02  0.45328851201E+02  0.47000000000E+01 0.  1.
         -5    1    1    2    0  502 -0.47890039090E+01 -0.68392970890E+02 -0.19451398696E+03  0.20629666538E+03  0.47000000000E+01 0.  1.
        -11    1    1    2    0    0 -0.24503660170E+02  0.83381687406E+01  0.20900753194E+02  0.33268542254E+02  0.00000000000E+00 0.  1.
         11    1    1    2    0    0  0.17677934056E+02  0.22229896028E+02 -0.67019377579E+02  0.72789247839E+02  0.00000000000E+00 0. -1.
<mgrwt>
<rscale>  0 0.11956531E+03</rscale>
<asrwt>0</asrwt>
<pdfrwt beam="2">  1        2 0.47686606E-01 0.12886369E+03</pdfrwt>
<pdfrwt beam="1">  1       -2 0.73415966E-02 0.12886369E+03</pdfrwt>
<totfact> 0.10746473E+04</totfact>
</mgrwt>
</event>
<event>
 6    1  0.6101889E-006  0.2663621E+03  0.7546771E-02  0.1103380E+00
         -1   -1    0    0    0  501 -0.00000000000E+00  0.00000000000E+00  0.36163781170E+02  0.36163781170E+02  0.00000000000E+00 0.  1.
          1   -1    0    0  501    0  0.00000000000E+00 -0.00000000000E+00 -0.49046844122E+03  0.49046844122E+03  0.00000000000E+00 0. -1.
          5    1    1    2  502    0 -0.30753776110E+02 -0.94302287317E+02 -0.29721829052E+03  0.31336802383E+03  0.47000000000E+01 0. -1.
         -5    1    1    2    0  502  0.79931371985E+01  0.25915833748E+02 -0.22773412650E+02  0.35724487468E+02  0.47000000000E+01 0.  1.
        -11    1    1    2    0    0  0.57270137736E+02  0.51926237185E+02 -0.81409000700E+02  0.11226588164E+03  0.00000000000E+00 0.  1.
         11    1    1    2    0    0 -0.34509498825E+02  0.16460216384E+02 -0.52903956180E+02  0.65273829457E+02  0.00000000000E+00 0. -1.
<mgrwt>
<rscale>  0 0.26636211E+03</rscale>
<asrwt>0</asrwt>
<pdfrwt beam="2">  1        1 0.75456685E-01 0.26636211E+03</pdfrwt>
<pdfrwt beam="1">  1       -1 0.55636585E-02 0.26636211E+03</pdfrwt>
<totfact> 0.68964129E+03</totfact>
</mgrwt>
</event>
<event>
 6    1  0.6101889E-006  0.2915774E+03  0.7546771E-02  0.1089528E+00
          4   -1    0    0  501    0  0.00000000000E+00  0.00000000000E+00  0.23604280324E+03  0.23604280324E+03  0.00000000000E+00 0. -1.
         -4   -1    0    0    0  501 -0.00000000000E+00 -0.00000000000E+00 -0.90044432010E+02  0.90044432010E+02  0.00000000000E+00 0.  1.
          5    1    1    2  502    0 -0.10395312251E+03 -0.85493914731E+01  0.63007020338E+02  0.12194801510E+03  0.47000000000E+01 0. -1.
         -5    1    1    2    0  502  0.26923898607E+02 -0.37280409098E+02  0.55433944824E+02  0.72178511051E+02  0.47000000000E+01 0. -1.
        -11    1    1    2    0    0  0.41618412724E+02  0.18520483916E+02 -0.33309550714E+02  0.56432497472E+02  0.00000000000E+00 0.  1.
         11    1    1    2    0    0  0.35410811177E+02  0.27309316655E+02  0.60866956783E+02  0.75528211633E+02  0.00000000000E+00 0. -1.
<mgrwt>
<rscale>  0 0.29157737E+03</rscale>
<asrwt>0</asrwt>
<pdfrwt beam="1">  1        4 0.36314277E-01 0.29157737E+03</pdfrwt>
<pdfrwt beam="2">  1       -4 0.13852990E-01 0.29157737E+03</pdfrwt>
<totfact> 0.60198550E+02</totfact>
</mgrwt>
</event>
<event>
 6    1  0.6101889E-006  0.1256055E+03  0.7546771E-02  0.1249138E+00
         -1   -1    0    0    0  501 -0.00000000000E+00  0.00000000000E+00  0.91407349899E+02  0.91407349899E+02  0.00000000000E+00 0.  1.
          1   -1    0    0  501    0  0.00000000000E+00 -0.00000000000E+00 -0.13055062030E+03  0.13055062030E+03  0.00000000000E+00 0. -1.
          5    1    1    2  502    0  0.11415058143E+02 -0.61477593404E+02 -0.24013983579E+01  0.62750735113E+02  0.47000000000E+01 0. -1.
         -5    1    1    2    0  502 -0.23089969939E+02  0.57599463411E+02 -0.15399338806E+02  0.64109862991E+02  0.47000000000E+01 0. -1.
        -11    1    1    2    0    0  0.17795750902E+02  0.25357522268E+02  0.27478779841E+02  0.41409854230E+02  0.00000000000E+00 0.  1.
         11    1    1    2    0    0 -0.61208391070E+01 -0.21479392276E+02 -0.48821313074E+02  0.53687517862E+02  0.00000000000E+00 0. -1.
<mgrwt>
<rscale>  0 0.11641075E+03</rscale>
<asrwt>0</asrwt>
<pdfrwt beam="2">  1        1 0.20084711E-01 0.12560551E+03</pdfrwt>
<pdfrwt beam="1">  1       -1 0.14062669E-01 0.12560551E+03</pdfrwt>
<totfact> 0.84881360E+03</totfact>
</mgrwt>
</event>
<event>
 6    1  0.6101889E-006  0.1474567E+03  0.7546771E-02  0.1214365E+00
         -1   -1    0    0    0  501 -0.00000000000E+00  0.00000000000E+00  0.14388787723E+03  0.14388787723E+03  0.00000000000E+00 0.  1.
          1   -1    0    0  501    0  0.00000000000E+00 -0.00000000000E+00 -0.12551000286E+03  0.12551000286E+03  0.00000000000E+00 0. -1.
          5    1    1    2  502    0  0.78798477166E+02  0.20422510109E+02  0.30568852650E+02  0.87079410167E+02  0.47000000000E+01 0.  1.
         -5    1    1    2    0  502 -0.36477207959E+01 -0.42126440729E+02 -0.43654307178E+02  0.60956799544E+02  0.47000000000E+01 0.  1.
        -11    1    1    2    0    0  0.76104209612E+01  0.32764259358E+02  0.70310346492E+01  0.34363507486E+02  0.00000000000E+00 0.  1.
         11    1    1    2    0    0 -0.82761177331E+02 -0.11060328739E+02  0.24432294244E+02  0.86998162895E+02  0.00000000000E+00 0. -1.
<mgrwt>
<rscale>  0 0.13923286E+03</rscale>
<asrwt>0</asrwt>
<pdfrwt beam="2">  1        1 0.19309231E-01 0.14745674E+03</pdfrwt>
<pdfrwt beam="1">  1       -1 0.22136596E-01 0.14745674E+03</pdfrwt>
<totfact> 0.43878055E+03</totfact>
</mgrwt>
</event>
<event>
 6    1  0.6101889E-006  0.1401148E+03  0.7546771E-02  0.1224078E+00
         -2   -1    0    0    0  501 -0.00000000000E+00  0.00000000000E+00  0.72182571614E+03  0.72182571614E+03  0.00000000000E+00 0.  1.
          2   -1    0    0  501    0  0.00000000000E+00 -0.00000000000E+00 -0.21985241209E+02  0.21985241209E+02  0.00000000000E+00 0. -1.
          5    1    1    2  502    0  0.14011313891E+02 -0.50938815950E+02  0.21136784801E+03  0.21792094223E+03  0.47000000000E+01 0.  1.
         -5    1    1    2    0  502  0.47997441113E+02  0.63716120908E+02  0.15635552714E+03  0.17559225292E+03  0.47000000000E+01 0.  1.
        -11    1    1    2    0    0 -0.67055299602E+02  0.26089162878E+02  0.22580011887E+03  0.23698681674E+03  0.00000000000E+00 0. -1.
         11    1    1    2    0    0  0.50465445978E+01 -0.38866467836E+02  0.10631698091E+03  0.11331094547E+03  0.00000000000E+00 0.  1.
<mgrwt>
<rscale>  0 0.13230317E+03</rscale>
<asrwt>0</asrwt>
<pdfrwt beam="2">  1        2 0.33823454E-02 0.14011479E+03</pdfrwt>
<pdfrwt beam="1">  1       -2 0.11105009E+00 0.14011479E+03</pdfrwt>
<totfact> 0.17148714E+03</totfact>
</mgrwt>
</event>
<event>
 6    1  0.6101889E-006  0.1382763E+03  0.7546771E-02  0.1226129E+00
         -1   -1    0    0    0  501 -0.00000000000E+00  0.00000000000E+00  0.22164264114E+02  0.22164264114E+02  0.00000000000E+00 0.  1.
          1   -1    0    0  501    0  0.00000000000E+00 -0.00000000000E+00 -0.82623900919E+03  0.82623900919E+03  0.00000000000E+00 0. -1.
          5    1    1    2  502    0  0.50056990993E+02  0.81151410250E+02 -0.43420362525E+03  0.44457410171E+03  0.47000000000E+01 0. -1.
         -5    1    1    2    0  502 -0.38254612947E+02 -0.18056730154E+02 -0.16932824738E+03  0.17459555056E+03  0.47000000000E+01 0.  1.
        -11    1    1    2    0    0 -0.35003273294E+02  0.54499387399E+01 -0.41919155366E+02  0.54883026157E+02  0.00000000000E+00 0. -1.
         11    1    1    2    0    0  0.23200895248E+02 -0.68544618836E+02 -0.15862371708E+03  0.17435059487E+03  0.00000000000E+00 0.  1.
<mgrwt>
<rscale>  0 0.13089827E+03</rscale>
<asrwt>0</asrwt>
<pdfrwt beam="2">  1        1 0.12711366E+00 0.13827631E+03</pdfrwt>
<pdfrwt beam="1">  1       -1 0.34098877E-02 0.13827631E+03</pdfrwt>
<totfact> 0.66201255E+03</totfact>
</mgrwt>
</event>
<event>
 6    1  0.7651715E-006  0.1749454E+03  0.7546771E-02  0.1178814E+00
          2   -1    0    0  501    0  0.00000000000E+00  0.00000000000E+00  0.23371785084E+03  0.23371785084E+03  0.00000000000E+00 0. -1.
         -2   -1    0    0    0  501 -0.00000000000E+00 -0.00000000000E+00 -0.12620287791E+03  0.12620287791E+03  0.00000000000E+00 0.  1.
          5    1    1    2  502    0  0.56325269968E+02  0.53866297078E+02 -0.70723435348E+01  0.78397844619E+02  0.47000000000E+01 0.  1.
         -5    1    1    2    0  502  0.75385636477E+01  0.50548596612E+02  0.11819213786E+03  0.12885442179E+03  0.47000000000E+01 0.  1.
        -11    1    1    2    0    0 -0.45581627332E+02 -0.33803427381E+02 -0.41659854687E+02  0.70398152998E+02  0.00000000000E+00 0.  1.
         11    1    1    2    0    0 -0.18282206283E+02 -0.70611466308E+02  0.38055033285E+02  0.82270309341E+02  0.00000000000E+00 0. -1.
<mgrwt>
<rscale>  0 0.16907677E+03</rscale>
<asrwt>0</asrwt>
<pdfrwt beam="1">  1        2 0.35956592E-01 0.17494540E+03</pdfrwt>
<pdfrwt beam="2">  1       -2 0.19415827E-01 0.17494540E+03</pdfrwt>
<totfact> 0.31060716E+03</totfact>
</mgrwt>
</event>
<event>
 6    1  0.6101889E-006  0.1499411E+03  0.7546771E-02  0.1206531E+00
         -2   -1    0    0    0  501 -0.00000000000E+00  0.00000000000E+00  0.40755455933E+02  0.40755455933E+02  0.00000000000E+00 0.  1.
          2   -1    0    0  501    0  0.00000000000E+00 -0.00000000000E+00 -0.83744179565E+03  0.83744179565E+03  0.00000000000E+00 0. -1.
          5    1    1    2  502    0 -0.58347233634E+02 -0.27428966439E+02 -0.24067335636E+03  0.24920373660E+03  0.47000000000E+01 0. -1.
         -5    1    1    2    0  502 -0.21281287832E+02  0.79668220407E+02 -0.45639953974E+03  0.46381305332E+03  0.47000000000E+01 0.  1.
        -11    1    1    2    0    0  0.95520497469E+02 -0.29717378155E+02 -0.59133895170E+02  0.11620716656E+03  0.00000000000E+00 0.  1.
         11    1    1    2    0    0 -0.15891976004E+02 -0.22521875813E+02 -0.40479548449E+02  0.48973295111E+02  0.00000000000E+00 0. -1.
<mgrwt>
<rscale>  0 0.14517425E+03</rscale>
<asrwt>0</asrwt>
<pdfrwt beam="2">  1        2 0.12883718E+00 0.14994106E+03</pdfrwt>
<pdfrwt beam="1">  1       -2 0.62700710E-02 0.14994106E+03</pdfrwt>
<totfact> 0.45214470E+03</totfact>
</mgrwt>
</event>
<event>
 6    1  0.6101889E-006  0.1380888E+03  0.7546771E-02  0.1227356E+00
          2   -1    0    0  501    0  0.00000000000E+00  0.00000000000E+00  0.37727486962E+02  0.37727486962E+02  0.00000000000E+00 0. -1.
         -2   -1    0    0    0  501 -0.00000000000E+00 -0.00000000000E+00 -0.44689931741E+03  0.44689931741E+03  0.00000000000E+00 0.  1.
          5    1    1    2  502    0 -0.39316367698E+02 -0.21668700770E+02 -0.16648298996E+03  0.17249343555E+03  0.47000000000E+01 0.  1.
         -5    1    1    2    0  502  0.74631686191E+01 -0.27619454389E+02  0.14866181801E+02  0.32582610515E+02  0.47000000000E+01 0.  1.
        -11    1    1    2    0    0 -0.67849672613E+01 -0.21068648419E+02 -0.24293346856E+02  0.32864729247E+02  0.00000000000E+00 0. -1.
         11    1    1    2    0    0  0.38638166340E+02  0.70356803579E+02 -0.23326167543E+03  0.24668602906E+03  0.00000000000E+00 0.  1.
<mgrwt>
<rscale>  0 0.13006748E+03</rscale>
<asrwt>0</asrwt>
<pdfrwt beam="1">  1        2 0.58042288E-02 0.13808884E+03</pdfrwt>
<pdfrwt beam="2">  1       -2 0.68753741E-01 0.13808884E+03</pdfrwt>
<totfact> 0.24570638E+03</totfact>
</mgrwt>
</event>
<event>
 6    1  0.6101889E-006  0.1273709E+03  0.7546771E-02  0.1246788E+00
         -2   -1    0    0    0  501 -0.00000000000E+00  0.00000000000E+00  0.36669990821E+02  0.36669990821E+02  0.00000000000E+00 0.  1.
          2   -1    0    0  501    0  0.00000000000E+00 -0.00000000000E+00 -0.10346681789E+04  0.10346681789E+04  0.00000000000E+00 0. -1.
          5    1    1    2  502    0  0.47376835023E+02 -0.33435147683E+01 -0.64186021698E+03  0.64363217114E+03  0.47000000000E+01 0. -1.
         -5    1    1    2    0  502 -0.60990536690E+02  0.23569888629E+02 -0.32181835038E+03  0.32842735248E+03  0.47000000000E+01 0. -1.
        -11    1    1    2    0    0 -0.71281531396E+01  0.10203805874E+02  0.25874512422E+02  0.28712690828E+02  0.00000000000E+00 0.  1.
         11    1    1    2    0    0  0.20741854806E+02 -0.30430179735E+02 -0.60194133180E+02  0.70565955310E+02  0.00000000000E+00 0. -1.
<mgrwt>
<rscale>  0 0.11778978E+03</rscale>
<asrwt>0</asrwt>
<pdfrwt beam="2">  1        2 0.15917972E+00 0.12737086E+03</pdfrwt>
<pdfrwt beam="1">  1       -2 0.56415372E-02 0.12737086E+03</pdfrwt>
<totfact> 0.39827548E+03</totfact>
</mgrwt>
</event>
<event>
 6    1  0.6101889E-006  0.1209751E+03  0.7546771E-02  0.1254196E+00
          1   -1    0    0  501    0  0.00000000000E+00  0.00000000000E+00  0.93912096955E+03  0.93912096955E+03  0.00000000000E+00 0. -1.
         -1   -1    0    0    0  501 -0.00000000000E+00 -0.00000000000E+00 -0.20182841120E+02  0.20182841120E+02  0.00000000000E+00 0.  1.
          5    1    1    2  502    0  0.58377187369E+01  0.60724637610E+02  0.29220798353E+03  0.29854506563E+03  0.47000000000E+01 0. -1.
         -5    1    1    2    0  502 -0.20134848904E+02 -0.49184356219E+02  0.50137056575E+03  0.50420139552E+03  0.47000000000E+01 0.  1.
        -11    1    1    2    0    0  0.44110884346E+02  0.34852071492E+01  0.25070358161E+02  0.50857051084E+02  0.00000000000E+00 0.  1.
         11    1    1    2    0    0 -0.29813754179E+02 -0.15025488540E+02  0.10028922098E+03  0.10570029843E+03  0.00000000000E+00 0. -1.
<mgrwt>
<rscale>  0 0.11351480E+03</rscale>
<asrwt>0</asrwt>
<pdfrwt beam="1">  1        1 0.14448012E+00 0.12097507E+03</pdfrwt>
<pdfrwt beam="2">  1       -1 0.31050532E-02 0.12097507E+03</pdfrwt>
<totfact> 0.61624451E+03</totfact>
</mgrwt>
</event>
<event>
 6    1  0.6101889E-006  0.1454730E+03  0.7546771E-02  0.1216021E+00
         -2   -1    0    0    0  501 -0.00000000000E+00  0.00000000000E+00  0.11092220972E+03  0.11092220972E+03  0.00000000000E+00 0.  1.
          2   -1    0    0  501    0  0.00000000000E+00 -0.00000000000E+00 -0.15630222080E+03  0.15630222080E+03  0.00000000000E+00 0. -1.
          5    1    1    2  502    0  0.64693425368E+02  0.29514791787E+01  0.26272354615E+02  0.70044822308E+02  0.47000000000E+01 0.  1.
         -5    1    1    2    0  502 -0.13288145792E+02 -0.56754574941E+02 -0.50839468968E+02  0.77488051984E+02  0.47000000000E+01 0.  1.
        -11    1    1    2    0    0 -0.20586289479E+02 -0.91742212776E+00  0.31712335454E+02  0.37819428840E+02  0.00000000000E+00 0.  1.
         11    1    1    2    0    0 -0.30818990097E+02  0.54720517890E+02 -0.52525232181E+02  0.81872127397E+02  0.00000000000E+00 0. -1.
<mgrwt>
<rscale>  0 0.13801808E+03</rscale>
<asrwt>0</asrwt>
<pdfrwt beam="2">  1        2 0.24046495E-01 0.14547304E+03</pdfrwt>
<pdfrwt beam="1">  1       -2 0.17064955E-01 0.14547304E+03</pdfrwt>
<totfact> 0.59241025E+03</totfact>
</mgrwt>
</event>
<event>
 6    1  0.6101889E-006  0.1379387E+03  0.7546771E-02  0.1227628E+00
         -2   -1    0    0    0  501 -0.00000000000E+00  0.00000000000E+00  0.90238433979E+02  0.90238433979E+02  0.00000000000E+00 0.  1.
          2   -1    0    0  501    0  0.00000000000E+00 -0.00000000000E+00 -0.26258613248E+03  0.26258613248E+03  0.00000000000E+00 0. -1.
          5    1    1    2  502    0  0.40154072836E+02  0.98887979061E+01 -0.49360397741E+00  0.41622968830E+02  0.47000000000E+01 0.  1.
         -5    1    1    2    0  502  0.35411149551E+01  0.28746539569E+02 -0.19758966001E+03  0.19975651873E+03  0.47000000000E+01 0.  1.
        -11    1    1    2    0    0 -0.26385368866E+02  0.23876247399E+02 -0.10557887496E+02  0.37117810663E+02  0.00000000000E+00 0. -1.
         11    1    1    2    0    0 -0.17309818925E+02 -0.62511584874E+02  0.36293452979E+02  0.74327268239E+02  0.00000000000E+00 0.  1.
<mgrwt>
<rscale>  0 0.12988373E+03</rscale>
<asrwt>0</asrwt>
<pdfrwt beam="2">  1        2 0.40397866E-01 0.13793867E+03</pdfrwt>
<pdfrwt beam="1">  1       -2 0.13882836E-01 0.13793867E+03</pdfrwt>
<totfact> 0.47228821E+03</totfact>
</mgrwt>
</event>
<event>
 6    1  0.6101889E-006  0.4825536E+03  0.7546771E-02  0.1018893E+00
          2   -1    0    0  501    0  0.00000000000E+00  0.00000000000E+00  0.14223936881E+04  0.14223936881E+04  0.00000000000E+00 0. -1.
         -2   -1    0    0    0  501 -0.00000000000E+00 -0.00000000000E+00 -0.17003018376E+03  0.17003018376E+03  0.00000000000E+00 0.  1.
          5    1    1    2  502    0 -0.17743110021E+03 -0.47889793919E+02  0.42751760683E+03  0.46536933916E+03  0.47000000000E+01 0. -1.
         -5    1    1    2    0  502 -0.24936798156E+03 -0.13939651802E+03  0.38152871034E+03  0.47665713702E+03  0.47000000000E+01 0. -1.
        -11    1    1    2    0    0  0.18451094332E+03  0.72044044475E+02  0.25365141845E+03  0.32182864172E+03  0.00000000000E+00 0. -1.
         11    1    1    2    0    0  0.24228813844E+03  0.11524226746E+03  0.18966576871E+03  0.32856875393E+03  0.00000000000E+00 0.  1.
<mgrwt>
<rscale>  0 0.48088305E+03</rscale>
<asrwt>0</asrwt>
<pdfrwt beam="1">  1        2 0.21882979E+00 0.48255356E+03</pdfrwt>
<pdfrwt beam="2">  1       -2 0.26158491E-01 0.48255356E+03</pdfrwt>
<totfact> 0.19271067E+02</totfact>
</mgrwt>
</event>
<event>
 6    1  0.6101889E-006  0.2258946E+03  0.7546771E-02  0.1132693E+00
          1   -1    0    0  501    0  0.00000000000E+00  0.00000000000E+00  0.10857440851E+04  0.10857440851E+04  0.00000000000E+00 0. -1.
         -1   -1    0    0    0  501 -0.00000000000E+00 -0.00000000000E+00 -0.44543825072E+02  0.44543825072E+02  0.00000000000E+00 0.  1.
          5    1    1    2  502    0 -0.59387189828E+02 -0.18341022869E+02  0.40562831620E+02  0.74368439169E+02  0.47000000000E+01 0.  1.
         -5    1    1    2    0  502 -0.12644680887E+03 -0.11125446274E+02  0.41701404014E+03  0.43593046544E+03  0.47000000000E+01 0.  1.
        -11    1    1    2    0    0  0.86958741828E+02 -0.29470515236E+02  0.30511727274E+03  0.31863283599E+03  0.00000000000E+00 0.  1.
         11    1    1    2    0    0  0.98875256866E+02  0.58936984379E+02  0.27850611551E+03  0.30135616955E+03  0.00000000000E+00 0. -1.
<mgrwt>
<rscale>  0 0.22160350E+03</rscale>
<asrwt>0</asrwt>
<pdfrwt beam="1">  1        1 0.16703753E+00 0.22589462E+03</pdfrwt>
<pdfrwt beam="2">  1       -1 0.68528970E-02 0.22589462E+03</pdfrwt>
<totfact> 0.15086561E+03</totfact>
</mgrwt>
</event>
<event>
 6    1  0.6101889E-006  0.1313863E+03  0.7546771E-02  0.1238911E+00
          1   -1    0    0  501    0  0.00000000000E+00  0.00000000000E+00  0.11104838735E+04  0.11104838735E+04  0.00000000000E+00 0. -1.
         -1   -1    0    0    0  501 -0.00000000000E+00 -0.00000000000E+00 -0.12938534292E+02  0.12938534292E+02  0.00000000000E+00 0.  1.
          5    1    1    2  502    0  0.12687944202E+02 -0.31710347046E+02  0.80133414237E+02  0.87235222904E+02  0.47000000000E+01 0. -1.
         -5    1    1    2    0  502 -0.25491268892E+02  0.70117790742E+02  0.68851123372E+03  0.69255766427E+03  0.47000000000E+01 0. -1.
        -11    1    1    2    0    0 -0.30881941141E+02 -0.40638163294E+02  0.22820649206E+03  0.23384472973E+03  0.00000000000E+00 0. -1.
         11    1    1    2    0    0  0.43685265832E+02  0.22307195990E+01  0.10069419916E+03  0.10978479087E+03  0.00000000000E+00 0.  1.
<mgrwt>
<rscale>  0 0.12257376E+03</rscale>
<asrwt>0</asrwt>
<pdfrwt beam="1">  1        1 0.17084360E+00 0.13138627E+03</pdfrwt>
<pdfrwt beam="2">  1       -1 0.19905446E-02 0.13138627E+03</pdfrwt>
<totfact> 0.88513232E+03</totfact>
</mgrwt>
</event>
<event>
 6    1  0.6101889E-006  0.1385422E+03  0.7546771E-02  0.1227821E+00
         -2   -1    0    0    0  501 -0.00000000000E+00  0.00000000000E+00  0.28421289789E+03  0.28421289789E+03  0.00000000000E+00 0.  1.
          2   -1    0    0  501    0  0.00000000000E+00 -0.00000000000E+00 -0.53572682099E+02  0.53572682099E+02  0.00000000000E+00 0. -1.
          5    1    1    2  502    0 -0.25864587352E+02  0.62817193935E+02  0.75318275237E+02  0.10153772362E+03  0.47000000000E+01 0. -1.
         -5    1    1    2    0  502 -0.33661155607E+02 -0.57803863329E+02  0.35498061745E+02  0.75872013287E+02  0.47000000000E+01 0. -1.
        -11    1    1    2    0    0  0.17740070640E+02 -0.41816535535E+02  0.79726572051E+02  0.91758700086E+02  0.00000000000E+00 0.  1.
         11    1    1    2    0    0  0.41785672320E+02  0.36803204929E+02  0.40097306763E+02  0.68617143003E+02  0.00000000000E+00 0. -1.
<mgrwt>
<rscale>  0 0.12975426E+03</rscale>
<asrwt>0</asrwt>
<pdfrwt beam="2">  1        2 0.82419513E-02 0.13854225E+03</pdfrwt>
<pdfrwt beam="1">  1       -2 0.43725060E-01 0.13854225E+03</pdfrwt>
<totfact> 0.39202938E+03</totfact>
</mgrwt>
</event>
<event>
 6    1  0.6101889E-006  0.1291341E+03  0.7546771E-02  0.1243797E+00
          4   -1    0    0  501    0  0.00000000000E+00  0.00000000000E+00  0.10918112186E+03  0.10918112186E+03  0.00000000000E+00 0. -1.
         -4   -1    0    0    0  501 -0.00000000000E+00 -0.00000000000E+00 -0.12962009368E+03  0.12962009368E+03  0.00000000000E+00 0.  1.
          5    1    1    2  502    0  0.25226210107E+02 -0.39809893690E+02 -0.32766428837E+02  0.57592691991E+02  0.47000000000E+01 0. -1.
         -5    1    1    2    0  502  0.70012785384E+01  0.42212948371E+02  0.60887923327E+02  0.74567956378E+02  0.47000000000E+01 0. -1.
        -11    1    1    2    0    0 -0.48356090889E+02 -0.32078937093E+02 -0.43421718480E+02  0.72476309004E+02  0.00000000000E+00 0.  1.
         11    1    1    2    0    0  0.16128602243E+02  0.29675882412E+02 -0.51387478342E+01  0.34164258174E+02  0.00000000000E+00 0. -1.
<mgrwt>
<rscale>  0 0.11957654E+03</rscale>
<asrwt>0</asrwt>
<pdfrwt beam="1">  1        4 0.16797096E-01 0.12913411E+03</pdfrwt>
<pdfrwt beam="2">  1       -4 0.19941553E-01 0.12913411E+03</pdfrwt>
<totfact> 0.11420124E+03</totfact>
</mgrwt>
</event>
<event>
 6    1  0.6101889E-006  0.1543268E+03  0.7546771E-02  0.1204050E+00
          1   -1    0    0  501    0  0.00000000000E+00  0.00000000000E+00  0.23147743415E+03  0.23147743415E+03  0.00000000000E+00 0. -1.
         -1   -1    0    0    0  501 -0.00000000000E+00 -0.00000000000E+00 -0.90158110449E+02  0.90158110449E+02  0.00000000000E+00 0.  1.
          5    1    1    2  502    0  0.88986201664E+02  0.78656894032E+02  0.96220587517E+02  0.15292463022E+03  0.47000000000E+01 0. -1.
         -5    1    1    2    0  502 -0.33251652151E+02 -0.73527604181E+01  0.16174451799E+02  0.37992609118E+02  0.47000000000E+01 0. -1.
        -11    1    1    2    0    0  0.10258146282E+02 -0.33260382761E+02  0.40794961197E+02  0.53625660701E+02  0.00000000000E+00 0. -1.
         11    1    1    2    0    0 -0.65992695794E+02 -0.38043750853E+02 -0.11870676815E+02  0.77092644560E+02  0.00000000000E+00 0.  1.
<mgrwt>
<rscale>  0 0.14712613E+03</rscale>
<asrwt>0</asrwt>
<pdfrwt beam="1">  1        1 0.35611913E-01 0.15432676E+03</pdfrwt>
<pdfrwt beam="2">  1       -1 0.13870479E-01 0.15432676E+03</pdfrwt>
<totfact> 0.42894054E+03</totfact>
</mgrwt>
</event>
<event>
 6    1  0.6101889E-006  0.1340111E+03  0.7546771E-02  0.1234946E+00
         -1   -1    0    0    0  501 -0.00000000000E+00  0.00000000000E+00  0.87940722186E+02  0.87940722186E+02  0.00000000000E+00 0.  1.
          1   -1    0    0  501    0  0.00000000000E+00 -0.00000000000E+00 -0.16698301043E+03  0.16698301043E+03  0.00000000000E+00 0. -1.
          5    1    1    2  502    0 -0.26932669963E+02 -0.53624267537E+02 -0.32090375023E+02  0.68211530912E+02  0.47000000000E+01 0. -1.
         -5    1    1    2    0  502  0.68022988117E+02  0.28245027817E+02 -0.41946681278E+02  0.84891239707E+02  0.47000000000E+01 0. -1.
        -11    1    1    2    0    0 -0.35320550917E+02  0.23422106549E+01 -0.43811406288E+02  0.56324653472E+02  0.00000000000E+00 0. -1.
         11    1    1    2    0    0 -0.57697672369E+01  0.23037029064E+02  0.38806174345E+02  0.45496308525E+02  0.00000000000E+00 0.  1.
<mgrwt>
<rscale>  0 0.12507875E+03</rscale>
<asrwt>0</asrwt>
<pdfrwt beam="2">  1        1 0.25689694E-01 0.13401109E+03</pdfrwt>
<pdfrwt beam="1">  1       -1 0.13529342E-01 0.13401109E+03</pdfrwt>
<totfact> 0.66425582E+03</totfact>
</mgrwt>
</event>
<event>
 6    1  0.6101889E-006  0.1408653E+03  0.7546771E-02  0.1224747E+00
          1   -1    0    0  501    0  0.00000000000E+00  0.00000000000E+00  0.52019260112E+03  0.52019260112E+03  0.00000000000E+00 0. -1.
         -1   -1    0    0    0  501 -0.00000000000E+00 -0.00000000000E+00 -0.39409734942E+02  0.39409734942E+02  0.00000000000E+00 0.  1.
          5    1    1    2  502    0  0.22331538294E+02 -0.65786083769E+02  0.22505907873E+03  0.23558477315E+03  0.47000000000E+01 0. -1.
         -5    1    1    2    0  502 -0.67448138223E+02  0.19070498571E+02  0.17659484140E+03  0.19005463234E+03  0.47000000000E+01 0. -1.
        -11    1    1    2    0    0  0.40464852040E+02  0.67150727679E+02  0.36541625676E+02  0.86498062900E+02  0.00000000000E+00 0.  1.
         11    1    1    2    0    0  0.46517478894E+01 -0.20435142480E+02  0.42587320368E+02  0.47464867668E+02  0.00000000000E+00 0. -1.
<mgrwt>
<rscale>  0 0.13184240E+03</rscale>
<asrwt>0</asrwt>
<pdfrwt beam="1">  1        1 0.80029626E-01 0.14086530E+03</pdfrwt>
<pdfrwt beam="2">  1       -1 0.60630365E-02 0.14086530E+03</pdfrwt>
<totfact> 0.54341376E+03</totfact>
</mgrwt>
</event>
<event>
 6    1  0.6101889E-006  0.3322660E+03  0.7546771E-02  0.1111015E+00
          2   -1    0    0  501    0  0.00000000000E+00  0.00000000000E+00  0.13021585717E+04  0.13021585717E+04  0.00000000000E+00 0. -1.
         -2   -1    0    0    0  501 -0.00000000000E+00 -0.00000000000E+00 -0.38731082706E+02  0.38731082706E+02  0.00000000000E+00 0.  1.
          5    1    1    2  502    0 -0.12454150102E+03 -0.12561953231E+03  0.76258272110E+03  0.78284439635E+03  0.47000000000E+01 0. -1.
         -5    1    1    2    0  502  0.11760474894E+03  0.61420628195E+02  0.25311162881E+03  0.28581629971E+03  0.47000000000E+01 0.  1.
        -11    1    1    2    0    0  0.38512936694E+02  0.52794306578E+02  0.21730720599E+03  0.22692048580E+03  0.00000000000E+00 0.  1.
         11    1    1    2    0    0 -0.31576184607E+02  0.11404597539E+02  0.30425933070E+02  0.45308472525E+02  0.00000000000E+00 0. -1.
<mgrwt>
<rscale>  0 0.25365729E+03</rscale>
<asrwt>0</asrwt>
<pdfrwt beam="1">  1        2 0.20033205E+00 0.33226596E+03</pdfrwt>
<pdfrwt beam="2">  1       -2 0.59586291E-02 0.33226596E+03</pdfrwt>
<totfact> 0.26176634E+03</totfact>
</mgrwt>
</event>
<event>
 6    1  0.6101889E-006  0.1293577E+03  0.7546771E-02  0.1242903E+00
         -2   -1    0    0    0  501 -0.00000000000E+00  0.00000000000E+00  0.60278754653E+02  0.60278754653E+02  0.00000000000E+00 0.  1.
          2   -1    0    0  501    0  0.00000000000E+00 -0.00000000000E+00 -0.22466529304E+03  0.22466529304E+03  0.00000000000E+00 0. -1.
          5    1    1    2  502    0 -0.24984771597E+02 -0.40072503048E+02 -0.76089543035E+02  0.89675820998E+02  0.47000000000E+01 0. -1.
         -5    1    1    2    0  502  0.21417525991E+02  0.73177756961E+02 -0.52298547958E+02  0.92579277660E+02  0.47000000000E+01 0. -1.
        -11    1    1    2    0    0  0.78573334069E+01 -0.48393051583E+02  0.13380464331E+02  0.50819897240E+02  0.00000000000E+00 0.  1.
         11    1    1    2    0    0 -0.42900878011E+01  0.15287797670E+02 -0.49378911729E+02  0.51869051798E+02  0.00000000000E+00 0. -1.
<mgrwt>
<rscale>  0 0.12011766E+03</rscale>
<asrwt>0</asrwt>
<pdfrwt beam="2">  1        2 0.34563891E-01 0.12935772E+03</pdfrwt>
<pdfrwt beam="1">  1       -2 0.92736546E-02 0.12935772E+03</pdfrwt>
<totfact> 0.10542626E+04</totfact>
</mgrwt>
</event>
<event>
 6    1  0.6101889E-006  0.3302942E+03  0.7546771E-02  0.1071007E+00
         -4   -1    0    0    0  501 -0.00000000000E+00  0.00000000000E+00  0.14853242753E+03  0.14853242753E+03  0.00000000000E+00 0.  1.
          4   -1    0    0  501    0  0.00000000000E+00 -0.00000000000E+00 -0.18362021843E+03  0.18362021843E+03  0.00000000000E+00 0. -1.
          5    1    1    2  502    0  0.26687668924E+02  0.59856204233E+01 -0.28905463583E+02  0.40070876574E+02  0.47000000000E+01 0.  1.
         -5    1    1    2    0  502 -0.12296276080E+03 -0.51738399800E+02 -0.54694874872E+02  0.14425783131E+03  0.47000000000E+01 0.  1.
        -11    1    1    2    0    0  0.31279776609E+02  0.64314955835E+02  0.18535992679E+02  0.73881127451E+02  0.00000000000E+00 0. -1.
         11    1    1    2    0    0  0.64995315265E+02 -0.18562176459E+02  0.29976554870E+02  0.73942810625E+02  0.00000000000E+00 0.  1.
<mgrwt>
<rscale>  0 0.33029415E+03</rscale>
<asrwt>0</asrwt>
<pdfrwt beam="2">  1        4 0.28249264E-01 0.33029415E+03</pdfrwt>
<pdfrwt beam="1">  1       -4 0.22851143E-01 0.33029415E+03</pdfrwt>
<totfact> 0.40356818E+02</totfact>
</mgrwt>
</event>
<event>
 6    1  0.6101889E-006  0.1439041E+03  0.7546771E-02  0.1221770E+00
          1   -1    0    0  501    0  0.00000000000E+00  0.00000000000E+00  0.58806890257E+03  0.58806890257E+03  0.00000000000E+00 0. -1.
         -1   -1    0    0    0  501 -0.00000000000E+00 -0.00000000000E+00 -0.29629004449E+02  0.29629004449E+02  0.00000000000E+00 0.  1.
          5    1    1    2  502    0 -0.87075489212E+02 -0.23045967955E+02  0.21351886541E+03  0.23178794910E+03  0.47000000000E+01 0. -1.
         -5    1    1    2    0  502  0.26950909727E+02  0.42108197639E+02  0.19396437227E+03  0.20035897672E+03  0.47000000000E+01 0.  1.
        -11    1    1    2    0    0 -0.18824863202E+02 -0.42433558130E+01  0.66819392995E+01  0.20421308869E+02  0.00000000000E+00 0. -1.
         11    1    1    2    0    0  0.78949442687E+02 -0.14818873871E+02  0.14427472114E+03  0.16512967233E+03  0.00000000000E+00 0.  1.
<mgrwt>
<rscale>  0 0.13390745E+03</rscale>
<asrwt>0</asrwt>
<pdfrwt beam="1">  1        1 0.90472130E-01 0.14390405E+03</pdfrwt>
<pdfrwt beam="2">  1       -1 0.45583088E-02 0.14390405E+03</pdfrwt>
<totfact> 0.70523114E+03</totfact>
</mgrwt>
</event>
<event>
 6    1  0.6101889E-006  0.4032414E+03  0.7546771E-02  0.1042663E+00
         -2   -1    0    0    0  501 -0.00000000000E+00  0.00000000000E+00  0.24310687371E+02  0.24310687371E+02  0.00000000000E+00 0.  1.
          2   -1    0    0  501    0  0.00000000000E+00 -0.00000000000E+00 -0.16721413760E+04  0.16721413760E+04  0.00000000000E+00 0. -1.
          5    1    1    2  502    0  0.30160741082E+02  0.12054515423E+03 -0.78169001707E+03  0.79151890520E+03  0.47000000000E+01 0. -1.
         -5    1    1    2    0  502 -0.37732343464E+02  0.46990086691E+01 -0.43826501386E+03  0.43993649860E+03  0.47000000000E+01 0.  1.
        -11    1    1    2    0    0 -0.56251584064E+02 -0.44022158040E+02 -0.11370294152E+03  0.13427788358E+03  0.00000000000E+00 0.  1.
         11    1    1    2    0    0  0.63823186445E+02 -0.81222004859E+02 -0.31417271621E+03  0.33071877602E+03  0.00000000000E+00 0. -1.
<mgrwt>
<rscale>  0 0.40324140E+03</rscale>
<asrwt>0</asrwt>
<pdfrwt beam="2">  1        2 0.25725258E+00 0.40324140E+03</pdfrwt>
<pdfrwt beam="1">  1       -2 0.37401049E-02 0.40324140E+03</pdfrwt>
<totfact> 0.33577634E+03</totfact>
</mgrwt>
</event>
<event>
 6    1  0.6101889E-006  0.1456056E+03  0.7546771E-02  0.1216039E+00
          2   -1    0    0  501    0  0.00000000000E+00  0.00000000000E+00  0.40466137655E+03  0.40466137655E+03  0.00000000000E+00 0. -1.
         -2   -1    0    0    0  501 -0.00000000000E+00 -0.00000000000E+00 -0.56480174686E+02  0.56480174686E+02  0.00000000000E+00 0.  1.
          5    1    1    2  502    0  0.54379289389E-01  0.58174955685E+02  0.10769683149E+03  0.12249500373E+03  0.47000000000E+01 0. -1.
         -5    1    1    2    0  502  0.73572317126E+02 -0.45690088417E+02  0.19359490212E+03  0.21213567864E+03  0.47000000000E+01 0. -1.
        -11    1    1    2    0    0 -0.68842016737E+02  0.24688367773E+02  0.50471691165E+02  0.88860173198E+02  0.00000000000E+00 0. -1.
         11    1    1    2    0    0 -0.47846796781E+01 -0.37173235042E+02 -0.35822229094E+01  0.37650695665E+02  0.00000000000E+00 0.  1.
<mgrwt>
<rscale>  0 0.13800457E+03</rscale>
<asrwt>0</asrwt>
<pdfrwt beam="1">  1        2 0.62255595E-01 0.14560558E+03</pdfrwt>
<pdfrwt beam="2">  1       -2 0.86892579E-02 0.14560558E+03</pdfrwt>
<totfact> 0.62901760E+03</totfact>
</mgrwt>
</event>
<event>
 6    1  0.6101889E-006  0.1436514E+03  0.7546771E-02  0.1218580E+00
          3   -1    0    0  501    0  0.00000000000E+00  0.00000000000E+00  0.13288010853E+03  0.13288010853E+03  0.00000000000E+00 0. -1.
         -3   -1    0    0    0  501 -0.00000000000E+00 -0.00000000000E+00 -0.13613950577E+03  0.13613950577E+03  0.00000000000E+00 0.  1.
          5    1    1    2  502    0  0.27893076806E+02  0.27213277383E+02  0.17927955984E+02  0.43151915431E+02  0.47000000000E+01 0.  1.
         -5    1    1    2    0  502 -0.32167373444E+02 -0.97907015209E+02  0.15287781509E+02  0.10428964380E+03  0.47000000000E+01 0.  1.
        -11    1    1    2    0    0  0.25656767681E+02  0.82011211549E+02 -0.11313450168E+02  0.86672387196E+02  0.00000000000E+00 0. -1.
         11    1    1    2    0    0 -0.21382471044E+02 -0.11317473723E+02 -0.25161684566E+02  0.34905667872E+02  0.00000000000E+00 0.  1.
<mgrwt>
<rscale>  0 0.13616826E+03</rscale>
<asrwt>0</asrwt>
<pdfrwt beam="1">  1        3 0.20443094E-01 0.14365141E+03</pdfrwt>
<pdfrwt beam="2">  1       -3 0.20944539E-01 0.14365141E+03</pdfrwt>
<totfact> 0.10376621E+03</totfact>
</mgrwt>
</event>
<event>
 6    1  0.6101889E-006  0.1331786E+03  0.7546771E-02  0.1233841E+00
          1   -1    0    0  501    0  0.00000000000E+00  0.00000000000E+00  0.55074616015E+03  0.55074616015E+03  0.00000000000E+00 0. -1.
         -1   -1    0    0    0  501 -0.00000000000E+00 -0.00000000000E+00 -0.39865184097E+02  0.39865184097E+02  0.00000000000E+00 0.  1.
          5    1    1    2  502    0 -0.17344360885E+02 -0.22459105573E+02  0.17779213854E+02  0.33814622915E+02  0.47000000000E+01 0. -1.
         -5    1    1    2    0  502 -0.19488092847E+02  0.49841560319E+02  0.43020978756E+03  0.43355105606E+03  0.47000000000E+01 0. -1.
        -11    1    1    2    0    0  0.89336609276E+01  0.20029978586E+02 -0.15942960686E+02  0.27114356624E+02  0.00000000000E+00 0.  1.
         11    1    1    2    0    0  0.27898792804E+02 -0.47412433332E+02  0.78834935319E+02  0.96131308642E+02  0.00000000000E+00 0. -1.
<mgrwt>
<rscale>  0 0.12578910E+03</rscale>
<asrwt>0</asrwt>
<pdfrwt beam="1">  1        1 0.84730173E-01 0.13317857E+03</pdfrwt>
<pdfrwt beam="2">  1       -1 0.61331057E-02 0.13317857E+03</pdfrwt>
<totfact> 0.49390875E+03</totfact>
</mgrwt>
</event>
<event>
 6    1  0.6101889E-006  0.1484403E+03  0.7546771E-02  0.1211389E+00
         -1   -1    0    0    0  501 -0.00000000000E+00  0.00000000000E+00  0.45720559863E+02  0.45720559863E+02  0.00000000000E+00 0.  1.
          1   -1    0    0  501    0  0.00000000000E+00 -0.00000000000E+00 -0.44023668036E+03  0.44023668036E+03  0.00000000000E+00 0. -1.
          5    1    1    2  502    0 -0.21310856061E+02  0.54252070487E+02 -0.28983250458E+03  0.29567280979E+03  0.47000000000E+01 0.  1.
         -5    1    1    2    0  502 -0.23743561989E+02  0.11917268755E+02  0.31482783510E+01  0.27162100196E+02  0.47000000000E+01 0.  1.
        -11    1    1    2    0    0  0.13842744566E+02 -0.61977358809E+02 -0.11450061693E+03  0.13093206582E+03  0.00000000000E+00 0. -1.
         11    1    1    2    0    0  0.31211673484E+02 -0.41919804328E+01  0.66687226595E+01  0.32190264421E+02  0.00000000000E+00 0.  1.
<mgrwt>
<rscale>  0 0.14145138E+03</rscale>
<asrwt>0</asrwt>
<pdfrwt beam="2">  1        1 0.67728725E-01 0.14844034E+03</pdfrwt>
<pdfrwt beam="1">  1       -1 0.70339318E-02 0.14844034E+03</pdfrwt>
<totfact> 0.54169313E+03</totfact>
</mgrwt>
</event>
<event>
 6    1  0.6101889E-006  0.1814724E+03  0.7546771E-02  0.1171537E+00
         -2   -1    0    0    0  501 -0.00000000000E+00  0.00000000000E+00  0.11175951686E+03  0.11175951686E+03  0.00000000000E+00 0.  1.
          2   -1    0    0  501    0  0.00000000000E+00 -0.00000000000E+00 -0.35476028512E+03  0.35476028512E+03  0.00000000000E+00 0. -1.
          5    1    1    2  502    0 -0.59283960769E+02 -0.12263344282E+01 -0.13291440836E+02  0.60949522558E+02  0.47000000000E+01 0.  1.
         -5    1    1    2    0  502 -0.66922279292E+02 -0.35863392520E+02 -0.23213858840E+03  0.24428505605E+03  0.47000000000E+01 0.  1.
        -11    1    1    2    0    0  0.78414631277E+02  0.21179088840E+01 -0.40366253133E+02  0.88220033600E+02  0.00000000000E+00 0. -1.
         11    1    1    2    0    0  0.47791608783E+02  0.34971818064E+02  0.42795514107E+02  0.73065189772E+02  0.00000000000E+00 0.  1.
<mgrwt>
<rscale>  0 0.17619531E+03</rscale>
<asrwt>0</asrwt>
<pdfrwt beam="2">  1        2 0.54578504E-01 0.18147245E+03</pdfrwt>
<pdfrwt beam="1">  1       -2 0.17193772E-01 0.18147245E+03</pdfrwt>
<totfact> 0.24405072E+03</totfact>
</mgrwt>
</event>
<event>
 6    1  0.6101889E-006  0.2823619E+03  0.7546771E-02  0.1094406E+00
          2   -1    0    0  501    0  0.00000000000E+00  0.00000000000E+00  0.20598169430E+03  0.20598169430E+03  0.00000000000E+00 0. -1.
         -2   -1    0    0    0  501 -0.00000000000E+00 -0.00000000000E+00 -0.96766156686E+02  0.96766156686E+02  0.00000000000E+00 0.  1.
          5    1    1    2  502    0  0.20276771004E+02 -0.88785980999E+01 -0.13867688313E+02  0.26540153084E+02  0.47000000000E+01 0.  1.
         -5    1    1    2    0  502 -0.93841955836E+02 -0.96702688550E+01  0.12731510848E+03  0.15852776924E+03  0.47000000000E+01 0.  1.
        -11    1    1    2    0    0  0.40602633880E+02  0.11102563833E+02 -0.47051197029E+02  0.63132051634E+02  0.00000000000E+00 0.  1.
         11    1    1    2    0    0  0.32962550953E+02  0.74463031216E+01  0.42819314478E+02  0.54547877024E+02  0.00000000000E+00 0. -1.
<mgrwt>
<rscale>  0 0.28236187E+03</rscale>
<asrwt>0</asrwt>
<pdfrwt beam="1">  1        2 0.31689491E-01 0.28236187E+03</pdfrwt>
<pdfrwt beam="2">  1       -2 0.14887101E-01 0.28236187E+03</pdfrwt>
<totfact> 0.56874491E+03</totfact>
</mgrwt>
</event>
<event>
 6    1  0.6101889E-006  0.3139616E+03  0.7546771E-02  0.1078462E+00
          2   -1    0    0  501    0  0.00000000000E+00  0.00000000000E+00  0.39359682168E+03  0.39359682168E+03  0.00000000000E+00 0. -1.
         -2   -1    0    0    0  501 -0.00000000000E+00 -0.00000000000E+00 -0.62609696679E+02  0.62609696679E+02  0.00000000000E+00 0.  1.
          5    1    1    2  502    0  0.56963495569E+02 -0.93105622418E+02  0.19117180805E+03  0.22018684554E+03  0.47000000000E+01 0. -1.
         -5    1    1    2    0  502  0.18750388166E+01 -0.44847957648E+01 -0.19605230780E+02  0.20738472401E+02  0.47000000000E+01 0. -1.
        -11    1    1    2    0    0  0.28033095400E+01  0.75718367138E+02  0.61814380021E+02  0.97786232384E+02  0.00000000000E+00 0.  1.
         11    1    1    2    0    0 -0.61641843926E+02  0.21872051044E+02  0.97606167707E+02  0.11749496804E+03  0.00000000000E+00 0. -1.
<mgrwt>
<rscale>  0 0.31396164E+03</rscale>
<asrwt>0</asrwt>
<pdfrwt beam="1">  1        2 0.60553355E-01 0.31396164E+03</pdfrwt>
<pdfrwt beam="2">  1       -2 0.96322613E-02 0.31396164E+03</pdfrwt>
<totfact> 0.57238578E+03</totfact>
</mgrwt>
</event>
<event>
 6    1  0.6101889E-006  0.3627710E+03  0.7546771E-02  0.1057492E+00
          1   -1    0    0  501    0  0.00000000000E+00  0.00000000000E+00  0.71585789532E+03  0.71585789532E+03  0.00000000000E+00 0. -1.
         -1   -1    0    0    0  501 -0.00000000000E+00 -0.00000000000E+00 -0.45959809300E+02  0.45959809300E+02  0.00000000000E+00 0.  1.
          5    1    1    2  502    0  0.14689841946E+03 -0.18628476600E+02  0.34962928211E+03  0.37972212299E+03  0.47000000000E+01 0. -1.
         -5    1    1    2    0  502  0.11292716384E+01 -0.90055103185E+01 -0.58560904930E+01  0.11779569873E+02  0.47000000000E+01 0.  1.
        -11    1    1    2    0    0 -0.40006869355E+02  0.28985190189E+02  0.37162252494E+02  0.61820092658E+02  0.00000000000E+00 0. -1.
         11    1    1    2    0    0 -0.10802082174E+03 -0.13512032704E+01  0.28896264191E+03  0.30849591910E+03  0.00000000000E+00 0.  1.
<mgrwt>
<rscale>  0 0.36277096E+03</rscale>
<asrwt>0</asrwt>
<pdfrwt beam="1">  1        1 0.11013198E+00 0.36277096E+03</pdfrwt>
<pdfrwt beam="2">  1       -1 0.70707404E-02 0.36277096E+03</pdfrwt>
<totfact> 0.28465941E+03</totfact>
</mgrwt>
</event>
<event>
 6    1  0.6101889E-006  0.3908934E+03  0.7546771E-02  0.1046979E+00
         -2   -1    0    0    0  501 -0.00000000000E+00  0.00000000000E+00  0.93099881918E+02  0.93099881918E+02  0.00000000000E+00 0.  1.
          2   -1    0    0  501    0  0.00000000000E+00 -0.00000000000E+00 -0.41030570351E+03  0.41030570351E+03  0.00000000000E+00 0. -1.
          5    1    1    2  502    0 -0.27215818555E+02  0.73062352573E+01 -0.11830928313E+03  0.12170972980E+03  0.47000000000E+01 0.  1.
         -5    1    1    2    0  502  0.11110956950E+03  0.64840780194E+02 -0.20299779701E+03  0.24037441378E+03  0.47000000000E+01 0.  1.
        -11    1    1    2    0    0 -0.51543275402E+02  0.10405355262E+02  0.56398093937E+00  0.52586107783E+02  0.00000000000E+00 0.  1.
         11    1    1    2    0    0 -0.32350475546E+02 -0.82552370713E+02  0.35372776059E+01  0.88735334063E+02  0.00000000000E+00 0. -1.
<mgrwt>
<rscale>  0 0.39089340E+03</rscale>
<asrwt>0</asrwt>
<pdfrwt beam="2">  1        2 0.63123954E-01 0.39089340E+03</pdfrwt>
<pdfrwt beam="1">  1       -2 0.14323059E-01 0.39089340E+03</pdfrwt>
<totfact> 0.28860307E+03</totfact>
</mgrwt>
</event>
<event>
 6    1  0.6101889E-006  0.4279177E+03  0.7546771E-02  0.1034520E+00
          1   -1    0    0  501    0  0.00000000000E+00  0.00000000000E+00  0.84156664081E+03  0.84156664081E+03  0.00000000000E+00 0. -1.
         -1   -1    0    0    0  501 -0.00000000000E+00 -0.00000000000E+00 -0.54396627704E+02  0.54396627704E+02  0.00000000000E+00 0.  1.
          5    1    1    2  502    0  0.13068000743E+02  0.11518754469E+02  0.16140120073E+02  0.24208424647E+02  0.47000000000E+01 0. -1.
         -5    1    1    2    0  502 -0.18837516107E+03 -0.48564177277E+02  0.47656352509E+03  0.51476068621E+03  0.47000000000E+01 0. -1.
        -11    1    1    2    0    0  0.13570045034E+03  0.23530112933E+02  0.28116037183E+03  0.31308055374E+03  0.00000000000E+00 0. -1.
         11    1    1    2    0    0  0.39606709986E+02  0.13515309875E+02  0.13305996115E+02  0.43913603923E+02  0.00000000000E+00 0.  1.
<mgrwt>
<rscale>  0 0.42791769E+03</rscale>
<asrwt>0</asrwt>
<pdfrwt beam="1">  1        1 0.12947178E+00 0.42791769E+03</pdfrwt>
<pdfrwt beam="2">  1       -1 0.83687125E-02 0.42791769E+03</pdfrwt>
<totfact> 0.17115748E+03</totfact>
</mgrwt>
</event>
<event>
 6    1  0.6101889E-006  0.3843379E+03  0.7546771E-02  0.1049342E+00
          1   -1    0    0  501    0  0.00000000000E+00  0.00000000000E+00  0.71316063878E+02  0.71316063878E+02  0.00000000000E+00 0. -1.
         -1   -1    0    0    0  501 -0.00000000000E+00 -0.00000000000E+00 -0.51782016599E+03  0.51782016599E+03  0.00000000000E+00 0.  1.
          5    1    1    2  502    0 -0.60776053806E+02  0.13803517798E+03 -0.66946584050E+02  0.16507990245E+03  0.47000000000E+01 0. -1.
         -5    1    1    2    0  502  0.17820731190E+02 -0.18120879557E+02 -0.23778158273E+02  0.35120301065E+02  0.47000000000E+01 0. -1.
        -11    1    1    2    0    0 -0.17847969140E+02 -0.80645455604E+02 -0.15723435299E+03  0.17760878715E+03  0.00000000000E+00 0.  1.
         11    1    1    2    0    0  0.60803291756E+02 -0.39268842822E+02 -0.19854500680E+03  0.21132723921E+03  0.00000000000E+00 0. -1.
<mgrwt>
<rscale>  0 0.38433785E+03</rscale>
<asrwt>0</asrwt>
<pdfrwt beam="1">  1        1 0.10971702E-01 0.38433785E+03</pdfrwt>
<pdfrwt beam="2">  1       -1 0.79664641E-01 0.38433785E+03</pdfrwt>
<totfact> 0.93442412E+02</totfact>
</mgrwt>
</event>
<event>
 6    1  0.6101889E-006  0.1447433E+03  0.7546771E-02  0.1217203E+00
         -2   -1    0    0    0  501 -0.00000000000E+00  0.00000000000E+00  0.46103023857E+02  0.46103023857E+02  0.00000000000E+00 0.  1.
          2   -1    0    0  501    0  0.00000000000E+00 -0.00000000000E+00 -0.38219406465E+03  0.38219406465E+03  0.00000000000E+00 0. -1.
          5    1    1    2  502    0 -0.76012872498E+02 -0.24283086283E+02 -0.65030760337E+02  0.10304714870E+03  0.47000000000E+01 0.  1.
         -5    1    1    2    0  502  0.26404968815E+02 -0.29242798837E+02 -0.15745726793E+03  0.16237993992E+03  0.47000000000E+01 0.  1.
        -11    1    1    2    0    0  0.22805371281E+02  0.50089712204E+02 -0.10174040879E+02  0.55969414289E+02  0.00000000000E+00 0.  1.
         11    1    1    2    0    0  0.26802532402E+02  0.34361729158E+01 -0.10342897164E+03  0.10690058561E+03  0.00000000000E+00 0. -1.
<mgrwt>
<rscale>  0 0.13715919E+03</rscale>
<asrwt>0</asrwt>
<pdfrwt beam="2">  1        2 0.58799085E-01 0.14474328E+03</pdfrwt>
<pdfrwt beam="1">  1       -2 0.70927731E-02 0.14474328E+03</pdfrwt>
<totfact> 0.91464871E+03</totfact>
</mgrwt>
</event>
<event>
 6    1  0.6101889E-006  0.1619134E+03  0.7546771E-02  0.1193172E+00
          2   -1    0    0  501    0  0.00000000000E+00  0.00000000000E+00  0.54594409660E+03  0.54594409660E+03  0.00000000000E+00 0. -1.
         -2   -1    0    0    0  501 -0.00000000000E+00 -0.00000000000E+00 -0.49860930294E+02  0.49860930294E+02  0.00000000000E+00 0.  1.
          5    1    1    2  502    0 -0.40439684124E+02  0.45190386652E+02  0.61447659973E+02  0.86460650090E+02  0.47000000000E+01 0.  1.
         -5    1    1    2    0  502  0.41384324218E+02  0.57720940793E+02  0.32194187335E+03  0.32971658908E+03  0.47000000000E+01 0.  1.
        -11    1    1    2    0    0 -0.65482220852E+01 -0.37404241584E+02  0.10711323460E+03  0.11364506820E+03  0.00000000000E+00 0. -1.
         11    1    1    2    0    0  0.56035819920E+01 -0.65507085861E+02  0.55803983815E+01  0.65982719520E+02  0.00000000000E+00 0.  1.
<mgrwt>
<rscale>  0 0.15609921E+03</rscale>
<asrwt>0</asrwt>
<pdfrwt beam="1">  1        2 0.83991395E-01 0.16191343E+03</pdfrwt>
<pdfrwt beam="2">  1       -2 0.76709127E-02 0.16191343E+03</pdfrwt>
<totfact> 0.55308896E+03</totfact>
</mgrwt>
</event>
<event>
 6    1  0.6101889E-006  0.1193471E+03  0.7546771E-02  0.1255438E+00
          1   -1    0    0  501    0  0.00000000000E+00  0.00000000000E+00  0.54579773038E+02  0.54579773038E+02  0.00000000000E+00 0. -1.
         -1   -1    0    0    0  501 -0.00000000000E+00 -0.00000000000E+00 -0.27370185326E+03  0.27370185326E+03  0.00000000000E+00 0.  1.
          5    1    1    2  502    0  0.92958744208E+01  0.48704094270E+02 -0.64115433246E+01  0.50216530822E+02  0.47000000000E+01 0. -1.
         -5    1    1    2    0  502  0.12863823705E+02 -0.66266243566E+02 -0.34452645180E+02  0.75932652769E+02  0.47000000000E+01 0.  1.
        -11    1    1    2    0    0 -0.31352677176E+02 -0.16718847825E+02 -0.15654192037E+03  0.16052377728E+03  0.00000000000E+00 0.  1.
         11    1    1    2    0    0  0.91929790505E+01  0.34280997120E+02 -0.21715971351E+02  0.41608665433E+02  0.00000000000E+00 0. -1.
<mgrwt>
<rscale>  0 0.11281830E+03</rscale>
<asrwt>0</asrwt>
<pdfrwt beam="1">  1        1 0.83968881E-02 0.11934712E+03</pdfrwt>
<pdfrwt beam="2">  1       -1 0.42107978E-01 0.11934712E+03</pdfrwt>
<totfact> 0.43452833E+03</totfact>
</mgrwt>
</event>
<event>
 6    1  0.6101889E-006  0.1603327E+03  0.7546771E-02  0.1195847E+00
         -1   -1    0    0    0  501 -0.00000000000E+00  0.00000000000E+00  0.91269942788E+02  0.91269942788E+02  0.00000000000E+00 0.  1.
          1   -1    0    0  501    0  0.00000000000E+00 -0.00000000000E+00 -0.24299759861E+03  0.24299759861E+03  0.00000000000E+00 0. -1.
          5    1    1    2  502    0  0.45593598886E+02  0.86104009986E+02  0.35684015123E+01  0.97608914984E+02  0.47000000000E+01 0. -1.
         -5    1    1    2    0  502 -0.28900689099E+02  0.12916690518E+02 -0.68059000243E+02  0.75207767141E+02  0.47000000000E+01 0. -1.
        -11    1    1    2    0    0  0.13304327711E+02 -0.70651034135E+02 -0.83028333486E+01  0.72370648759E+02  0.00000000000E+00 0.  1.
         11    1    1    2    0    0 -0.29997237498E+02 -0.28369666369E+02 -0.78934223746E+02  0.89080210517E+02  0.00000000000E+00 0. -1.
<mgrwt>
<rscale>  0 0.15382749E+03</rscale>
<asrwt>0</asrwt>
<pdfrwt beam="2">  1        1 0.37384246E-01 0.16033268E+03</pdfrwt>
<pdfrwt beam="1">  1       -1 0.14041530E-01 0.16033268E+03</pdfrwt>
<totfact> 0.39692876E+03</totfact>
</mgrwt>
</event>
<event>
 6    1  0.6101889E-006  0.2130066E+03  0.7546771E-02  0.1142785E+00
         -1   -1    0    0    0  501 -0.00000000000E+00  0.00000000000E+00  0.37979998683E+02  0.37979998683E+02  0.00000000000E+00 0.  1.
          1   -1    0    0  501    0  0.00000000000E+00 -0.00000000000E+00 -0.10983307419E+04  0.10983307419E+04  0.00000000000E+00 0. -1.
          5    1    1    2  502    0  0.62686902272E+02 -0.80722431344E+02 -0.36968276219E+03  0.38357944849E+03  0.47000000000E+01 0. -1.
         -5    1    1    2    0  502 -0.44902772347E+02 -0.90832837337E+02 -0.19221828575E+03  0.21734033836E+03  0.47000000000E+01 0. -1.
        -11    1    1    2    0    0 -0.39489751627E+02  0.11945056210E+03 -0.24139579879E+03  0.27221280084E+03  0.00000000000E+00 0.  1.
         11    1    1    2    0    0  0.21705621702E+02  0.52104706580E+02 -0.25705389652E+03  0.26317815292E+03  0.00000000000E+00 0. -1.
<mgrwt>
<rscale>  0 0.20846849E+03</rscale>
<asrwt>0</asrwt>
<pdfrwt beam="2">  1        1 0.16897397E+00 0.21300658E+03</pdfrwt>
<pdfrwt beam="1">  1       -1 0.58430765E-02 0.21300658E+03</pdfrwt>
<totfact> 0.18794999E+03</totfact>
</mgrwt>
</event>
<event>
 6    1  0.6101889E-006  0.1348679E+03  0.7546771E-02  0.1233085E+00
          1   -1    0    0  501    0  0.00000000000E+00  0.00000000000E+00  0.54144879098E+03  0.54144879098E+03  0.00000000000E+00 0. -1.
         -1   -1    0    0    0  501 -0.00000000000E+00 -0.00000000000E+00 -0.47062726044E+02  0.47062726044E+02  0.00000000000E+00 0.  1.
          5    1    1    2  502    0  0.27538709136E+02  0.48359492768E+02  0.22252417276E+03  0.22942562739E+03  0.47000000000E+01 0. -1.
         -5    1    1    2    0  502 -0.73171658157E+02 -0.26410883388E+02  0.23738179591E+03  0.24984762026E+03  0.47000000000E+01 0. -1.
        -11    1    1    2    0    0  0.12838195403E+02 -0.35458726035E+02  0.56176144792E+02  0.67660178517E+02  0.00000000000E+00 0. -1.
         11    1    1    2    0    0  0.32794753618E+02  0.13510116655E+02 -0.21696048533E+02  0.41578090852E+02  0.00000000000E+00 0.  1.
<mgrwt>
<rscale>  0 0.12627802E+03</rscale>
<asrwt>0</asrwt>
<pdfrwt beam="1">  1        1 0.83299810E-01 0.13486788E+03</pdfrwt>
<pdfrwt beam="2">  1       -1 0.72404198E-02 0.13486788E+03</pdfrwt>
<totfact> 0.39437609E+03</totfact>
</mgrwt>
</event>
<event>
 6    1  0.6101889E-006  0.1328091E+03  0.7546771E-02  0.1230795E+00
         -1   -1    0    0    0  501 -0.00000000000E+00  0.00000000000E+00  0.39157150779E+02  0.39157150779E+02  0.00000000000E+00 0.  1.
          1   -1    0    0  501    0  0.00000000000E+00 -0.00000000000E+00 -0.77677442672E+03  0.77677442672E+03  0.00000000000E+00 0. -1.
          5    1    1    2  502    0 -0.56614738954E+01  0.82482081634E+02 -0.29084407941E+03  0.30240323180E+03  0.47000000000E+01 0. -1.
         -5    1    1    2    0  502  0.27464308961E+02 -0.18240141486E+02 -0.38028216201E+03  0.38173761116E+03  0.47000000000E+01 0.  1.
        -11    1    1    2    0    0  0.21307548688E+02  0.81215272942E+01 -0.35188074437E+02  0.41930554721E+02  0.00000000000E+00 0. -1.
         11    1    1    2    0    0 -0.43110383754E+02 -0.72363467442E+02 -0.31302960091E+02  0.89860179825E+02  0.00000000000E+00 0.  1.
<mgrwt>
<rscale>  0 0.12777479E+03</rscale>
<asrwt>0</asrwt>
<pdfrwt beam="2">  1        1 0.11950375E+00 0.13280912E+03</pdfrwt>
<pdfrwt beam="1">  1       -1 0.60241775E-02 0.13280912E+03</pdfrwt>
<totfact> 0.31341186E+03</totfact>
</mgrwt>
</event>
<event>
 6    1  0.6101889E-006  0.1433316E+03  0.7546771E-02  0.1219628E+00
          2   -1    0    0  501    0  0.00000000000E+00  0.00000000000E+00  0.12033368714E+04  0.12033368714E+04  0.00000000000E+00 0. -1.
         -2   -1    0    0    0  501 -0.00000000000E+00 -0.00000000000E+00 -0.15120593138E+02  0.15120593138E+02  0.00000000000E+00 0.  1.
          5    1    1    2  502    0 -0.21218941471E+02  0.61208534975E+02  0.35532137337E+03  0.36120921445E+03  0.47000000000E+01 0.  1.
         -5    1    1    2    0  502  0.76030109253E+02 -0.17434689676E+02  0.48035962374E+03  0.48667443331E+03  0.47000000000E+01 0.  1.
        -11    1    1    2    0    0  0.88872588174E+00 -0.54551400086E+02  0.21460546279E+03  0.22143204317E+03  0.00000000000E+00 0. -1.
         11    1    1    2    0    0 -0.55699893664E+02  0.10777554788E+02  0.13792981842E+03  0.14914177366E+03  0.00000000000E+00 0.  1.
<mgrwt>
<rscale>  0 0.13541979E+03</rscale>
<asrwt>0</asrwt>
<pdfrwt beam="1">  1        2 0.18512867E+00 0.14333161E+03</pdfrwt>
<pdfrwt beam="2">  1       -2 0.23262460E-02 0.14333161E+03</pdfrwt>
<totfact> 0.11921470E+04</totfact>
</mgrwt>
</event>
<event>
 6    1  0.6101889E-006  0.1494583E+03  0.7546771E-02  0.1210914E+00
         -2   -1    0    0    0  501 -0.00000000000E+00  0.00000000000E+00  0.62682087272E+02  0.62682087272E+02  0.00000000000E+00 0. -1.
          2   -1    0    0  501    0  0.00000000000E+00 -0.00000000000E+00 -0.92406133590E+03  0.92406133590E+03  0.00000000000E+00 0.  1.
          5    1    1    2  502    0 -0.49361232166E+02 -0.11030399730E+02 -0.11472107219E+03  0.12546400027E+03  0.47000000000E+01 0. -1.
         -5    1    1    2    0  502 -0.20496277296E+02  0.53859484111E+02 -0.73753885943E+03  0.73980173059E+03  0.47000000000E+01 0. -1.
        -11    1    1    2    0    0  0.55775007420E+02 -0.76766993987E+01 -0.42859981210E+02  0.70758470558E+02  0.00000000000E+00 0.  1.
         11    1    1    2    0    0  0.14082502041E+02 -0.35152384982E+02  0.33740664209E+02  0.50719221750E+02  0.00000000000E+00 0. -1.
<mgrwt>
<rscale>  0 0.14181019E+03</rscale>
<asrwt>0</asrwt>
<pdfrwt beam="2">  1        2 0.14216327E+00 0.14945834E+03</pdfrwt>
<pdfrwt beam="1">  1       -2 0.96433989E-02 0.14945834E+03</pdfrwt>
<totfact> 0.20451392E+03</totfact>
</mgrwt>
</event>
<event>
 6    1  0.6101889E-006  0.1386316E+03  0.7546771E-02  0.1225758E+00
          3   -1    0    0  501    0  0.00000000000E+00  0.00000000000E+00  0.17104174015E+03  0.17104174015E+03  0.00000000000E+00 0. -1.
         -3   -1    0    0    0  501 -0.00000000000E+00 -0.00000000000E+00 -0.94136135245E+02  0.94136135245E+02  0.00000000000E+00 0.  1.
          5    1    1    2  502    0 -0.38089867616E+02  0.56808999222E+02  0.74872563186E+00  0.68562022999E+02  0.47000000000E+01 0.  1.
         -5    1    1    2    0  502  0.54016846006E+02  0.37138332605E+01  0.65423979237E+02  0.85052920403E+02  0.47000000000E+01 0.  1.
        -11    1    1    2    0    0 -0.18383076910E+02 -0.83307878832E+02 -0.20210664649E+01  0.85335953160E+02  0.00000000000E+00 0.  1.
         11    1    1    2    0    0  0.24560985188E+01  0.22785046349E+02  0.12753966500E+02  0.26226978830E+02  0.00000000000E+00 0. -1.
<mgrwt>
<rscale>  0 0.13115109E+03</rscale>
<asrwt>0</asrwt>
<pdfrwt beam="1">  1        3 0.26314114E-01 0.13863161E+03</pdfrwt>
<pdfrwt beam="2">  1       -3 0.14482482E-01 0.13863161E+03</pdfrwt>
<totfact> 0.12460063E+03</totfact>
</mgrwt>
</event>
<event>
 6    1  0.6101889E-006  0.1335111E+03  0.7546771E-02  0.1233598E+00
          1   -1    0    0  501    0  0.00000000000E+00  0.00000000000E+00  0.46499902509E+03  0.46499902509E+03  0.00000000000E+00 0. -1.
         -1   -1    0    0    0  501 -0.00000000000E+00 -0.00000000000E+00 -0.36517423569E+02  0.36517423569E+02  0.00000000000E+00 0.  1.
          5    1    1    2  502    0  0.25752829085E+01  0.18575122246E+02  0.28592761919E+03  0.28658046106E+03  0.47000000000E+01 0.  1.
         -5    1    1    2    0  502  0.40525192625E+02 -0.37079225898E+02  0.48181403217E+02  0.73216786644E+02  0.47000000000E+01 0.  1.
        -11    1    1    2    0    0 -0.36188080714E+02  0.48911909957E+02  0.25225081949E+02  0.65865445271E+02  0.00000000000E+00 0.  1.
         11    1    1    2    0    0 -0.69123948199E+01 -0.30407806306E+02  0.69147497163E+02  0.75853755677E+02  0.00000000000E+00 0. -1.
<mgrwt>
<rscale>  0 0.12594598E+03</rscale>
<asrwt>0</asrwt>
<pdfrwt beam="1">  1        1 0.71538307E-01 0.13351113E+03</pdfrwt>
<pdfrwt beam="2">  1       -1 0.56180655E-02 0.13351113E+03</pdfrwt>
<totfact> 0.70216607E+03</totfact>
</mgrwt>
</event>
<event>
 6    1  0.6101889E-006  0.1631106E+03  0.7546771E-02  0.1192781E+00
         -1   -1    0    0    0  501 -0.00000000000E+00  0.00000000000E+00  0.19591381003E+03  0.19591381003E+03  0.00000000000E+00 0.  1.
          1   -1    0    0  501    0  0.00000000000E+00 -0.00000000000E+00 -0.11687641060E+03  0.11687641060E+03  0.00000000000E+00 0. -1.
          5    1    1    2  502    0 -0.13393406067E+02 -0.14142063560E+02  0.43918837832E+02  0.48273549738E+02  0.47000000000E+01 0.  1.
         -5    1    1    2    0  502 -0.16330427619E+02  0.11462419563E+03 -0.16759678080E+02  0.11708273101E+03  0.47000000000E+01 0.  1.
        -11    1    1    2    0    0  0.46956618827E+02 -0.10171170103E+03  0.23895820804E+02  0.11454782595E+03  0.00000000000E+00 0.  1.
         11    1    1    2    0    0 -0.17232785140E+02  0.12295689604E+01  0.27982418869E+02  0.32886113928E+02  0.00000000000E+00 0. -1.
<mgrwt>
<rscale>  0 0.15643557E+03</rscale>
<asrwt>0</asrwt>
<pdfrwt beam="2">  1        1 0.17980986E-01 0.16311064E+03</pdfrwt>
<pdfrwt beam="1">  1       -1 0.30140586E-01 0.16311064E+03</pdfrwt>
<totfact> 0.28995167E+03</totfact>
</mgrwt>
</event>
<event>
 6    1  0.6101889E-006  0.1378170E+03  0.7546771E-02  0.1229830E+00
         -1   -1    0    0    0  501 -0.00000000000E+00  0.00000000000E+00  0.18463022296E+03  0.18463022296E+03  0.00000000000E+00 0.  1.
          1   -1    0    0  501    0  0.00000000000E+00 -0.00000000000E+00 -0.28181340273E+03  0.28181340273E+03  0.00000000000E+00 0. -1.
          5    1    1    2  502    0  0.11324403198E+02  0.16468717565E+02 -0.24980986723E+03  0.25065219036E+03  0.47000000000E+01 0. -1.
         -5    1    1    2    0  502  0.13641993807E+02  0.29450502696E+02  0.20495553603E+01  0.32859196296E+02  0.47000000000E+01 0.  1.
        -11    1    1    2    0    0  0.96397673345E+01 -0.48104870916E+02  0.13729978739E+03  0.14580204161E+03  0.00000000000E+00 0. -1.
         11    1    1    2    0    0 -0.34606164339E+02  0.21856506554E+01  0.13277344711E+02  0.37130197436E+02  0.00000000000E+00 0.  1.
<mgrwt>
<rscale>  0 0.12841286E+03</rscale>
<asrwt>0</asrwt>
<pdfrwt beam="2">  1        1 0.43355908E-01 0.13781703E+03</pdfrwt>
<pdfrwt beam="1">  1       -1 0.28404650E-01 0.13781703E+03</pdfrwt>
<totfact> 0.10557264E+03</totfact>
</mgrwt>
</event>
<event>
 6    1  0.6101889E-006  0.1984264E+03  0.7546771E-02  0.1156638E+00
          2   -1    0    0  501    0  0.00000000000E+00  0.00000000000E+00  0.19246792153E+04  0.19246792153E+04  0.00000000000E+00 0. -1.
         -2   -1    0    0    0  501 -0.00000000000E+00 -0.00000000000E+00 -0.23985120043E+02  0.23985120043E+02  0.00000000000E+00 0.  1.
          5    1    1    2  502    0 -0.39730514742E+02 -0.62918921788E+02  0.11953860085E+04  0.11977091065E+04  0.47000000000E+01 0. -1.
         -5    1    1    2    0  502 -0.43115985459E+02 -0.66986205681E+02  0.28662927641E+03  0.29753079176E+03  0.47000000000E+01 0. -1.
        -11    1    1    2    0    0  0.54231281681E+02  0.70346052675E+02  0.33623208708E+03  0.34776661057E+03  0.00000000000E+00 0. -1.
         11    1    1    2    0    0  0.28615218520E+02  0.59559074794E+02  0.82446723241E+02  0.10565782647E+03  0.00000000000E+00 0.  1.
<mgrwt>
<rscale>  0 0.19203622E+03</rscale>
<asrwt>0</asrwt>
<pdfrwt beam="1">  1        2 0.29610437E+00 0.19842643E+03</pdfrwt>
<pdfrwt beam="2">  1       -2 0.36900200E-02 0.19842643E+03</pdfrwt>
<totfact> 0.25320739E+03</totfact>
</mgrwt>
</event>
<event>
 6    1  0.6101889E-006  0.1709883E+03  0.7546771E-02  0.1188818E+00
         -1   -1    0    0    0  501 -0.00000000000E+00  0.00000000000E+00  0.47067956307E+02  0.47067956307E+02  0.00000000000E+00 0.  1.
          1   -1    0    0  501    0  0.00000000000E+00 -0.00000000000E+00 -0.10582460888E+04  0.10582460888E+04  0.00000000000E+00 0. -1.
          5    1    1    2  502    0 -0.11198906326E+03  0.43175898950E+02 -0.87984025104E+03  0.88800150107E+03  0.47000000000E+01 0. -1.
         -5    1    1    2    0  502  0.29096060607E+02 -0.90982106234E+01 -0.62170334020E+02  0.69401719083E+02  0.47000000000E+01 0.  1.
        -11    1    1    2    0    0  0.21594270115E+02  0.19087408811E+02  0.13718066789E+02  0.31919070058E+02  0.00000000000E+00 0.  1.
         11    1    1    2    0    0  0.61298732533E+02 -0.53165097137E+02 -0.82885614267E+02  0.11599175495E+03  0.00000000000E+00 0. -1.
<mgrwt>
<rscale>  0 0.15989264E+03</rscale>
<asrwt>0</asrwt>
<pdfrwt beam="2">  1        1 0.16280708E+00 0.17098826E+03</pdfrwt>
<pdfrwt beam="1">  1       -1 0.72412245E-02 0.17098826E+03</pdfrwt>
<totfact> 0.14520423E+03</totfact>
</mgrwt>
</event>
<event>
 6    1  0.6101889E-006  0.1840577E+03  0.7546771E-02  0.1168851E+00
          2   -1    0    0  501    0  0.00000000000E+00  0.00000000000E+00  0.15389895813E+04  0.15389895813E+04  0.00000000000E+00 0.  1.
         -2   -1    0    0    0  501 -0.00000000000E+00 -0.00000000000E+00 -0.24276164435E+02  0.24276164435E+02  0.00000000000E+00 0. -1.
          5    1    1    2  502    0  0.82045047013E+02 -0.27116068516E+02  0.63596987969E+03  0.64183054522E+03  0.47000000000E+01 0. -1.
         -5    1    1    2    0  502 -0.19667367831E+02 -0.92723651812E+02  0.49437371618E+03  0.50340037963E+03  0.47000000000E+01 0. -1.
        -11    1    1    2    0    0  0.21539513328E+02  0.47973280145E+02  0.10060412306E+03  0.11351905487E+03  0.00000000000E+00 0. -1.
         11    1    1    2    0    0 -0.83917192510E+02  0.71866440183E+02  0.28376569797E+03  0.30451576604E+03  0.00000000000E+00 0.  1.
<mgrwt>
<rscale>  0 0.17892126E+03</rscale>
<asrwt>0</asrwt>
<pdfrwt beam="1">  1        2 0.23676755E+00 0.18405767E+03</pdfrwt>
<pdfrwt beam="2">  1       -2 0.37347957E-02 0.18405767E+03</pdfrwt>
<totfact> 0.39465477E+03</totfact>
</mgrwt>
</event>
<event>
 6    1  0.6101889E-006  0.1303831E+03  0.7546771E-02  0.1237654E+00
         -3   -1    0    0    0  501 -0.00000000000E+00  0.00000000000E+00  0.25633566686E+03  0.25633566686E+03  0.00000000000E+00 0.  1.
          3   -1    0    0  501    0  0.00000000000E+00 -0.00000000000E+00 -0.60551993198E+02  0.60551993198E+02  0.00000000000E+00 0. -1.
          5    1    1    2  502    0 -0.30491402975E+01  0.47670183091E+02  0.31868832812E+01  0.48103948253E+02  0.47000000000E+01 0. -1.
         -5    1    1    2    0  502  0.38323895388E+02 -0.67479931409E+02  0.51668539385E+02  0.93348755015E+02  0.47000000000E+01 0.  1.
        -11    1    1    2    0    0 -0.33633062870E+02  0.53646606653E+02  0.11981746291E+03  0.13551887596E+03  0.00000000000E+00 0. -1.
         11    1    1    2    0    0 -0.16416922202E+01 -0.33836858335E+02  0.21110788093E+02  0.39916080835E+02  0.00000000000E+00 0.  1.
<mgrwt>
<rscale>  0 0.12336079E+03</rscale>
<asrwt>0</asrwt>
<pdfrwt beam="2">  1        3 0.93156914E-02 0.13038309E+03</pdfrwt>
<pdfrwt beam="1">  1       -3 0.39436256E-01 0.13038309E+03</pdfrwt>
<totfact> 0.12119661E+03</totfact>
</mgrwt>
</event>
<event>
 6    1  0.6101889E-006  0.1573993E+03  0.7546771E-02  0.1192661E+00
          1   -1    0    0  501    0  0.00000000000E+00  0.00000000000E+00  0.65431793997E+03  0.65431793997E+03  0.00000000000E+00 0. -1.
         -1   -1    0    0    0  501 -0.00000000000E+00 -0.00000000000E+00 -0.50525281043E+02  0.50525281043E+02  0.00000000000E+00 0.  1.
          5    1    1    2  502    0  0.82373741834E+02  0.36384854137E+02  0.46302501906E+03  0.47172401808E+03  0.47000000000E+01 0. -1.
         -5    1    1    2    0  502  0.12963447028E+02 -0.28685877442E+02  0.23319638777E+02  0.39456635388E+02  0.47000000000E+01 0. -1.
        -11    1    1    2    0    0 -0.11357628300E+03  0.23036635378E+02  0.10322830647E+03  0.15519775091E+03  0.00000000000E+00 0.  1.
         11    1    1    2    0    0  0.18239094138E+02 -0.30735612073E+02  0.14219694623E+02  0.38464816647E+02  0.00000000000E+00 0. -1.
<mgrwt>
<rscale>  0 0.15653850E+03</rscale>
<asrwt>0</asrwt>
<pdfrwt beam="1">  1        1 0.10066429E+00 0.15739928E+03</pdfrwt>
<pdfrwt beam="2">  1       -1 0.77731206E-02 0.15739928E+03</pdfrwt>
<totfact> 0.27534842E+03</totfact>
</mgrwt>
</event>
<event>
 6    1  0.6101889E-006  0.4315799E+03  0.7546771E-02  0.1034038E+00
          2   -1    0    0  501    0  0.00000000000E+00  0.00000000000E+00  0.91785781853E+03  0.91785781853E+03  0.00000000000E+00 0. -1.
         -2   -1    0    0    0  501 -0.00000000000E+00 -0.00000000000E+00 -0.21654046291E+03  0.21654046291E+03  0.00000000000E+00 0.  1.
          5    1    1    2  502    0 -0.59724376306E+01  0.17355415658E+02  0.14895876865E-01  0.18946521734E+02  0.47000000000E+01 0. -1.
         -5    1    1    2    0  502  0.21610042214E+03  0.33828552996E+03  0.51552141220E+03  0.65339184925E+03  0.47000000000E+01 0. -1.
        -11    1    1    2    0    0 -0.54070865783E+02 -0.14430769706E+03  0.10764473285E+03  0.18797807975E+03  0.00000000000E+00 0. -1.
         11    1    1    2    0    0 -0.15605711873E+03 -0.21133324856E+03  0.78136314688E+02  0.27408183071E+03  0.00000000000E+00 0.  1.
<mgrwt>
<rscale>  0 0.42943546E+03</rscale>
<asrwt>0</asrwt>
<pdfrwt beam="1">  1        2 0.14120889E+00 0.43157989E+03</pdfrwt>
<pdfrwt beam="2">  1       -2 0.33313918E-01 0.43157989E+03</pdfrwt>
<totfact> 0.24729442E+02</totfact>
</mgrwt>
</event>
<event>
 6    1  0.6101889E-006  0.1301689E+03  0.7546771E-02  0.1241579E+00
         -2   -1    0    0    0  501 -0.00000000000E+00  0.00000000000E+00  0.37366865922E+02  0.37366865922E+02  0.00000000000E+00 0.  1.
          2   -1    0    0  501    0  0.00000000000E+00 -0.00000000000E+00 -0.35025060602E+03  0.35025060602E+03  0.00000000000E+00 0. -1.
          5    1    1    2  502    0 -0.49657964895E+02  0.23592997304E+01 -0.21529048039E+03  0.22100579341E+03  0.47000000000E+01 0. -1.
         -5    1    1    2    0  502  0.13573426674E+02  0.16583937063E+01  0.13067689828E+02  0.19489553581E+02  0.47000000000E+01 0. -1.
        -11    1    1    2    0    0 -0.24029813657E+02  0.20896767469E+02 -0.34625283547E+02  0.47042715650E+02  0.00000000000E+00 0. -1.
         11    1    1    2    0    0  0.60114351878E+02 -0.24914460905E+02 -0.76035665986E+02  0.10007940930E+03  0.00000000000E+00 0.  1.
<mgrwt>
<rscale>  0 0.12092502E+03</rscale>
<asrwt>0</asrwt>
<pdfrwt beam="2">  1        2 0.53884709E-01 0.13016895E+03</pdfrwt>
<pdfrwt beam="1">  1       -2 0.57487486E-02 0.13016895E+03</pdfrwt>
<totfact> 0.13710849E+04</totfact>
</mgrwt>
</event>
<event>
 6    1  0.6101889E-006  0.1314794E+03  0.7546771E-02  0.1239043E+00
         -1   -1    0    0    0  501 -0.00000000000E+00  0.00000000000E+00  0.67400263231E+02  0.67400263231E+02  0.00000000000E+00 0.  1.
          1   -1    0    0  501    0  0.00000000000E+00 -0.00000000000E+00 -0.19877037049E+03  0.19877037049E+03  0.00000000000E+00 0. -1.
          5    1    1    2  502    0  0.19121281721E+02  0.25155499231E+02 -0.89181520419E+02  0.94730439355E+02  0.47000000000E+01 0. -1.
         -5    1    1    2    0  502 -0.29234764161E+01 -0.62565880586E+02  0.23156191640E+01  0.62852909399E+02  0.47000000000E+01 0. -1.
        -11    1    1    2    0    0 -0.31412644849E+02  0.26219052640E+02  0.16955472025E+02  0.44290868239E+02  0.00000000000E+00 0.  1.
         11    1    1    2    0    0  0.15214839544E+02  0.11191328714E+02 -0.61459678025E+02  0.64296416724E+02  0.00000000000E+00 0. -1.
<mgrwt>
<rscale>  0 0.12249124E+03</rscale>
<asrwt>0</asrwt>
<pdfrwt beam="2">  1        1 0.30580057E-01 0.13147938E+03</pdfrwt>
<pdfrwt beam="1">  1       -1 0.10369271E-01 0.13147938E+03</pdfrwt>
<totfact> 0.80428299E+03</totfact>
</mgrwt>
</event>
<event>
 6    1  0.6101889E-006  0.1501819E+03  0.7546771E-02  0.1209367E+00
         -1   -1    0    0    0  501 -0.00000000000E+00  0.00000000000E+00  0.36629013131E+02  0.36629013131E+02  0.00000000000E+00 0.  1.
          1   -1    0    0  501    0  0.00000000000E+00 -0.00000000000E+00 -0.55784112293E+03  0.55784112293E+03  0.00000000000E+00 0. -1.
          5    1    1    2  502    0  0.57409410331E+02  0.41781324737E+02 -0.10802539166E+03  0.12935646383E+03  0.47000000000E+01 0. -1.
         -5    1    1    2    0  502 -0.50349879467E+02  0.41165833347E+02 -0.26182834301E+03  0.26982569819E+03  0.47000000000E+01 0. -1.
        -11    1    1    2    0    0  0.17822843485E+02  0.13607483506E+02 -0.39658503732E+02  0.45558909947E+02  0.00000000000E+00 0. -1.
         11    1    1    2    0    0 -0.24882374349E+02 -0.96554641589E+02 -0.11169987139E+03  0.14972906409E+03  0.00000000000E+00 0.  1.
<mgrwt>
<rscale>  0 0.14298608E+03</rscale>
<asrwt>0</asrwt>
<pdfrwt beam="2">  1        1 0.85821706E-01 0.15018193E+03</pdfrwt>
<pdfrwt beam="1">  1       -1 0.56352331E-02 0.15018193E+03</pdfrwt>
<totfact> 0.55415760E+03</totfact>
</mgrwt>
</event>
<event>
 6    1  0.6101889E-006  0.2413659E+03  0.7546771E-02  0.1118886E+00
         -2   -1    0    0    0  501 -0.00000000000E+00  0.00000000000E+00  0.31022878530E+03  0.31022878530E+03  0.00000000000E+00 0.  1.
          2   -1    0    0  501    0  0.00000000000E+00 -0.00000000000E+00 -0.46947213836E+02  0.46947213836E+02  0.00000000000E+00 0. -1.
          5    1    1    2  502    0  0.28000826487E+02 -0.20588460498E+02 -0.14212206921E+02  0.37841879118E+02  0.47000000000E+01 0. -1.
         -5    1    1    2    0  502  0.69808142616E+01 -0.16518845860E+01  0.18101836469E+03  0.18122140835E+03  0.47000000000E+01 0.  1.
        -11    1    1    2    0    0 -0.18285459868E+02 -0.34320790473E+02  0.47977034467E+02  0.61758161708E+02  0.00000000000E+00 0.  1.
         11    1    1    2    0    0 -0.16696180880E+02  0.56561135557E+02  0.48498379230E+02  0.76354549959E+02  0.00000000000E+00 0. -1.
<mgrwt>
<rscale>  0 0.24136592E+03</rscale>
<asrwt>0</asrwt>
<pdfrwt beam="2">  1        2 0.72226485E-02 0.24136592E+03</pdfrwt>
<pdfrwt beam="1">  1       -2 0.47727504E-01 0.24136592E+03</pdfrwt>
<totfact> 0.40422627E+03</totfact>
</mgrwt>
</event>
<event>
 6    1  0.6101889E-006  0.2311863E+03  0.7546771E-02  0.1129017E+00
          2   -1    0    0  501    0  0.00000000000E+00  0.00000000000E+00  0.79219817987E+03  0.79219817987E+03  0.00000000000E+00 0. -1.
         -2   -1    0    0    0  501 -0.00000000000E+00 -0.00000000000E+00 -0.64573159102E+02  0.64573159102E+02  0.00000000000E+00 0.  1.
          5    1    1    2  502    0 -0.86040647160E+02  0.81567815543E+02  0.39746926167E+03  0.41480140485E+03  0.47000000000E+01 0. -1.
         -5    1    1    2    0  502 -0.47057134920E+02  0.60231211991E+02  0.58286337723E+02  0.96236999173E+02  0.47000000000E+01 0. -1.
        -11    1    1    2    0    0  0.46018029255E+02 -0.88642742069E+02  0.78248884515E+02  0.12687821982E+03  0.00000000000E+00 0.  1.
         11    1    1    2    0    0  0.87079752825E+02 -0.53156285464E+02  0.19362053686E+03  0.21885471512E+03  0.00000000000E+00 0. -1.
<mgrwt>
<rscale>  0 0.22665425E+03</rscale>
<asrwt>0</asrwt>
<pdfrwt beam="1">  1        2 0.12187664E+00 0.23118625E+03</pdfrwt>
<pdfrwt beam="2">  1       -2 0.99343327E-02 0.23118625E+03</pdfrwt>
<totfact> 0.23991823E+03</totfact>
</mgrwt>
</event>
<event>
 6    1  0.6101889E-006  0.4235137E+03  0.7546771E-02  0.1035929E+00
          2   -1    0    0  501    0  0.00000000000E+00  0.00000000000E+00  0.62521145772E+02  0.62521145772E+02  0.00000000000E+00 0. -1.
         -2   -1    0    0    0  501 -0.00000000000E+00 -0.00000000000E+00 -0.71721283646E+03  0.71721283646E+03  0.00000000000E+00 0.  1.
          5    1    1    2  502    0 -0.58134676497E+01  0.27693432241E+02 -0.19696364663E+02  0.34795967817E+02  0.47000000000E+01 0.  1.
         -5    1    1    2    0  502  0.18607418791E+03 -0.66768112865E+01 -0.31435387133E+03  0.36538832718E+03  0.47000000000E+01 0.  1.
        -11    1    1    2    0    0 -0.10752721743E+03 -0.58673585824E+01 -0.10083523079E+03  0.14752719124E+03  0.00000000000E+00 0. -1.
         11    1    1    2    0    0 -0.72733502834E+02 -0.15149262372E+02 -0.21980622391E+03  0.23202249601E+03  0.00000000000E+00 0.  1.
<mgrwt>
<rscale>  0 0.42351372E+03</rscale>
<asrwt>0</asrwt>
<pdfrwt beam="1">  1        2 0.96186375E-02 0.42351372E+03</pdfrwt>
<pdfrwt beam="2">  1       -2 0.11034044E+00 0.42351372E+03</pdfrwt>
<totfact> 0.45966495E+02</totfact>
</mgrwt>
</event>
<event>
 6    1  0.6101889E-006  0.2139310E+03  0.7546771E-02  0.1138490E+00
         -2   -1    0    0    0  501 -0.00000000000E+00  0.00000000000E+00  0.15689605338E+03  0.15689605338E+03  0.00000000000E+00 0.  1.
          2   -1    0    0  501    0  0.00000000000E+00 -0.00000000000E+00 -0.72924834982E+02  0.72924834982E+02  0.00000000000E+00 0. -1.
          5    1    1    2  502    0  0.30691519136E+02 -0.19629323424E+02 -0.38997461038E+02  0.53573982980E+02  0.47000000000E+01 0. -1.
         -5    1    1    2    0  502 -0.15370275480E+02  0.60721189778E+01  0.59055548713E+02  0.61504177346E+02  0.47000000000E+01 0.  1.
        -11    1    1    2    0    0  0.24097894767E+02  0.37298401929E+02  0.49551053169E+02  0.66537103850E+02  0.00000000000E+00 0. -1.
         11    1    1    2    0    0 -0.39419138423E+02 -0.23741197483E+02  0.14362077558E+02  0.48205624191E+02  0.00000000000E+00 0.  1.
<mgrwt>
<rscale>  0 0.21393101E+03</rscale>
<asrwt>0</asrwt>
<pdfrwt beam="2">  1        2 0.11219205E-01 0.21393101E+03</pdfrwt>
<pdfrwt beam="1">  1       -2 0.24137854E-01 0.21393101E+03</pdfrwt>
<totfact> 0.81897053E+03</totfact>
</mgrwt>
</event>
<event>
 6    1  0.6101889E-006  0.1646016E+03  0.7546771E-02  0.1189830E+00
          2   -1    0    0  501    0  0.00000000000E+00  0.00000000000E+00  0.39596698660E+03  0.39596698660E+03  0.00000000000E+00 0. -1.
         -2   -1    0    0    0  501 -0.00000000000E+00 -0.00000000000E+00 -0.59996688047E+02  0.59996688047E+02  0.00000000000E+00 0.  1.
          5    1    1    2  502    0  0.46019779155E+02 -0.52370227122E+02  0.14203814286E+02  0.71304271278E+02  0.47000000000E+01 0.  1.
         -5    1    1    2    0  502  0.16354263215E+02 -0.34682149727E+02  0.17619723418E+03  0.18038256226E+03  0.47000000000E+01 0.  1.
        -11    1    1    2    0    0 -0.34206916233E+02 -0.40678248791E+01  0.55964756501E+01  0.34899582477E+02  0.00000000000E+00 0.  1.
         11    1    1    2    0    0 -0.28167126137E+02  0.91120201728E+02  0.13997277444E+03  0.16937725863E+03  0.00000000000E+00 0. -1.
<mgrwt>
<rscale>  0 0.15899997E+03</rscale>
<asrwt>0</asrwt>
<pdfrwt beam="1">  1        2 0.60917996E-01 0.16460165E+03</pdfrwt>
<pdfrwt beam="2">  1       -2 0.92302599E-02 0.16460165E+03</pdfrwt>
<totfact> 0.58996342E+03</totfact>
</mgrwt>
</event>
<event>
 6    1  0.6101889E-006  0.3508493E+03  0.7546771E-02  0.1111619E+00
          1   -1    0    0  501    0  0.00000000000E+00  0.00000000000E+00  0.78007227413E+03  0.78007227413E+03  0.00000000000E+00 0. -1.
         -1   -1    0    0    0  501 -0.00000000000E+00 -0.00000000000E+00 -0.63834527190E+02  0.63834527190E+02  0.00000000000E+00 0.  1.
          5    1    1    2  502    0  0.16471349759E+03 -0.69230088308E+02  0.36291712683E+03  0.40454205265E+03  0.47000000000E+01 0. -1.
         -5    1    1    2    0  502 -0.14124390842E+03  0.77344865288E+02  0.17682043258E+03  0.23920623995E+03  0.47000000000E+01 0.  1.
        -11    1    1    2    0    0  0.23225601580E+02  0.21354520294E+02  0.10607530858E+03  0.11066804054E+03  0.00000000000E+00 0. -1.
         11    1    1    2    0    0 -0.46695190754E+02 -0.29469297274E+02  0.70424878945E+02  0.89490468184E+02  0.00000000000E+00 0.  1.
<mgrwt>
<rscale>  0 0.25268645E+03</rscale>
<asrwt>0</asrwt>
<pdfrwt beam="1">  1        1 0.12001111E+00 0.35084930E+03</pdfrwt>
<pdfrwt beam="2">  1       -1 0.98206970E-02 0.35084930E+03</pdfrwt>
<totfact> 0.15031960E+03</totfact>
</mgrwt>
</event>
<event>
 6    1  0.6101889E-006  0.2492474E+03  0.7546771E-02  0.1137050E+00
         -2   -1    0    0    0  501 -0.00000000000E+00  0.00000000000E+00  0.59164601682E+03  0.59164601682E+03  0.00000000000E+00 0.  1.
          2   -1    0    0  501    0  0.00000000000E+00 -0.00000000000E+00 -0.64343608366E+02  0.64343608366E+02  0.00000000000E+00 0. -1.
          5    1    1    2  502    0  0.40623231693E+02 -0.30833886894E+02 -0.65303245842E+01  0.51630520754E+02  0.47000000000E+01 0. -1.
         -5    1    1    2    0  502  0.10318922593E+02  0.12178727408E+03  0.36520853759E+03  0.38514670740E+03  0.47000000000E+01 0.  1.
        -11    1    1    2    0    0 -0.88812131830E+01 -0.80380957485E+02  0.55562751076E+02  0.98118263239E+02  0.00000000000E+00 0. -1.
         11    1    1    2    0    0 -0.42060941102E+02 -0.10572429697E+02  0.11306144437E+03  0.12109413380E+03  0.00000000000E+00 0.  1.
<mgrwt>
<rscale>  0 0.21580439E+03</rscale>
<asrwt>0</asrwt>
<pdfrwt beam="2">  1        2 0.98990171E-02 0.24924744E+03</pdfrwt>
<pdfrwt beam="1">  1       -2 0.91022461E-01 0.24924744E+03</pdfrwt>
<totfact> 0.68999849E+02</totfact>
</mgrwt>
</event>
<event>
 6    1  0.6101889E-006  0.1205514E+03  0.7546771E-02  0.1256350E+00
          3   -1    0    0  501    0  0.00000000000E+00  0.00000000000E+00  0.21001467223E+03  0.21001467223E+03  0.00000000000E+00 0. -1.
         -3   -1    0    0    0  501 -0.00000000000E+00 -0.00000000000E+00 -0.55851376299E+02  0.55851376299E+02  0.00000000000E+00 0.  1.
          5    1    1    2  502    0 -0.51559286012E+02  0.17744816463E+00  0.10923844911E+03  0.12088639388E+03  0.47000000000E+01 0. -1.
         -5    1    1    2    0  502  0.42962025617E+02  0.15818463707E+02  0.69531732296E+01  0.46544559909E+02  0.47000000000E+01 0.  1.
        -11    1    1    2    0    0  0.47001253807E+02 -0.21455238205E+02  0.25998739453E+02  0.57839256210E+02  0.00000000000E+00 0.  1.
         11    1    1    2    0    0 -0.38403993412E+02  0.54593263328E+01  0.11972934138E+02  0.40595838529E+02  0.00000000000E+00 0. -1.
<mgrwt>
<rscale>  0 0.11231045E+03</rscale>
<asrwt>0</asrwt>
<pdfrwt beam="1">  1        3 0.32309949E-01 0.12055136E+03</pdfrwt>
<pdfrwt beam="2">  1       -3 0.85925196E-02 0.12055136E+03</pdfrwt>
<totfact> 0.19894422E+03</totfact>
</mgrwt>
</event>
<event>
 6    1  0.6101889E-006  0.1484166E+03  0.7546771E-02  0.1211525E+00
         -2   -1    0    0    0  501 -0.00000000000E+00  0.00000000000E+00  0.30346704129E+03  0.30346704129E+03  0.00000000000E+00 0. -1.
          2   -1    0    0  501    0  0.00000000000E+00 -0.00000000000E+00 -0.68433464589E+02  0.68433464589E+02  0.00000000000E+00 0.  1.
          5    1    1    2  502    0 -0.60420945572E+02 -0.20547501695E+02  0.68173454755E+02  0.93501873900E+02  0.47000000000E+01 0.  1.
         -5    1    1    2    0  502  0.37760321735E+02 -0.56187403623E+02 -0.44736562036E+01  0.68007130679E+02  0.47000000000E+01 0.  1.
        -11    1    1    2    0    0 -0.23431815939E+01  0.90181735593E+02  0.14936496161E+03  0.17449391878E+03  0.00000000000E+00 0. -1.
         11    1    1    2    0    0  0.25003805431E+02 -0.13446830276E+02  0.21968816536E+02  0.35897582516E+02  0.00000000000E+00 0.  1.
<mgrwt>
<rscale>  0 0.14134946E+03</rscale>
<asrwt>0</asrwt>
<pdfrwt beam="2">  1        2 0.10528226E-01 0.14841662E+03</pdfrwt>
<pdfrwt beam="1">  1       -2 0.46687236E-01 0.14841662E+03</pdfrwt>
<totfact> 0.25602131E+03</totfact>
</mgrwt>
</event>
<event>
 6    1  0.6101889E-006  0.1594962E+03  0.7546771E-02  0.1209730E+00
          2   -1    0    0  501    0  0.00000000000E+00  0.00000000000E+00  0.19919120318E+04  0.19919120318E+04  0.00000000000E+00 0. -1.
         -2   -1    0    0    0  501 -0.00000000000E+00 -0.00000000000E+00 -0.11766824186E+02  0.11766824186E+02  0.00000000000E+00 0.  1.
          5    1    1    2  502    0 -0.42281459892E+02  0.59132866632E+02  0.10516438212E+04  0.10541637608E+04  0.47000000000E+01 0. -1.
         -5    1    1    2    0  502  0.61858171773E+02 -0.49084882345E+02  0.60752549907E+03  0.61265412845E+03  0.47000000000E+01 0.  1.
        -11    1    1    2    0    0  0.31733782357E+02 -0.22528934059E+02  0.67258287966E+02  0.77706261733E+02  0.00000000000E+00 0. -1.
         11    1    1    2    0    0 -0.51310494238E+02  0.12480949772E+02  0.25371759938E+03  0.25915470507E+03  0.00000000000E+00 0.  1.
<mgrwt>
<rscale>  0 0.14270896E+03</rscale>
<asrwt>0</asrwt>
<pdfrwt beam="1">  1        2 0.30644774E+00 0.15949621E+03</pdfrwt>
<pdfrwt beam="2">  1       -2 0.18102822E-02 0.15949621E+03</pdfrwt>
<totfact> 0.66645510E+03</totfact>
</mgrwt>
</event>
<event>
 6    1  0.6101889E-006  0.1617599E+03  0.7546771E-02  0.1195574E+00
          2   -1    0    0  501    0  0.00000000000E+00  0.00000000000E+00  0.60424262648E+03  0.60424262648E+03  0.00000000000E+00 0. -1.
         -2   -1    0    0    0  501 -0.00000000000E+00 -0.00000000000E+00 -0.57437432653E+02  0.57437432653E+02  0.00000000000E+00 0.  1.
          5    1    1    2  502    0 -0.20190939331E+02  0.10246533308E+02  0.10112624212E+02  0.25239267904E+02  0.47000000000E+01 0. -1.
         -5    1    1    2    0  502 -0.90290189566E+01 -0.10204165390E+03  0.48161426631E+03  0.49241081814E+03  0.47000000000E+01 0.  1.
        -11    1    1    2    0    0  0.94868629299E+01  0.97757975855E+02  0.15538049267E+02  0.99438691597E+02  0.00000000000E+00 0. -1.
         11    1    1    2    0    0  0.19733095357E+02 -0.59628552676E+01  0.39540254047E+02  0.44591281495E+02  0.00000000000E+00 0.  1.
<mgrwt>
<rscale>  0 0.15405779E+03</rscale>
<asrwt>0</asrwt>
<pdfrwt beam="1">  1        2 0.92960400E-01 0.16175994E+03</pdfrwt>
<pdfrwt beam="2">  1       -2 0.88365285E-02 0.16175994E+03</pdfrwt>
<totfact> 0.39564954E+03</totfact>
</mgrwt>
</event>
<event>
 6    1  0.6101889E-006  0.1956604E+03  0.7546771E-02  0.1158059E+00
          2   -1    0    0  501    0  0.00000000000E+00  0.00000000000E+00  0.93319639383E+03  0.93319639383E+03  0.00000000000E+00 0. -1.
         -2   -1    0    0    0  501 -0.00000000000E+00 -0.00000000000E+00 -0.82464652166E+02  0.82464652166E+02  0.00000000000E+00 0.  1.
          5    1    1    2  502    0  0.10868408571E+03  0.22854864562E+01  0.56389356209E+03  0.57429564974E+03  0.47000000000E+01 0.  1.
         -5    1    1    2    0  502  0.18211377150E+02  0.78677672192E+02  0.24886330797E+03  0.26168084839E+03  0.47000000000E+01 0.  1.
        -11    1    1    2    0    0 -0.12722735727E+03 -0.96709740359E+02  0.35951628043E+02  0.16380504838E+03  0.00000000000E+00 0.  1.
         11    1    1    2    0    0  0.33189440215E+00  0.15746581711E+02  0.20232435588E+01  0.15879499488E+02  0.00000000000E+00 0. -1.
<mgrwt>
<rscale>  0 0.19044705E+03</rscale>
<asrwt>0</asrwt>
<pdfrwt beam="1">  1        2 0.14356867E+00 0.19566036E+03</pdfrwt>
<pdfrwt beam="2">  1       -2 0.12686870E-01 0.19566036E+03</pdfrwt>
<totfact> 0.13065789E+03</totfact>
</mgrwt>
</event>
<event>
 6    1  0.6101889E-006  0.1183982E+03  0.7546771E-02  0.1262195E+00
         -2   -1    0    0    0  501 -0.00000000000E+00  0.00000000000E+00  0.14112245046E+02  0.14112245046E+02  0.00000000000E+00 0.  1.
          2   -1    0    0  501    0  0.00000000000E+00 -0.00000000000E+00 -0.74646056036E+03  0.74646056036E+03  0.00000000000E+00 0. -1.
          5    1    1    2  502    0 -0.29074793014E+01 -0.22072974102E+02 -0.36890950383E+03  0.36961058107E+03  0.47000000000E+01 0. -1.
         -5    1    1    2    0  502  0.39061364955E+02  0.38057037598E+02 -0.99842099563E+02  0.11386247489E+03  0.47000000000E+01 0.  1.
        -11    1    1    2    0    0  0.23359815509E+02  0.14272234946E+01 -0.68766190781E+02  0.72639568708E+02  0.00000000000E+00 0. -1.
         11    1    1    2    0    0 -0.59513701162E+02 -0.17411286991E+02 -0.19483052114E+03  0.20446018074E+03  0.00000000000E+00 0.  1.
<mgrwt>
<rscale>  0 0.10912692E+03</rscale>
<asrwt>0</asrwt>
<pdfrwt beam="2">  1        2 0.11484011E+00 0.11839818E+03</pdfrwt>
<pdfrwt beam="1">  1       -2 0.21711141E-02 0.11839818E+03</pdfrwt>
<totfact> 0.24743558E+04</totfact>
</mgrwt>
</event>
<event>
 6    1  0.6101889E-006  0.4386001E+03  0.7546771E-02  0.1031177E+00
         -1   -1    0    0    0  501 -0.00000000000E+00  0.00000000000E+00  0.49333994080E+03  0.49333994080E+03  0.00000000000E+00 0.  1.
          1   -1    0    0  501    0  0.00000000000E+00 -0.00000000000E+00 -0.97483504220E+02  0.97483504220E+02  0.00000000000E+00 0. -1.
          5    1    1    2  502    0  0.56841404070E+02  0.18300680069E+02  0.10468349609E+02  0.60807371684E+02  0.47000000000E+01 0.  1.
         -5    1    1    2    0  502  0.70814611512E+02 -0.13071523843E+03  0.79502400243E+02  0.16865320751E+03  0.47000000000E+01 0.  1.
        -11    1    1    2    0    0 -0.72867684406E+02  0.56211232292E+02  0.79007111103E+02  0.12129107828E+03  0.00000000000E+00 0. -1.
         11    1    1    2    0    0 -0.54788331175E+02  0.56203326064E+02  0.22687857562E+03  0.24007178753E+03  0.00000000000E+00 0.  1.
<mgrwt>
<rscale>  0 0.43860007E+03</rscale>
<asrwt>0</asrwt>
<pdfrwt beam="2">  1        1 0.14997462E-01 0.43860007E+03</pdfrwt>
<pdfrwt beam="1">  1       -1 0.75898451E-01 0.43860007E+03</pdfrwt>
<totfact> 0.67917357E+02</totfact>
</mgrwt>
</event>
<event>
 6    1  0.6101889E-006  0.1745326E+03  0.7546771E-02  0.1250732E+00
         -2   -1    0    0    0  501 -0.00000000000E+00  0.00000000000E+00  0.88377039543E+02  0.88377039543E+02  0.00000000000E+00 0.  1.
          2   -1    0    0  501    0  0.00000000000E+00 -0.00000000000E+00 -0.36780906785E+03  0.36780906785E+03  0.00000000000E+00 0. -1.
          5    1    1    2  502    0  0.26536406980E+02 -0.76778720328E+02 -0.23804980622E+03  0.25157295767E+03  0.47000000000E+01 0. -1.
         -5    1    1    2    0  502 -0.28309661470E+02  0.76923749832E+02 -0.10466797890E+03  0.13302697481E+03  0.47000000000E+01 0.  1.
        -11    1    1    2    0    0  0.56611009569E+01 -0.12226046756E+02  0.99174643159E+01  0.16729625871E+02  0.00000000000E+00 0. -1.
         11    1    1    2    0    0 -0.38878464670E+01  0.12081017252E+02  0.53368292498E+02  0.54856549036E+02  0.00000000000E+00 0.  1.
<mgrwt>
<rscale>  0 0.11548753E+03</rscale>
<asrwt>0</asrwt>
<pdfrwt beam="2">  1        2 0.56586012E-01 0.17453260E+03</pdfrwt>
<pdfrwt beam="1">  1       -2 0.13596467E-01 0.17453260E+03</pdfrwt>
<totfact> 0.34513692E+03</totfact>
</mgrwt>
</event>
<event>
 6    1  0.6101889E-006  0.3077926E+03  0.7546771E-02  0.1081409E+00
          1   -1    0    0  501    0  0.00000000000E+00  0.00000000000E+00  0.56284924784E+03  0.56284924784E+03  0.00000000000E+00 0. -1.
         -1   -1    0    0    0  501 -0.00000000000E+00 -0.00000000000E+00 -0.42078893270E+02  0.42078893270E+02  0.00000000000E+00 0.  1.
          5    1    1    2  502    0 -0.13906057959E+02  0.16703519204E+02  0.70105156277E+00  0.22247864505E+02  0.47000000000E+01 0.  1.
         -5    1    1    2    0  502  0.51370981061E+02  0.74805396920E+02  0.37519746167E+03  0.38604410415E+03  0.47000000000E+01 0.  1.
        -11    1    1    2    0    0 -0.46246597185E+02 -0.46376137956E+02  0.13435692588E+03  0.14946998847E+03  0.00000000000E+00 0.  1.
         11    1    1    2    0    0  0.87816740824E+01 -0.45132778168E+02  0.10514915464E+02  0.47166183989E+02  0.00000000000E+00 0. -1.
<mgrwt>
<rscale>  0 0.30779261E+03</rscale>
<asrwt>0</asrwt>
<pdfrwt beam="1">  1        1 0.86592186E-01 0.30779261E+03</pdfrwt>
<pdfrwt beam="2">  1       -1 0.64736763E-02 0.30779261E+03</pdfrwt>
<totfact> 0.45762205E+03</totfact>
</mgrwt>
</event>
<event>
 6    1  0.6101889E-006  0.1308305E+03  0.7546771E-02  0.1239794E+00
         -2   -1    0    0    0  501 -0.00000000000E+00  0.00000000000E+00  0.99392453839E+02  0.99392453839E+02  0.00000000000E+00 0.  1.
          2   -1    0    0  501    0  0.00000000000E+00 -0.00000000000E+00 -0.14084783287E+03  0.14084783287E+03  0.00000000000E+00 0. -1.
          5    1    1    2  502    0 -0.58235995741E+02 -0.41517650367E+02 -0.54528432582E+02  0.90058794417E+02  0.47000000000E+01 0.  1.
         -5    1    1    2    0  502  0.50206715459E+02  0.37376314907E+01  0.27640877585E+01  0.50640046875E+02  0.47000000000E+01 0.  1.
        -11    1    1    2    0    0 -0.13578446665E+02  0.29645772256E+02  0.46391373185E+02  0.56704545960E+02  0.00000000000E+00 0.  1.
         11    1    1    2    0    0  0.21607726947E+02  0.81342466206E+01 -0.36082407395E+02  0.42836899459E+02  0.00000000000E+00 0. -1.
<mgrwt>
<rscale>  0 0.12202457E+03</rscale>
<asrwt>0</asrwt>
<pdfrwt beam="2">  1        2 0.21668897E-01 0.13083049E+03</pdfrwt>
<pdfrwt beam="1">  1       -2 0.15291147E-01 0.13083049E+03</pdfrwt>
<totfact> 0.79134285E+03</totfact>
</mgrwt>
</event>
<event>
 6    1  0.6101889E-006  0.1510139E+03  0.7546771E-02  0.1205385E+00
          2   -1    0    0  501    0  0.00000000000E+00  0.00000000000E+00  0.67713773700E+03  0.67713773700E+03  0.00000000000E+00 0. -1.
         -2   -1    0    0    0  501 -0.00000000000E+00 -0.00000000000E+00 -0.60104970173E+02  0.60104970173E+02  0.00000000000E+00 0.  1.
          5    1    1    2  502    0 -0.49038068916E+02  0.43995791081E+02  0.54839823713E+03  0.55236136570E+03  0.47000000000E+01 0. -1.
         -5    1    1    2    0  502 -0.64811130291E+01  0.34183104512E+02  0.32487772279E+02  0.47833406818E+02  0.47000000000E+01 0.  1.
        -11    1    1    2    0    0  0.17578526077E+02 -0.73005898544E+02 -0.11449943837E+02  0.75960298941E+02  0.00000000000E+00 0.  1.
         11    1    1    2    0    0  0.37940655868E+02 -0.51729970486E+01  0.47596701252E+02  0.61087635707E+02  0.00000000000E+00 0. -1.
<mgrwt>
<rscale>  0 0.14607188E+03</rscale>
<asrwt>0</asrwt>
<pdfrwt beam="1">  1        2 0.10417503E+00 0.15101394E+03</pdfrwt>
<pdfrwt beam="2">  1       -2 0.92469190E-02 0.15101394E+03</pdfrwt>
<totfact> 0.32197573E+03</totfact>
</mgrwt>
</event>
<event>
 6    1  0.6101889E-006  0.1302874E+03  0.7546771E-02  0.1242435E+00
         -1   -1    0    0    0  501 -0.00000000000E+00  0.00000000000E+00  0.30762683061E+03  0.30762683061E+03  0.00000000000E+00 0.  1.
          1   -1    0    0  501    0  0.00000000000E+00 -0.00000000000E+00 -0.54392490602E+02  0.54392490602E+02  0.00000000000E+00 0. -1.
          5    1    1    2  502    0 -0.32528321042E+02 -0.33194793721E+02 -0.15995119967E+02  0.49375296077E+02  0.47000000000E+01 0. -1.
         -5    1    1    2    0  502  0.17600743957E+02  0.56600756087E+02  0.69515840345E+02  0.91476630001E+02  0.47000000000E+01 0.  1.
        -11    1    1    2    0    0  0.38495856633E+02 -0.45666178089E+02  0.15355389238E+03  0.16476082260E+03  0.00000000000E+00 0.  1.
         11    1    1    2    0    0 -0.23568279549E+02  0.22260215724E+02  0.46159727248E+02  0.56406572530E+02  0.00000000000E+00 0. -1.
<mgrwt>
<rscale>  0 0.12040225E+03</rscale>
<asrwt>0</asrwt>
<pdfrwt beam="2">  1        1 0.83680757E-02 0.13028737E+03</pdfrwt>
<pdfrwt beam="1">  1       -1 0.47327204E-01 0.13028737E+03</pdfrwt>
<totfact> 0.35640095E+03</totfact>
</mgrwt>
</event>
<event>
 6    1  0.6101889E-006  0.1280812E+03  0.7546771E-02  0.1244328E+00
          3   -1    0    0  501    0  0.00000000000E+00  0.00000000000E+00  0.32830136037E+03  0.32830136037E+03  0.00000000000E+00 0. -1.
         -3   -1    0    0    0  501 -0.00000000000E+00 -0.00000000000E+00 -0.49925966818E+02  0.49925966818E+02  0.00000000000E+00 0.  1.
          5    1    1    2  502    0 -0.10194962079E+02 -0.70705515236E+02  0.14301164096E+03  0.15993006780E+03  0.47000000000E+01 0.  1.
         -5    1    1    2    0  502 -0.12707842083E+02  0.54711252818E+02  0.10177132274E+03  0.11633702148E+03  0.47000000000E+01 0.  1.
        -11    1    1    2    0    0 -0.88455986919E+01 -0.26239704520E+02 -0.13840058953E+02  0.30956646157E+02  0.00000000000E+00 0.  1.
         11    1    1    2    0    0  0.31748402854E+02  0.42233966938E+02  0.47432488814E+02  0.71003591755E+02  0.00000000000E+00 0. -1.
<mgrwt>
<rscale>  0 0.11925707E+03</rscale>
<asrwt>0</asrwt>
<pdfrwt beam="1">  1        3 0.50507900E-01 0.12808124E+03</pdfrwt>
<pdfrwt beam="2">  1       -3 0.76809182E-02 0.12808124E+03</pdfrwt>
<totfact> 0.10202851E+03</totfact>
</mgrwt>
</event>
<event>
 6    1  0.6101889E-006  0.1310647E+03  0.7546771E-02  0.1238811E+00
          1   -1    0    0  501    0  0.00000000000E+00  0.00000000000E+00  0.25168184312E+02  0.25168184312E+02  0.00000000000E+00 0. -1.
         -1   -1    0    0    0  501 -0.00000000000E+00 -0.00000000000E+00 -0.59111565836E+03  0.59111565836E+03  0.00000000000E+00 0.  1.
          5    1    1    2  502    0 -0.84648312791E+01 -0.28672601275E+02 -0.25973252758E+01  0.30374455238E+02  0.47000000000E+01 0. -1.
         -5    1    1    2    0  502 -0.18461080062E+02  0.57440532049E+02 -0.21777775527E+03  0.22602979204E+03  0.47000000000E+01 0. -1.
        -11    1    1    2    0    0  0.40197093587E+02  0.19540644574E+02 -0.22353091116E+03  0.22795550304E+03  0.00000000000E+00 0.  1.
         11    1    1    2    0    0 -0.13271182246E+02 -0.48308575348E+02 -0.12204148233E+03  0.13192409234E+03  0.00000000000E+00 0. -1.
<mgrwt>
<rscale>  0 0.12263576E+03</rscale>
<asrwt>0</asrwt>
<pdfrwt beam="1">  1        1 0.38720284E-02 0.13106472E+03</pdfrwt>
<pdfrwt beam="2">  1       -1 0.90940870E-01 0.13106472E+03</pdfrwt>
<totfact> 0.28461395E+03</totfact>
</mgrwt>
</event>
<event>
 6    1  0.6101889E-006  0.1586538E+03  0.7546771E-02  0.1198323E+00
          1   -1    0    0  501    0  0.00000000000E+00  0.00000000000E+00  0.62634237586E+03  0.62634237586E+03  0.00000000000E+00 0. -1.
         -1   -1    0    0    0  501 -0.00000000000E+00 -0.00000000000E+00 -0.34139669964E+02  0.34139669964E+02  0.00000000000E+00 0.  1.
          5    1    1    2  502    0 -0.27808777396E+02  0.52470458873E+02  0.13187304458E+03  0.14470337606E+03  0.47000000000E+01 0.  1.
         -5    1    1    2    0  502 -0.68314430817E+02 -0.70002811344E+02  0.16351178983E+03  0.19059236729E+03  0.47000000000E+01 0.  1.
        -11    1    1    2    0    0  0.92144310797E+02 -0.42495883745E+01  0.28606875136E+03  0.30057272584E+03  0.00000000000E+00 0.  1.
         11    1    1    2    0    0  0.39788974158E+01  0.21781940846E+02  0.10749120120E+02  0.24613576640E+02  0.00000000000E+00 0. -1.
<mgrwt>
<rscale>  0 0.15176320E+03</rscale>
<asrwt>0</asrwt>
<pdfrwt beam="1">  1        1 0.96360357E-01 0.15865382E+03</pdfrwt>
<pdfrwt beam="2">  1       -1 0.52522574E-02 0.15865382E+03</pdfrwt>
<totfact> 0.52696403E+03</totfact>
</mgrwt>
</event>
<event>
 6    1  0.6101889E-006  0.1341234E+03  0.7546771E-02  0.1233822E+00
         -1   -1    0    0    0  501 -0.00000000000E+00  0.00000000000E+00  0.80566443055E+02  0.80566443055E+02  0.00000000000E+00 0.  1.
          1   -1    0    0  501    0  0.00000000000E+00 -0.00000000000E+00 -0.19242291512E+03  0.19242291512E+03  0.00000000000E+00 0. -1.
          5    1    1    2  502    0  0.63351984918E+02 -0.58719913239E+01 -0.12661116191E+02  0.65041126515E+02  0.47000000000E+01 0. -1.
         -5    1    1    2    0  502 -0.37717873626E+02 -0.35438879273E+02 -0.89753239925E+02  0.10371251724E+03  0.47000000000E+01 0. -1.
        -11    1    1    2    0    0 -0.41830014256E+02  0.29571778081E+01 -0.35650326338E+02  0.55040355751E+02  0.00000000000E+00 0. -1.
         11    1    1    2    0    0  0.16195902963E+02  0.38353692789E+02  0.26208210386E+02  0.49195358673E+02  0.00000000000E+00 0.  1.
<mgrwt>
<rscale>  0 0.12580135E+03</rscale>
<asrwt>0</asrwt>
<pdfrwt beam="2">  1        1 0.29603525E-01 0.13412342E+03</pdfrwt>
<pdfrwt beam="1">  1       -1 0.12394838E-01 0.13412342E+03</pdfrwt>
<totfact> 0.63746118E+03</totfact>
</mgrwt>
</event>
<event>
 6    1  0.6101889E-006  0.1807181E+03  0.7546771E-02  0.1172847E+00
         -2   -1    0    0    0  501 -0.00000000000E+00  0.00000000000E+00  0.41765597628E+02  0.41765597628E+02  0.00000000000E+00 0.  1.
          2   -1    0    0  501    0  0.00000000000E+00 -0.00000000000E+00 -0.95118563902E+03  0.95118563902E+03  0.00000000000E+00 0. -1.
          5    1    1    2  502    0 -0.78422315181E+02  0.69945278427E+02 -0.44873370307E+03  0.46089741566E+03  0.47000000000E+01 0.  1.
         -5    1    1    2    0  502  0.48764618412E+02  0.57162416806E+02 -0.28793120782E+03  0.29761048426E+03  0.47000000000E+01 0.  1.
        -11    1    1    2    0    0  0.59771303380E+02 -0.99013646994E+02 -0.11164537996E+03  0.16075136661E+03  0.00000000000E+00 0.  1.
         11    1    1    2    0    0 -0.30113606611E+02 -0.28094048238E+02 -0.61109750543E+02  0.73691970126E+02  0.00000000000E+00 0. -1.
<mgrwt>
<rscale>  0 0.17488491E+03</rscale>
<asrwt>0</asrwt>
<pdfrwt beam="2">  1        2 0.14633624E+00 0.18071813E+03</pdfrwt>
<pdfrwt beam="1">  1       -2 0.64254771E-02 0.18071813E+03</pdfrwt>
<totfact> 0.37064888E+03</totfact>
</mgrwt>
</event>
<event>
 6    1  0.6101889E-006  0.1176067E+03  0.7546771E-02  0.1258789E+00
         -1   -1    0    0    0  501 -0.00000000000E+00  0.00000000000E+00  0.55700985388E+02  0.55700985388E+02  0.00000000000E+00 0.  1.
          1   -1    0    0  501    0  0.00000000000E+00 -0.00000000000E+00 -0.40325653585E+03  0.40325653585E+03  0.00000000000E+00 0. -1.
          5    1    1    2  502    0  0.26212567578E+02  0.20374382263E+02 -0.24208736727E+02  0.41356584549E+02  0.47000000000E+01 0. -1.
         -5    1    1    2    0  502 -0.20282928758E+02 -0.32226370146E+02 -0.32210078237E+03  0.32437777380E+03  0.47000000000E+01 0.  1.
        -11    1    1    2    0    0 -0.14936949060E+02  0.25348685283E+02  0.39564381469E+02  0.49305259089E+02  0.00000000000E+00 0.  1.
         11    1    1    2    0    0  0.90073102401E+01 -0.13496697399E+02 -0.40810412833E+02  0.43917903798E+02  0.00000000000E+00 0. -1.
<mgrwt>
<rscale>  0 0.11096738E+03</rscale>
<asrwt>0</asrwt>
<pdfrwt beam="2">  1        1 0.62039465E-01 0.11760671E+03</pdfrwt>
<pdfrwt beam="1">  1       -1 0.85693826E-02 0.11760671E+03</pdfrwt>
<totfact> 0.44409928E+03</totfact>
</mgrwt>
</event>
<event>
 6    1  0.6101889E-006  0.1826522E+03  0.7546771E-02  0.1188314E+00
         -1   -1    0    0    0  501 -0.00000000000E+00  0.00000000000E+00  0.39929450529E+03  0.39929450529E+03  0.00000000000E+00 0.  1.
          1   -1    0    0  501    0  0.00000000000E+00 -0.00000000000E+00 -0.59884176252E+02  0.59884176252E+02  0.00000000000E+00 0. -1.
          5    1    1    2  502    0 -0.34468670708E+02  0.39932855876E+02 -0.22842589268E+01  0.53009716823E+02  0.47000000000E+01 0. -1.
         -5    1    1    2    0  502  0.89624202881E+02 -0.59696809244E+02  0.13507860122E+03  0.17281355642E+03  0.47000000000E+01 0.  1.
        -11    1    1    2    0    0 -0.79718421458E+02  0.53948102505E+01  0.14770095778E+03  0.16792767380E+03  0.00000000000E+00 0.  1.
         11    1    1    2    0    0  0.24562889286E+02  0.14369143118E+02  0.58915028962E+02  0.65427734498E+02  0.00000000000E+00 0. -1.
<mgrwt>
<rscale>  0 0.16033956E+03</rscale>
<asrwt>0</asrwt>
<pdfrwt beam="2">  1        1 0.92129504E-02 0.18265217E+03</pdfrwt>
<pdfrwt beam="1">  1       -1 0.61429922E-01 0.18265217E+03</pdfrwt>
<totfact> 0.19594888E+03</totfact>
</mgrwt>
</event>
<event>
 6    1  0.6101889E-006  0.1324623E+03  0.7546771E-02  0.1236392E+00
          2   -1    0    0  501    0  0.00000000000E+00  0.00000000000E+00  0.13167776023E+03  0.13167776023E+03  0.00000000000E+00 0. -1.
         -2   -1    0    0    0  501 -0.00000000000E+00 -0.00000000000E+00 -0.11003941919E+03  0.11003941919E+03  0.00000000000E+00 0.  1.
          5    1    1    2  502    0 -0.28015395908E+01 -0.49484287889E+02  0.37427487365E+01  0.49926361174E+02  0.47000000000E+01 0. -1.
         -5    1    1    2    0  502  0.42147981107E+02  0.68799664166E+02  0.35102328435E+02  0.88114184796E+02  0.47000000000E+01 0. -1.
        -11    1    1    2    0    0 -0.38066014028E+02 -0.42372839777E+01 -0.52667690243E+02  0.65121897969E+02  0.00000000000E+00 0.  1.
         11    1    1    2    0    0 -0.12804274883E+01 -0.15078092300E+02  0.35460954114E+02  0.38554735489E+02  0.00000000000E+00 0. -1.
<mgrwt>
<rscale>  0 0.12415753E+03</rscale>
<asrwt>0</asrwt>
<pdfrwt beam="1">  1        2 0.20258117E-01 0.13246227E+03</pdfrwt>
<pdfrwt beam="2">  1       -2 0.16929141E-01 0.13246227E+03</pdfrwt>
<totfact> 0.72259675E+03</totfact>
</mgrwt>
</event>
<event>
 6    1  0.6101889E-006  0.1284070E+03  0.7546771E-02  0.1243316E+00
          2   -1    0    0  501    0  0.00000000000E+00  0.00000000000E+00  0.32334881826E+03  0.32334881826E+03  0.00000000000E+00 0. -1.
         -2   -1    0    0    0  501 -0.00000000000E+00 -0.00000000000E+00 -0.39466881107E+02  0.39466881107E+02  0.00000000000E+00 0.  1.
          5    1    1    2  502    0  0.23815815382E+02 -0.54637465631E+02  0.51478571481E+02  0.78896001385E+02  0.47000000000E+01 0. -1.
         -5    1    1    2    0  502  0.39060983049E+01  0.64407531738E+02  0.10744926010E+03  0.12542336802E+03  0.47000000000E+01 0. -1.
        -11    1    1    2    0    0 -0.15990094171E+02 -0.36984120510E+02  0.12227226907E+03  0.12874011055E+03  0.00000000000E+00 0. -1.
         11    1    1    2    0    0 -0.11731819517E+02  0.27214054404E+02  0.26818364920E+01  0.29756219404E+02  0.00000000000E+00 0.  1.
<mgrwt>
<rscale>  0 0.11986712E+03</rscale>
<asrwt>0</asrwt>
<pdfrwt beam="1">  1        2 0.49745970E-01 0.12840697E+03</pdfrwt>
<pdfrwt beam="2">  1       -2 0.60718281E-02 0.12840697E+03</pdfrwt>
<totfact> 0.13721721E+04</totfact>
</mgrwt>
</event>
<event>
 6    1  0.6101889E-006  0.1583308E+03  0.7546771E-02  0.1207806E+00
         -2   -1    0    0    0  501 -0.00000000000E+00  0.00000000000E+00  0.78183842992E+02  0.78183842992E+02  0.00000000000E+00 0. -1.
          2   -1    0    0  501    0  0.00000000000E+00 -0.00000000000E+00 -0.22892652914E+03  0.22892652914E+03  0.00000000000E+00 0.  1.
          5    1    1    2  502    0 -0.11675545294E+02  0.80757204325E+02 -0.14738114153E+02  0.83050264401E+02  0.47000000000E+01 0.  1.
         -5    1    1    2    0  502 -0.59431103273E+02 -0.14567800616E+02 -0.82258412212E+02  0.10262949493E+03  0.47000000000E+01 0.  1.
        -11    1    1    2    0    0  0.41972141934E+02 -0.44955404441E+02 -0.58725184804E+02  0.85037029682E+02  0.00000000000E+00 0.  1.
         11    1    1    2    0    0  0.29134506632E+02 -0.21233999269E+02  0.49790250212E+01  0.36393583113E+02  0.00000000000E+00 0. -1.
<mgrwt>
<rscale>  0 0.14418489E+03</rscale>
<asrwt>0</asrwt>
<pdfrwt beam="2">  1        2 0.35219466E-01 0.15833081E+03</pdfrwt>
<pdfrwt beam="1">  1       -2 0.12028284E-01 0.15833081E+03</pdfrwt>
<totfact> 0.69492749E+03</totfact>
</mgrwt>
</event>
<event>
 6    1  0.6101889E-006  0.1273305E+03  0.7546771E-02  0.1245340E+00
          3   -1    0    0  501    0  0.00000000000E+00  0.00000000000E+00  0.73410398396E+02  0.73410398396E+02  0.00000000000E+00 0. -1.
         -3   -1    0    0    0  501 -0.00000000000E+00 -0.00000000000E+00 -0.17149997485E+03  0.17149997485E+03  0.00000000000E+00 0.  1.
          5    1    1    2  502    0  0.29474984587E+01 -0.65757077840E+02 -0.53536386959E+02  0.84975971673E+02  0.47000000000E+01 0.  1.
         -5    1    1    2    0  502 -0.16575896398E+02  0.45678587794E+02  0.95361025700E+01  0.49742546945E+02  0.47000000000E+01 0.  1.
        -11    1    1    2    0    0 -0.30894065749E+02  0.12863477526E+02 -0.55789262708E+02  0.65056546066E+02  0.00000000000E+00 0.  1.
         11    1    1    2    0    0  0.44522463688E+02  0.72150125196E+01  0.16999706453E+01  0.45135308559E+02  0.00000000000E+00 0. -1.
<mgrwt>
<rscale>  0 0.11865079E+03</rscale>
<asrwt>0</asrwt>
<pdfrwt beam="1">  1        3 0.11293908E-01 0.12733049E+03</pdfrwt>
<pdfrwt beam="2">  1       -3 0.26384611E-01 0.12733049E+03</pdfrwt>
<totfact> 0.18584030E+03</totfact>
</mgrwt>
</event>
<event>
 6    1  0.6101889E-006  0.1255814E+03  0.7546771E-02  0.1249301E+00
         -3   -1    0    0    0  501 -0.00000000000E+00  0.00000000000E+00  0.21884841351E+03  0.21884841351E+03  0.00000000000E+00 0.  1.
          3   -1    0    0  501    0  0.00000000000E+00 -0.00000000000E+00 -0.55115178313E+02  0.55115178313E+02  0.00000000000E+00 0. -1.
          5    1    1    2  502    0  0.30730265021E+02 -0.28999227080E+01 -0.25037011675E+02  0.40021253023E+02  0.47000000000E+01 0. -1.
         -5    1    1    2    0  502 -0.28795550960E+02  0.13939321613E+02  0.10261675572E+03  0.10759078491E+03  0.47000000000E+01 0. -1.
        -11    1    1    2    0    0 -0.11700610394E+01  0.38378632610E+02  0.57743471112E+02  0.69344047617E+02  0.00000000000E+00 0. -1.
         11    1    1    2    0    0 -0.76465302174E+00 -0.49418031515E+02  0.28410020037E+02  0.57007506274E+02  0.00000000000E+00 0.  1.
<mgrwt>
<rscale>  0 0.11631638E+03</rscale>
<asrwt>0</asrwt>
<pdfrwt beam="2">  1        3 0.84792584E-02 0.12558144E+03</pdfrwt>
<pdfrwt beam="1">  1       -3 0.33668986E-01 0.12558144E+03</pdfrwt>
<totfact> 0.18958347E+03</totfact>
</mgrwt>
</event>
<event>
 6    1  0.6101889E-006  0.1896100E+03  0.7546771E-02  0.1162719E+00
         -2   -1    0    0    0  501 -0.00000000000E+00  0.00000000000E+00  0.38605222127E+02  0.38605222127E+02  0.00000000000E+00 0.  1.
          2   -1    0    0  501    0  0.00000000000E+00 -0.00000000000E+00 -0.85395337870E+03  0.85395337870E+03  0.00000000000E+00 0. -1.
          5    1    1    2  502    0 -0.61563185079E+02 -0.63681339808E+02 -0.40997289584E+03  0.41945822691E+03  0.47000000000E+01 0. -1.
         -5    1    1    2    0  502 -0.41838044962E+02 -0.34511042557E+02 -0.36317208161E+02  0.65440535398E+02  0.47000000000E+01 0. -1.
        -11    1    1    2    0    0  0.82165221655E+02  0.29168026604E+02 -0.27851750441E+03  0.29184567444E+03  0.00000000000E+00 0. -1.
         11    1    1    2    0    0  0.21236008385E+02  0.69024355760E+02 -0.90540548154E+02  0.11581416407E+03  0.00000000000E+00 0.  1.
<mgrwt>
<rscale>  0 0.18535520E+03</rscale>
<asrwt>0</asrwt>
<pdfrwt beam="2">  1        2 0.13137745E+00 0.18961000E+03</pdfrwt>
<pdfrwt beam="1">  1       -2 0.59392647E-02 0.18961000E+03</pdfrwt>
<totfact> 0.48302624E+03</totfact>
</mgrwt>
</event>
<event>
 6    1  0.6101889E-006  0.1449822E+03  0.7546771E-02  0.1216803E+00
         -1   -1    0    0    0  501 -0.00000000000E+00  0.00000000000E+00  0.66407975233E+02  0.66407975233E+02  0.00000000000E+00 0.  1.
          1   -1    0    0  501    0  0.00000000000E+00 -0.00000000000E+00 -0.26804909994E+03  0.26804909994E+03  0.00000000000E+00 0. -1.
          5    1    1    2  502    0 -0.29069570055E+02  0.90967818296E+01 -0.32650491940E+01  0.30992610233E+02  0.47000000000E+01 0. -1.
         -5    1    1    2    0  502  0.80896140613E+02 -0.61141331006E+02 -0.13909559570E+03  0.17219791714E+03  0.47000000000E+01 0. -1.
        -11    1    1    2    0    0  0.12954155988E+01  0.22333849371E+02  0.20890322611E+02  0.30608569193E+02  0.00000000000E+00 0. -1.
         11    1    1    2    0    0 -0.53121986157E+02  0.29710699806E+02 -0.80170802416E+02  0.10065797860E+03  0.00000000000E+00 0.  1.
<mgrwt>
<rscale>  0 0.13744924E+03</rscale>
<asrwt>0</asrwt>
<pdfrwt beam="2">  1        1 0.41238322E-01 0.14498220E+03</pdfrwt>
<pdfrwt beam="1">  1       -1 0.10216612E-01 0.14498220E+03</pdfrwt>
<totfact> 0.57168339E+03</totfact>
</mgrwt>
</event>
<event>
 6    1  0.6101889E-006  0.1425844E+03  0.7546771E-02  0.1220726E+00
          3   -1    0    0  501    0  0.00000000000E+00  0.00000000000E+00  0.23169670787E+03  0.23169670787E+03  0.00000000000E+00 0. -1.
         -3   -1    0    0    0  501 -0.00000000000E+00 -0.00000000000E+00 -0.86171569618E+02  0.86171569618E+02  0.00000000000E+00 0.  1.
          5    1    1    2  502    0 -0.69939695225E+02 -0.32071084229E+02  0.40316351945E+02  0.86992032083E+02  0.47000000000E+01 0. -1.
         -5    1    1    2    0  502  0.40115084075E+02 -0.29702794634E+02  0.10626727185E+03  0.11750020871E+03  0.47000000000E+01 0. -1.
        -11    1    1    2    0    0 -0.21815947402E+02  0.33936218739E+02 -0.27706766454E+02  0.48941469233E+02  0.00000000000E+00 0.  1.
         11    1    1    2    0    0  0.51640558553E+02  0.27837660123E+02  0.26648280908E+02  0.64434567463E+02  0.00000000000E+00 0. -1.
<mgrwt>
<rscale>  0 0.13464172E+03</rscale>
<asrwt>0</asrwt>
<pdfrwt beam="1">  1        3 0.35645647E-01 0.14258442E+03</pdfrwt>
<pdfrwt beam="2">  1       -3 0.13257165E-01 0.14258442E+03</pdfrwt>
<totfact> 0.82794640E+02</totfact>
</mgrwt>
</event>
<event>
 6    1  0.6101889E-006  0.1307171E+03  0.7546771E-02  0.1240240E+00
         -2   -1    0    0    0  501 -0.00000000000E+00  0.00000000000E+00  0.25408180614E+03  0.25408180614E+03  0.00000000000E+00 0.  1.
          2   -1    0    0  501    0  0.00000000000E+00 -0.00000000000E+00 -0.52035635826E+02  0.52035635826E+02  0.00000000000E+00 0. -1.
          5    1    1    2  502    0  0.35098448299E+02  0.40863028776E+02  0.36959892728E+02  0.65496655367E+02  0.47000000000E+01 0. -1.
         -5    1    1    2    0  502 -0.16689894437E+02 -0.74372112272E+02  0.64964406058E+02  0.10026079849E+03  0.47000000000E+01 0. -1.
        -11    1    1    2    0    0 -0.30634536285E+02  0.57951382873E+02  0.89726694632E+02  0.11112028312E+03  0.00000000000E+00 0.  1.
         11    1    1    2    0    0  0.12225982423E+02 -0.24442299377E+02  0.10395176893E+02  0.29239704986E+02  0.00000000000E+00 0. -1.
<mgrwt>
<rscale>  0 0.12174872E+03</rscale>
<asrwt>0</asrwt>
<pdfrwt beam="2">  1        2 0.80054825E-02 0.13071714E+03</pdfrwt>
<pdfrwt beam="1">  1       -2 0.39089508E-01 0.13071714E+03</pdfrwt>
<totfact> 0.50127702E+03</totfact>
</mgrwt>
</event>
<event>
 6    1  0.6101889E-006  0.1426527E+03  0.7546771E-02  0.1220866E+00
         -2   -1    0    0    0  501 -0.00000000000E+00  0.00000000000E+00  0.12143201520E+03  0.12143201520E+03  0.00000000000E+00 0.  1.
          2   -1    0    0  501    0  0.00000000000E+00 -0.00000000000E+00 -0.14055330512E+03  0.14055330512E+03  0.00000000000E+00 0. -1.
          5    1    1    2  502    0 -0.31251565577E+02 -0.16675338092E+02  0.37169343724E+02  0.51559454656E+02  0.47000000000E+01 0. -1.
         -5    1    1    2    0  502  0.29473947802E+02 -0.52043132784E+02 -0.74963886366E+02  0.96014975541E+02  0.47000000000E+01 0. -1.
        -11    1    1    2    0    0 -0.19062787350E+02  0.36892585974E+02 -0.31016117539E+02  0.51830997565E+02  0.00000000000E+00 0. -1.
         11    1    1    2    0    0  0.20840405125E+02  0.31825884902E+02  0.49689370260E+02  0.62579892557E+02  0.00000000000E+00 0.  1.
<mgrwt>
<rscale>  0 0.13454299E+03</rscale>
<asrwt>0</asrwt>
<pdfrwt beam="2">  1        2 0.21623585E-01 0.14265267E+03</pdfrwt>
<pdfrwt beam="1">  1       -2 0.18681849E-01 0.14265267E+03</pdfrwt>
<totfact> 0.57267069E+03</totfact>
</mgrwt>
</event>
<event>
 6    1  0.6101889E-006  0.1319388E+03  0.7546771E-02  0.1238030E+00
         -2   -1    0    0    0  501 -0.00000000000E+00  0.00000000000E+00  0.19175513298E+03  0.19175513298E+03  0.00000000000E+00 0.  1.
          2   -1    0    0  501    0  0.00000000000E+00 -0.00000000000E+00 -0.88322810386E+02  0.88322810386E+02  0.00000000000E+00 0. -1.
          5    1    1    2  502    0  0.43359317326E+02  0.17862425895E+02  0.32400321447E+02  0.57192372636E+02  0.47000000000E+01 0. -1.
         -5    1    1    2    0  502 -0.28796736167E+02 -0.57501289935E+02 -0.38043886834E+02  0.74867066748E+02  0.47000000000E+01 0. -1.
        -11    1    1    2    0    0  0.13951737819E+02  0.60559178379E+02  0.84754266127E+02  0.10509686342E+03  0.00000000000E+00 0.  1.
         11    1    1    2    0    0 -0.28514318979E+02 -0.20920314338E+02  0.24321621853E+02  0.42921640561E+02  0.00000000000E+00 0. -1.
<mgrwt>
<rscale>  0 0.12312439E+03</rscale>
<asrwt>0</asrwt>
<pdfrwt beam="2">  1        2 0.13588125E-01 0.13193880E+03</pdfrwt>
<pdfrwt beam="1">  1       -2 0.29500790E-01 0.13193880E+03</pdfrwt>
<totfact> 0.44110627E+03</totfact>
</mgrwt>
</event>
<event>
 6    1  0.6101889E-006  0.1253186E+03  0.7546771E-02  0.1249923E+00
          2   -1    0    0  501    0  0.00000000000E+00  0.00000000000E+00  0.13162371491E+03  0.13162371491E+03  0.00000000000E+00 0. -1.
         -2   -1    0    0    0  501 -0.00000000000E+00 -0.00000000000E+00 -0.97045890447E+02  0.97045890447E+02  0.00000000000E+00 0.  1.
          5    1    1    2  502    0  0.47085614503E+02 -0.30789314791E+02  0.47990808922E+02  0.74096185728E+02  0.47000000000E+01 0.  1.
         -5    1    1    2    0  502 -0.46296794645E+02  0.39690419638E+02  0.31118570258E+01  0.61241295378E+02  0.47000000000E+01 0.  1.
        -11    1    1    2    0    0  0.27058217309E+02  0.19407359381E+02 -0.36055754423E+02  0.49079630695E+02  0.00000000000E+00 0.  1.
         11    1    1    2    0    0 -0.27847037167E+02 -0.28308464228E+02  0.19530912943E+02  0.44252493561E+02  0.00000000000E+00 0. -1.
<mgrwt>
<rscale>  0 0.11595525E+03</rscale>
<asrwt>0</asrwt>
<pdfrwt beam="1">  1        2 0.20249802E-01 0.12531860E+03</pdfrwt>
<pdfrwt beam="2">  1       -2 0.14930137E-01 0.12531860E+03</pdfrwt>
<totfact> 0.88482320E+03</totfact>
</mgrwt>
</event>
<event>
 6    1  0.6101889E-006  0.5073348E+03  0.7546771E-02  0.1011882E+00
         -2   -1    0    0    0  501 -0.00000000000E+00  0.00000000000E+00  0.38604398778E+02  0.38604398778E+02  0.00000000000E+00 0.  1.
          2   -1    0    0  501    0  0.00000000000E+00 -0.00000000000E+00 -0.16668349709E+04  0.16668349709E+04  0.00000000000E+00 0. -1.
          5    1    1    2  502    0 -0.63806166344E+01  0.16845545154E+02 -0.43654616066E+02  0.47458404567E+02  0.47000000000E+01 0.  1.
         -5    1    1    2    0  502  0.41102794550E+02 -0.96726947944E+02 -0.15049688612E+04  0.15086414104E+04  0.47000000000E+01 0.  1.
        -11    1    1    2    0    0 -0.22634046345E+02  0.34944106539E+02  0.14719000906E+02  0.44159252976E+02  0.00000000000E+00 0.  1.
         11    1    1    2    0    0 -0.12088131571E+02  0.44937296252E+02 -0.94326095803E+02  0.10518030171E+03  0.00000000000E+00 0. -1.
<mgrwt>
<rscale>  0 0.50733485E+03</rscale>
<asrwt>0</asrwt>
<pdfrwt beam="2">  1        2 0.25643618E+00 0.50733485E+03</pdfrwt>
<pdfrwt beam="1">  1       -2 0.59391376E-02 0.50733485E+03</pdfrwt>
<totfact> 0.16545177E+03</totfact>
</mgrwt>
</event>
<event>
 6    1  0.6101889E-006  0.1560091E+03  0.7546771E-02  0.1201191E+00
         -1   -1    0    0    0  501 -0.00000000000E+00  0.00000000000E+00  0.92202230127E+02  0.92202230127E+02  0.00000000000E+00 0.  1.
          1   -1    0    0  501    0  0.00000000000E+00 -0.00000000000E+00 -0.22713130223E+03  0.22713130223E+03  0.00000000000E+00 0. -1.
          5    1    1    2  502    0  0.91162567171E+02 -0.14824390895E+02 -0.10687557147E+03  0.14133242372E+03  0.47000000000E+01 0. -1.
         -5    1    1    2    0  502 -0.49593638502E+00  0.37120251736E+02  0.14319535598E+02  0.40066172035E+02  0.47000000000E+01 0. -1.
        -11    1    1    2    0    0 -0.64140266134E+02 -0.47303928504E+02  0.29716537785E+01  0.79752530479E+02  0.00000000000E+00 0.  1.
         11    1    1    2    0    0 -0.26526364651E+02  0.25008067662E+02 -0.45344690008E+02  0.58182406119E+02  0.00000000000E+00 0. -1.
<mgrwt>
<rscale>  0 0.14941695E+03</rscale>
<asrwt>0</asrwt>
<pdfrwt beam="2">  1        1 0.34943277E-01 0.15600907E+03</pdfrwt>
<pdfrwt beam="1">  1       -1 0.14184959E-01 0.15600907E+03</pdfrwt>
<totfact> 0.42427561E+03</totfact>
</mgrwt>
</event>
<event>
 6    1  0.6101889E-006  0.3060736E+03  0.7546771E-02  0.1082243E+00
         -3   -1    0    0    0  501 -0.00000000000E+00  0.00000000000E+00  0.35906420440E+03  0.35906420440E+03  0.00000000000E+00 0.  1.
          3   -1    0    0  501    0  0.00000000000E+00 -0.00000000000E+00 -0.65225819869E+02  0.65225819869E+02  0.00000000000E+00 0. -1.
          5    1    1    2  502    0 -0.31922694900E+02  0.11361161647E+02  0.38367527063E+01  0.34423031752E+02  0.47000000000E+01 0. -1.
         -5    1    1    2    0  502  0.95170720040E+02  0.48657846289E+02  0.48412738414E+02  0.11743481255E+03  0.47000000000E+01 0.  1.
        -11    1    1    2    0    0 -0.65268256366E+02 -0.22463525390E+02  0.76176207104E+02  0.10279771296E+03  0.00000000000E+00 0. -1.
         11    1    1    2    0    0  0.20202312251E+01 -0.37555482546E+02  0.16541268630E+03  0.16963446700E+03  0.00000000000E+00 0.  1.
<mgrwt>
<rscale>  0 0.30607357E+03</rscale>
<asrwt>0</asrwt>
<pdfrwt beam="2">  1        3 0.10034742E-01 0.30607357E+03</pdfrwt>
<pdfrwt beam="1">  1       -3 0.55240646E-01 0.30607357E+03</pdfrwt>
<totfact> 0.61413678E+02</totfact>
</mgrwt>
</event>
<event>
 6    1  0.6101889E-006  0.2236420E+03  0.7546771E-02  0.1167591E+00
          3   -1    0    0  501    0  0.00000000000E+00  0.00000000000E+00  0.61658108861E+02  0.61658108861E+02  0.00000000000E+00 0. -1.
         -3   -1    0    0    0  501 -0.00000000000E+00 -0.00000000000E+00 -0.47566664003E+03  0.47566664003E+03  0.00000000000E+00 0.  1.
          5    1    1    2  502    0  0.38134456014E+02  0.94505956615E+02 -0.55875274947E+02  0.11631744891E+03  0.47000000000E+01 0. -1.
         -5    1    1    2    0  502 -0.55048665973E+02 -0.10221675449E+03 -0.13117867705E+03  0.17523856835E+03  0.47000000000E+01 0.  1.
        -11    1    1    2    0    0  0.96822239107E+01 -0.38986563777E+02 -0.15152908600E+03  0.15676339343E+03  0.00000000000E+00 0. -1.
         11    1    1    2    0    0  0.72319860483E+01  0.46697361655E+02 -0.75425493172E+02  0.89005338199E+02  0.00000000000E+00 0.  1.
<mgrwt>
<rscale>  0 0.18021936E+03</rscale>
<asrwt>0</asrwt>
<pdfrwt beam="1">  1        3 0.94858627E-02 0.22364197E+03</pdfrwt>
<pdfrwt beam="2">  1       -3 0.73179484E-01 0.22364197E+03</pdfrwt>
<totfact> 0.36036820E+02</totfact>
</mgrwt>
</event>
<event>
 6    1  0.6101889E-006  0.3469236E+03  0.7546771E-02  0.1064887E+00
         -3   -1    0    0    0  501 -0.00000000000E+00  0.00000000000E+00  0.46845523307E+03  0.46845523307E+03  0.00000000000E+00 0.  1.
          3   -1    0    0  501    0  0.00000000000E+00 -0.00000000000E+00 -0.26348449661E+03  0.26348449661E+03  0.00000000000E+00 0. -1.
          5    1    1    2  502    0  0.29258090754E+03 -0.10876042400E+03  0.33443155815E+01  0.31219495789E+03  0.47000000000E+01 0.  1.
         -5    1    1    2    0  502 -0.39183071419E+00 -0.30369449120E+02  0.17471584731E+02  0.35352556402E+02  0.47000000000E+01 0.  1.
        -11    1    1    2    0    0 -0.21932059298E+03  0.14688969279E+03  0.13918124793E+03  0.29841166888E+03  0.00000000000E+00 0.  1.
         11    1    1    2    0    0 -0.72868483852E+02 -0.77598196665E+01  0.44973588216E+02  0.85980546504E+02  0.00000000000E+00 0. -1.
<mgrwt>
<rscale>  0 0.34451990E+03</rscale>
<asrwt>0</asrwt>
<pdfrwt beam="2">  1        3 0.40536077E-01 0.34692358E+03</pdfrwt>
<pdfrwt beam="1">  1       -3 0.72070036E-01 0.34692358E+03</pdfrwt>
<totfact> 0.28473754E+01</totfact>
</mgrwt>
</event>
<event>
 6    1  0.6101889E-006  0.1588515E+03  0.7546771E-02  0.1198356E+00
         -2   -1    0    0    0  501 -0.00000000000E+00  0.00000000000E+00  0.45112008491E+02  0.45112008491E+02  0.00000000000E+00 0. -1.
          2   -1    0    0  501    0  0.00000000000E+00 -0.00000000000E+00 -0.56145621658E+03  0.56145621658E+03  0.00000000000E+00 0.  1.
          5    1    1    2  502    0 -0.31089256124E+02  0.14353503419E+01 -0.35205850519E+02  0.47224400342E+02  0.47000000000E+01 0.  1.
         -5    1    1    2    0  502  0.77530929648E+02 -0.87770636756E+02 -0.36495027715E+03  0.38330865438E+03  0.47000000000E+01 0.  1.
        -11    1    1    2    0    0 -0.15448768957E+02  0.96874200499E+02 -0.75354041167E+02  0.12369925911E+03  0.00000000000E+00 0. -1.
         11    1    1    2    0    0 -0.30992904567E+02 -0.10538914085E+02 -0.40834039251E+02  0.52335911238E+02  0.00000000000E+00 0.  1.
<mgrwt>
<rscale>  0 0.15173582E+03</rscale>
<asrwt>0</asrwt>
<pdfrwt beam="2">  1        2 0.86377884E-01 0.15885145E+03</pdfrwt>
<pdfrwt beam="1">  1       -2 0.69403086E-02 0.15885145E+03</pdfrwt>
<totfact> 0.62470645E+03</totfact>
</mgrwt>
</event>
<event>
 6    1  0.6101889E-006  0.3823782E+03  0.7546771E-02  0.1050058E+00
         -2   -1    0    0    0  501 -0.00000000000E+00  0.00000000000E+00  0.10023583085E+03  0.10023583085E+03  0.00000000000E+00 0.  1.
          2   -1    0    0  501    0  0.00000000000E+00 -0.00000000000E+00 -0.36467279280E+03  0.36467279280E+03  0.00000000000E+00 0. -1.
          5    1    1    2  502    0 -0.44873640176E+02  0.98642418364E+01 -0.20693356688E+02  0.50608812085E+02  0.47000000000E+01 0.  1.
         -5    1    1    2    0  502  0.30969124665E+02  0.13987685996E+03 -0.17244354910E+03  0.22423980526E+03  0.47000000000E+01 0.  1.
        -11    1    1    2    0    0  0.52477479103E+02 -0.73670556516E+02 -0.43383183227E+02  0.10031618662E+03  0.00000000000E+00 0.  1.
         11    1    1    2    0    0 -0.38572963592E+02 -0.76070545278E+02 -0.27916872931E+02  0.89743819695E+02  0.00000000000E+00 0. -1.
<mgrwt>
<rscale>  0 0.38237824E+03</rscale>
<asrwt>0</asrwt>
<pdfrwt beam="2">  1        2 0.56103506E-01 0.38237824E+03</pdfrwt>
<pdfrwt beam="1">  1       -2 0.15420897E-01 0.38237824E+03</pdfrwt>
<totfact> 0.29040801E+03</totfact>
</mgrwt>
</event>
<event>
 6    1  0.6101889E-006  0.1516803E+03  0.7546771E-02  0.1206864E+00
         -2   -1    0    0    0  501 -0.00000000000E+00  0.00000000000E+00  0.82236522010E+02  0.82236522010E+02  0.00000000000E+00 0.  1.
          2   -1    0    0  501    0  0.00000000000E+00 -0.00000000000E+00 -0.43226452900E+03  0.43226452900E+03  0.00000000000E+00 0. -1.
          5    1    1    2  502    0 -0.47570078917E+02 -0.20732877571E+01 -0.23378912550E+03  0.23863498514E+03  0.47000000000E+01 0. -1.
         -5    1    1    2    0  502  0.24106768169E+02 -0.80580058129E+02 -0.12325620783E+03  0.14929321755E+03  0.47000000000E+01 0. -1.
        -11    1    1    2    0    0  0.59053327367E+02  0.43497082017E+02  0.68053121255E+01  0.73658698673E+02  0.00000000000E+00 0. -1.
         11    1    1    2    0    0 -0.35590016618E+02  0.39156263869E+02  0.21201420621E+00  0.52914149649E+02  0.00000000000E+00 0.  1.
<mgrwt>
<rscale>  0 0.14491554E+03</rscale>
<asrwt>0</asrwt>
<pdfrwt beam="2">  1        2 0.66502236E-01 0.15168032E+03</pdfrwt>
<pdfrwt beam="1">  1       -2 0.12651773E-01 0.15168032E+03</pdfrwt>
<totfact> 0.32406811E+03</totfact>
</mgrwt>
</event>
<event>
 6    1  0.6101889E-006  0.1288533E+03  0.7546771E-02  0.1243878E+00
         -1   -1    0    0    0  501 -0.00000000000E+00  0.00000000000E+00  0.67839601778E+02  0.67839601778E+02  0.00000000000E+00 0.  1.
          1   -1    0    0  501    0  0.00000000000E+00 -0.00000000000E+00 -0.19635028284E+03  0.19635028284E+03  0.00000000000E+00 0. -1.
          5    1    1    2  502    0 -0.37033586592E+02 -0.61257263827E+02 -0.68660181424E+02  0.99298788616E+02  0.47000000000E+01 0. -1.
         -5    1    1    2    0  502  0.46271989542E+02  0.31388190290E+02 -0.35590702262E+02  0.66446245894E+02  0.47000000000E+01 0. -1.
        -11    1    1    2    0    0 -0.41234322591E+02  0.17507638386E+02 -0.40593656222E+02  0.60453549829E+02  0.00000000000E+00 0. -1.
         11    1    1    2    0    0  0.31995919641E+02  0.12361435150E+02  0.16333858841E+02  0.37991300284E+02  0.00000000000E+00 0.  1.
<mgrwt>
<rscale>  0 0.11952777E+03</rscale>
<asrwt>0</asrwt>
<pdfrwt beam="2">  1        1 0.30207736E-01 0.12885329E+03</pdfrwt>
<pdfrwt beam="1">  1       -1 0.10436862E-01 0.12885329E+03</pdfrwt>
<totfact> 0.80731510E+03</totfact>
</mgrwt>
</event>
<event>
 6    1  0.6101889E-006  0.1283325E+03  0.7546771E-02  0.1246788E+00
         -1   -1    0    0    0  501 -0.00000000000E+00  0.00000000000E+00  0.29322294640E+03  0.29322294640E+03  0.00000000000E+00 0.  1.
          1   -1    0    0  501    0  0.00000000000E+00 -0.00000000000E+00 -0.42780068123E+02  0.42780068123E+02  0.00000000000E+00 0. -1.
          5    1    1    2  502    0  0.49647861016E+02  0.16643992854E+02  0.24949331923E+02  0.58193571509E+02  0.47000000000E+01 0.  1.
         -5    1    1    2    0  502 -0.70389756595E+02  0.36911424158E+01  0.87310479289E+02  0.11231007150E+03  0.47000000000E+01 0.  1.
        -11    1    1    2    0    0  0.44472395890E+02  0.10110098868E+02  0.10544294833E+03  0.11488352122E+03  0.00000000000E+00 0.  1.
         11    1    1    2    0    0 -0.23730500311E+02 -0.30445234138E+02  0.32740118741E+02  0.50615850303E+02  0.00000000000E+00 0. -1.
<mgrwt>
<rscale>  0 0.11778979E+03</rscale>
<asrwt>0</asrwt>
<pdfrwt beam="2">  1        1 0.65815491E-02 0.12833249E+03</pdfrwt>
<pdfrwt beam="1">  1       -1 0.45111221E-01 0.12833249E+03</pdfrwt>
<totfact> 0.53586109E+03</totfact>
</mgrwt>
</event>
<event>
 6    1  0.6101889E-006  0.1540467E+03  0.7546771E-02  0.1203741E+00
         -2   -1    0    0    0  501 -0.00000000000E+00  0.00000000000E+00  0.18964577480E+03  0.18964577480E+03  0.00000000000E+00 0.  1.
          2   -1    0    0  501    0  0.00000000000E+00 -0.00000000000E+00 -0.11306861805E+03  0.11306861805E+03  0.00000000000E+00 0. -1.
          5    1    1    2  502    0 -0.25496084778E+02  0.74360119344E+02 -0.19022743513E+02  0.81015013785E+02  0.47000000000E+01 0. -1.
         -5    1    1    2    0  502  0.69439498078E+02  0.42274541143E+01  0.21805925849E+02  0.73056852271E+02  0.47000000000E+01 0. -1.
        -11    1    1    2    0    0 -0.28553699588E+02 -0.68365901046E+02  0.15835226142E+01  0.74106124780E+02  0.00000000000E+00 0. -1.
         11    1    1    2    0    0 -0.15389713713E+02 -0.10221672412E+02  0.72210451800E+02  0.74536402008E+02  0.00000000000E+00 0.  1.
<mgrwt>
<rscale>  0 0.14737134E+03</rscale>
<asrwt>0</asrwt>
<pdfrwt beam="2">  1        2 0.17395172E-01 0.15404673E+03</pdfrwt>
<pdfrwt beam="1">  1       -2 0.29176273E-01 0.15404673E+03</pdfrwt>
<totfact> 0.34022591E+03</totfact>
</mgrwt>
</event>
<event>
 6    1  0.6101889E-006  0.4458120E+03  0.7546771E-02  0.1079174E+00
          1   -1    0    0  501    0  0.00000000000E+00  0.00000000000E+00  0.22633236286E+03  0.22633236286E+03  0.00000000000E+00 0. -1.
         -1   -1    0    0    0  501 -0.00000000000E+00 -0.00000000000E+00 -0.33858724927E+03  0.33858724927E+03  0.00000000000E+00 0.  1.
          5    1    1    2  502    0 -0.82022172819E+02 -0.21275352128E+03 -0.94843232196E+02  0.24700005333E+03  0.47000000000E+01 0. -1.
         -5    1    1    2    0  502  0.12083129495E+03  0.17084130269E+03 -0.25266119407E+01  0.20932134700E+03  0.47000000000E+01 0.  1.
        -11    1    1    2    0    0 -0.38661997044E+02 -0.21415490710E+02 -0.45168183379E+01  0.44427186560E+02  0.00000000000E+00 0. -1.
         11    1    1    2    0    0 -0.14712508857E+00  0.63327709306E+02 -0.10368223931E+02  0.64171025231E+02  0.00000000000E+00 0.  1.
<mgrwt>
<rscale>  0 0.31245674E+03</rscale>
<asrwt>0</asrwt>
<pdfrwt beam="1">  1        1 0.34820363E-01 0.44581199E+03</pdfrwt>
<pdfrwt beam="2">  1       -1 0.52090346E-01 0.44581199E+03</pdfrwt>
<totfact> 0.47661482E+02</totfact>
</mgrwt>
</event>
<event>
 6    1  0.6101889E-006  0.1593535E+03  0.7546771E-02  0.1197848E+00
          1   -1    0    0  501    0  0.00000000000E+00  0.00000000000E+00  0.35752257170E+03  0.35752257170E+03  0.00000000000E+00 0. -1.
         -1   -1    0    0    0  501 -0.00000000000E+00 -0.00000000000E+00 -0.74553607933E+02  0.74553607933E+02  0.00000000000E+00 0.  1.
          5    1    1    2  502    0 -0.28248434050E+02  0.37003107578E+02  0.23593337981E+03  0.24052828047E+03  0.47000000000E+01 0. -1.
         -5    1    1    2    0  502 -0.21264959258E+02  0.48554421567E+02  0.12570166052E+02  0.54679332664E+02  0.47000000000E+01 0. -1.
        -11    1    1    2    0    0  0.53272243771E+01 -0.82095307180E+02  0.41250605752E+02  0.92030599560E+02  0.00000000000E+00 0. -1.
         11    1    1    2    0    0  0.44186168930E+02 -0.34622219656E+01 -0.67851878418E+01  0.44837966945E+02  0.00000000000E+00 0.  1.
<mgrwt>
<rscale>  0 0.15215657E+03</rscale>
<asrwt>0</asrwt>
<pdfrwt beam="1">  1        1 0.55003471E-01 0.15935345E+03</pdfrwt>
<pdfrwt beam="2">  1       -1 0.11469786E-01 0.15935345E+03</pdfrwt>
<totfact> 0.33598653E+03</totfact>
</mgrwt>
</event>
<event>
 6    1  0.6101889E-006  0.1402797E+03  0.7546771E-02  0.1223421E+00
          1   -1    0    0  501    0  0.00000000000E+00  0.00000000000E+00  0.98989890129E+02  0.98989890129E+02  0.00000000000E+00 0. -1.
         -1   -1    0    0    0  501 -0.00000000000E+00 -0.00000000000E+00 -0.18195331883E+03  0.18195331883E+03  0.00000000000E+00 0.  1.
          5    1    1    2  502    0 -0.43076728951E+02  0.16621612551E+02 -0.90125462840E+01  0.47277886706E+02  0.47000000000E+01 0.  1.
         -5    1    1    2    0  502  0.87721788928E+02  0.28712525267E+02  0.10444194288E+02  0.93009099309E+02  0.47000000000E+01 0.  1.
        -11    1    1    2    0    0 -0.68970929552E+02 -0.43401511227E+02 -0.82841796326E+02  0.11620431799E+03  0.00000000000E+00 0.  1.
         11    1    1    2    0    0  0.24325869574E+02 -0.19326265910E+01 -0.15532803779E+01  0.24451904957E+02  0.00000000000E+00 0. -1.
<mgrwt>
<rscale>  0 0.13275697E+03</rscale>
<asrwt>0</asrwt>
<pdfrwt beam="1">  1        1 0.15229214E-01 0.14027968E+03</pdfrwt>
<pdfrwt beam="2">  1       -1 0.27992818E-01 0.14027968E+03</pdfrwt>
<totfact> 0.40354534E+03</totfact>
</mgrwt>
</event>
<event>
 6    1  0.6101889E-006  0.2238295E+03  0.7546771E-02  0.1133608E+00
          2   -1    0    0  501    0  0.00000000000E+00  0.00000000000E+00  0.26575110576E+03  0.26575110576E+03  0.00000000000E+00 0. -1.
         -2   -1    0    0    0  501 -0.00000000000E+00 -0.00000000000E+00 -0.28696400122E+03  0.28696400122E+03  0.00000000000E+00 0.  1.
          5    1    1    2  502    0  0.94836967311E+02 -0.17943472407E+03  0.15244991398E+03  0.25387779903E+03  0.47000000000E+01 0. -1.
         -5    1    1    2    0  502 -0.15429795384E+02  0.11597352585E+02  0.75264955501E+01  0.21244182917E+02  0.47000000000E+01 0. -1.
        -11    1    1    2    0    0 -0.22087964584E+02 -0.30193776355E+01 -0.49814678904E+02  0.54575608609E+02  0.00000000000E+00 0. -1.
         11    1    1    2    0    0 -0.57319207343E+02  0.17085674912E+03 -0.13137462610E+03  0.22301751642E+03  0.00000000000E+00 0.  1.
<mgrwt>
<rscale>  0 0.22036907E+03</rscale>
<asrwt>0</asrwt>
<pdfrwt beam="1">  1        2 0.40884786E-01 0.22382952E+03</pdfrwt>
<pdfrwt beam="2">  1       -2 0.44148308E-01 0.22382952E+03</pdfrwt>
<totfact> 0.61503848E+02</totfact>
</mgrwt>
</event>
<event>
 6    1  0.6101889E-006  0.3847461E+03  0.7546771E-02  0.1049193E+00
         -3   -1    0    0    0  501 -0.00000000000E+00  0.00000000000E+00  0.11259497911E+04  0.11259497911E+04  0.00000000000E+00 0.  1.
          3   -1    0    0  501    0  0.00000000000E+00 -0.00000000000E+00 -0.32867712620E+02  0.32867712620E+02  0.00000000000E+00 0. -1.
          5    1    1    2  502    0 -0.36647417666E+01 -0.38440761451E+02  0.24710921158E+02  0.46085161360E+02  0.47000000000E+01 0. -1.
         -5    1    1    2    0  502  0.96035694670E+02 -0.68684544868E+02  0.36549143107E+03  0.38411781726E+03  0.47000000000E+01 0.  1.
        -11    1    1    2    0    0 -0.44830088780E+02  0.12820848095E+03  0.43416839264E+03  0.45491685462E+03  0.00000000000E+00 0.  1.
         11    1    1    2    0    0 -0.47540864123E+02 -0.21083174627E+02  0.26871133362E+03  0.27369767049E+03  0.00000000000E+00 0. -1.
<mgrwt>
<rscale>  0 0.38474612E+03</rscale>
<asrwt>0</asrwt>
<pdfrwt beam="2">  1        3 0.50565720E-02 0.38474612E+03</pdfrwt>
<pdfrwt beam="1">  1       -3 0.17322302E+00 0.38474612E+03</pdfrwt>
<totfact> 0.13590996E+02</totfact>
</mgrwt>
</event>
<event>
 6    1  0.6101889E-006  0.2796323E+03  0.7546771E-02  0.1095890E+00
         -3   -1    0    0    0  501 -0.00000000000E+00  0.00000000000E+00  0.77416622035E+01  0.77416622035E+01  0.00000000000E+00 0.  1.
          3   -1    0    0  501    0  0.00000000000E+00 -0.00000000000E+00 -0.25251103140E+04  0.25251103140E+04  0.00000000000E+00 0. -1.
          5    1    1    2  502    0 -0.11988223693E+02  0.10893720268E+02 -0.15454205679E+04  0.15455126050E+04  0.47000000000E+01 0.  1.
         -5    1    1    2    0  502  0.62013454017E+02 -0.20925259794E+02 -0.48920540593E+03  0.49358642016E+03  0.47000000000E+01 0.  1.
        -11    1    1    2    0    0 -0.28960945747E+02 -0.38699311362E+02 -0.17928810271E+03  0.18568951734E+03  0.00000000000E+00 0.  1.
         11    1    1    2    0    0 -0.21064284577E+02  0.48730850887E+02 -0.30345457530E+03  0.30806343370E+03  0.00000000000E+00 0. -1.
<mgrwt>
<rscale>  0 0.27963227E+03</rscale>
<asrwt>0</asrwt>
<pdfrwt beam="2">  1        3 0.38847873E+00 0.27963227E+03</pdfrwt>
<pdfrwt beam="1">  1       -3 0.11910243E-02 0.27963227E+03</pdfrwt>
<totfact> 0.81891580E+01</totfact>
</mgrwt>
</event>
<event>
 6    1  0.6101889E-006  0.2698957E+03  0.7546771E-02  0.1101339E+00
         -2   -1    0    0    0  501 -0.00000000000E+00  0.00000000000E+00  0.69589333342E+02  0.69589333342E+02  0.00000000000E+00 0.  1.
          2   -1    0    0  501    0  0.00000000000E+00 -0.00000000000E+00 -0.26169124257E+03  0.26169124257E+03  0.00000000000E+00 0. -1.
          5    1    1    2  502    0 -0.60062100468E+02 -0.32534760616E+02 -0.18473531636E+03  0.19701571935E+03  0.47000000000E+01 0. -1.
         -5    1    1    2    0  502  0.33415122614E+02  0.38441567528E+01 -0.61866519472E+01  0.34521190923E+02  0.47000000000E+01 0. -1.
        -11    1    1    2    0    0  0.35628563187E+02 -0.73194305904E+01  0.33131281639E+02  0.49200105711E+02  0.00000000000E+00 0.  1.
         11    1    1    2    0    0 -0.89815853328E+01  0.36010034453E+02 -0.34311222560E+02  0.50543559926E+02  0.00000000000E+00 0. -1.
<mgrwt>
<rscale>  0 0.26989568E+03</rscale>
<asrwt>0</asrwt>
<pdfrwt beam="2">  1        2 0.40260192E-01 0.26989568E+03</pdfrwt>
<pdfrwt beam="1">  1       -2 0.10706051E-01 0.26989568E+03</pdfrwt>
<totfact> 0.74791659E+03</totfact>
</mgrwt>
</event>
<event>
 6    1  0.6101889E-006  0.1572843E+03  0.7546771E-02  0.1200927E+00
          1   -1    0    0  501    0  0.00000000000E+00  0.00000000000E+00  0.34285960711E+03  0.34285960711E+03  0.00000000000E+00 0. -1.
         -1   -1    0    0    0  501 -0.00000000000E+00 -0.00000000000E+00 -0.59854204581E+02  0.59854204581E+02  0.00000000000E+00 0.  1.
          5    1    1    2  502    0  0.83269529232E+02 -0.39797497501E+02  0.10821886832E+03  0.14230624992E+03  0.47000000000E+01 0. -1.
         -5    1    1    2    0  502  0.99190075041E+01  0.60484982064E+02  0.36895990013E+02  0.71695354412E+02  0.47000000000E+01 0. -1.
        -11    1    1    2    0    0 -0.92744073218E+02 -0.53706885430E+01  0.14469152700E+03  0.17194750768E+03  0.00000000000E+00 0. -1.
         11    1    1    2    0    0 -0.44446351790E+00 -0.15316796020E+02 -0.68009828050E+01  0.16764699677E+02  0.00000000000E+00 0.  1.
<mgrwt>
<rscale>  0 0.14963139E+03</rscale>
<asrwt>0</asrwt>
<pdfrwt beam="1">  1        1 0.52747631E-01 0.15728434E+03</pdfrwt>
<pdfrwt beam="2">  1       -1 0.92083394E-02 0.15728434E+03</pdfrwt>
<totfact> 0.49569437E+03</totfact>
</mgrwt>
</event>
<event>
 6    1  0.6101889E-006  0.4354884E+03  0.7546771E-02  0.1032140E+00
          1   -1    0    0  501    0  0.00000000000E+00  0.00000000000E+00  0.61124348327E+03  0.61124348327E+03  0.00000000000E+00 0. -1.
         -1   -1    0    0    0  501 -0.00000000000E+00 -0.00000000000E+00 -0.77567350630E+02  0.77567350630E+02  0.00000000000E+00 0.  1.
          5    1    1    2  502    0 -0.13130229871E+03  0.56443662613E+02  0.43655992244E+03  0.45938310436E+03  0.47000000000E+01 0.  1.
         -5    1    1    2    0  502 -0.18153208275E+02 -0.24033491333E+02  0.16056109049E+02  0.34453393361E+02  0.47000000000E+01 0.  1.
        -11    1    1    2    0    0  0.10788792957E+03  0.74992868099E+01  0.84502193296E+02  0.13724673155E+03  0.00000000000E+00 0. -1.
         11    1    1    2    0    0  0.41567577415E+02 -0.39909458091E+02 -0.34420921409E+01  0.57727604623E+02  0.00000000000E+00 0.  1.
<mgrwt>
<rscale>  0 0.43548840E+03</rscale>
<asrwt>0</asrwt>
<pdfrwt beam="1">  1        1 0.94037456E-01 0.43548840E+03</pdfrwt>
<pdfrwt beam="2">  1       -1 0.11933439E-01 0.43548840E+03</pdfrwt>
<totfact> 0.15880710E+03</totfact>
</mgrwt>
</event>
<event>
 6    1  0.6101889E-006  0.1205340E+03  0.7546771E-02  0.1251729E+00
         -3   -1    0    0    0  501 -0.00000000000E+00  0.00000000000E+00  0.31039381695E+03  0.31039381695E+03  0.00000000000E+00 0.  1.
          3   -1    0    0  501    0  0.00000000000E+00 -0.00000000000E+00 -0.75481957118E+02  0.75481957118E+02  0.00000000000E+00 0. -1.
          5    1    1    2  502    0  0.14413026949E+02  0.63603583400E+02 -0.14830530409E+02  0.67046146790E+02  0.47000000000E+01 0. -1.
         -5    1    1    2    0  502 -0.41681922626E+02 -0.33651922825E+02  0.42924134077E+01  0.53947654226E+02  0.47000000000E+01 0.  1.
        -11    1    1    2    0    0 -0.30858603180E+02 -0.11678989737E+02  0.48017717484E+02  0.58261079494E+02  0.00000000000E+00 0. -1.
         11    1    1    2    0    0  0.58127498857E+02 -0.18272670838E+02  0.19743225935E+03  0.20662089356E+03  0.00000000000E+00 0.  1.
<mgrwt>
<rscale>  0 0.11491547E+03</rscale>
<asrwt>0</asrwt>
<pdfrwt beam="2">  1        3 0.11612609E-01 0.12053401E+03</pdfrwt>
<pdfrwt beam="1">  1       -3 0.47752894E-01 0.12053401E+03</pdfrwt>
<totfact> 0.57248703E+02</totfact>
</mgrwt>
</event>
<event>
 6    1  0.6101889E-006  0.1539481E+03  0.7546771E-02  0.1204088E+00
          1   -1    0    0  501    0  0.00000000000E+00  0.00000000000E+00  0.14370088589E+03  0.14370088589E+03  0.00000000000E+00 0. -1.
         -1   -1    0    0    0  501 -0.00000000000E+00 -0.00000000000E+00 -0.15164022604E+03  0.15164022604E+03  0.00000000000E+00 0.  1.
          5    1    1    2  502    0 -0.85613075011E+02  0.65112705831E+02  0.14668491983E+01  0.10767313834E+03  0.47000000000E+01 0. -1.
         -5    1    1    2    0  502  0.11196040169E+01 -0.34520503939E+02  0.37359825553E+02  0.51095648256E+02  0.47000000000E+01 0. -1.
        -11    1    1    2    0    0  0.65318903672E+02 -0.18442999304E+02  0.16080867877E+02  0.69751686086E+02  0.00000000000E+00 0. -1.
         11    1    1    2    0    0  0.19174567322E+02 -0.12149202587E+02 -0.62846882776E+02  0.66820639253E+02  0.00000000000E+00 0.  1.
<mgrwt>
<rscale>  0 0.14709597E+03</rscale>
<asrwt>0</asrwt>
<pdfrwt beam="1">  1        1 0.22107829E-01 0.15394810E+03</pdfrwt>
<pdfrwt beam="2">  1       -1 0.23329265E-01 0.15394810E+03</pdfrwt>
<totfact> 0.33986882E+03</totfact>
</mgrwt>
</event>
<event>
 6    1  0.6101889E-006  0.3671573E+03  0.7546771E-02  0.1055785E+00
          2   -1    0    0  501    0  0.00000000000E+00  0.00000000000E+00  0.11721151959E+03  0.11721151959E+03  0.00000000000E+00 0. -1.
         -2   -1    0    0    0  501 -0.00000000000E+00 -0.00000000000E+00 -0.28752391150E+03  0.28752391150E+03  0.00000000000E+00 0.  1.
          5    1    1    2  502    0  0.39664452108E+01  0.22304090999E+02  0.34475479004E+02  0.41519318581E+02  0.47000000000E+01 0. -1.
         -5    1    1    2    0  502 -0.69130543385E+02  0.10717826093E+03 -0.95455951162E+02  0.15937421453E+03  0.47000000000E+01 0. -1.
        -11    1    1    2    0    0  0.66650921941E+02 -0.43154557233E+02 -0.25238879683E+02  0.83316638513E+02  0.00000000000E+00 0. -1.
         11    1    1    2    0    0 -0.14868237666E+01 -0.86327794699E+02 -0.84093040060E+02  0.12052525946E+03  0.00000000000E+00 0.  1.
<mgrwt>
<rscale>  0 0.36715727E+03</rscale>
<asrwt>0</asrwt>
<pdfrwt beam="1">  1        2 0.18032542E-01 0.36715727E+03</pdfrwt>
<pdfrwt beam="2">  1       -2 0.44234447E-01 0.36715727E+03</pdfrwt>
<totfact> 0.15441601E+03</totfact>
</mgrwt>
</event>
<event>
 6    1  0.6101889E-006  0.3871727E+03  0.7546771E-02  0.1048314E+00
         -2   -1    0    0    0  501 -0.00000000000E+00  0.00000000000E+00  0.22575008336E+02  0.22575008336E+02  0.00000000000E+00 0.  1.
          2   -1    0    0  501    0  0.00000000000E+00 -0.00000000000E+00 -0.16600517091E+04  0.16600517091E+04  0.00000000000E+00 0. -1.
          5    1    1    2  502    0  0.10714655885E+03  0.11229853303E+03 -0.95518431421E+03  0.96772439760E+03  0.47000000000E+01 0.  1.
         -5    1    1    2    0  502 -0.30833552922E+02  0.41208215640E+01 -0.22586125854E+03  0.22804185420E+03  0.47000000000E+01 0.  1.
        -11    1    1    2    0    0 -0.29738519873E+02 -0.11513552993E+03 -0.27633031269E+03  0.30083053623E+03  0.00000000000E+00 0. -1.
         11    1    1    2    0    0 -0.46574486052E+02 -0.12838246622E+01 -0.18010081535E+03  0.18602992944E+03  0.00000000000E+00 0.  1.
<mgrwt>
<rscale>  0 0.38717273E+03</rscale>
<asrwt>0</asrwt>
<pdfrwt beam="2">  1        2 0.25539260E+00 0.38717273E+03</pdfrwt>
<pdfrwt beam="1">  1       -2 0.34730778E-02 0.38717273E+03</pdfrwt>
<totfact> 0.38137407E+03</totfact>
</mgrwt>
</event>
<event>
 6    1  0.6101889E-006  0.4308450E+03  0.7546771E-02  0.1033593E+00
          1   -1    0    0  501    0  0.00000000000E+00  0.00000000000E+00  0.21089985471E+03  0.21089985471E+03  0.00000000000E+00 0. -1.
         -1   -1    0    0    0  501 -0.00000000000E+00 -0.00000000000E+00 -0.22004213441E+03  0.22004213441E+03  0.00000000000E+00 0.  1.
          5    1    1    2  502    0  0.16357164445E+03  0.35095358432E+01 -0.47523531160E+02  0.17043642722E+03  0.47000000000E+01 0. -1.
         -5    1    1    2    0  502  0.18821337930E+02  0.26115782465E+02  0.41511628810E+02  0.52740707064E+02  0.47000000000E+01 0. -1.
        -11    1    1    2    0    0 -0.81200201426E+02  0.98729824811E+01 -0.42552525759E+02  0.92204478976E+02  0.00000000000E+00 0.  1.
         11    1    1    2    0    0 -0.10119278096E+03 -0.39498300789E+02  0.39422148408E+02  0.11556037586E+03  0.00000000000E+00 0. -1.
<mgrwt>
<rscale>  0 0.43084500E+03</rscale>
<asrwt>0</asrwt>
<pdfrwt beam="1">  1        1 0.32446131E-01 0.43084500E+03</pdfrwt>
<pdfrwt beam="2">  1       -1 0.33852636E-01 0.43084500E+03</pdfrwt>
<totfact> 0.11417886E+03</totfact>
</mgrwt>
</event>
<event>
 6    1  0.6101889E-006  0.1467336E+03  0.7546771E-02  0.1215601E+00
         -2   -1    0    0    0  501 -0.00000000000E+00  0.00000000000E+00  0.18822787456E+02  0.18822787456E+02  0.00000000000E+00 0.  1.
          2   -1    0    0  501    0  0.00000000000E+00 -0.00000000000E+00 -0.95016958592E+03  0.95016958592E+03  0.00000000000E+00 0. -1.
          5    1    1    2  502    0  0.38490949933E+02  0.44276106754E+02 -0.24390363866E+03  0.25090436785E+03  0.47000000000E+01 0.  1.
         -5    1    1    2    0  502 -0.86298725382E+02  0.15901845159E+02 -0.36576851525E+03  0.37617686722E+03  0.47000000000E+01 0.  1.
        -11    1    1    2    0    0  0.25137820628E+02 -0.63495915679E+01 -0.15482952852E+02  0.30198496122E+02  0.00000000000E+00 0.  1.
         11    1    1    2    0    0  0.22669954820E+02 -0.53828360344E+02 -0.30619169169E+03  0.31171264217E+03  0.00000000000E+00 0. -1.
<mgrwt>
<rscale>  0 0.13832515E+03</rscale>
<asrwt>0</asrwt>
<pdfrwt beam="2">  1        2 0.14617993E+00 0.14673357E+03</pdfrwt>
<pdfrwt beam="1">  1       -2 0.28958136E-02 0.14673357E+03</pdfrwt>
<totfact> 0.12151451E+04</totfact>
</mgrwt>
</event>
<event>
 6    1  0.6101889E-006  0.1435520E+03  0.7546771E-02  0.1218828E+00
         -3   -1    0    0    0  501 -0.00000000000E+00  0.00000000000E+00  0.50808223072E+02  0.50808223072E+02  0.00000000000E+00 0.  1.
          3   -1    0    0  501    0  0.00000000000E+00 -0.00000000000E+00 -0.33051504837E+03  0.33051504837E+03  0.00000000000E+00 0. -1.
          5    1    1    2  502    0  0.21759251983E+02 -0.11053025852E+02  0.49920733359E+01  0.25350448192E+02  0.47000000000E+01 0. -1.
         -5    1    1    2    0  502 -0.83209561402E+02  0.45793933917E+02 -0.15835938289E+03  0.18471789204E+03  0.47000000000E+01 0. -1.
        -11    1    1    2    0    0  0.79790106540E+02 -0.42111492609E+01 -0.84091366519E+02  0.11599807241E+03  0.00000000000E+00 0.  1.
         11    1    1    2    0    0 -0.18339797121E+02 -0.30529758804E+02 -0.42248149229E+02  0.55256858799E+02  0.00000000000E+00 0. -1.
<mgrwt>
<rscale>  0 0.13599078E+03</rscale>
<asrwt>0</asrwt>
<pdfrwt beam="2">  1        3 0.50848470E-01 0.14355200E+03</pdfrwt>
<pdfrwt beam="1">  1       -3 0.78166496E-02 0.14355200E+03</pdfrwt>
<totfact> 0.99624488E+02</totfact>
</mgrwt>
</event>
<event>
 6    1  0.6101889E-006  0.1570797E+03  0.7546771E-02  0.1202604E+00
         -1   -1    0    0    0  501 -0.00000000000E+00  0.00000000000E+00  0.10241110028E+03  0.10241110028E+03  0.00000000000E+00 0.  1.
          1   -1    0    0  501    0  0.00000000000E+00 -0.00000000000E+00 -0.25584495386E+03  0.25584495386E+03  0.00000000000E+00 0. -1.
          5    1    1    2  502    0  0.93540924733E+02  0.31011885845E+02 -0.62866780490E+02  0.11698702386E+03  0.47000000000E+01 0. -1.
         -5    1    1    2    0  502 -0.33657914518E+02  0.20492987026E+02 -0.10824988324E+03  0.11529503436E+03  0.47000000000E+01 0.  1.
        -11    1    1    2    0    0 -0.80256057691E+02 -0.21478441336E+02  0.28949053282E+02  0.87979576745E+02  0.00000000000E+00 0.  1.
         11    1    1    2    0    0  0.20373047476E+02 -0.30026431535E+02 -0.11266243129E+02  0.37994419175E+02  0.00000000000E+00 0. -1.
<mgrwt>
<rscale>  0 0.14827913E+03</rscale>
<asrwt>0</asrwt>
<pdfrwt beam="2">  1        1 0.39360762E-01 0.15707973E+03</pdfrwt>
<pdfrwt beam="1">  1       -1 0.15755554E-01 0.15707973E+03</pdfrwt>
<totfact> 0.31033731E+03</totfact>
</mgrwt>
</event>
<event>
 6    1  0.6101889E-006  0.1338547E+03  0.7546771E-02  0.1234779E+00
          2   -1    0    0  501    0  0.00000000000E+00  0.00000000000E+00  0.94473521558E+03  0.94473521558E+03  0.00000000000E+00 0. -1.
         -2   -1    0    0    0  501 -0.00000000000E+00 -0.00000000000E+00 -0.17237802922E+02  0.17237802922E+02  0.00000000000E+00 0.  1.
          5    1    1    2  502    0 -0.19254701267E+02 -0.24072839420E+02  0.50482996430E+02  0.59336902912E+02  0.47000000000E+01 0.  1.
         -5    1    1    2    0  502  0.67106032483E+02  0.22514601730E+02  0.64673191560E+03  0.65061078038E+03  0.47000000000E+01 0.  1.
        -11    1    1    2    0    0 -0.48937374294E+01 -0.28063798495E+02  0.16967495670E+03  0.17204974974E+03  0.00000000000E+00 0. -1.
         11    1    1    2    0    0 -0.42957593787E+02  0.29622036186E+02  0.60607543919E+02  0.79975585472E+02  0.00000000000E+00 0.  1.
<mgrwt>
<rscale>  0 0.12518586E+03</rscale>
<asrwt>0</asrwt>
<pdfrwt beam="1">  1        2 0.14534384E+00 0.13385470E+03</pdfrwt>
<pdfrwt beam="2">  1       -2 0.26519704E-02 0.13385470E+03</pdfrwt>
<totfact> 0.13852600E+04</totfact>
</mgrwt>
</event>
<event>
 6    1  0.6101889E-006  0.1283007E+03  0.7546771E-02  0.1244295E+00
         -2   -1    0    0    0  501 -0.00000000000E+00  0.00000000000E+00  0.11199876313E+02  0.11199876313E+02  0.00000000000E+00 0. -1.
          2   -1    0    0  501    0  0.00000000000E+00 -0.00000000000E+00 -0.11520801935E+04  0.11520801935E+04  0.00000000000E+00 0.  1.
          5    1    1    2  502    0  0.33575797054E+02 -0.29456967059E+02 -0.60189476536E+03  0.60356809527E+03  0.47000000000E+01 0. -1.
         -5    1    1    2    0  502 -0.51705993072E+02  0.69296415360E+01 -0.14291545349E+03  0.15221184743E+03  0.47000000000E+01 0. -1.
        -11    1    1    2    0    0 -0.19416635843E+02  0.42480441060E+02 -0.28038270256E+03  0.28424646615E+03  0.00000000000E+00 0.  1.
         11    1    1    2    0    0  0.37546831862E+02 -0.19953115537E+02 -0.11568739581E+03  0.12325366101E+03  0.00000000000E+00 0. -1.
<mgrwt>
<rscale>  0 0.11927669E+03</rscale>
<asrwt>0</asrwt>
<pdfrwt beam="2">  1        2 0.17724318E+00 0.12830066E+03</pdfrwt>
<pdfrwt beam="1">  1       -2 0.17230571E-02 0.12830066E+03</pdfrwt>
<totfact> 0.19552685E+04</totfact>
</mgrwt>
</event>
<event>
 6    1  0.6101889E-006  0.3715455E+03  0.7546771E-02  0.1054104E+00
          2   -1    0    0  501    0  0.00000000000E+00  0.00000000000E+00  0.43065736395E+03  0.43065736395E+03  0.00000000000E+00 0. -1.
         -2   -1    0    0    0  501 -0.00000000000E+00 -0.00000000000E+00 -0.80136816057E+02  0.80136816057E+02  0.00000000000E+00 0.  1.
          5    1    1    2  502    0 -0.16884179759E+03  0.63241692791E+01  0.20338839667E+03  0.26445505786E+03  0.47000000000E+01 0.  1.
         -5    1    1    2    0  502  0.19845927386E+02 -0.84331099896E+01  0.98630933832E+01  0.24173307365E+02  0.47000000000E+01 0.  1.
        -11    1    1    2    0    0  0.12145893867E+03  0.17355964216E+02  0.55718965965E+02  0.13475201834E+03  0.00000000000E+00 0.  1.
         11    1    1    2    0    0  0.27536931525E+02 -0.15247023505E+02  0.81550091875E+02  0.87413796442E+02  0.00000000000E+00 0. -1.
<mgrwt>
<rscale>  0 0.37154547E+03</rscale>
<asrwt>0</asrwt>
<pdfrwt beam="1">  1        2 0.66254978E-01 0.37154547E+03</pdfrwt>
<pdfrwt beam="2">  1       -2 0.12328741E-01 0.37154547E+03</pdfrwt>
<totfact> 0.34978928E+03</totfact>
</mgrwt>
</event>
<event>
 6    1  0.6174021E-006  0.2729590E+03  0.7546771E-02  0.1101536E+00
         -2   -1    0    0    0  501 -0.00000000000E+00  0.00000000000E+00  0.29291099236E+02  0.29291099236E+02  0.00000000000E+00 0.  1.
          2   -1    0    0  501    0  0.00000000000E+00 -0.00000000000E+00 -0.29519407874E+04  0.29519407874E+04  0.00000000000E+00 0. -1.
          5    1    1    2  502    0 -0.85688489847E+02  0.11935613551E+01 -0.53531337376E+03  0.54214983169E+03  0.47000000000E+01 0.  1.
         -5    1    1    2    0  502 -0.10519051177E+03 -0.15101580496E+03 -0.15883876467E+04  0.15990210203E+04  0.47000000000E+01 0.  1.
        -11    1    1    2    0    0  0.64466546583E+02  0.45141780373E+02 -0.41668293990E+03  0.42404998334E+03  0.00000000000E+00 0. -1.
         11    1    1    2    0    0  0.12641245503E+03  0.10468046323E+03 -0.38226572782E+03  0.41601105134E+03  0.00000000000E+00 0.  1.
<mgrwt>
<rscale>  0 0.26955182E+03</rscale>
<asrwt>0</asrwt>
<pdfrwt beam="2">  1        2 0.45414478E+00 0.27295896E+03</pdfrwt>
<pdfrwt beam="1">  1       -2 0.45063225E-02 0.27295896E+03</pdfrwt>
<totfact> 0.51009175E+02</totfact>
</mgrwt>
</event>
<event>
 6    1  0.6101889E-006  0.1253898E+03  0.7546771E-02  0.1245195E+00
          1   -1    0    0  501    0  0.00000000000E+00  0.00000000000E+00  0.15509092500E+03  0.15509092500E+03  0.00000000000E+00 0. -1.
         -1   -1    0    0    0  501 -0.00000000000E+00 -0.00000000000E+00 -0.89047831293E+02  0.89047831293E+02  0.00000000000E+00 0.  1.
          5    1    1    2  502    0 -0.23193479118E+02  0.12197082310E+02 -0.28686165084E+02  0.39136841438E+02  0.47000000000E+01 0. -1.
         -5    1    1    2    0  502  0.28172931636E+02 -0.20649550163E+02  0.97979300009E+02  0.10412565116E+03  0.47000000000E+01 0. -1.
        -11    1    1    2    0    0  0.30173174200E+02 -0.17084811908E+02 -0.33278370391E+02  0.48059974773E+02  0.00000000000E+00 0.  1.
         11    1    1    2    0    0 -0.35152626718E+02  0.25537279761E+02  0.30028329172E+02  0.52816288923E+02  0.00000000000E+00 0. -1.
<mgrwt>
<rscale>  0 0.11873740E+03</rscale>
<asrwt>0</asrwt>
<pdfrwt beam="1">  1        1 0.23860142E-01 0.12538981E+03</pdfrwt>
<pdfrwt beam="2">  1       -1 0.13699666E-01 0.12538981E+03</pdfrwt>
<totfact> 0.71130846E+03</totfact>
</mgrwt>
</event>
<event>
 6    1  0.6101889E-006  0.2984789E+03  0.7546771E-02  0.1092826E+00
         -1   -1    0    0    0  501 -0.00000000000E+00  0.00000000000E+00  0.31928574010E+03  0.31928574010E+03  0.00000000000E+00 0.  1.
          1   -1    0    0  501    0  0.00000000000E+00 -0.00000000000E+00 -0.55111756134E+03  0.55111756134E+03  0.00000000000E+00 0. -1.
          5    1    1    2  502    0 -0.16080462293E+03  0.20203057946E+03 -0.34104015522E+03  0.42779078913E+03  0.47000000000E+01 0. -1.
         -5    1    1    2    0  502  0.18438855474E+02 -0.19244617500E+02 -0.10844253466E+03  0.11176860032E+03  0.47000000000E+01 0.  1.
        -11    1    1    2    0    0  0.12100162546E+03 -0.19112598116E+03  0.19900085992E+03  0.30128371394E+03  0.00000000000E+00 0.  1.
         11    1    1    2    0    0  0.21364141997E+02  0.83400191935E+01  0.18650008722E+02  0.29560198050E+02  0.00000000000E+00 0. -1.
<mgrwt>
<rscale>  0 0.28530491E+03</rscale>
<asrwt>0</asrwt>
<pdfrwt beam="2">  1        1 0.84787317E-01 0.29847889E+03</pdfrwt>
<pdfrwt beam="1">  1       -1 0.49120883E-01 0.29847889E+03</pdfrwt>
<totfact> 0.16919307E+02</totfact>
</mgrwt>
</event>
<event>
 6    1  0.6101889E-006  0.1267366E+03  0.7546771E-02  0.1245967E+00
          2   -1    0    0  501    0  0.00000000000E+00  0.00000000000E+00  0.22767561867E+03  0.22767561867E+03  0.00000000000E+00 0.  1.
         -2   -1    0    0    0  501 -0.00000000000E+00 -0.00000000000E+00 -0.68124670305E+02  0.68124670305E+02  0.00000000000E+00 0. -1.
          5    1    1    2  502    0  0.20384176786E+02 -0.23852683718E+02 -0.59712218568E+01  0.32283287848E+02  0.47000000000E+01 0.  1.
         -5    1    1    2    0  502 -0.17264641418E+02  0.45022306598E+02  0.16005151104E+03  0.16722335997E+03  0.47000000000E+01 0.  1.
        -11    1    1    2    0    0  0.40674681927E+02 -0.29050838896E+02  0.11773678780E+02  0.51351733198E+02  0.00000000000E+00 0. -1.
         11    1    1    2    0    0 -0.43794217295E+02  0.78812160160E+01 -0.63030196005E+01  0.44941907953E+02  0.00000000000E+00 0.  1.
<mgrwt>
<rscale>  0 0.11827704E+03</rscale>
<asrwt>0</asrwt>
<pdfrwt beam="1">  1        2 0.35027018E-01 0.12673660E+03</pdfrwt>
<pdfrwt beam="2">  1       -2 0.10480719E-01 0.12673660E+03</pdfrwt>
<totfact> 0.85661867E+03</totfact>
</mgrwt>
</event>
<event>
 6    1  0.6101889E-006  0.1415007E+03  0.7546771E-02  0.1221906E+00
         -2   -1    0    0    0  501 -0.00000000000E+00  0.00000000000E+00  0.11207398885E+03  0.11207398885E+03  0.00000000000E+00 0.  1.
          2   -1    0    0  501    0  0.00000000000E+00 -0.00000000000E+00 -0.14969962456E+03  0.14969962456E+03  0.00000000000E+00 0. -1.
          5    1    1    2  502    0 -0.78400387406E+02  0.47316038759E+02  0.60469072002E+01  0.91891693618E+02  0.47000000000E+01 0. -1.
         -5    1    1    2    0  502  0.47942540867E+02  0.11595151352E+02 -0.30344424847E+01  0.49641037467E+02  0.47000000000E+01 0. -1.
        -11    1    1    2    0    0 -0.13734684099E+02  0.11393639893E+02  0.12379386982E+02  0.21718789086E+02  0.00000000000E+00 0.  1.
         11    1    1    2    0    0  0.44192530638E+02 -0.70304830004E+02 -0.53017487407E+02  0.98522093244E+02  0.00000000000E+00 0. -1.
<mgrwt>
<rscale>  0 0.13381269E+03</rscale>
<asrwt>0</asrwt>
<pdfrwt beam="2">  1        2 0.23030712E-01 0.14150067E+03</pdfrwt>
<pdfrwt beam="1">  1       -2 0.17242152E-01 0.14150067E+03</pdfrwt>
<totfact> 0.60985126E+03</totfact>
</mgrwt>
</event>
<event>
 6    1  0.6101889E-006  0.1595477E+03  0.7546771E-02  0.1197941E+00
          2   -1    0    0  501    0  0.00000000000E+00  0.00000000000E+00  0.24085098491E+03  0.24085098491E+03  0.00000000000E+00 0. -1.
         -2   -1    0    0    0  501 -0.00000000000E+00 -0.00000000000E+00 -0.99866258715E+02  0.99866258715E+02  0.00000000000E+00 0.  1.
          5    1    1    2  502    0  0.18883328926E+02  0.30790002654E+02  0.60639522595E+02  0.70737868751E+02  0.47000000000E+01 0.  1.
         -5    1    1    2    0  502  0.41169436349E+02 -0.10891887156E+03  0.74151504114E+02  0.13812595206E+03  0.47000000000E+01 0.  1.
        -11    1    1    2    0    0 -0.77236861209E+02  0.75288644646E+02  0.19911091649E+02  0.10968301743E+03  0.00000000000E+00 0. -1.
         11    1    1    2    0    0  0.17184095934E+02  0.28402242574E+01 -0.13717392165E+02  0.22170405380E+02  0.00000000000E+00 0.  1.
<mgrwt>
<rscale>  0 0.15207957E+03</rscale>
<asrwt>0</asrwt>
<pdfrwt beam="1">  1        2 0.37053998E-01 0.15954772E+03</pdfrwt>
<pdfrwt beam="2">  1       -2 0.15364040E-01 0.15954772E+03</pdfrwt>
<totfact> 0.44249178E+03</totfact>
</mgrwt>
</event>
<event>
 6    1  0.6101889E-006  0.3192164E+03  0.7546771E-02  0.1076010E+00
          1   -1    0    0  501    0  0.00000000000E+00  0.00000000000E+00  0.10898119365E+03  0.10898119365E+03  0.00000000000E+00 0. -1.
         -1   -1    0    0    0  501 -0.00000000000E+00 -0.00000000000E+00 -0.23375394580E+03  0.23375394580E+03  0.00000000000E+00 0.  1.
          5    1    1    2  502    0  0.10465825618E+02  0.13297649353E+01  0.49819867436E+02  0.51141088881E+02  0.47000000000E+01 0.  1.
         -5    1    1    2    0  502  0.78914074280E+02 -0.56495892891E+02 -0.56212044655E+02  0.11225462573E+03  0.47000000000E+01 0.  1.
        -11    1    1    2    0    0 -0.65973199879E+02  0.72923777722E+00 -0.94943803605E+02  0.11561712993E+03  0.00000000000E+00 0. -1.
         11    1    1    2    0    0 -0.23406700019E+02  0.54436890179E+02 -0.23436771328E+02  0.63722294908E+02  0.00000000000E+00 0.  1.
<mgrwt>
<rscale>  0 0.31921644E+03</rscale>
<asrwt>0</asrwt>
<pdfrwt beam="1">  1        1 0.16766337E-01 0.31921644E+03</pdfrwt>
<pdfrwt beam="2">  1       -1 0.35962145E-01 0.31921644E+03</pdfrwt>
<totfact> 0.24016647E+03</totfact>
</mgrwt>
</event>
<event>
 6    1  0.6101889E-006  0.1298732E+03  0.7546771E-02  0.1241399E+00
         -3   -1    0    0    0  501 -0.00000000000E+00  0.00000000000E+00  0.11318785362E+03  0.11318785362E+03  0.00000000000E+00 0.  1.
          3   -1    0    0  501    0  0.00000000000E+00 -0.00000000000E+00 -0.15961387294E+03  0.15961387294E+03  0.00000000000E+00 0. -1.
          5    1    1    2  502    0 -0.21021770974E+02  0.64277818448E+02 -0.21894183427E+02  0.71239020678E+02  0.47000000000E+01 0. -1.
         -5    1    1    2    0  502 -0.10993972735E+02 -0.49537759163E+02 -0.75530889345E+02  0.91114555723E+02  0.47000000000E+01 0. -1.
        -11    1    1    2    0    0  0.31651611021E+02 -0.48775718211E+02  0.49525820996E+02  0.76378675771E+02  0.00000000000E+00 0.  1.
         11    1    1    2    0    0  0.36413268780E+00  0.34035658926E+02  0.14732324543E+01  0.34069474387E+02  0.00000000000E+00 0. -1.
<mgrwt>
<rscale>  0 0.12103516E+03</rscale>
<asrwt>0</asrwt>
<pdfrwt beam="2">  1        3 0.24555981E-01 0.12987316E+03</pdfrwt>
<pdfrwt beam="1">  1       -3 0.17413516E-01 0.12987316E+03</pdfrwt>
<totfact> 0.10179256E+03</totfact>
</mgrwt>
</event>
<event>
 6    1  0.6101889E-006  0.2994240E+03  0.7546771E-02  0.1087072E+00
          2   -1    0    0  501    0  0.00000000000E+00  0.00000000000E+00  0.42148108159E+03  0.42148108159E+03  0.00000000000E+00 0. -1.
         -2   -1    0    0    0  501 -0.00000000000E+00 -0.00000000000E+00 -0.25296475262E+03  0.25296475262E+03  0.00000000000E+00 0.  1.
          5    1    1    2  502    0  0.18725459470E+03  0.17626287860E+03  0.18821768591E+03  0.31871754407E+03  0.47000000000E+01 0. -1.
         -5    1    1    2    0  502  0.35376218972E+02 -0.19836761192E+02  0.45416389466E+02  0.61071371325E+02  0.47000000000E+01 0. -1.
        -11    1    1    2    0    0 -0.81193400402E+02 -0.20907237985E+02  0.10887068412E+02  0.84545899532E+02  0.00000000000E+00 0.  1.
         11    1    1    2    0    0 -0.14143741327E+03 -0.13551887942E+03 -0.76004814811E+02  0.21011101929E+03  0.00000000000E+00 0. -1.
<mgrwt>
<rscale>  0 0.29636430E+03</rscale>
<asrwt>0</asrwt>
<pdfrwt beam="1">  1        2 0.64843244E-01 0.29942401E+03</pdfrwt>
<pdfrwt beam="2">  1       -2 0.38917654E-01 0.29942401E+03</pdfrwt>
<totfact> 0.47539578E+02</totfact>
</mgrwt>
</event>
<event>
 6    1  0.6101889E-006  0.2886585E+03  0.7546771E-02  0.1092869E+00
         -1   -1    0    0    0  501 -0.00000000000E+00  0.00000000000E+00  0.11909909855E+04  0.11909909855E+04  0.00000000000E+00 0.  1.
          1   -1    0    0  501    0  0.00000000000E+00 -0.00000000000E+00 -0.78506059104E+02  0.78506059104E+02  0.00000000000E+00 0. -1.
          5    1    1    2  502    0  0.37188722102E+02  0.13345153561E+03  0.87285495608E+02  0.16380830611E+03  0.47000000000E+01 0.  1.
         -5    1    1    2    0  502 -0.31928883434E+02  0.12668252718E+03  0.23448648102E+03  0.26846585644E+03  0.47000000000E+01 0.  1.
        -11    1    1    2    0    0 -0.34265059531E+02 -0.50504572856E+02  0.13377368678E+03  0.14703810886E+03  0.00000000000E+00 0. -1.
         11    1    1    2    0    0  0.29005220863E+02 -0.20962948994E+03  0.65693926300E+03  0.69018477320E+03  0.00000000000E+00 0.  1.
<mgrwt>
<rscale>  0 0.28522407E+03</rscale>
<asrwt>0</asrwt>
<pdfrwt beam="2">  1        1 0.12077856E-01 0.28865853E+03</pdfrwt>
<pdfrwt beam="1">  1       -1 0.18322937E+00 0.28865853E+03</pdfrwt>
<totfact> 0.10806913E+02</totfact>
</mgrwt>
</event>
<event>
 6    1  0.6101889E-006  0.4002739E+03  0.7546771E-02  0.1043685E+00
          1   -1    0    0  501    0  0.00000000000E+00  0.00000000000E+00  0.31981328773E+03  0.31981328773E+03  0.00000000000E+00 0. -1.
         -1   -1    0    0    0  501 -0.00000000000E+00 -0.00000000000E+00 -0.12524433549E+03  0.12524433549E+03  0.00000000000E+00 0.  1.
          5    1    1    2  502    0  0.18598437447E+02 -0.20873207277E+02  0.19894080391E+03  0.20095055640E+03  0.47000000000E+01 0. -1.
         -5    1    1    2    0  502 -0.40666360649E+02  0.60751857104E+02  0.82335127379E+02  0.11020755070E+03  0.47000000000E+01 0. -1.
        -11    1    1    2    0    0 -0.20977072405E+02 -0.28103550557E+02 -0.81804394169E+02  0.89004528121E+02  0.00000000000E+00 0.  1.
         11    1    1    2    0    0  0.43044995606E+02 -0.11775099270E+02 -0.49025848751E+01  0.44894988005E+02  0.00000000000E+00 0. -1.
<mgrwt>
<rscale>  0 0.40027392E+03</rscale>
<asrwt>0</asrwt>
<pdfrwt beam="1">  1        1 0.49202044E-01 0.40027392E+03</pdfrwt>
<pdfrwt beam="2">  1       -1 0.19268359E-01 0.40027392E+03</pdfrwt>
<totfact> 0.17395219E+03</totfact>
</mgrwt>
</event>
<event>
 6    1  0.6101889E-006  0.1258071E+03  0.7546771E-02  0.1248711E+00
          2   -1    0    0  501    0  0.00000000000E+00  0.00000000000E+00  0.17125641399E+04  0.17125641399E+04  0.00000000000E+00 0. -1.
         -2   -1    0    0    0  501 -0.00000000000E+00 -0.00000000000E+00 -0.90786891297E+01  0.90786891297E+01  0.00000000000E+00 0.  1.
          5    1    1    2  502    0 -0.24375855047E+02  0.51134308947E+02  0.57912175280E+03  0.58190462657E+03  0.47000000000E+01 0. -1.
         -5    1    1    2    0  502  0.35195975620E+02 -0.58914441544E+02  0.78017514141E+03  0.78320176799E+03  0.47000000000E+01 0. -1.
        -11    1    1    2    0    0  0.30946852089E+02  0.28680231027E+02  0.21653069096E+03  0.22060327158E+03  0.00000000000E+00 0. -1.
         11    1    1    2    0    0 -0.41766972663E+02 -0.20900098431E+02  0.12765786563E+03  0.13593316291E+03  0.00000000000E+00 0.  1.
<mgrwt>
<rscale>  0 0.11665982E+03</rscale>
<asrwt>0</asrwt>
<pdfrwt beam="1">  1        2 0.26347115E+00 0.12580708E+03</pdfrwt>
<pdfrwt beam="2">  1       -2 0.13967228E-02 0.12580708E+03</pdfrwt>
<totfact> 0.13373879E+04</totfact>
</mgrwt>
</event>
<event>
 6    1  0.6101889E-006  0.1464829E+03  0.7546771E-02  0.1215340E+00
         -1   -1    0    0    0  501 -0.00000000000E+00  0.00000000000E+00  0.35516568660E+03  0.35516568660E+03  0.00000000000E+00 0.  1.
          1   -1    0    0  501    0  0.00000000000E+00 -0.00000000000E+00 -0.50658904013E+02  0.50658904013E+02  0.00000000000E+00 0. -1.
          5    1    1    2  502    0 -0.22250198476E+02 -0.10026483612E+03  0.96815767874E+02  0.14122142756E+03  0.47000000000E+01 0.  1.
         -5    1    1    2    0  502  0.35246378400E+02  0.25007099129E+02  0.34356189243E+02  0.55408482531E+02  0.47000000000E+01 0.  1.
        -11    1    1    2    0    0  0.69134640352E+01  0.34883218707E+02  0.61931942668E+01  0.36096960919E+02  0.00000000000E+00 0. -1.
         11    1    1    2    0    0 -0.19909643959E+02  0.40374518283E+02  0.16714163120E+03  0.17309771960E+03  0.00000000000E+00 0.  1.
<mgrwt>
<rscale>  0 0.13851582E+03</rscale>
<asrwt>0</asrwt>
<pdfrwt beam="2">  1        1 0.77936778E-02 0.14648290E+03</pdfrwt>
<pdfrwt beam="1">  1       -1 0.54640873E-01 0.14648290E+03</pdfrwt>
<totfact> 0.30325257E+03</totfact>
</mgrwt>
</event>
<event>
 6    1  0.6101889E-006  0.2511616E+03  0.7546771E-02  0.1115547E+00
          2   -1    0    0  501    0  0.00000000000E+00  0.00000000000E+00  0.11017863566E+03  0.11017863566E+03  0.00000000000E+00 0. -1.
         -2   -1    0    0    0  501 -0.00000000000E+00 -0.00000000000E+00 -0.91399363897E+03  0.91399363897E+03  0.00000000000E+00 0.  1.
          5    1    1    2  502    0  0.11296590962E+03 -0.13398961860E+03 -0.25670923493E+02  0.17718803837E+03  0.47000000000E+01 0. -1.
         -5    1    1    2    0  502 -0.21362658125E+02 -0.63660944261E+02 -0.54030697937E+02  0.86316193764E+02  0.47000000000E+01 0. -1.
        -11    1    1    2    0    0 -0.44036927755E+01  0.30831736050E+02 -0.37637859093E+02  0.48852808466E+02  0.00000000000E+00 0. -1.
         11    1    1    2    0    0 -0.87199558724E+02  0.16681882681E+03 -0.68647552279E+03  0.71181523404E+03  0.00000000000E+00 0.  1.
<mgrwt>
<rscale>  0 0.24648503E+03</rscale>
<asrwt>0</asrwt>
<pdfrwt beam="1">  1        2 0.16950559E-01 0.25116157E+03</pdfrwt>
<pdfrwt beam="2">  1       -2 0.14061441E+00 0.25116157E+03</pdfrwt>
<totfact> 0.12669873E+02</totfact>
</mgrwt>
</event>
<event>
 6    1  0.6101889E-006  0.3361155E+03  0.7546771E-02  0.1068463E+00
          2   -1    0    0  501    0  0.00000000000E+00  0.00000000000E+00  0.36081173720E+03  0.36081173720E+03  0.00000000000E+00 0. -1.
         -2   -1    0    0    0  501 -0.00000000000E+00 -0.00000000000E+00 -0.78277397294E+02  0.78277397294E+02  0.00000000000E+00 0.  1.
          5    1    1    2  502    0  0.96075877190E+02 -0.34860200769E+01  0.38724504406E+02  0.10375164459E+03  0.47000000000E+01 0. -1.
         -5    1    1    2    0  502  0.25277494975E+02  0.25794818842E+02  0.14875753376E+03  0.15315096565E+03  0.47000000000E+01 0. -1.
        -11    1    1    2    0    0 -0.71238148820E+02 -0.16570221892E+02 -0.16061298054E+01  0.73157540649E+02  0.00000000000E+00 0.  1.
         11    1    1    2    0    0 -0.50115223345E+02 -0.57385768733E+01  0.96658431546E+02  0.10902898360E+03  0.00000000000E+00 0. -1.
<mgrwt>
<rscale>  0 0.33611548E+03</rscale>
<asrwt>0</asrwt>
<pdfrwt beam="1">  1        2 0.55509497E-01 0.33611548E+03</pdfrwt>
<pdfrwt beam="2">  1       -2 0.12042677E-01 0.33611548E+03</pdfrwt>
<totfact> 0.44036897E+03</totfact>
</mgrwt>
</event>
<event>
 6    1  0.6101889E-006  0.1452336E+03  0.7546771E-02  0.1216280E+00
         -1   -1    0    0    0  501 -0.00000000000E+00  0.00000000000E+00  0.21420454500E+02  0.21420454500E+02  0.00000000000E+00 0.  1.
          1   -1    0    0  501    0  0.00000000000E+00 -0.00000000000E+00 -0.85994850749E+03  0.85994850749E+03  0.00000000000E+00 0. -1.
          5    1    1    2  502    0 -0.73100358355E+00  0.39566902072E+02 -0.32213143418E+03  0.32458716086E+03  0.47000000000E+01 0. -1.
         -5    1    1    2    0  502 -0.71970757118E+02 -0.53247859255E+02 -0.24644006881E+03  0.26224019889E+03  0.47000000000E+01 0. -1.
        -11    1    1    2    0    0  0.14107379101E+02  0.31360961489E+01  0.33423384337E+01  0.14833221847E+02  0.00000000000E+00 0.  1.
         11    1    1    2    0    0  0.58594381601E+02  0.10544861035E+02 -0.27329888843E+03  0.27970838040E+03  0.00000000000E+00 0. -1.
<mgrwt>
<rscale>  0 0.13782945E+03</rscale>
<asrwt>0</asrwt>
<pdfrwt beam="2">  1        1 0.13229978E+00 0.14523359E+03</pdfrwt>
<pdfrwt beam="1">  1       -1 0.32954543E-02 0.14523359E+03</pdfrwt>
<totfact> 0.65578329E+03</totfact>
</mgrwt>
</event>
<event>
 6    1  0.6101889E-006  0.1332951E+03  0.7546771E-02  0.1237054E+00
         -1   -1    0    0    0  501 -0.00000000000E+00  0.00000000000E+00  0.62398025825E+02  0.62398025825E+02  0.00000000000E+00 0.  1.
          1   -1    0    0  501    0  0.00000000000E+00 -0.00000000000E+00 -0.24774645662E+03  0.24774645662E+03  0.00000000000E+00 0. -1.
          5    1    1    2  502    0 -0.26892600628E+02 -0.46789277846E+01 -0.17495260825E+03  0.17713161623E+03  0.47000000000E+01 0.  1.
         -5    1    1    2    0  502 -0.16726523134E+02  0.20000007970E+02  0.15502381984E+02  0.30695125706E+02  0.47000000000E+01 0.  1.
        -11    1    1    2    0    0  0.15456419822E+02  0.10309786892E+02 -0.52615883957E+02  0.55799855413E+02  0.00000000000E+00 0. -1.
         11    1    1    2    0    0  0.28162703939E+02 -0.25630867077E+02  0.26717679427E+02  0.46517885101E+02  0.00000000000E+00 0.  1.
<mgrwt>
<rscale>  0 0.12373823E+03</rscale>
<asrwt>0</asrwt>
<pdfrwt beam="2">  1        1 0.38114840E-01 0.13329509E+03</pdfrwt>
<pdfrwt beam="1">  1       -1 0.95996963E-02 0.13329509E+03</pdfrwt>
<totfact> 0.68936775E+03</totfact>
</mgrwt>
</event>
<event>
 6    1  0.6101889E-006  0.1916983E+03  0.7546771E-02  0.1161890E+00
          1   -1    0    0  501    0  0.00000000000E+00  0.00000000000E+00  0.14961452201E+03  0.14961452201E+03  0.00000000000E+00 0. -1.
         -1   -1    0    0    0  501 -0.00000000000E+00 -0.00000000000E+00 -0.31511464579E+03  0.31511464579E+03  0.00000000000E+00 0.  1.
          5    1    1    2  502    0 -0.82118725981E+02 -0.32221762677E+02 -0.39466143665E+02  0.96754295215E+02  0.47000000000E+01 0. -1.
         -5    1    1    2    0  502 -0.51669221784E+02 -0.24566353880E+02  0.81186858227E+02  0.99431434524E+02  0.47000000000E+01 0. -1.
        -11    1    1    2    0    0  0.51880258294E+02 -0.69521026920E+01 -0.23162135985E+02  0.57239649508E+02  0.00000000000E+00 0. -1.
         11    1    1    2    0    0  0.81907689471E+02  0.63740219249E+02 -0.18405870236E+03  0.21130378856E+03  0.00000000000E+00 0.  1.
<mgrwt>
<rscale>  0 0.18624738E+03</rscale>
<asrwt>0</asrwt>
<pdfrwt beam="1">  1        1 0.23017619E-01 0.19169826E+03</pdfrwt>
<pdfrwt beam="2">  1       -1 0.48479176E-01 0.19169826E+03</pdfrwt>
<totfact> 0.92297602E+02</totfact>
</mgrwt>
</event>
<event>
 6    1  0.6101889E-006  0.1786380E+03  0.7546771E-02  0.1181708E+00
          2   -1    0    0  501    0  0.00000000000E+00  0.00000000000E+00  0.21356042325E+04  0.21356042325E+04  0.00000000000E+00 0. -1.
         -2   -1    0    0    0  501 -0.00000000000E+00 -0.00000000000E+00 -0.12141857438E+02  0.12141857438E+02  0.00000000000E+00 0.  1.
          5    1    1    2  502    0  0.88660897688E+01 -0.82339984199E+01  0.15097519090E+02  0.19910584131E+02  0.47000000000E+01 0.  1.
         -5    1    1    2    0  502  0.35336910575E+02  0.12795259175E+03  0.14395082826E+04  0.14456233080E+04  0.47000000000E+01 0.  1.
        -11    1    1    2    0    0 -0.75992253959E+01 -0.72096307464E+02  0.41991432422E+03  0.42612634917E+03  0.00000000000E+00 0.  1.
         11    1    1    2    0    0 -0.36603774948E+02 -0.47622285871E+02  0.24894224921E+03  0.25608584868E+03  0.00000000000E+00 0. -1.
<mgrwt>
<rscale>  0 0.16635014E+03</rscale>
<asrwt>0</asrwt>
<pdfrwt beam="1">  1        2 0.32855420E+00 0.17863804E+03</pdfrwt>
<pdfrwt beam="2">  1       -2 0.18679798E-02 0.17863804E+03</pdfrwt>
<totfact> 0.53720216E+03</totfact>
</mgrwt>
</event>
<event>
 6    1  0.6101889E-006  0.3097866E+03  0.7546771E-02  0.1080448E+00
          1   -1    0    0  501    0  0.00000000000E+00  0.00000000000E+00  0.11919573268E+04  0.11919573268E+04  0.00000000000E+00 0. -1.
         -1   -1    0    0    0  501 -0.00000000000E+00 -0.00000000000E+00 -0.20128182346E+02  0.20128182346E+02  0.00000000000E+00 0.  1.
          5    1    1    2  502    0 -0.95766152233E+00  0.42508121238E+02  0.31830684952E+03  0.32116848840E+03  0.47000000000E+01 0.  1.
         -5    1    1    2    0  502 -0.95757401732E+02 -0.58622209137E+02  0.50977702764E+03  0.52201604506E+03  0.47000000000E+01 0.  1.
        -11    1    1    2    0    0  0.54406717093E+02 -0.20115313706E+02  0.77009783851E+02  0.96411739529E+02  0.00000000000E+00 0.  1.
         11    1    1    2    0    0  0.42308346162E+02  0.36229401606E+02  0.26673548343E+03  0.27248923615E+03  0.00000000000E+00 0. -1.
<mgrwt>
<rscale>  0 0.30978660E+03</rscale>
<asrwt>0</asrwt>
<pdfrwt beam="1">  1        1 0.18337799E+00 0.30978660E+03</pdfrwt>
<pdfrwt beam="2">  1       -1 0.30966444E-02 0.30978660E+03</pdfrwt>
<totfact> 0.41830817E+03</totfact>
</mgrwt>
</event>
<event>
 6    1  0.6101889E-006  0.1302129E+03  0.7546771E-02  0.1240167E+00
         -3   -1    0    0    0  501 -0.00000000000E+00  0.00000000000E+00  0.31205302496E+03  0.31205302496E+03  0.00000000000E+00 0.  1.
          3   -1    0    0  501    0  0.00000000000E+00 -0.00000000000E+00 -0.49609171302E+02  0.49609171302E+02  0.00000000000E+00 0. -1.
          5    1    1    2  502    0  0.12268482286E+01  0.75334747980E+02  0.45045876323E+02  0.87909330469E+02  0.47000000000E+01 0. -1.
         -5    1    1    2    0  502  0.23973457481E+02 -0.48965385026E+02  0.32338035379E+02  0.63562364072E+02  0.47000000000E+01 0. -1.
        -11    1    1    2    0    0  0.22959859805E+02 -0.28475147562E+02  0.13821121237E+03  0.14296967656E+03  0.00000000000E+00 0.  1.
         11    1    1    2    0    0 -0.48160165514E+02  0.21057846079E+01  0.46848729584E+02  0.67220825157E+02  0.00000000000E+00 0. -1.
<mgrwt>
<rscale>  0 0.12179371E+03</rscale>
<asrwt>0</asrwt>
<pdfrwt beam="2">  1        3 0.76321804E-02 0.13021292E+03</pdfrwt>
<pdfrwt beam="1">  1       -3 0.48008157E-01 0.13021292E+03</pdfrwt>
<totfact> 0.11428571E+03</totfact>
</mgrwt>
</event>
<event>
 6    1  0.6101889E-006  0.1278405E+03  0.7546771E-02  0.1248283E+00
          2   -1    0    0  501    0  0.00000000000E+00  0.00000000000E+00  0.55270471510E+03  0.55270471510E+03  0.00000000000E+00 0. -1.
         -2   -1    0    0    0  501 -0.00000000000E+00 -0.00000000000E+00 -0.33302077244E+02  0.33302077244E+02  0.00000000000E+00 0.  1.
          5    1    1    2  502    0 -0.18916868424E+02  0.28524099557E+02  0.46404098099E+03  0.46532525636E+03  0.47000000000E+01 0.  1.
         -5    1    1    2    0  502 -0.34634209363E+01 -0.13683747966E+02 -0.11242361331E+01  0.14919589467E+02  0.47000000000E+01 0.  1.
        -11    1    1    2    0    0  0.17536945892E+02 -0.27784025300E+00 -0.20662009703E+02  0.27102404163E+02  0.00000000000E+00 0.  1.
         11    1    1    2    0    0  0.48433434681E+01 -0.14562511338E+02  0.77147902702E+02  0.78659542356E+02  0.00000000000E+00 0. -1.
<mgrwt>
<rscale>  0 0.11691043E+03</rscale>
<asrwt>0</asrwt>
<pdfrwt beam="1">  1        2 0.85031488E-01 0.12784052E+03</pdfrwt>
<pdfrwt beam="2">  1       -2 0.51233969E-02 0.12784052E+03</pdfrwt>
<totfact> 0.99475283E+03</totfact>
</mgrwt>
</event>
<event>
 6    1  0.6101889E-006  0.1509813E+03  0.7546771E-02  0.1209401E+00
         -1   -1    0    0    0  501 -0.00000000000E+00  0.00000000000E+00  0.10023355747E+03  0.10023355747E+03  0.00000000000E+00 0.  1.
          1   -1    0    0  501    0  0.00000000000E+00 -0.00000000000E+00 -0.26120330447E+03  0.26120330447E+03  0.00000000000E+00 0. -1.
          5    1    1    2  502    0 -0.66290387962E+02  0.23691820721E+00 -0.15285822812E+03  0.16667993152E+03  0.47000000000E+01 0. -1.
         -5    1    1    2    0  502  0.16447935411E+02 -0.61814111696E+02 -0.31030621242E+02  0.71249620621E+02  0.47000000000E+01 0.  1.
        -11    1    1    2    0    0  0.68996274478E+02  0.71783035655E+02  0.20664610863E+02  0.10168734553E+03  0.00000000000E+00 0.  1.
         11    1    1    2    0    0 -0.19153821926E+02 -0.10205842166E+02  0.22544915030E+01  0.21819964268E+02  0.00000000000E+00 0. -1.
<mgrwt>
<rscale>  0 0.14295958E+03</rscale>
<asrwt>0</asrwt>
<pdfrwt beam="2">  1        1 0.40185124E-01 0.15098133E+03</pdfrwt>
<pdfrwt beam="1">  1       -1 0.15420547E-01 0.15098133E+03</pdfrwt>
<totfact> 0.31233166E+03</totfact>
</mgrwt>
</event>
<event>
 6    1  0.6101889E-006  0.3290309E+03  0.7546771E-02  0.1071566E+00
          2   -1    0    0  501    0  0.00000000000E+00  0.00000000000E+00  0.48428142510E+03  0.48428142510E+03  0.00000000000E+00 0. -1.
         -2   -1    0    0    0  501 -0.00000000000E+00 -0.00000000000E+00 -0.55887606507E+02  0.55887606507E+02  0.00000000000E+00 0.  1.
          5    1    1    2  502    0  0.29527076254E+02  0.19657483952E+02  0.73703449336E+02  0.81930173632E+02  0.47000000000E+01 0. -1.
         -5    1    1    2    0  502 -0.23003553005E+02 -0.12682872451E+03  0.25555129462E+03  0.28625730208E+03  0.47000000000E+01 0. -1.
        -11    1    1    2    0    0 -0.40274187467E+02  0.61620631849E+02  0.87070742910E+02  0.11401941377E+03  0.00000000000E+00 0. -1.
         11    1    1    2    0    0  0.33750664218E+02  0.45550608708E+02  0.12068331725E+02  0.57962142123E+02  0.00000000000E+00 0.  1.
<mgrwt>
<rscale>  0 0.32903088E+03</rscale>
<asrwt>0</asrwt>
<pdfrwt beam="1">  1        2 0.74504832E-01 0.32903088E+03</pdfrwt>
<pdfrwt beam="2">  1       -2 0.85980936E-02 0.32903088E+03</pdfrwt>
<totfact> 0.54567530E+03</totfact>
</mgrwt>
</event>
<event>
 6    1  0.6101889E-006  0.1701531E+03  0.7546771E-02  0.1183522E+00
          2   -1    0    0  501    0  0.00000000000E+00  0.00000000000E+00  0.21014264293E+04  0.21014264293E+04  0.00000000000E+00 0.  1.
         -2   -1    0    0    0  501 -0.00000000000E+00 -0.00000000000E+00 -0.12784847132E+02  0.12784847132E+02  0.00000000000E+00 0. -1.
          5    1    1    2  502    0  0.50843455807E+02  0.18804159077E+02  0.21121851977E+03  0.21811466363E+03  0.47000000000E+01 0. -1.
         -5    1    1    2    0  502 -0.16715809965E+02  0.91479777656E+02  0.11352997454E+04  0.11391117460E+04  0.47000000000E+01 0. -1.
        -11    1    1    2    0    0 -0.32920684336E+02 -0.12660896590E+03  0.69198271249E+03  0.70423978593E+03  0.00000000000E+00 0.  1.
         11    1    1    2    0    0 -0.12069615068E+01  0.16325029163E+02  0.50140604539E+02  0.52745080878E+02  0.00000000000E+00 0. -1.
<mgrwt>
<rscale>  0 0.16467099E+03</rscale>
<asrwt>0</asrwt>
<pdfrwt beam="1">  1        2 0.32329610E+00 0.17015313E+03</pdfrwt>
<pdfrwt beam="2">  1       -2 0.19669012E-02 0.17015313E+03</pdfrwt>
<totfact> 0.51884269E+03</totfact>
</mgrwt>
</event>
<event>
 6    1  0.6101889E-006  0.1531270E+03  0.7546771E-02  0.1204974E+00
         -2   -1    0    0    0  501 -0.00000000000E+00  0.00000000000E+00  0.16195025252E+03  0.16195025252E+03  0.00000000000E+00 0.  1.
          2   -1    0    0  501    0  0.00000000000E+00 -0.00000000000E+00 -0.15392378352E+03  0.15392378352E+03  0.00000000000E+00 0. -1.
          5    1    1    2  502    0 -0.34874526418E+02 -0.17547729857E+02 -0.22192307464E+02  0.45152452055E+02  0.47000000000E+01 0.  1.
         -5    1    1    2    0  502  0.10922587436E+03 -0.30421416664E+02 -0.45280262886E+02  0.12218079402E+03  0.47000000000E+01 0.  1.
        -11    1    1    2    0    0 -0.72388750497E+01  0.32681165243E+02 -0.13445991414E+02  0.36072906159E+02  0.00000000000E+00 0. -1.
         11    1    1    2    0    0 -0.67112472892E+02  0.15287981278E+02  0.88945030758E+02  0.11246788380E+03  0.00000000000E+00 0.  1.
<mgrwt>
<rscale>  0 0.14639485E+03</rscale>
<asrwt>0</asrwt>
<pdfrwt beam="2">  1        2 0.23680582E-01 0.15312697E+03</pdfrwt>
<pdfrwt beam="1">  1       -2 0.24915424E-01 0.15312697E+03</pdfrwt>
<totfact> 0.31718761E+03</totfact>
</mgrwt>
</event>
<event>
 6    1  0.6101889E-006  0.1283988E+03  0.7546771E-02  0.1244101E+00
         -3   -1    0    0    0  501 -0.00000000000E+00  0.00000000000E+00  0.18859458442E+03  0.18859458442E+03  0.00000000000E+00 0.  1.
          3   -1    0    0  501    0  0.00000000000E+00 -0.00000000000E+00 -0.11143638280E+03  0.11143638280E+03  0.00000000000E+00 0. -1.
          5    1    1    2  502    0 -0.48829088548E+02 -0.48054133396E+02 -0.67709058852E+02  0.96436954927E+02  0.47000000000E+01 0. -1.
         -5    1    1    2    0  502  0.28371015585E+02  0.26994726162E+02  0.15218652297E+02  0.42276792021E+02  0.47000000000E+01 0. -1.
        -11    1    1    2    0    0  0.19458675529E+02  0.35112579859E+02  0.13881899740E+03  0.14450691110E+03  0.00000000000E+00 0.  1.
         11    1    1    2    0    0  0.99939743414E+00 -0.14053172626E+02 -0.91703892204E+01  0.16810309174E+02  0.00000000000E+00 0. -1.
<mgrwt>
<rscale>  0 0.11939323E+03</rscale>
<asrwt>0</asrwt>
<pdfrwt beam="2">  1        3 0.17144059E-01 0.12839883E+03</pdfrwt>
<pdfrwt beam="1">  1       -3 0.29014551E-01 0.12839883E+03</pdfrwt>
<totfact> 0.77051293E+02</totfact>
</mgrwt>
</event>
<event>
 6    1  0.6101889E-006  0.1354009E+03  0.7546771E-02  0.1233956E+00
         -1   -1    0    0    0  501 -0.00000000000E+00  0.00000000000E+00  0.22371359374E+03  0.22371359374E+03  0.00000000000E+00 0.  1.
          1   -1    0    0  501    0  0.00000000000E+00 -0.00000000000E+00 -0.62260053711E+02  0.62260053711E+02  0.00000000000E+00 0. -1.
          5    1    1    2  502    0  0.24253991121E+02 -0.13033257249E+02 -0.14115908713E+02  0.31296497546E+02  0.47000000000E+01 0. -1.
         -5    1    1    2    0  502 -0.72816085309E+02  0.31784523964E+02  0.10509400276E+03  0.13183048836E+03  0.47000000000E+01 0. -1.
        -11    1    1    2    0    0  0.23833093977E+02  0.12496174621E+02  0.77806841903E+02  0.82329067744E+02  0.00000000000E+00 0.  1.
         11    1    1    2    0    0  0.24729000211E+02 -0.31247441336E+02 -0.73313959247E+01  0.40517593805E+02  0.00000000000E+00 0. -1.
<mgrwt>
<rscale>  0 0.12571523E+03</rscale>
<asrwt>0</asrwt>
<pdfrwt beam="2">  1        1 0.95784699E-02 0.13540089E+03</pdfrwt>
<pdfrwt beam="1">  1       -1 0.34417476E-01 0.13540089E+03</pdfrwt>
<totfact> 0.52197991E+03</totfact>
</mgrwt>
</event>
<event>
 6    1  0.6101889E-006  0.1269768E+03  0.7546771E-02  0.1246401E+00
         -2   -1    0    0    0  501 -0.00000000000E+00  0.00000000000E+00  0.15404017743E+02  0.15404017743E+02  0.00000000000E+00 0.  1.
          2   -1    0    0  501    0  0.00000000000E+00 -0.00000000000E+00 -0.10241533170E+04  0.10241533170E+04  0.00000000000E+00 0. -1.
          5    1    1    2  502    0 -0.22645763390E+00  0.21547361990E+02 -0.21414134743E+02  0.30740775179E+02  0.47000000000E+01 0. -1.
         -5    1    1    2    0  502  0.22547860092E+02 -0.21779323650E+02 -0.78229466798E+03  0.78293664014E+03  0.47000000000E+01 0. -1.
        -11    1    1    2    0    0 -0.22938407658E+02 -0.44446245724E+02 -0.10412057091E+03  0.11551074665E+03  0.00000000000E+00 0. -1.
         11    1    1    2    0    0  0.61700520053E+00  0.44678207384E+02 -0.10091992565E+03  0.11036917280E+03  0.00000000000E+00 0.  1.
<mgrwt>
<rscale>  0 0.11801943E+03</rscale>
<asrwt>0</asrwt>
<pdfrwt beam="2">  1        2 0.15756207E+00 0.12697676E+03</pdfrwt>
<pdfrwt beam="1">  1       -2 0.23698486E-02 0.12697676E+03</pdfrwt>
<totfact> 0.14574268E+04</totfact>
</mgrwt>
</event>
<event>
 6    1  0.6101889E-006  0.1336028E+03  0.7546771E-02  0.1235254E+00
          2   -1    0    0  501    0  0.00000000000E+00  0.00000000000E+00  0.19776261372E+02  0.19776261372E+02  0.00000000000E+00 0. -1.
         -2   -1    0    0    0  501 -0.00000000000E+00 -0.00000000000E+00 -0.71235559059E+03  0.71235559059E+03  0.00000000000E+00 0.  1.
          5    1    1    2  502    0  0.26556404449E+01 -0.24361278593E+02 -0.30782866366E+03  0.30883830800E+03  0.47000000000E+01 0.  1.
         -5    1    1    2    0  502  0.44352738728E+02  0.21599708229E+02 -0.39734238309E+02  0.63518599813E+02  0.47000000000E+01 0.  1.
        -11    1    1    2    0    0 -0.35001841702E+01 -0.38377084587E+02 -0.91513785506E+02  0.99296650740E+02  0.00000000000E+00 0. -1.
         11    1    1    2    0    0 -0.43508195002E+02  0.41138654951E+02 -0.25350264175E+03  0.26047829341E+03  0.00000000000E+00 0.  1.
<mgrwt>
<rscale>  0 0.12488189E+03</rscale>
<asrwt>0</asrwt>
<pdfrwt beam="1">  1        2 0.30425015E-02 0.13360275E+03</pdfrwt>
<pdfrwt beam="2">  1       -2 0.10959318E+00 0.13360275E+03</pdfrwt>
<totfact> 0.20324005E+03</totfact>
</mgrwt>
</event>
<event>
 6    1  0.6101889E-006  0.1427035E+03  0.7546771E-02  0.1220331E+00
         -1   -1    0    0    0  501 -0.00000000000E+00  0.00000000000E+00  0.16671393977E+03  0.16671393977E+03  0.00000000000E+00 0.  1.
          1   -1    0    0  501    0  0.00000000000E+00 -0.00000000000E+00 -0.99832861960E+02  0.99832861960E+02  0.00000000000E+00 0. -1.
          5    1    1    2  502    0  0.29194667569E+02 -0.10649312916E+02  0.45999179973E+02  0.55711318762E+02  0.47000000000E+01 0.  1.
         -5    1    1    2    0  502 -0.76617449459E+02 -0.39229302632E+02 -0.22068572195E+02  0.88984738160E+02  0.47000000000E+01 0.  1.
        -11    1    1    2    0    0 -0.17446349683E+02 -0.13487934989E+02  0.13840548303E+01  0.22095590404E+02  0.00000000000E+00 0. -1.
         11    1    1    2    0    0  0.64869131573E+02  0.63366550536E+02  0.41566415207E+02  0.99755154409E+02  0.00000000000E+00 0.  1.
<mgrwt>
<rscale>  0 0.13492136E+03</rscale>
<asrwt>0</asrwt>
<pdfrwt beam="2">  1        1 0.15358902E-01 0.14270345E+03</pdfrwt>
<pdfrwt beam="1">  1       -1 0.25648298E-01 0.14270345E+03</pdfrwt>
<totfact> 0.46188873E+03</totfact>
</mgrwt>
</event>
<event>
 6    1  0.6101889E-006  0.1462650E+03  0.7546771E-02  0.1229088E+00
         -1   -1    0    0    0  501 -0.00000000000E+00  0.00000000000E+00  0.21258274325E+02  0.21258274325E+02  0.00000000000E+00 0.  1.
          1   -1    0    0  501    0  0.00000000000E+00 -0.00000000000E+00 -0.76202390946E+03  0.76202390946E+03  0.00000000000E+00 0. -1.
          5    1    1    2  502    0 -0.53373272684E+02  0.13519894216E+01 -0.55082968255E+03  0.55343108270E+03  0.47000000000E+01 0.  1.
         -5    1    1    2    0  502 -0.11558532334E+02  0.38046092748E+02 -0.45657822853E+02  0.60727519551E+02  0.47000000000E+01 0.  1.
        -11    1    1    2    0    0  0.20212285582E+02 -0.10896256722E+02 -0.10560306083E+02  0.25274195607E+02  0.00000000000E+00 0.  1.
         11    1    1    2    0    0  0.44719519436E+02 -0.28501825447E+02 -0.13371782364E+03  0.14384938593E+03  0.00000000000E+00 0. -1.
<mgrwt>
<rscale>  0 0.12890620E+03</rscale>
<asrwt>0</asrwt>
<pdfrwt beam="2">  1        1 0.11723444E+00 0.14626498E+03</pdfrwt>
<pdfrwt beam="1">  1       -1 0.32705038E-02 0.14626498E+03</pdfrwt>
<totfact> 0.79711782E+03</totfact>
</mgrwt>
</event>
<event>
 6    1  0.6101889E-006  0.1309267E+03  0.7546771E-02  0.1238547E+00
          2   -1    0    0  501    0  0.00000000000E+00  0.00000000000E+00  0.10812907140E+03  0.10812907140E+03  0.00000000000E+00 0. -1.
         -2   -1    0    0    0  501 -0.00000000000E+00 -0.00000000000E+00 -0.12474035155E+03  0.12474035155E+03  0.00000000000E+00 0.  1.
          5    1    1    2  502    0 -0.31734586753E+02 -0.80670916854E+01 -0.50198188470E+02  0.60117469094E+02  0.47000000000E+01 0. -1.
         -5    1    1    2    0  502  0.31783988651E+02  0.47008192661E+02  0.42475183197E+02  0.71036774276E+02  0.47000000000E+01 0. -1.
        -11    1    1    2    0    0 -0.45919758376E+02 -0.22162413959E+02 -0.13239379176E+02  0.52679008749E+02  0.00000000000E+00 0.  1.
         11    1    1    2    0    0  0.45870356478E+02 -0.16778687017E+02  0.43511043029E+01  0.49036170835E+02  0.00000000000E+00 0. -1.
<mgrwt>
<rscale>  0 0.12280086E+03</rscale>
<asrwt>0</asrwt>
<pdfrwt beam="1">  1        2 0.16635242E-01 0.13092666E+03</pdfrwt>
<pdfrwt beam="2">  1       -2 0.19190823E-01 0.13092666E+03</pdfrwt>
<totfact> 0.73339947E+03</totfact>
</mgrwt>
</event>
<event>
 6    1  0.6101889E-006  0.1555229E+03  0.7546771E-02  0.1201614E+00
          2   -1    0    0  501    0  0.00000000000E+00  0.00000000000E+00  0.30187020587E+03  0.30187020587E+03  0.00000000000E+00 0. -1.
         -2   -1    0    0    0  501 -0.00000000000E+00 -0.00000000000E+00 -0.73610127376E+02  0.73610127376E+02  0.00000000000E+00 0.  1.
          5    1    1    2  502    0  0.50309762998E+00  0.10809586368E+03  0.89025583415E+02  0.14011642785E+03  0.47000000000E+01 0. -1.
         -5    1    1    2    0  502  0.31570926032E+02 -0.21300275829E+02  0.85096886781E+02  0.93348782856E+02  0.47000000000E+01 0. -1.
        -11    1    1    2    0    0  0.20631864099E+02 -0.23067771256E+02 -0.14842962335E+02  0.34323598555E+02  0.00000000000E+00 0.  1.
         11    1    1    2    0    0 -0.52705887761E+02 -0.63727816596E+02  0.68980570636E+02  0.10769152398E+03  0.00000000000E+00 0. -1.
<mgrwt>
<rscale>  0 0.14907498E+03</rscale>
<asrwt>0</asrwt>
<pdfrwt beam="1">  1        2 0.46441569E-01 0.15552289E+03</pdfrwt>
<pdfrwt beam="2">  1       -2 0.11324635E-01 0.15552289E+03</pdfrwt>
<totfact> 0.56880593E+03</totfact>
</mgrwt>
</event>
<event>
 6    1  0.6101889E-006  0.1255984E+03  0.7546771E-02  0.1249408E+00
         -2   -1    0    0    0  501 -0.00000000000E+00  0.00000000000E+00  0.14364998703E+02  0.14364998703E+02  0.00000000000E+00 0.  1.
          2   -1    0    0  501    0  0.00000000000E+00 -0.00000000000E+00 -0.10460689351E+04  0.10460689351E+04  0.00000000000E+00 0. -1.
          5    1    1    2  502    0  0.12006613563E+02  0.32447020797E+02 -0.72765322079E+03  0.72849040327E+03  0.47000000000E+01 0. -1.
         -5    1    1    2    0  502 -0.28798736547E+01 -0.40621119590E+02 -0.91863875720E+02  0.10059538106E+03  0.47000000000E+01 0. -1.
        -11    1    1    2    0    0  0.24948195038E+02  0.38479830429E+02 -0.12088431459E+03  0.12929086317E+03  0.00000000000E+00 0.  1.
         11    1    1    2    0    0 -0.34074934946E+02 -0.30305731636E+02 -0.91302525309E+02  0.10205728631E+03  0.00000000000E+00 0. -1.
<mgrwt>
<rscale>  0 0.11625384E+03</rscale>
<asrwt>0</asrwt>
<pdfrwt beam="2">  1        2 0.16093366E+00 0.12559843E+03</pdfrwt>
<pdfrwt beam="1">  1       -2 0.22100002E-02 0.12559843E+03</pdfrwt>
<totfact> 0.15651060E+04</totfact>
</mgrwt>
</event>
<event>
 6    1  0.6101889E-006  0.1291582E+03  0.7546771E-02  0.1242702E+00
         -3   -1    0    0    0  501 -0.00000000000E+00  0.00000000000E+00  0.15352845523E+02  0.15352845523E+02  0.00000000000E+00 0.  1.
          3   -1    0    0  501    0  0.00000000000E+00 -0.00000000000E+00 -0.89856725292E+03  0.89856725292E+03  0.00000000000E+00 0. -1.
          5    1    1    2  502    0 -0.23574998952E+02 -0.21107866524E+02 -0.50486831313E+03  0.50588084191E+03  0.47000000000E+01 0.  1.
         -5    1    1    2    0  502  0.53948979323E+02  0.95246746354E+01 -0.11723715464E+03  0.12949074185E+03  0.47000000000E+01 0.  1.
        -11    1    1    2    0    0  0.18971045422E+02  0.36491215143E+02 -0.12705314480E+03  0.13354404124E+03  0.00000000000E+00 0.  1.
         11    1    1    2    0    0 -0.49345025793E+02 -0.24908023255E+02 -0.13405579483E+03  0.14500447345E+03  0.00000000000E+00 0. -1.
<mgrwt>
<rscale>  0 0.12023979E+03</rscale>
<asrwt>0</asrwt>
<pdfrwt beam="2">  1        3 0.13824113E+00 0.12915818E+03</pdfrwt>
<pdfrwt beam="1">  1       -3 0.23619759E-02 0.12915818E+03</pdfrwt>
<totfact> 0.71540353E+02</totfact>
</mgrwt>
</event>
<event>
 6    1  0.6101889E-006  0.2710019E+03  0.7546771E-02  0.1100708E+00
         -2   -1    0    0    0  501 -0.00000000000E+00  0.00000000000E+00  0.84954800122E+02  0.84954800122E+02  0.00000000000E+00 0.  1.
          2   -1    0    0  501    0  0.00000000000E+00 -0.00000000000E+00 -0.21612097270E+03  0.21612097270E+03  0.00000000000E+00 0. -1.
          5    1    1    2  502    0 -0.95952102014E+02  0.35214813958E+02 -0.15884159220E+02  0.10354364064E+03  0.47000000000E+01 0.  1.
         -5    1    1    2    0  502  0.16148228203E+02 -0.19864832874E+02 -0.56486871627E+02  0.62195124611E+02  0.47000000000E+01 0.  1.
        -11    1    1    2    0    0  0.71353336075E+02  0.19150649575E+02 -0.93676987704E+01  0.74470126416E+02  0.00000000000E+00 0.  1.
         11    1    1    2    0    0  0.84505377359E+01 -0.34500630658E+02 -0.49427442959E+02  0.60866881153E+02  0.00000000000E+00 0. -1.
<mgrwt>
<rscale>  0 0.27100195E+03</rscale>
<asrwt>0</asrwt>
<pdfrwt beam="2">  1        2 0.33249380E-01 0.27100195E+03</pdfrwt>
<pdfrwt beam="1">  1       -2 0.13069969E-01 0.27100195E+03</pdfrwt>
<totfact> 0.66712577E+03</totfact>
</mgrwt>
</event>
<event>
 6    1  0.6101889E-006  0.1566552E+03  0.7546771E-02  0.1199830E+00
         -2   -1    0    0    0  501 -0.00000000000E+00  0.00000000000E+00  0.54246275961E+02  0.54246275961E+02  0.00000000000E+00 0. -1.
          2   -1    0    0  501    0  0.00000000000E+00 -0.00000000000E+00 -0.38809340038E+03  0.38809340038E+03  0.00000000000E+00 0.  1.
          5    1    1    2  502    0  0.89403628846E+01  0.38113414743E+02 -0.10392499961E+02  0.40775685492E+02  0.47000000000E+01 0. -1.
         -5    1    1    2    0  502  0.83202157370E+02 -0.58751175135E+02 -0.16912591944E+03  0.19748409100E+03  0.47000000000E+01 0. -1.
        -11    1    1    2    0    0 -0.14577619868E+02 -0.31839923771E+02 -0.19995241700E+02  0.40324898480E+02  0.00000000000E+00 0. -1.
         11    1    1    2    0    0 -0.77564900387E+02  0.52477684163E+02 -0.13433346332E+03  0.16375500137E+03  0.00000000000E+00 0.  1.
<mgrwt>
<rscale>  0 0.15052422E+03</rscale>
<asrwt>0</asrwt>
<pdfrwt beam="2">  1        2 0.59706677E-01 0.15665522E+03</pdfrwt>
<pdfrwt beam="1">  1       -2 0.83455809E-02 0.15665522E+03</pdfrwt>
<totfact> 0.70352712E+03</totfact>
</mgrwt>
</event>
<event>
 6    1  0.6101889E-006  0.1479607E+03  0.7546771E-02  0.1213940E+00
          1   -1    0    0  501    0  0.00000000000E+00  0.00000000000E+00  0.41820917810E+03  0.41820917810E+03  0.00000000000E+00 0. -1.
         -1   -1    0    0    0  501 -0.00000000000E+00 -0.00000000000E+00 -0.42127907621E+02  0.42127907621E+02  0.00000000000E+00 0.  1.
          5    1    1    2  502    0 -0.36181738006E+02  0.29022276573E+02  0.17577984984E+03  0.18185724157E+03  0.47000000000E+01 0. -1.
         -5    1    1    2    0  502  0.34117776881E+02  0.50109786532E+02  0.20968031094E+02  0.64317662687E+02  0.47000000000E+01 0. -1.
        -11    1    1    2    0    0 -0.23531392747E+02 -0.35804742673E+02  0.20403019173E+02  0.47455128636E+02  0.00000000000E+00 0.  1.
         11    1    1    2    0    0  0.25595353871E+02 -0.43327320431E+02  0.15893037037E+03  0.16670705283E+03  0.00000000000E+00 0. -1.
<mgrwt>
<rscale>  0 0.13954667E+03</rscale>
<asrwt>0</asrwt>
<pdfrwt beam="1">  1        1 0.64339871E-01 0.14796065E+03</pdfrwt>
<pdfrwt beam="2">  1       -1 0.64812168E-02 0.14796065E+03</pdfrwt>
<totfact> 0.65378292E+03</totfact>
</mgrwt>
</event>
<event>
 6    1  0.6101889E-006  0.1136829E+03  0.7546771E-02  0.1262942E+00
          2   -1    0    0  501    0  0.00000000000E+00  0.00000000000E+00  0.65316625127E+03  0.65316625127E+03  0.00000000000E+00 0. -1.
         -2   -1    0    0    0  501 -0.00000000000E+00 -0.00000000000E+00 -0.18011987088E+02  0.18011987088E+02  0.00000000000E+00 0.  1.
          5    1    1    2  502    0 -0.37357930960E+02  0.11588044680E+02  0.28435465756E+03  0.28707065169E+03  0.47000000000E+01 0. -1.
         -5    1    1    2    0  502  0.60743584263E+02  0.21766195913E+01  0.15002036405E+03  0.16193430869E+03  0.47000000000E+01 0.  1.
        -11    1    1    2    0    0  0.20143658582E+02 -0.32354123275E+02  0.14024171238E+03  0.14532822907E+03  0.00000000000E+00 0.  1.
         11    1    1    2    0    0 -0.43529311886E+02  0.18589459004E+02  0.60537530188E+02  0.76845048901E+02  0.00000000000E+00 0. -1.
<mgrwt>
<rscale>  0 0.10872873E+03</rscale>
<asrwt>0</asrwt>
<pdfrwt beam="1">  1        2 0.10048710E+00 0.11368287E+03</pdfrwt>
<pdfrwt beam="2">  1       -2 0.27710754E-02 0.11368287E+03</pdfrwt>
<totfact> 0.20237723E+04</totfact>
</mgrwt>
</event>
<event>
 6    1  0.6101889E-006  0.2350019E+03  0.7546771E-02  0.1125975E+00
          1   -1    0    0  501    0  0.00000000000E+00  0.00000000000E+00  0.30902522639E+03  0.30902522639E+03  0.00000000000E+00 0. -1.
         -1   -1    0    0    0  501 -0.00000000000E+00 -0.00000000000E+00 -0.19085272710E+03  0.19085272710E+03  0.00000000000E+00 0.  1.
          5    1    1    2  502    0 -0.38355235370E+02 -0.46472106172E+02  0.10447873722E+03  0.12070077574E+03  0.47000000000E+01 0.  1.
         -5    1    1    2    0  502  0.11606342808E+02 -0.15071860645E+03  0.44912352829E+02  0.15776569640E+03  0.47000000000E+01 0.  1.
        -11    1    1    2    0    0  0.49187142397E+02  0.52163006897E+02 -0.16854760873E+01  0.71716072782E+02  0.00000000000E+00 0. -1.
         11    1    1    2    0    0 -0.22438249835E+02  0.14502770573E+03 -0.29533114677E+02  0.14969540857E+03  0.00000000000E+00 0.  1.
<mgrwt>
<rscale>  0 0.23094757E+03</rscale>
<asrwt>0</asrwt>
<pdfrwt beam="1">  1        1 0.47542342E-01 0.23500187E+03</pdfrwt>
<pdfrwt beam="2">  1       -1 0.29361958E-01 0.23500187E+03</pdfrwt>
<totfact> 0.89557107E+02</totfact>
</mgrwt>
</event>
<event>
 6    1  0.6101889E-006  0.1446672E+03  0.7546771E-02  0.1216281E+00
         -2   -1    0    0    0  501 -0.00000000000E+00  0.00000000000E+00  0.10450534259E+03  0.10450534259E+03  0.00000000000E+00 0.  1.
          2   -1    0    0  501    0  0.00000000000E+00 -0.00000000000E+00 -0.88936108773E+03  0.88936108773E+03  0.00000000000E+00 0. -1.
          5    1    1    2  502    0 -0.31029971950E+02 -0.32976023391E+01 -0.68612258582E+03  0.68684789154E+03  0.47000000000E+01 0. -1.
         -5    1    1    2    0  502 -0.11653484325E+02 -0.60751479179E+02 -0.16100225056E+03  0.17254089545E+03  0.47000000000E+01 0.  1.
        -11    1    1    2    0    0  0.47407457328E+02  0.31731496987E+02  0.79265037602E+02  0.97659106577E+02  0.00000000000E+00 0.  1.
         11    1    1    2    0    0 -0.47240010527E+01  0.32317584531E+02 -0.16995946360E+02  0.36818536752E+02  0.00000000000E+00 0. -1.
<mgrwt>
<rscale>  0 0.13782867E+03</rscale>
<asrwt>0</asrwt>
<pdfrwt beam="2">  1        2 0.13682479E+00 0.14466720E+03</pdfrwt>
<pdfrwt beam="1">  1       -2 0.16077745E-01 0.14466720E+03</pdfrwt>
<totfact> 0.94569610E+02</totfact>
</mgrwt>
</event>
<event>
 6    1  0.6101889E-006  0.1474705E+03  0.7546771E-02  0.1213843E+00
         -2   -1    0    0    0  501 -0.00000000000E+00  0.00000000000E+00  0.10178763086E+03  0.10178763086E+03  0.00000000000E+00 0.  1.
          2   -1    0    0  501    0  0.00000000000E+00 -0.00000000000E+00 -0.20676894606E+03  0.20676894606E+03  0.00000000000E+00 0. -1.
          5    1    1    2  502    0  0.49581363319E+02  0.71870893098E+02 -0.27082576904E+02  0.91538477347E+02  0.47000000000E+01 0. -1.
         -5    1    1    2    0  502  0.15366326484E+02 -0.30146250323E+02 -0.91583949343E+02  0.97747788597E+02  0.47000000000E+01 0.  1.
        -11    1    1    2    0    0 -0.75954782953E+02 -0.35610430263E+02  0.37842352806E+02  0.92028666528E+02  0.00000000000E+00 0.  1.
         11    1    1    2    0    0  0.11007093150E+02 -0.61142125118E+01 -0.24157141760E+02  0.27241644449E+02  0.00000000000E+00 0. -1.
<mgrwt>
<rscale>  0 0.13961834E+03</rscale>
<asrwt>0</asrwt>
<pdfrwt beam="2">  1        2 0.31810607E-01 0.14747049E+03</pdfrwt>
<pdfrwt beam="1">  1       -2 0.15659636E-01 0.14747049E+03</pdfrwt>
<totfact> 0.50313623E+03</totfact>
</mgrwt>
</event>
<event>
 6    1  0.6101889E-006  0.2453141E+03  0.7546771E-02  0.1116302E+00
         -2   -1    0    0    0  501 -0.00000000000E+00  0.00000000000E+00  0.39354333049E+03  0.39354333049E+03  0.00000000000E+00 0.  1.
          2   -1    0    0  501    0  0.00000000000E+00 -0.00000000000E+00 -0.38228969353E+02  0.38228969353E+02  0.00000000000E+00 0. -1.
          5    1    1    2  502    0  0.39304519374E+02 -0.56370178237E+02  0.32023206538E+02  0.75960634507E+02  0.47000000000E+01 0.  1.
         -5    1    1    2    0  502 -0.66832785313E+01  0.86515528104E+01  0.15941787186E+03  0.15986138823E+03  0.47000000000E+01 0.  1.
        -11    1    1    2    0    0  0.43496326579E+01  0.55830869038E+02  0.47028671928E+02  0.73127978402E+02  0.00000000000E+00 0. -1.
         11    1    1    2    0    0 -0.36970873500E+02 -0.81122436109E+01  0.11684461081E+03  0.12282229871E+03  0.00000000000E+00 0.  1.
<mgrwt>
<rscale>  0 0.24531413E+03</rscale>
<asrwt>0</asrwt>
<pdfrwt beam="2">  1        2 0.58813802E-02 0.24531413E+03</pdfrwt>
<pdfrwt beam="1">  1       -2 0.60545125E-01 0.24531413E+03</pdfrwt>
<totfact> 0.32607229E+03</totfact>
</mgrwt>
</event>
<event>
 6    1  0.6101889E-006  0.1271605E+03  0.7546771E-02  0.1245734E+00
         -1   -1    0    0    0  501 -0.00000000000E+00  0.00000000000E+00  0.13363606175E+03  0.13363606175E+03  0.00000000000E+00 0.  1.
          1   -1    0    0  501    0  0.00000000000E+00 -0.00000000000E+00 -0.97754742458E+02  0.97754742458E+02  0.00000000000E+00 0. -1.
          5    1    1    2  502    0 -0.26310131075E+02  0.53594380785E+02 -0.30611130605E+02  0.67258545671E+02  0.47000000000E+01 0.  1.
         -5    1    1    2    0  502  0.29563575108E+01 -0.54133949368E+02  0.25302389709E+02  0.60012710728E+02  0.47000000000E+01 0.  1.
        -11    1    1    2    0    0 -0.19163739906E+02  0.10964636009E+02  0.54138733356E+02  0.58467722885E+02  0.00000000000E+00 0.  1.
         11    1    1    2    0    0  0.42517513470E+02 -0.10425067425E+02 -0.12948673164E+02  0.45651824927E+02  0.00000000000E+00 0. -1.
<mgrwt>
<rscale>  0 0.11841527E+03</rscale>
<asrwt>0</asrwt>
<pdfrwt beam="2">  1        1 0.15039191E-01 0.12716049E+03</pdfrwt>
<pdfrwt beam="1">  1       -1 0.20559394E-01 0.12716049E+03</pdfrwt>
<totfact> 0.67506335E+03</totfact>
</mgrwt>
</event>
<event>
 6    1  0.6101889E-006  0.1168537E+03  0.7546771E-02  0.1260529E+00
          3   -1    0    0  501    0  0.00000000000E+00  0.00000000000E+00  0.12502719870E+03  0.12502719870E+03  0.00000000000E+00 0. -1.
         -3   -1    0    0    0  501 -0.00000000000E+00 -0.00000000000E+00 -0.11741983369E+03  0.11741983369E+03  0.00000000000E+00 0.  1.
          5    1    1    2  502    0 -0.65188007840E+01  0.62394005248E+02  0.14849742816E+02  0.64638313068E+02  0.47000000000E+01 0. -1.
         -5    1    1    2    0  502 -0.71387107555E+01 -0.46574046670E+02  0.50582429664E+02  0.69287626639E+02  0.47000000000E+01 0.  1.
        -11    1    1    2    0    0 -0.37564372610E+02 -0.14489225487E+02 -0.20899230352E+02  0.45362953763E+02  0.00000000000E+00 0. -1.
         11    1    1    2    0    0  0.51221884150E+02 -0.13307330906E+01 -0.36925577122E+02  0.63158138923E+02  0.00000000000E+00 0.  1.
<mgrwt>
<rscale>  0 0.11002222E+03</rscale>
<asrwt>0</asrwt>
<pdfrwt beam="1">  1        3 0.19234954E-01 0.11685370E+03</pdfrwt>
<pdfrwt beam="2">  1       -3 0.18064590E-01 0.11685370E+03</pdfrwt>
<totfact> 0.14467818E+03</totfact>
</mgrwt>
</event>
<event>
 6    1  0.6101889E-006  0.1340852E+03  0.7546771E-02  0.1229250E+00
         -1   -1    0    0    0  501 -0.00000000000E+00  0.00000000000E+00  0.28314541995E+02  0.28314541995E+02  0.00000000000E+00 0.  1.
          1   -1    0    0  501    0  0.00000000000E+00 -0.00000000000E+00 -0.57611970149E+03  0.57611970149E+03  0.00000000000E+00 0. -1.
          5    1    1    2  502    0 -0.33220249285E+02  0.24883560580E+02 -0.10428065673E+03  0.11233575529E+03  0.47000000000E+01 0. -1.
         -5    1    1    2    0  502  0.10603564109E+02 -0.91372943068E+02 -0.26142710971E+03  0.27717805467E+03  0.47000000000E+01 0.  1.
        -11    1    1    2    0    0  0.45215851199E+02  0.70960179865E+02 -0.10556233498E+03  0.13499343277E+03  0.00000000000E+00 0. -1.
         11    1    1    2    0    0 -0.22599166024E+02 -0.44707973757E+01 -0.76535058079E+02  0.79927000753E+02  0.00000000000E+00 0.  1.
<mgrwt>
<rscale>  0 0.12879803E+03</rscale>
<asrwt>0</asrwt>
<pdfrwt beam="2">  1        1 0.88633793E-01 0.13408519E+03</pdfrwt>
<pdfrwt beam="1">  1       -1 0.43560837E-02 0.13408519E+03</pdfrwt>
<totfact> 0.77202591E+03</totfact>
</mgrwt>
</event>
<event>
 6    1  0.6101889E-006  0.2015148E+03  0.7546771E-02  0.1152983E+00
         -4   -1    0    0    0  501 -0.00000000000E+00  0.00000000000E+00  0.47494413471E+03  0.47494413471E+03  0.00000000000E+00 0.  1.
          4   -1    0    0  501    0  0.00000000000E+00 -0.00000000000E+00 -0.10305209816E+03  0.10305209816E+03  0.00000000000E+00 0. -1.
          5    1    1    2  502    0 -0.72007434564E+02 -0.77211746173E+00 -0.11963138892E+02  0.73149665003E+02  0.47000000000E+01 0.  1.
         -5    1    1    2    0  502 -0.36829633840E+02 -0.11384750442E+03  0.60333364821E+02  0.13408907898E+03  0.47000000000E+01 0.  1.
        -11    1    1    2    0    0  0.56484966024E+02  0.46345794304E+02  0.23989979436E+03  0.25077957527E+03  0.00000000000E+00 0.  1.
         11    1    1    2    0    0  0.52352102380E+02  0.68273827574E+02  0.83622016256E+02  0.11997791363E+03  0.00000000000E+00 0. -1.
<mgrwt>
<rscale>  0 0.19620306E+03</rscale>
<asrwt>0</asrwt>
<pdfrwt beam="2">  1        4 0.15854169E-01 0.20151481E+03</pdfrwt>
<pdfrwt beam="1">  1       -4 0.73068327E-01 0.20151481E+03</pdfrwt>
<totfact> 0.10558302E+02</totfact>
</mgrwt>
</event>
<event>
 6    1  0.6101889E-006  0.2398143E+03  0.7546771E-02  0.1122272E+00
          2   -1    0    0  501    0  0.00000000000E+00  0.00000000000E+00  0.16230683376E+04  0.16230683376E+04  0.00000000000E+00 0. -1.
         -2   -1    0    0    0  501 -0.00000000000E+00 -0.00000000000E+00 -0.36384306522E+02  0.36384306522E+02  0.00000000000E+00 0.  1.
          5    1    1    2  502    0 -0.79936325074E+02 -0.81126724808E+02  0.41620616238E+03  0.43153333724E+03  0.47000000000E+01 0. -1.
         -5    1    1    2    0  502  0.32349923546E+02 -0.11792524482E+03  0.63453870443E+03  0.64623087078E+03  0.47000000000E+01 0. -1.
        -11    1    1    2    0    0 -0.12918707249E+02  0.14302135185E+03  0.34648850519E+03  0.37506837285E+03  0.00000000000E+00 0. -1.
         11    1    1    2    0    0  0.60505108776E+02  0.56030617777E+02  0.18945065903E+03  0.20662006322E+03  0.00000000000E+00 0.  1.
<mgrwt>
<rscale>  0 0.23631512E+03</rscale>
<asrwt>0</asrwt>
<pdfrwt beam="1">  1        2 0.24970276E+00 0.23981433E+03</pdfrwt>
<pdfrwt beam="2">  1       -2 0.55975869E-02 0.23981433E+03</pdfrwt>
<totfact> 0.19346448E+03</totfact>
</mgrwt>
</event>
<event>
 6    1  0.6101889E-006  0.2951212E+03  0.7546771E-02  0.1122288E+00
         -2   -1    0    0    0  501 -0.00000000000E+00  0.00000000000E+00  0.46213480309E+02  0.46213480309E+02  0.00000000000E+00 0.  1.
          2   -1    0    0  501    0  0.00000000000E+00 -0.00000000000E+00 -0.22137903390E+04  0.22137903390E+04  0.00000000000E+00 0. -1.
          5    1    1    2  502    0 -0.19031718348E+02  0.55888431439E+02 -0.19301920741E+04  0.19311005297E+04  0.47000000000E+01 0. -1.
         -5    1    1    2    0  502  0.84165660726E+02 -0.45166361520E+01 -0.17085508349E+03  0.19057231698E+03  0.47000000000E+01 0.  1.
        -11    1    1    2    0    0 -0.10836375415E+02  0.25176502962E+02 -0.16145433388E+02  0.31811292851E+02  0.00000000000E+00 0. -1.
         11    1    1    2    0    0 -0.54297566963E+02 -0.76548298249E+02 -0.50384267783E+02  0.10651967979E+03  0.00000000000E+00 0.  1.
<mgrwt>
<rscale>  0 0.23629206E+03</rscale>
<asrwt>0</asrwt>
<pdfrwt beam="2">  1        2 0.34058306E+00 0.29512118E+03</pdfrwt>
<pdfrwt beam="1">  1       -2 0.71097677E-02 0.29512118E+03</pdfrwt>
<totfact> 0.64902959E+02</totfact>
</mgrwt>
</event>
<event>
 6    1  0.6101889E-006  0.1298030E+03  0.7546771E-02  0.1242553E+00
          1   -1    0    0  501    0  0.00000000000E+00  0.00000000000E+00  0.80836845144E+03  0.80836845144E+03  0.00000000000E+00 0. -1.
         -1   -1    0    0    0  501 -0.00000000000E+00 -0.00000000000E+00 -0.15772698617E+02  0.15772698617E+02  0.00000000000E+00 0.  1.
          5    1    1    2  502    0  0.34922573014E+02 -0.32517280192E+02  0.85322338813E+02  0.97872116139E+02  0.47000000000E+01 0.  1.
         -5    1    1    2    0  502 -0.13881833724E+02  0.60530304924E+02  0.38624211691E+03  0.39123098804E+03  0.47000000000E+01 0.  1.
        -11    1    1    2    0    0 -0.22931372436E+02 -0.58146016338E+02  0.17264501599E+03  0.18361129759E+03  0.00000000000E+00 0.  1.
         11    1    1    2    0    0  0.18906331463E+01  0.30132991606E+02  0.14838628110E+03  0.15142674829E+03  0.00000000000E+00 0. -1.
<mgrwt>
<rscale>  0 0.12033012E+03</rscale>
<asrwt>0</asrwt>
<pdfrwt beam="1">  1        1 0.12436434E+00 0.12980297E+03</pdfrwt>
<pdfrwt beam="2">  1       -1 0.24265697E-02 0.12980297E+03</pdfrwt>
<totfact> 0.11182928E+04</totfact>
</mgrwt>
</event>
<event>
 6    1  0.9043832E-006  0.2225100E+03  0.7546771E-02  0.1135286E+00
         -1   -1    0    0    0  501 -0.00000000000E+00  0.00000000000E+00  0.33045102865E+02  0.33045102865E+02  0.00000000000E+00 0.  1.
          1   -1    0    0  501    0  0.00000000000E+00 -0.00000000000E+00 -0.16685920219E+04  0.16685920219E+04  0.00000000000E+00 0. -1.
          5    1    1    2  502    0 -0.14091747414E+02 -0.11571848789E+03 -0.37576442200E+03  0.39345944724E+03  0.47000000000E+01 0. -1.
         -5    1    1    2    0  502  0.40094722153E+01 -0.68086723396E+02 -0.81897917382E+03  0.82182775258E+03  0.47000000000E+01 0. -1.
        -11    1    1    2    0    0  0.29705799019E+02  0.17612962726E+03 -0.34774259997E+03  0.39093349297E+03  0.00000000000E+00 0.  1.
         11    1    1    2    0    0 -0.19623523820E+02  0.76755840177E+01 -0.93060723280E+02  0.95416431994E+02  0.00000000000E+00 0. -1.
<mgrwt>
<rscale>  0 0.21812887E+03</rscale>
<asrwt>0</asrwt>
<pdfrwt beam="2">  1        1 0.25670658E+00 0.22251004E+03</pdfrwt>
<pdfrwt beam="1">  1       -1 0.50838597E-02 0.22251004E+03</pdfrwt>
<totfact> 0.95529696E+02</totfact>
</mgrwt>
</event>
<event>
 6    1  0.6101889E-006  0.1404637E+03  0.7546771E-02  0.1226152E+00
         -2   -1    0    0    0  501 -0.00000000000E+00  0.00000000000E+00  0.94930602241E+02  0.94930602241E+02  0.00000000000E+00 0.  1.
          2   -1    0    0  501    0  0.00000000000E+00 -0.00000000000E+00 -0.16755807982E+03  0.16755807982E+03  0.00000000000E+00 0. -1.
          5    1    1    2  502    0 -0.24161284034E+02  0.28764193036E+02 -0.71557132336E+02  0.80954676426E+02  0.47000000000E+01 0. -1.
         -5    1    1    2    0  502  0.74644623802E+02  0.10672912499E+02  0.24477096728E+01  0.75589762577E+02  0.47000000000E+01 0. -1.
        -11    1    1    2    0    0 -0.65060652034E+01 -0.48151885257E+02  0.23104625627E+02  0.53802942889E+02  0.00000000000E+00 0. -1.
         11    1    1    2    0    0 -0.43977274565E+02  0.87147797220E+01 -0.26622680540E+02  0.52141300166E+02  0.00000000000E+00 0.  1.
<mgrwt>
<rscale>  0 0.13088278E+03</rscale>
<asrwt>0</asrwt>
<pdfrwt beam="2">  1        2 0.25778166E-01 0.14046369E+03</pdfrwt>
<pdfrwt beam="1">  1       -2 0.14604708E-01 0.14046369E+03</pdfrwt>
<totfact> 0.70707514E+03</totfact>
</mgrwt>
</event>
<event>
 6    1  0.6101889E-006  0.1313001E+03  0.7546771E-02  0.1241092E+00
          2   -1    0    0  501    0  0.00000000000E+00  0.00000000000E+00  0.16574951565E+03  0.16574951565E+03  0.00000000000E+00 0. -1.
         -2   -1    0    0    0  501 -0.00000000000E+00 -0.00000000000E+00 -0.10247592394E+03  0.10247592394E+03  0.00000000000E+00 0.  1.
          5    1    1    2  502    0  0.69904134042E+02  0.27644541061E+01  0.72983279628E+02  0.10120711076E+03  0.47000000000E+01 0. -1.
         -5    1    1    2    0  502 -0.48564725603E+02  0.31420269421E+02  0.27999055980E+02  0.64434486412E+02  0.47000000000E+01 0. -1.
        -11    1    1    2    0    0 -0.24728368549E+02  0.10174768132E+02 -0.49761863072E+02  0.56491248296E+02  0.00000000000E+00 0.  1.
         11    1    1    2    0    0  0.33889601099E+01 -0.44359491659E+02  0.12053119173E+02  0.46092594119E+02  0.00000000000E+00 0. -1.
<mgrwt>
<rscale>  0 0.12122377E+03</rscale>
<asrwt>0</asrwt>
<pdfrwt beam="1">  1        2 0.25499925E-01 0.13130006E+03</pdfrwt>
<pdfrwt beam="2">  1       -2 0.15765527E-01 0.13130006E+03</pdfrwt>
<totfact> 0.62850795E+03</totfact>
</mgrwt>
</event>
<event>
 6    1  0.6101889E-006  0.1393607E+03  0.7546771E-02  0.1224909E+00
         -1   -1    0    0    0  501 -0.00000000000E+00  0.00000000000E+00  0.17164756990E+02  0.17164756990E+02  0.00000000000E+00 0.  1.
          1   -1    0    0  501    0  0.00000000000E+00 -0.00000000000E+00 -0.92587320404E+03  0.92587320404E+03  0.00000000000E+00 0. -1.
          5    1    1    2  502    0 -0.59035730872E+02 -0.32157903603E+02 -0.15201704826E+03  0.16628475951E+03  0.47000000000E+01 0. -1.
         -5    1    1    2    0  502 -0.36331791115E+00  0.48551493374E+02 -0.40386065423E+03  0.40679589175E+03  0.47000000000E+01 0. -1.
        -11    1    1    2    0    0  0.54481424389E+01 -0.48007631212E+02 -0.13815768913E+03  0.14636243362E+03  0.00000000000E+00 0.  1.
         11    1    1    2    0    0  0.53950906344E+02  0.31614041441E+02 -0.21467305544E+03  0.22359487616E+03  0.00000000000E+00 0. -1.
<mgrwt>
<rscale>  0 0.13173175E+03</rscale>
<asrwt>0</asrwt>
<pdfrwt beam="2">  1        1 0.14244202E+00 0.13936073E+03</pdfrwt>
<pdfrwt beam="1">  1       -1 0.26407320E-02 0.13936073E+03</pdfrwt>
<totfact> 0.80366219E+03</totfact>
</mgrwt>
</event>
<event>
 6    1  0.6101889E-006  0.1383804E+03  0.7546771E-02  0.1227138E+00
         -2   -1    0    0    0  501 -0.00000000000E+00  0.00000000000E+00  0.13021134847E+03  0.13021134847E+03  0.00000000000E+00 0.  1.
          2   -1    0    0  501    0  0.00000000000E+00 -0.00000000000E+00 -0.14715815697E+03  0.14715815697E+03  0.00000000000E+00 0. -1.
          5    1    1    2  502    0  0.15071477228E+02 -0.50023900651E+02 -0.54970282458E+02  0.75982642858E+02  0.47000000000E+01 0. -1.
         -5    1    1    2    0  502 -0.71400252862E+02  0.31284298267E+02 -0.16716598631E+02  0.79863872287E+02  0.47000000000E+01 0. -1.
        -11    1    1    2    0    0  0.25882052843E+02  0.13006605822E+02 -0.23546079356E+02  0.37329215200E+02  0.00000000000E+00 0. -1.
         11    1    1    2    0    0  0.30446722791E+02  0.57329965619E+01  0.78286151950E+02  0.84193775099E+02  0.00000000000E+00 0.  1.
<mgrwt>
<rscale>  0 0.13021446E+03</rscale>
<asrwt>0</asrwt>
<pdfrwt beam="2">  1        2 0.22639716E-01 0.13838037E+03</pdfrwt>
<pdfrwt beam="1">  1       -2 0.20032515E-01 0.13838037E+03</pdfrwt>
<totfact> 0.48265838E+03</totfact>
</mgrwt>
</event>
<event>
 6    1  0.6101889E-006  0.1329282E+03  0.7546771E-02  0.1239084E+00
          2   -1    0    0  501    0  0.00000000000E+00  0.00000000000E+00  0.12601671299E+03  0.12601671299E+03  0.00000000000E+00 0. -1.
         -2   -1    0    0    0  501 -0.00000000000E+00 -0.00000000000E+00 -0.10570247025E+03  0.10570247025E+03  0.00000000000E+00 0.  1.
          5    1    1    2  502    0  0.24221120522E+02  0.49237817594E+02  0.21884235215E+01  0.55117189318E+02  0.47000000000E+01 0.  1.
         -5    1    1    2    0  502  0.11763613620E+02 -0.76597460409E+02 -0.59230229096E+01  0.77863507157E+02  0.47000000000E+01 0.  1.
        -11    1    1    2    0    0 -0.36910955307E+02 -0.72058174595E+01 -0.20114521213E+02  0.42648990499E+02  0.00000000000E+00 0.  1.
         11    1    1    2    0    0  0.92622116545E+00  0.34565460274E+02  0.44163363342E+02  0.56089496265E+02  0.00000000000E+00 0. -1.
<mgrwt>
<rscale>  0 0.12246576E+03</rscale>
<asrwt>0</asrwt>
<pdfrwt beam="1">  1        2 0.19387187E-01 0.13292825E+03</pdfrwt>
<pdfrwt beam="2">  1       -2 0.16261919E-01 0.13292825E+03</pdfrwt>
<totfact> 0.81177630E+03</totfact>
</mgrwt>
</event>
<event>
 6    1  0.6101889E-006  0.1287219E+03  0.7546771E-02  0.1244329E+00
         -2   -1    0    0    0  501 -0.00000000000E+00  0.00000000000E+00  0.25932115544E+02  0.25932115544E+02  0.00000000000E+00 0.  1.
          2   -1    0    0  501    0  0.00000000000E+00 -0.00000000000E+00 -0.55029615278E+03  0.55029615278E+03  0.00000000000E+00 0. -1.
          5    1    1    2  502    0  0.25644420611E+02  0.13760595612E+02 -0.17743830299E+02  0.34408193992E+02  0.47000000000E+01 0. -1.
         -5    1    1    2    0  502 -0.28241752260E+02 -0.44378254569E+02 -0.37984346226E+03  0.38349729057E+03  0.47000000000E+01 0. -1.
        -11    1    1    2    0    0 -0.69017025573E+01 -0.25002998887E+02 -0.82847206760E+02  0.86812689853E+02  0.00000000000E+00 0. -1.
         11    1    1    2    0    0  0.94990342064E+01  0.55620657844E+02 -0.43929537915E+02  0.71510093912E+02  0.00000000000E+00 0.  1.
<mgrwt>
<rscale>  0 0.11925651E+03</rscale>
<asrwt>0</asrwt>
<pdfrwt beam="2">  1        2 0.84660934E-01 0.12872194E+03</pdfrwt>
<pdfrwt beam="1">  1       -2 0.39895568E-02 0.12872194E+03</pdfrwt>
<totfact> 0.14526216E+04</totfact>
</mgrwt>
</event>
<event>
 6    1  0.6101889E-006  0.1291537E+03  0.7546771E-02  0.1242942E+00
          1   -1    0    0  501    0  0.00000000000E+00  0.00000000000E+00  0.23698979034E+03  0.23698979034E+03  0.00000000000E+00 0. -1.
         -1   -1    0    0    0  501 -0.00000000000E+00 -0.00000000000E+00 -0.55825603459E+02  0.55825603459E+02  0.00000000000E+00 0.  1.
          5    1    1    2  502    0 -0.34288860122E+02 -0.33569076765E+02  0.42785109145E+02  0.64461340414E+02  0.47000000000E+01 0. -1.
         -5    1    1    2    0  502  0.56587406652E+02  0.57209540733E+02  0.88401746655E+02  0.11963287573E+03  0.47000000000E+01 0. -1.
        -11    1    1    2    0    0 -0.22028501767E+02  0.20235514620E+02  0.56917600482E+02  0.64298866138E+02  0.00000000000E+00 0. -1.
         11    1    1    2    0    0 -0.27004476333E+00 -0.43875978588E+02 -0.69402694042E+01  0.44422311519E+02  0.00000000000E+00 0.  1.
<mgrwt>
<rscale>  0 0.12009423E+03</rscale>
<asrwt>0</asrwt>
<pdfrwt beam="1">  1        1 0.36459967E-01 0.12915374E+03</pdfrwt>
<pdfrwt beam="2">  1       -1 0.85885545E-02 0.12915374E+03</pdfrwt>
<totfact> 0.86022554E+03</totfact>
</mgrwt>
</event>
<event>
 6    1  0.6101889E-006  0.1362643E+03  0.7546771E-02  0.1232592E+00
          1   -1    0    0  501    0  0.00000000000E+00  0.00000000000E+00  0.10039540322E+04  0.10039540322E+04  0.00000000000E+00 0. -1.
         -1   -1    0    0    0  501 -0.00000000000E+00 -0.00000000000E+00 -0.16424482672E+02  0.16424482672E+02  0.00000000000E+00 0.  1.
          5    1    1    2  502    0  0.17113174403E+02 -0.75827301414E+02  0.51167237560E+03  0.51756482717E+03  0.47000000000E+01 0. -1.
         -5    1    1    2    0  502 -0.46269285820E+02  0.30077539660E+02  0.23491157573E+03  0.24135252974E+03  0.47000000000E+01 0. -1.
        -11    1    1    2    0    0 -0.14619387905E+02  0.36812631192E+02  0.18826102804E+03  0.19238272010E+03  0.00000000000E+00 0. -1.
         11    1    1    2    0    0  0.43775499322E+02  0.89371305623E+01  0.52684570214E+02  0.69078437896E+02  0.00000000000E+00 0.  1.
<mgrwt>
<rscale>  0 0.12659860E+03</rscale>
<asrwt>0</asrwt>
<pdfrwt beam="1">  1        1 0.15445442E+00 0.13626430E+03</pdfrwt>
<pdfrwt beam="2">  1       -1 0.25268443E-02 0.13626430E+03</pdfrwt>
<totfact> 0.74860659E+03</totfact>
</mgrwt>
</event>
<event>
 6    1  0.6101889E-006  0.1842314E+03  0.7546771E-02  0.1168971E+00
         -3   -1    0    0    0  501 -0.00000000000E+00  0.00000000000E+00  0.66111562322E+03  0.66111562322E+03  0.00000000000E+00 0. -1.
          3   -1    0    0  501    0  0.00000000000E+00 -0.00000000000E+00 -0.48038794539E+02  0.48038794539E+02  0.00000000000E+00 0.  1.
          5    1    1    2  502    0  0.58705900637E+02 -0.23438037684E+02  0.15810664507E+03  0.17033944227E+03  0.47000000000E+01 0.  1.
         -5    1    1    2    0  502  0.61947052880E+02  0.84766317530E+02  0.87921771932E+02  0.13702223881E+03  0.47000000000E+01 0.  1.
        -11    1    1    2    0    0 -0.30605243966E+02 -0.39268771572E+02  0.23643938134E+03  0.24162429189E+03  0.00000000000E+00 0. -1.
         11    1    1    2    0    0 -0.90047709550E+02 -0.22059508274E+02  0.13060903034E+03  0.16016844479E+03  0.00000000000E+00 0.  1.
<mgrwt>
<rscale>  0 0.17879808E+03</rscale>
<asrwt>0</asrwt>
<pdfrwt beam="2">  1        3 0.73905843E-02 0.18423143E+03</pdfrwt>
<pdfrwt beam="1">  1       -3 0.10171009E+00 0.18423143E+03</pdfrwt>
<totfact> 0.25583754E+02</totfact>
</mgrwt>
</event>
<event>
 6    1  0.6101889E-006  0.1384360E+03  0.7546771E-02  0.1226423E+00
          1   -1    0    0  501    0  0.00000000000E+00  0.00000000000E+00  0.33286628091E+03  0.33286628091E+03  0.00000000000E+00 0. -1.
         -1   -1    0    0    0  501 -0.00000000000E+00 -0.00000000000E+00 -0.20724733123E+03  0.20724733123E+03  0.00000000000E+00 0.  1.
          5    1    1    2  502    0  0.80777147967E+02 -0.40003789954E+02  0.25573930305E+03  0.27120090702E+03  0.47000000000E+01 0.  1.
         -5    1    1    2    0  502 -0.21712746210E+02  0.33012025219E+02  0.46279472397E+02  0.61033734298E+02  0.47000000000E+01 0.  1.
        -11    1    1    2    0    0 -0.18717221787E+02 -0.85799226632E+01  0.51703698620E+01  0.21229276692E+02  0.00000000000E+00 0. -1.
         11    1    1    2    0    0 -0.40347179970E+02  0.15571687398E+02 -0.18157019563E+03  0.18664969414E+03  0.00000000000E+00 0.  1.
<mgrwt>
<rscale>  0 0.13069843E+03</rscale>
<asrwt>0</asrwt>
<pdfrwt beam="1">  1        1 0.51210197E-01 0.13843596E+03</pdfrwt>
<pdfrwt beam="2">  1       -1 0.31884205E-01 0.13843596E+03</pdfrwt>
<totfact> 0.70721242E+02</totfact>
</mgrwt>
</event>
<event>
 6    1  0.6101889E-006  0.1812738E+03  0.7546771E-02  0.1171772E+00
          2   -1    0    0  501    0  0.00000000000E+00  0.00000000000E+00  0.10559845347E+04  0.10559845347E+04  0.00000000000E+00 0.  1.
         -2   -1    0    0    0  501 -0.00000000000E+00 -0.00000000000E+00 -0.28119625744E+02  0.28119625744E+02  0.00000000000E+00 0. -1.
          5    1    1    2  502    0  0.11386251683E+03 -0.41832436284E+02  0.56200901579E+03  0.57497030297E+03  0.47000000000E+01 0.  1.
         -5    1    1    2    0  502  0.17087409989E+02  0.33371272893E+02  0.46231556332E+02  0.59708192365E+02  0.47000000000E+01 0.  1.
        -11    1    1    2    0    0 -0.13984107557E+03 -0.10240806694E+01  0.41015956683E+03  0.43334448816E+03  0.00000000000E+00 0. -1.
         11    1    1    2    0    0  0.88911487505E+01  0.94852440607E+01  0.94647700056E+01  0.16081176955E+02  0.00000000000E+00 0.  1.
<mgrwt>
<rscale>  0 0.17595895E+03</rscale>
<asrwt>0</asrwt>
<pdfrwt beam="1">  1        2 0.16245913E+00 0.18127382E+03</pdfrwt>
<pdfrwt beam="2">  1       -2 0.43260971E-02 0.18127382E+03</pdfrwt>
<totfact> 0.58378791E+03</totfact>
</mgrwt>
</event>
<event>
 6    1  0.6101889E-006  0.1346627E+03  0.7546771E-02  0.1233152E+00
          1   -1    0    0  501    0  0.00000000000E+00  0.00000000000E+00  0.38697959793E+02  0.38697959793E+02  0.00000000000E+00 0. -1.
         -1   -1    0    0    0  501 -0.00000000000E+00 -0.00000000000E+00 -0.36812360051E+03  0.36812360051E+03  0.00000000000E+00 0.  1.
          5    1    1    2  502    0 -0.89343175200E+00 -0.27358217019E+02  0.10274168925E+02  0.29612814893E+02  0.47000000000E+01 0. -1.
         -5    1    1    2    0  502  0.42202210564E+02 -0.97643534872E+00 -0.19157987610E+03  0.19623179897E+03  0.47000000000E+01 0. -1.
        -11    1    1    2    0    0 -0.37952883662E+02 -0.27290790938E+02 -0.52432410561E+02  0.70245044846E+02  0.00000000000E+00 0. -1.
         11    1    1    2    0    0 -0.33558951497E+01  0.55625443306E+02 -0.95687522985E+02  0.11073190159E+03  0.00000000000E+00 0.  1.
<mgrwt>
<rscale>  0 0.12623488E+03</rscale>
<asrwt>0</asrwt>
<pdfrwt beam="1">  1        1 0.59535322E-02 0.13466265E+03</pdfrwt>
<pdfrwt beam="2">  1       -1 0.56634401E-01 0.13466265E+03</pdfrwt>
<totfact> 0.40624742E+03</totfact>
</mgrwt>
</event>
<event>
 6    1  0.6101889E-006  0.2057669E+03  0.7546771E-02  0.1149263E+00
         -1   -1    0    0    0  501 -0.00000000000E+00  0.00000000000E+00  0.77462734357E+03  0.77462734357E+03  0.00000000000E+00 0.  1.
          1   -1    0    0  501    0  0.00000000000E+00 -0.00000000000E+00 -0.56030295578E+02  0.56030295578E+02  0.00000000000E+00 0. -1.
          5    1    1    2  502    0 -0.66639185384E+02 -0.14121710201E+02  0.34551838675E+02  0.76525311391E+02  0.47000000000E+01 0. -1.
         -5    1    1    2    0  502 -0.23580387623E+02 -0.12216545322E+03  0.19899177610E+03  0.23473442354E+03  0.47000000000E+01 0. -1.
        -11    1    1    2    0    0  0.46406239104E+02  0.10249358510E+03  0.20418265298E+03  0.23312878371E+03  0.00000000000E+00 0. -1.
         11    1    1    2    0    0  0.43813333903E+02  0.33793578320E+02  0.28087078023E+03  0.28626912050E+03  0.00000000000E+00 0.  1.
<mgrwt>
<rscale>  0 0.20056484E+03</rscale>
<asrwt>0</asrwt>
<pdfrwt beam="2">  1        1 0.86200460E-02 0.20576686E+03</pdfrwt>
<pdfrwt beam="1">  1       -1 0.11917343E+00 0.20576686E+03</pdfrwt>
<totfact> 0.52759346E+02</totfact>
</mgrwt>
</event>
<event>
 6    1  0.6101889E-006  0.2421451E+03  0.7546771E-02  0.1118372E+00
          2   -1    0    0  501    0  0.00000000000E+00  0.00000000000E+00  0.23979773701E+03  0.23979773701E+03  0.00000000000E+00 0. -1.
         -2   -1    0    0    0  501 -0.00000000000E+00 -0.00000000000E+00 -0.61128838637E+02  0.61128838637E+02  0.00000000000E+00 0.  1.
          5    1    1    2  502    0 -0.38339207868E+02  0.70943059288E+01  0.14908627351E+02  0.42006918550E+02  0.47000000000E+01 0.  1.
         -5    1    1    2    0  502  0.87360979723E+02 -0.28207720627E+02  0.10162455152E+03  0.13703012717E+03  0.47000000000E+01 0.  1.
        -11    1    1    2    0    0 -0.75580392547E+01  0.52203261152E+02  0.26808395372E+02  0.59169202248E+02  0.00000000000E+00 0.  1.
         11    1    1    2    0    0 -0.41463732600E+02 -0.31089846454E+02  0.35327324124E+02  0.62720327673E+02  0.00000000000E+00 0. -1.
<mgrwt>
<rscale>  0 0.24214506E+03</rscale>
<asrwt>0</asrwt>
<pdfrwt beam="1">  1        2 0.36891959E-01 0.24214506E+03</pdfrwt>
<pdfrwt beam="2">  1       -2 0.94044368E-02 0.24214506E+03</pdfrwt>
<totfact> 0.10048720E+04</totfact>
</mgrwt>
</event>
<event>
 6    1  0.6101889E-006  0.1435848E+03  0.7546771E-02  0.1225705E+00
         -2   -1    0    0    0  501 -0.00000000000E+00  0.00000000000E+00  0.61341330436E+02  0.61341330436E+02  0.00000000000E+00 0.  1.
          2   -1    0    0  501    0  0.00000000000E+00 -0.00000000000E+00 -0.24331215697E+03  0.24331215697E+03  0.00000000000E+00 0. -1.
          5    1    1    2  502    0  0.26491511895E+02 -0.70167544995E+02 -0.45152271690E+02  0.87670418111E+02  0.47000000000E+01 0. -1.
         -5    1    1    2    0  502 -0.53871021796E+02  0.41534278136E+02 -0.50687571008E+02  0.84961774372E+02  0.47000000000E+01 0.  1.
        -11    1    1    2    0    0 -0.30995495658E+02  0.17973917492E+02 -0.13636410834E+02  0.38337112065E+02  0.00000000000E+00 0.  1.
         11    1    1    2    0    0  0.58375005559E+02  0.10659349367E+02 -0.72494573000E+02  0.93684182855E+02  0.00000000000E+00 0. -1.
<mgrwt>
<rscale>  0 0.13118720E+03</rscale>
<asrwt>0</asrwt>
<pdfrwt beam="2">  1        2 0.37432639E-01 0.14358481E+03</pdfrwt>
<pdfrwt beam="1">  1       -2 0.94371278E-02 0.14358481E+03</pdfrwt>
<totfact> 0.94950014E+03</totfact>
</mgrwt>
</event>
<event>
 6    1  0.6101889E-006  0.1357681E+03  0.7546771E-02  0.1231606E+00
          1   -1    0    0  501    0  0.00000000000E+00  0.00000000000E+00  0.19897891820E+03  0.19897891820E+03  0.00000000000E+00 0. -1.
         -1   -1    0    0    0  501 -0.00000000000E+00 -0.00000000000E+00 -0.81476237491E+02  0.81476237491E+02  0.00000000000E+00 0.  1.
          5    1    1    2  502    0 -0.45616565372E+01 -0.15960595481E+02  0.12022662454E+03  0.12145814327E+03  0.47000000000E+01 0. -1.
         -5    1    1    2    0  502  0.52760827721E+02 -0.60515371578E+01 -0.89811468896E+01  0.54065488467E+02  0.47000000000E+01 0. -1.
        -11    1    1    2    0    0  0.11481272211E+02 -0.71020907969E+01  0.31202065708E+02  0.33997473578E+02  0.00000000000E+00 0. -1.
         11    1    1    2    0    0 -0.59680443395E+02  0.29114223436E+02 -0.24944862648E+02  0.70934050375E+02  0.00000000000E+00 0.  1.
<mgrwt>
<rscale>  0 0.12724230E+03</rscale>
<asrwt>0</asrwt>
<pdfrwt beam="1">  1        1 0.30612141E-01 0.13576814E+03</pdfrwt>
<pdfrwt beam="2">  1       -1 0.12534806E-01 0.13576814E+03</pdfrwt>
<totfact> 0.60139775E+03</totfact>
</mgrwt>
</event>
<event>
 6    1  0.6101889E-006  0.2219338E+03  0.7546771E-02  0.1135326E+00
         -1   -1    0    0    0  501 -0.00000000000E+00  0.00000000000E+00  0.42132403124E+02  0.42132403124E+02  0.00000000000E+00 0.  1.
          1   -1    0    0  501    0  0.00000000000E+00 -0.00000000000E+00 -0.11412566347E+04  0.11412566347E+04  0.00000000000E+00 0. -1.
          5    1    1    2  502    0 -0.21248728140E+02  0.36106910709E+02 -0.24442599586E+03  0.24803502756E+03  0.47000000000E+01 0. -1.
         -5    1    1    2    0  502  0.13556625993E+02  0.14711683757E+03 -0.19968551887E+03  0.24844223162E+03  0.47000000000E+01 0. -1.
        -11    1    1    2    0    0 -0.24536633558E+02 -0.17017617431E+03 -0.55547294116E+03  0.58147413103E+03  0.00000000000E+00 0. -1.
         11    1    1    2    0    0  0.32228735706E+02 -0.13047573968E+02 -0.99539775666E+02  0.10543764760E+03  0.00000000000E+00 0.  1.
<mgrwt>
<rscale>  0 0.21807501E+03</rscale>
<asrwt>0</asrwt>
<pdfrwt beam="2">  1        1 0.17557795E+00 0.22193384E+03</pdfrwt>
<pdfrwt beam="1">  1       -1 0.64819078E-02 0.22193384E+03</pdfrwt>
<totfact> 0.14980633E+03</totfact>
</mgrwt>
</event>
<event>
 6    1  0.6101889E-006  0.1271510E+03  0.7546771E-02  0.1252614E+00
         -2   -1    0    0    0  501 -0.00000000000E+00  0.00000000000E+00  0.60669390416E+02  0.60669390416E+02  0.00000000000E+00 0. -1.
          2   -1    0    0  501    0  0.00000000000E+00 -0.00000000000E+00 -0.18500406032E+03  0.18500406032E+03  0.00000000000E+00 0.  1.
          5    1    1    2  502    0 -0.10224482338E+02  0.46690211259E+02 -0.94113432147E+02  0.10565956642E+03  0.47000000000E+01 0.  1.
         -5    1    1    2    0  502 -0.13398442961E+02 -0.46954067714E+02  0.54443994059E+01  0.49355184465E+02  0.47000000000E+01 0.  1.
        -11    1    1    2    0    0 -0.20477313141E+02 -0.24380043385E+02 -0.70921954032E+01  0.32619106434E+02  0.00000000000E+00 0. -1.
         11    1    1    2    0    0  0.44100238440E+02  0.24643899839E+02 -0.28573441761E+02  0.58039593415E+02  0.00000000000E+00 0.  1.
<mgrwt>
<rscale>  0 0.11441005E+03</rscale>
<asrwt>0</asrwt>
<pdfrwt beam="2">  1        2 0.28462163E-01 0.12715100E+03</pdfrwt>
<pdfrwt beam="1">  1       -2 0.93337525E-02 0.12715100E+03</pdfrwt>
<totfact> 0.12848110E+04</totfact>
</mgrwt>
</event>
<event>
 6    1  0.6101889E-006  0.1279272E+03  0.7546771E-02  0.1245474E+00
         -1   -1    0    0    0  501 -0.00000000000E+00  0.00000000000E+00  0.38270898710E+02  0.38270898710E+02  0.00000000000E+00 0.  1.
          1   -1    0    0  501    0  0.00000000000E+00 -0.00000000000E+00 -0.34375416231E+03  0.34375416231E+03  0.00000000000E+00 0. -1.
          5    1    1    2  502    0  0.48341999121E+02  0.19623386934E+02 -0.58800479878E+02  0.78750318270E+02  0.47000000000E+01 0. -1.
         -5    1    1    2    0  502 -0.51849273188E+02 -0.46606904457E+02 -0.16209378877E+03  0.17651356047E+03  0.47000000000E+01 0. -1.
        -11    1    1    2    0    0 -0.13311542222E+02  0.23381167035E+02 -0.10006775101E+03  0.10362157556E+03  0.00000000000E+00 0. -1.
         11    1    1    2    0    0  0.16818816289E+02  0.36023504871E+01  0.15478756055E+02  0.23139606725E+02  0.00000000000E+00 0.  1.
<mgrwt>
<rscale>  0 0.11857026E+03</rscale>
<asrwt>0</asrwt>
<pdfrwt beam="2">  1        1 0.52885257E-01 0.12792721E+03</pdfrwt>
<pdfrwt beam="1">  1       -1 0.58878305E-02 0.12792721E+03</pdfrwt>
<totfact> 0.95578476E+03</totfact>
</mgrwt>
</event>
<event>
 6    1  0.6101889E-006  0.1433705E+03  0.7546771E-02  0.1219729E+00
         -1   -1    0    0    0  501 -0.00000000000E+00  0.00000000000E+00  0.14575523135E+03  0.14575523135E+03  0.00000000000E+00 0.  1.
          1   -1    0    0  501    0  0.00000000000E+00 -0.00000000000E+00 -0.12807114582E+03  0.12807114582E+03  0.00000000000E+00 0. -1.
          5    1    1    2  502    0  0.16355547174E+02 -0.43230917868E+02  0.32336697285E+02  0.56605372310E+02  0.47000000000E+01 0.  1.
         -5    1    1    2    0  502 -0.58739441528E+02 -0.12758355299E+02 -0.68501714717E+02  0.91256082208E+02  0.47000000000E+01 0.  1.
        -11    1    1    2    0    0 -0.18246553519E+02  0.16275478551E+02  0.47230553073E+02  0.53184142947E+02  0.00000000000E+00 0.  1.
         11    1    1    2    0    0  0.60630447873E+02  0.39713794616E+02  0.66185498908E+01  0.72780779707E+02  0.00000000000E+00 0. -1.
<mgrwt>
<rscale>  0 0.13534793E+03</rscale>
<asrwt>0</asrwt>
<pdfrwt beam="2">  1        1 0.19703253E-01 0.14337050E+03</pdfrwt>
<pdfrwt beam="1">  1       -1 0.22423882E-01 0.14337050E+03</pdfrwt>
<totfact> 0.41807974E+03</totfact>
</mgrwt>
</event>
<event>
 6    1  0.6101889E-006  0.1313802E+03  0.7546771E-02  0.1238267E+00
         -2   -1    0    0    0  501 -0.00000000000E+00  0.00000000000E+00  0.45366625951E+02  0.45366625951E+02  0.00000000000E+00 0.  1.
          2   -1    0    0  501    0  0.00000000000E+00 -0.00000000000E+00 -0.32684926762E+03  0.32684926762E+03  0.00000000000E+00 0. -1.
          5    1    1    2  502    0 -0.16512115915E+02 -0.83865593204E+02 -0.12901638417E+03  0.15483347532E+03  0.47000000000E+01 0.  1.
         -5    1    1    2    0  502  0.98901190634E+01  0.43954493026E+02 -0.84155069014E+02  0.95571844981E+02  0.47000000000E+01 0.  1.
        -11    1    1    2    0    0 -0.17485747780E+02  0.19055846540E+02  0.16857786874E+02  0.30871696440E+02  0.00000000000E+00 0.  1.
         11    1    1    2    0    0  0.24107744632E+02  0.20855253638E+02 -0.85168975361E+02  0.90938876833E+02  0.00000000000E+00 0. -1.
<mgrwt>
<rscale>  0 0.12297590E+03</rscale>
<asrwt>0</asrwt>
<pdfrwt beam="2">  1        2 0.50284501E-01 0.13138020E+03</pdfrwt>
<pdfrwt beam="1">  1       -2 0.69794811E-02 0.13138020E+03</pdfrwt>
<totfact> 0.10994661E+04</totfact>
</mgrwt>
</event>
<event>
 6    1  0.6101889E-006  0.3370347E+03  0.7546771E-02  0.1068066E+00
         -4   -1    0    0    0  501 -0.00000000000E+00  0.00000000000E+00  0.61418401036E+02  0.61418401036E+02  0.00000000000E+00 0.  1.
          4   -1    0    0  501    0  0.00000000000E+00 -0.00000000000E+00 -0.46237117669E+03  0.46237117669E+03  0.00000000000E+00 0. -1.
          5    1    1    2  502    0  0.16988755969E+02  0.48723501160E+01 -0.18983956179E+03  0.19071839672E+03  0.47000000000E+01 0.  1.
         -5    1    1    2    0  502  0.10479703243E+03  0.45971369257E+01 -0.85495810095E+02  0.13540744151E+03  0.47000000000E+01 0.  1.
        -11    1    1    2    0    0 -0.68207260305E+02  0.27090641606E+02 -0.10777614655E+03  0.13039106942E+03  0.00000000000E+00 0. -1.
         11    1    1    2    0    0 -0.53578528092E+02 -0.36560128648E+02 -0.17841257219E+02  0.67272670070E+02  0.00000000000E+00 0.  1.
<mgrwt>
<rscale>  0 0.33703471E+03</rscale>
<asrwt>0</asrwt>
<pdfrwt beam="2">  1        4 0.71134027E-01 0.33703471E+03</pdfrwt>
<pdfrwt beam="1">  1       -4 0.94489848E-02 0.33703471E+03</pdfrwt>
<totfact> 0.29424282E+02</totfact>
</mgrwt>
</event>
<event>
 6    1  0.6101889E-006  0.2359161E+03  0.7546771E-02  0.1155107E+00
         -2   -1    0    0    0  501 -0.00000000000E+00  0.00000000000E+00  0.22439499246E+02  0.22439499246E+02  0.00000000000E+00 0.  1.
          2   -1    0    0  501    0  0.00000000000E+00 -0.00000000000E+00 -0.13279297131E+04  0.13279297131E+04  0.00000000000E+00 0. -1.
          5    1    1    2  502    0  0.55881284238E+02 -0.17844659598E+02 -0.81034919999E+03  0.81248327105E+03  0.47000000000E+01 0. -1.
         -5    1    1    2    0  502 -0.87595634898E+02 -0.31063676382E+02 -0.15085666791E+03  0.17725058955E+03  0.47000000000E+01 0.  1.
        -11    1    1    2    0    0  0.81176064859E+01  0.67829864112E+02 -0.16132658742E+03  0.17519433155E+03  0.00000000000E+00 0. -1.
         11    1    1    2    0    0  0.23596744175E+02 -0.18921528132E+02 -0.18295775857E+03  0.18544102023E+03  0.00000000000E+00 0.  1.
<mgrwt>
<rscale>  0 0.19376649E+03</rscale>
<asrwt>0</asrwt>
<pdfrwt beam="2">  1        2 0.20429689E+00 0.23591607E+03</pdfrwt>
<pdfrwt beam="1">  1       -2 0.34522304E-02 0.23591607E+03</pdfrwt>
<totfact> 0.57860169E+03</totfact>
</mgrwt>
</event>
<event>
 6    1  0.6101889E-006  0.1699783E+03  0.7546771E-02  0.1184311E+00
         -2   -1    0    0    0  501 -0.00000000000E+00  0.00000000000E+00  0.56495215023E+02  0.56495215023E+02  0.00000000000E+00 0. -1.
          2   -1    0    0  501    0  0.00000000000E+00 -0.00000000000E+00 -0.58147697697E+03  0.58147697697E+03  0.00000000000E+00 0.  1.
          5    1    1    2  502    0 -0.12059250258E+03 -0.39322664035E+02 -0.28236043499E+03  0.30957766204E+03  0.47000000000E+01 0.  1.
         -5    1    1    2    0  502  0.26797701589E+02 -0.28213926855E+02 -0.14889139966E+03  0.15396389632E+03  0.47000000000E+01 0.  1.
        -11    1    1    2    0    0 -0.12009996885E+02  0.22016278432E+02  0.12922664490E+01  0.25112277749E+02  0.00000000000E+00 0. -1.
         11    1    1    2    0    0  0.10580479787E+03  0.45520312457E+02 -0.95022193754E+02  0.14931835589E+03  0.00000000000E+00 0.  1.
<mgrwt>
<rscale>  0 0.16394727E+03</rscale>
<asrwt>0</asrwt>
<pdfrwt beam="2">  1        2 0.89457991E-01 0.16997833E+03</pdfrwt>
<pdfrwt beam="1">  1       -2 0.86915721E-02 0.16997833E+03</pdfrwt>
<totfact> 0.42505787E+03</totfact>
</mgrwt>
</event>
<event>
 6    1  0.6101889E-006  0.1267840E+03  0.7546771E-02  0.1246764E+00
          2   -1    0    0  501    0  0.00000000000E+00  0.00000000000E+00  0.77760956387E+02  0.77760956387E+02  0.00000000000E+00 0. -1.
         -2   -1    0    0    0  501 -0.00000000000E+00 -0.00000000000E+00 -0.15769649809E+03  0.15769649809E+03  0.00000000000E+00 0.  1.
          5    1    1    2  502    0  0.18233806618E+02  0.40324583385E+02  0.26877444901E+02  0.51990679678E+02  0.47000000000E+01 0. -1.
         -5    1    1    2    0  502 -0.26309311544E+02 -0.20734398327E+02 -0.77437401553E+02  0.84502877508E+02  0.47000000000E+01 0. -1.
        -11    1    1    2    0    0 -0.15122074769E+02 -0.42764392325E+02 -0.43879015722E+02  0.63109733139E+02  0.00000000000E+00 0.  1.
         11    1    1    2    0    0  0.23197579695E+02  0.23174207266E+02  0.14503430666E+02  0.35854164155E+02  0.00000000000E+00 0. -1.
<mgrwt>
<rscale>  0 0.11780410E+03</rscale>
<asrwt>0</asrwt>
<pdfrwt beam="1">  1        2 0.11963224E-01 0.12678400E+03</pdfrwt>
<pdfrwt beam="2">  1       -2 0.24260999E-01 0.12678400E+03</pdfrwt>
<totfact> 0.72266667E+03</totfact>
</mgrwt>
</event>
<event>
 6    1  0.6101889E-006  0.1367215E+03  0.7546771E-02  0.1229380E+00
          2   -1    0    0  501    0  0.00000000000E+00  0.00000000000E+00  0.50517552776E+03  0.50517552776E+03  0.00000000000E+00 0. -1.
         -2   -1    0    0    0  501 -0.00000000000E+00 -0.00000000000E+00 -0.30230868684E+02  0.30230868684E+02  0.00000000000E+00 0.  1.
          5    1    1    2  502    0 -0.71096800906E+02 -0.20514257121E+01  0.26644956341E+03  0.27581954842E+03  0.47000000000E+01 0.  1.
         -5    1    1    2    0  502  0.26909478083E+02  0.35172438029E+02  0.40473209987E+02  0.60177995432E+02  0.47000000000E+01 0.  1.
        -11    1    1    2    0    0  0.43843686326E+02 -0.60266688567E+02  0.14790207718E+03  0.16561813614E+03  0.00000000000E+00 0. -1.
         11    1    1    2    0    0  0.34363649706E+00  0.27145676250E+02  0.20119808492E+02  0.33790716460E+02  0.00000000000E+00 0.  1.
<mgrwt>
<rscale>  0 0.12871174E+03</rscale>
<asrwt>0</asrwt>
<pdfrwt beam="1">  1        2 0.77719306E-01 0.13672147E+03</pdfrwt>
<pdfrwt beam="2">  1       -2 0.46509032E-02 0.13672147E+03</pdfrwt>
<totfact> 0.12765283E+04</totfact>
</mgrwt>
</event>
<event>
 6    1  0.6101889E-006  0.1166286E+03  0.7546771E-02  0.1258367E+00
         -3   -1    0    0    0  501 -0.00000000000E+00  0.00000000000E+00  0.84403908911E+02  0.84403908911E+02  0.00000000000E+00 0.  1.
          3   -1    0    0  501    0  0.00000000000E+00 -0.00000000000E+00 -0.13548555264E+03  0.13548555264E+03  0.00000000000E+00 0. -1.
          5    1    1    2  502    0  0.48858119674E+02  0.91834550625E+01 -0.25081589490E+02  0.55880478132E+02  0.47000000000E+01 0. -1.
         -5    1    1    2    0  502 -0.53052342301E+02 -0.38121854368E+02 -0.12719428288E+02  0.66721066089E+02  0.47000000000E+01 0.  1.
        -11    1    1    2    0    0  0.39998198059E+02  0.42034705430E+02 -0.11289537970E+02  0.59111978279E+02  0.00000000000E+00 0. -1.
         11    1    1    2    0    0 -0.35803975432E+02 -0.13096306124E+02 -0.19910879792E+01  0.38175939047E+02  0.00000000000E+00 0.  1.
<mgrwt>
<rscale>  0 0.11119807E+03</rscale>
<asrwt>0</asrwt>
<pdfrwt beam="2">  1        3 0.20843931E-01 0.11662856E+03</pdfrwt>
<pdfrwt beam="1">  1       -3 0.12985217E-01 0.11662856E+03</pdfrwt>
<totfact> 0.22076454E+03</totfact>
</mgrwt>
</event>
<event>
 6    1  0.1235457E-005  0.3954514E+03  0.7546771E-02  0.1045366E+00
         -1   -1    0    0    0  501 -0.00000000000E+00  0.00000000000E+00  0.10225603877E+03  0.10225603877E+03  0.00000000000E+00 0.  1.
          1   -1    0    0  501    0  0.00000000000E+00 -0.00000000000E+00 -0.38232903482E+03  0.38232903482E+03  0.00000000000E+00 0. -1.
          5    1    1    2  502    0 -0.17400432193E+03 -0.29438493940E+02 -0.18329914192E+03  0.25448928152E+03  0.47000000000E+01 0.  1.
         -5    1    1    2    0  502  0.18216925436E+02  0.14470971468E+02 -0.26200805362E+02  0.35353042149E+02  0.47000000000E+01 0.  1.
        -11    1    1    2    0    0  0.84507451464E+02  0.24121595685E+02  0.80181367589E+01  0.88247669932E+02  0.00000000000E+00 0. -1.
         11    1    1    2    0    0  0.71279945033E+02 -0.91540732127E+01 -0.78591185520E+02  0.10649507999E+03  0.00000000000E+00 0.  1.
<mgrwt>
<rscale>  0 0.39545140E+03</rscale>
<asrwt>0</asrwt>
<pdfrwt beam="2">  1        1 0.58819851E-01 0.39545140E+03</pdfrwt>
<pdfrwt beam="1">  1       -1 0.15731698E-01 0.39545140E+03</pdfrwt>
<totfact> 0.19213943E+03</totfact>
</mgrwt>
</event>
<event>
 6    1  0.6101889E-006  0.1293434E+03  0.7546771E-02  0.1242247E+00
         -2   -1    0    0    0  501 -0.00000000000E+00  0.00000000000E+00  0.21636371452E+02  0.21636371452E+02  0.00000000000E+00 0.  1.
          2   -1    0    0  501    0  0.00000000000E+00 -0.00000000000E+00 -0.65674535901E+03  0.65674535901E+03  0.00000000000E+00 0. -1.
          5    1    1    2  502    0  0.47137875392E+00 -0.30441950513E+02 -0.26647170244E+02  0.40732004996E+02  0.47000000000E+01 0. -1.
         -5    1    1    2    0  502  0.26264538779E+02  0.50205477786E+02 -0.43474465345E+03  0.43844659846E+03  0.47000000000E+01 0. -1.
        -11    1    1    2    0    0 -0.49282043154E+00  0.27282583064E+02 -0.12023613694E+03  0.12329359609E+03  0.00000000000E+00 0. -1.
         11    1    1    2    0    0 -0.26243097101E+02 -0.47046110337E+02 -0.53481026925E+02  0.75909530919E+02  0.00000000000E+00 0.  1.
<mgrwt>
<rscale>  0 0.12051688E+03</rscale>
<asrwt>0</asrwt>
<pdfrwt beam="2">  1        2 0.10103774E+00 0.12934342E+03</pdfrwt>
<pdfrwt beam="1">  1       -2 0.33286729E-02 0.12934342E+03</pdfrwt>
<totfact> 0.15534389E+04</totfact>
</mgrwt>
</event>
<event>
 6    1  0.6101889E-006  0.1379910E+03  0.7546771E-02  0.1227245E+00
         -2   -1    0    0    0  501 -0.00000000000E+00  0.00000000000E+00  0.59395935269E+02  0.59395935269E+02  0.00000000000E+00 0.  1.
          2   -1    0    0  501    0  0.00000000000E+00 -0.00000000000E+00 -0.26356788765E+03  0.26356788765E+03  0.00000000000E+00 0. -1.
          5    1    1    2  502    0  0.69962880733E+01 -0.63744634486E+02 -0.25659329332E+02  0.69230178783E+02  0.47000000000E+01 0.  1.
         -5    1    1    2    0  502 -0.50556586250E+02  0.24961967207E+02 -0.11310033561E+03  0.12646281721E+03  0.47000000000E+01 0.  1.
        -11    1    1    2    0    0  0.69082209599E+02  0.10017149527E+02 -0.49891902183E+02  0.85801496905E+02  0.00000000000E+00 0.  1.
         11    1    1    2    0    0 -0.25521911422E+02  0.28765517752E+02 -0.15520385253E+02  0.41469330024E+02  0.00000000000E+00 0. -1.
<mgrwt>
<rscale>  0 0.13014227E+03</rscale>
<asrwt>0</asrwt>
<pdfrwt beam="2">  1        2 0.40548906E-01 0.13799096E+03</pdfrwt>
<pdfrwt beam="1">  1       -2 0.91378361E-02 0.13799096E+03</pdfrwt>
<totfact> 0.91433723E+03</totfact>
</mgrwt>
</event>
<event>
 6    1  0.6101889E-006  0.2445062E+03  0.7546771E-02  0.1119922E+00
         -1   -1    0    0    0  501 -0.00000000000E+00  0.00000000000E+00  0.55343273150E+02  0.55343273150E+02  0.00000000000E+00 0.  1.
          1   -1    0    0  501    0  0.00000000000E+00 -0.00000000000E+00 -0.10011342622E+04  0.10011342622E+04  0.00000000000E+00 0. -1.
          5    1    1    2  502    0  0.10022322211E+03 -0.63381142928E+02 -0.14792695514E+03  0.18964793061E+03  0.47000000000E+01 0. -1.
         -5    1    1    2    0  502  0.10337144400E+03  0.11357518849E+02 -0.34867591061E+03  0.36388408774E+03  0.47000000000E+01 0. -1.
        -11    1    1    2    0    0 -0.18852926207E+03  0.24124883176E+02 -0.41420823720E+03  0.45573430462E+03  0.00000000000E+00 0. -1.
         11    1    1    2    0    0 -0.15065404031E+02  0.27898740903E+02 -0.34979886111E+02  0.47211212386E+02  0.00000000000E+00 0.  1.
<mgrwt>
<rscale>  0 0.23980567E+03</rscale>
<asrwt>0</asrwt>
<pdfrwt beam="2">  1        1 0.15402065E+00 0.24450621E+03</pdfrwt>
<pdfrwt beam="1">  1       -1 0.85143500E-02 0.24450621E+03</pdfrwt>
<totfact> 0.12497308E+03</totfact>
</mgrwt>
</event>
<event>
 6    1  0.6101889E-006  0.3093598E+03  0.7546771E-02  0.1082080E+00
          2   -1    0    0  501    0  0.00000000000E+00  0.00000000000E+00  0.19079233219E+04  0.19079233219E+04  0.00000000000E+00 0. -1.
         -2   -1    0    0    0  501 -0.00000000000E+00 -0.00000000000E+00 -0.59235476845E+02  0.59235476845E+02  0.00000000000E+00 0.  1.
          5    1    1    2  502    0  0.10582823746E+03 -0.78776625974E+02  0.38903749633E+03  0.41082555446E+03  0.47000000000E+01 0. -1.
         -5    1    1    2    0  502  0.70791474521E+02 -0.14231722615E+03  0.97245169631E+03  0.98536796040E+03  0.47000000000E+01 0. -1.
        -11    1    1    2    0    0 -0.12767530381E+03  0.19992336955E+03  0.34140910566E+03  0.41572889523E+03  0.00000000000E+00 0.  1.
         11    1    1    2    0    0 -0.48944408167E+02  0.21170482570E+02  0.14578954675E+03  0.15523638866E+03  0.00000000000E+00 0. -1.
<mgrwt>
<rscale>  0 0.30640860E+03</rscale>
<asrwt>0</asrwt>
<pdfrwt beam="1">  1        2 0.29352662E+00 0.30935984E+03</pdfrwt>
<pdfrwt beam="2">  1       -2 0.91131517E-02 0.30935984E+03</pdfrwt>
<totfact> 0.63667158E+02</totfact>
</mgrwt>
</event>
<event>
 6    1  0.6101889E-006  0.3470984E+03  0.7546771E-02  0.1063812E+00
          2   -1    0    0  501    0  0.00000000000E+00  0.00000000000E+00  0.11602287771E+04  0.11602287771E+04  0.00000000000E+00 0. -1.
         -2   -1    0    0    0  501 -0.00000000000E+00 -0.00000000000E+00 -0.25959814170E+02  0.25959814170E+02  0.00000000000E+00 0.  1.
          5    1    1    2  502    0  0.10804613789E+02  0.80534275919E+00  0.51944343350E+03  0.51957767356E+03  0.47000000000E+01 0.  1.
         -5    1    1    2    0  502  0.93014473699E+02 -0.49405898723E+02  0.32301175497E+03  0.33978128111E+03  0.47000000000E+01 0.  1.
        -11    1    1    2    0    0 -0.80884188721E+02 -0.11704886756E+02  0.14459089635E+03  0.16608968561E+03  0.00000000000E+00 0.  1.
         11    1    1    2    0    0 -0.22934898767E+02  0.60305442721E+02  0.14722287809E+03  0.16073995096E+03  0.00000000000E+00 0. -1.
<mgrwt>
<rscale>  0 0.34709839E+03</rscale>
<asrwt>0</asrwt>
<pdfrwt beam="1">  1        2 0.17849669E+00 0.34709839E+03</pdfrwt>
<pdfrwt beam="2">  1       -2 0.39938185E-02 0.34709839E+03</pdfrwt>
<totfact> 0.58250748E+03</totfact>
</mgrwt>
</event>
<event>
 6    1  0.6101889E-006  0.1451333E+03  0.7546771E-02  0.1215165E+00
          2   -1    0    0  501    0  0.00000000000E+00  0.00000000000E+00  0.39175991826E+03  0.39175991826E+03  0.00000000000E+00 0. -1.
         -2   -1    0    0    0  501 -0.00000000000E+00 -0.00000000000E+00 -0.63352417044E+02  0.63352417044E+02  0.00000000000E+00 0.  1.
          5    1    1    2  502    0  0.10177017991E+03 -0.21590124288E+02  0.26756475989E+03  0.28711721251E+03  0.47000000000E+01 0. -1.
         -5    1    1    2    0  502 -0.30263890916E+02 -0.85589046881E+01  0.28919039418E+02  0.42983238404E+02  0.47000000000E+01 0.  1.
        -11    1    1    2    0    0 -0.20397520718E+02 -0.69454292366E+01  0.53978243578E+02  0.58120122320E+02  0.00000000000E+00 0. -1.
         11    1    1    2    0    0 -0.51108768274E+02  0.37094458213E+02 -0.22054541668E+02  0.66891762070E+02  0.00000000000E+00 0.  1.
<mgrwt>
<rscale>  0 0.13864436E+03</rscale>
<asrwt>0</asrwt>
<pdfrwt beam="1">  1        2 0.60270755E-01 0.14513326E+03</pdfrwt>
<pdfrwt beam="2">  1       -2 0.97465260E-02 0.14513326E+03</pdfrwt>
<totfact> 0.54411643E+03</totfact>
</mgrwt>
</event>
<event>
 6    1  0.6101889E-006  0.1352749E+03  0.7546771E-02  0.1233522E+00
         -2   -1    0    0    0  501 -0.00000000000E+00  0.00000000000E+00  0.29185259901E+02  0.29185259901E+02  0.00000000000E+00 0.  1.
          2   -1    0    0  501    0  0.00000000000E+00 -0.00000000000E+00 -0.48757291051E+03  0.48757291051E+03  0.00000000000E+00 0. -1.
          5    1    1    2  502    0 -0.32519558521E+02  0.59181003544E+02 -0.64411739391E+02  0.93439151528E+02  0.47000000000E+01 0. -1.
         -5    1    1    2    0  502  0.18335924092E+02 -0.94493597994E+01 -0.22538255650E+03  0.22637332724E+03  0.47000000000E+01 0. -1.
        -11    1    1    2    0    0  0.20538041890E+02 -0.11110546764E+02  0.52553507433E+00  0.23356617931E+02  0.00000000000E+00 0.  1.
         11    1    1    2    0    0 -0.63544074613E+01 -0.38621096981E+02 -0.16911888979E+03  0.17358907371E+03  0.00000000000E+00 0. -1.
<mgrwt>
<rscale>  0 0.12599495E+03</rscale>
<asrwt>0</asrwt>
<pdfrwt beam="2">  1        2 0.75011214E-01 0.13527486E+03</pdfrwt>
<pdfrwt beam="1">  1       -2 0.44900401E-02 0.13527486E+03</pdfrwt>
<totfact> 0.13977655E+04</totfact>
</mgrwt>
</event>
<event>
 6    1  0.6101889E-006  0.1914894E+03  0.7546771E-02  0.1175069E+00
         -1   -1    0    0    0  501 -0.00000000000E+00  0.00000000000E+00  0.20435105720E+02  0.20435105720E+02  0.00000000000E+00 0.  1.
          1   -1    0    0  501    0  0.00000000000E+00 -0.00000000000E+00 -0.14195278306E+04  0.14195278306E+04  0.00000000000E+00 0. -1.
          5    1    1    2  502    0 -0.64601047535E+02  0.11107254014E+03 -0.66734775189E+03  0.67962159800E+03  0.47000000000E+01 0. -1.
         -5    1    1    2    0  502  0.56996465473E+02 -0.23140149835E+02 -0.40905807461E+03  0.41368425401E+03  0.47000000000E+01 0.  1.
        -11    1    1    2    0    0  0.24559533569E+02 -0.98461159122E+02 -0.22316624677E+03  0.24515493925E+03  0.00000000000E+00 0.  1.
         11    1    1    2    0    0 -0.16954951507E+02  0.10528768818E+02 -0.99520651572E+02  0.10150214502E+03  0.00000000000E+00 0. -1.
<mgrwt>
<rscale>  0 0.17269256E+03</rscale>
<asrwt>0</asrwt>
<pdfrwt beam="2">  1        1 0.21838892E+00 0.19148938E+03</pdfrwt>
<pdfrwt beam="1">  1       -1 0.31438622E-02 0.19148938E+03</pdfrwt>
<totfact> 0.28408377E+03</totfact>
</mgrwt>
</event>
<event>
 6    1  0.6101889E-006  0.3446423E+03  0.7546771E-02  0.1064836E+00
          1   -1    0    0  501    0  0.00000000000E+00  0.00000000000E+00  0.12760247231E+03  0.12760247231E+03  0.00000000000E+00 0.  1.
         -1   -1    0    0    0  501 -0.00000000000E+00 -0.00000000000E+00 -0.23271158127E+03  0.23271158127E+03  0.00000000000E+00 0. -1.
          5    1    1    2  502    0 -0.52487279768E+02  0.12751624179E+03  0.23110418026E+02  0.13989813394E+03  0.47000000000E+01 0.  1.
         -5    1    1    2    0  502  0.13172716739E+02 -0.24376661478E+02 -0.21101842398E+01  0.28183061733E+02  0.47000000000E+01 0.  1.
        -11    1    1    2    0    0  0.31420678090E+02 -0.63358465724E+02 -0.12782605393E+02  0.71867580948E+02  0.00000000000E+00 0.  1.
         11    1    1    2    0    0  0.78938849384E+01 -0.39781114591E+02 -0.11332673735E+03  0.12036527696E+03  0.00000000000E+00 0. -1.
<mgrwt>
<rscale>  0 0.34464227E+03</rscale>
<asrwt>0</asrwt>
<pdfrwt beam="1">  1        1 0.19631150E-01 0.34464227E+03</pdfrwt>
<pdfrwt beam="2">  1       -1 0.35801781E-01 0.34464227E+03</pdfrwt>
<totfact> 0.19727864E+03</totfact>
</mgrwt>
</event>
<event>
 6    1  0.6101889E-006  0.1342410E+03  0.7546771E-02  0.1234127E+00
          2   -1    0    0  501    0  0.00000000000E+00  0.00000000000E+00  0.66178154879E+03  0.66178154879E+03  0.00000000000E+00 0. -1.
         -2   -1    0    0    0  501 -0.00000000000E+00 -0.00000000000E+00 -0.21835169565E+02  0.21835169565E+02  0.00000000000E+00 0.  1.
          5    1    1    2  502    0  0.44943461147E+02  0.11056911637E+02  0.70185373558E+02  0.84203602395E+02  0.47000000000E+01 0. -1.
         -5    1    1    2    0  502 -0.60636745144E+02  0.35302243286E+02  0.34678393621E+03  0.35384212816E+03  0.47000000000E+01 0. -1.
        -11    1    1    2    0    0  0.41428221907E+02 -0.21471521192E+02  0.47899834004E+02  0.66870904662E+02  0.00000000000E+00 0.  1.
         11    1    1    2    0    0 -0.25734937911E+02 -0.24887633731E+02  0.17507723545E+03  0.17870008315E+03  0.00000000000E+00 0. -1.
<mgrwt>
<rscale>  0 0.12560508E+03</rscale>
<asrwt>0</asrwt>
<pdfrwt beam="1">  1        2 0.10181253E+00 0.13424104E+03</pdfrwt>
<pdfrwt beam="2">  1       -2 0.33592574E-02 0.13424104E+03</pdfrwt>
<totfact> 0.15233792E+04</totfact>
</mgrwt>
</event>
<event>
 6    1  0.6101889E-006  0.1275004E+03  0.7546771E-02  0.1241040E+00
         -1   -1    0    0    0  501 -0.00000000000E+00  0.00000000000E+00  0.79312229828E+01  0.79312229828E+01  0.00000000000E+00 0.  1.
          1   -1    0    0  501    0  0.00000000000E+00 -0.00000000000E+00 -0.18903336275E+04  0.18903336275E+04  0.00000000000E+00 0. -1.
          5    1    1    2  502    0 -0.24354923463E+02  0.36076402925E+01 -0.12696380328E+04  0.12698854286E+04  0.47000000000E+01 0. -1.
         -5    1    1    2    0  502 -0.56064995579E+01 -0.26297847204E+02 -0.60780037489E+02  0.66628166432E+02  0.47000000000E+01 0.  1.
        -11    1    1    2    0    0  0.30536228915E+01  0.58993696204E+02 -0.30544135668E+03  0.31110127479E+03  0.00000000000E+00 0.  1.
         11    1    1    2    0    0  0.26907800129E+02 -0.36303489293E+02 -0.24654297759E+03  0.25064998073E+03  0.00000000000E+00 0. -1.
<mgrwt>
<rscale>  0 0.12125540E+03</rscale>
<asrwt>0</asrwt>
<pdfrwt beam="2">  1        1 0.29082090E+00 0.12750038E+03</pdfrwt>
<pdfrwt beam="1">  1       -1 0.12201867E-02 0.12750038E+03</pdfrwt>
<totfact> 0.55147825E+03</totfact>
</mgrwt>
</event>
<event>
 6    1  0.6101889E-006  0.1256445E+03  0.7546771E-02  0.1248837E+00
         -3   -1    0    0    0  501 -0.00000000000E+00  0.00000000000E+00  0.15619642315E+03  0.15619642315E+03  0.00000000000E+00 0.  1.
          3   -1    0    0  501    0  0.00000000000E+00 -0.00000000000E+00 -0.76685804305E+02  0.76685804305E+02  0.00000000000E+00 0. -1.
          5    1    1    2  502    0 -0.47626007951E+02 -0.30659484370E+01 -0.22192403908E+02  0.52841550549E+02  0.47000000000E+01 0. -1.
         -5    1    1    2    0  502  0.45763229858E+02 -0.94104816630E+01  0.64403422191E+02  0.79703959513E+02  0.47000000000E+01 0. -1.
        -11    1    1    2    0    0  0.23788904649E+01 -0.33930695280E+02  0.41591158755E+02  0.53728723124E+02  0.00000000000E+00 0.  1.
         11    1    1    2    0    0 -0.51611237202E+00  0.46407125380E+02 -0.42915581940E+01  0.46607994268E+02  0.00000000000E+00 0. -1.
<mgrwt>
<rscale>  0 0.11658664E+03</rscale>
<asrwt>0</asrwt>
<pdfrwt beam="2">  1        3 0.11797816E-01 0.12564451E+03</pdfrwt>
<pdfrwt beam="1">  1       -3 0.24030219E-01 0.12564451E+03</pdfrwt>
<totfact> 0.20405673E+03</totfact>
</mgrwt>
</event>
<event>
 6    1  0.6101889E-006  0.1570356E+03  0.7546771E-02  0.1200010E+00
         -1   -1    0    0    0  501 -0.00000000000E+00  0.00000000000E+00  0.37973222362E+02  0.37973222362E+02  0.00000000000E+00 0.  1.
          1   -1    0    0  501    0  0.00000000000E+00 -0.00000000000E+00 -0.67724329950E+03  0.67724329950E+03  0.00000000000E+00 0. -1.
          5    1    1    2  502    0  0.55842274616E+02  0.39149399227E+02 -0.22286612409E+03  0.23311463780E+03  0.47000000000E+01 0.  1.
         -5    1    1    2    0  502  0.28043476652E+02 -0.83938005824E+02 -0.27363568868E+03  0.28762928488E+03  0.47000000000E+01 0.  1.
        -11    1    1    2    0    0 -0.35275174871E+02  0.62030810337E+02 -0.46247531193E+02  0.85035248778E+02  0.00000000000E+00 0.  1.
         11    1    1    2    0    0 -0.48610576398E+02 -0.17242203740E+02 -0.96520733179E+02  0.10943735039E+03  0.00000000000E+00 0. -1.
<mgrwt>
<rscale>  0 0.15037720E+03</rscale>
<asrwt>0</asrwt>
<pdfrwt beam="2">  1        1 0.10419127E+00 0.15703561E+03</pdfrwt>
<pdfrwt beam="1">  1       -1 0.58420347E-02 0.15703561E+03</pdfrwt>
<totfact> 0.40279049E+03</totfact>
</mgrwt>
</event>
<event>
 6    1  0.6101889E-006  0.1306390E+03  0.7546771E-02  0.1240872E+00
          2   -1    0    0  501    0  0.00000000000E+00  0.00000000000E+00  0.10110869434E+04  0.10110869434E+04  0.00000000000E+00 0.  1.
         -2   -1    0    0    0  501 -0.00000000000E+00 -0.00000000000E+00 -0.17669416212E+02  0.17669416212E+02  0.00000000000E+00 0. -1.
          5    1    1    2  502    0 -0.37371681944E+01 -0.82528763316E+02  0.56629645533E+03  0.57230999338E+03  0.47000000000E+01 0. -1.
         -5    1    1    2    0  502  0.11365861087E+02  0.45328243262E+02  0.24990779545E+03  0.25428296967E+03  0.47000000000E+01 0. -1.
        -11    1    1    2    0    0  0.18190540519E+02  0.24044579387E+02  0.16952196679E+03  0.17218227199E+03  0.00000000000E+00 0.  1.
         11    1    1    2    0    0 -0.25819233412E+02  0.13155940667E+02  0.76913096456E+01  0.29981124610E+02  0.00000000000E+00 0. -1.
<mgrwt>
<rscale>  0 0.12135915E+03</rscale>
<asrwt>0</asrwt>
<pdfrwt beam="1">  1        2 0.15555179E+00 0.13063900E+03</pdfrwt>
<pdfrwt beam="2">  1       -2 0.27183725E-02 0.13063900E+03</pdfrwt>
<totfact> 0.12165117E+04</totfact>
</mgrwt>
</event>
<event>
 6    1  0.6101889E-006  0.5388468E+03  0.7546771E-02  0.1008133E+00
         -1   -1    0    0    0  501 -0.00000000000E+00  0.00000000000E+00  0.32648822423E+03  0.32648822423E+03  0.00000000000E+00 0.  1.
          1   -1    0    0  501    0  0.00000000000E+00 -0.00000000000E+00 -0.84581902225E+03  0.84581902225E+03  0.00000000000E+00 0. -1.
          5    1    1    2  502    0 -0.19878292801E+03  0.28935727719E+03 -0.18810602764E+03  0.39830673352E+03  0.47000000000E+01 0. -1.
         -5    1    1    2    0  502 -0.13327533829E+03  0.38754483396E+02  0.66677390962E+02  0.15405255676E+03  0.47000000000E+01 0.  1.
        -11    1    1    2    0    0  0.42888342340E+02 -0.44170976853E+02 -0.98189647424E+02  0.11589517663E+03  0.00000000000E+00 0. -1.
         11    1    1    2    0    0  0.28916992396E+03 -0.28394078373E+03 -0.29971251391E+03  0.50405277956E+03  0.00000000000E+00 0.  1.
<mgrwt>
<rscale>  0 0.52223356E+03</rscale>
<asrwt>0</asrwt>
<pdfrwt beam="2">  1        1 0.13012600E+00 0.53884680E+03</pdfrwt>
<pdfrwt beam="1">  1       -1 0.50228957E-01 0.53884680E+03</pdfrwt>
<totfact> 0.83627563E+01</totfact>
</mgrwt>
</event>
<event>
 6    1  0.6101889E-006  0.1272981E+03  0.7546771E-02  0.1246703E+00
          1   -1    0    0  501    0  0.00000000000E+00  0.00000000000E+00  0.84362414480E+03  0.84362414480E+03  0.00000000000E+00 0. -1.
         -1   -1    0    0    0  501 -0.00000000000E+00 -0.00000000000E+00 -0.17012516342E+02  0.17012516342E+02  0.00000000000E+00 0.  1.
          5    1    1    2  502    0 -0.19412220037E+01 -0.29600553484E+02  0.38954323594E+02  0.49188316053E+02  0.47000000000E+01 0.  1.
         -5    1    1    2    0  502  0.32709357277E+01  0.53655553761E+02  0.59362320397E+03  0.59607064662E+03  0.47000000000E+01 0.  1.
        -11    1    1    2    0    0 -0.21709833970E+02  0.25621600160E+01  0.37704356912E+01  0.22183276139E+02  0.00000000000E+00 0.  1.
         11    1    1    2    0    0  0.20380120246E+02 -0.26617160293E+02  0.19026366521E+03  0.19319442234E+03  0.00000000000E+00 0. -1.
<mgrwt>
<rscale>  0 0.11784058E+03</rscale>
<asrwt>0</asrwt>
<pdfrwt beam="1">  1        1 0.12978830E+00 0.12729808E+03</pdfrwt>
<pdfrwt beam="2">  1       -1 0.26173109E-02 0.12729808E+03</pdfrwt>
<totfact> 0.93791515E+03</totfact>
</mgrwt>
</event>
<event>
 6    1  0.6101889E-006  0.1337717E+03  0.7546771E-02  0.1234401E+00
          4   -1    0    0  501    0  0.00000000000E+00  0.00000000000E+00  0.19628050223E+03  0.19628050223E+03  0.00000000000E+00 0. -1.
         -4   -1    0    0    0  501 -0.00000000000E+00 -0.00000000000E+00 -0.20711388738E+03  0.20711388738E+03  0.00000000000E+00 0.  1.
          5    1    1    2  502    0 -0.64152775757E+01  0.40776925273E+02  0.10956115118E+03  0.11717358606E+03  0.47000000000E+01 0. -1.
         -5    1    1    2    0  502 -0.32883324278E+02 -0.67698064593E+02  0.47443691504E+02  0.89091721438E+02  0.47000000000E+01 0. -1.
        -11    1    1    2    0    0  0.54256338505E+02 -0.44173498876E+01 -0.14670487976E+03  0.15647870460E+03  0.00000000000E+00 0.  1.
         11    1    1    2    0    0 -0.14957736652E+02  0.31338489208E+02 -0.21133348074E+02  0.40650377518E+02  0.00000000000E+00 0. -1.
<mgrwt>
<rscale>  0 0.12542853E+03</rscale>
<asrwt>0</asrwt>
<pdfrwt beam="1">  1        4 0.30197001E-01 0.13377166E+03</pdfrwt>
<pdfrwt beam="2">  1       -4 0.31863675E-01 0.13377166E+03</pdfrwt>
<totfact> 0.16593501E+02</totfact>
</mgrwt>
</event>
<event>
 6    1  0.6101889E-006  0.1580796E+03  0.7546771E-02  0.1200698E+00
         -1   -1    0    0    0  501 -0.00000000000E+00  0.00000000000E+00  0.12829858569E+03  0.12829858569E+03  0.00000000000E+00 0.  1.
          1   -1    0    0  501    0  0.00000000000E+00 -0.00000000000E+00 -0.26657277116E+03  0.26657277116E+03  0.00000000000E+00 0. -1.
          5    1    1    2  502    0 -0.56276774726E+02 -0.15112661632E+02 -0.69853615074E+02  0.91088338739E+02  0.47000000000E+01 0. -1.
         -5    1    1    2    0  502  0.59103213665E+02 -0.79968538888E+02 -0.12871246090E+03  0.16271799122E+03  0.47000000000E+01 0.  1.
        -11    1    1    2    0    0  0.99515671605E+01  0.39966242232E+01 -0.17551914997E+02  0.20568821410E+02  0.00000000000E+00 0.  1.
         11    1    1    2    0    0 -0.12778006099E+02  0.91084576297E+02  0.77843805497E+02  0.12049620547E+03  0.00000000000E+00 0. -1.
<mgrwt>
<rscale>  0 0.14981700E+03</rscale>
<asrwt>0</asrwt>
<pdfrwt beam="2">  1        1 0.41011195E-01 0.15807962E+03</pdfrwt>
<pdfrwt beam="1">  1       -1 0.19738244E-01 0.15807962E+03</pdfrwt>
<totfact> 0.20598002E+03</totfact>
</mgrwt>
</event>
<event>
 6    1  0.6101889E-006  0.1451374E+03  0.7546771E-02  0.1216492E+00
         -4   -1    0    0    0  501 -0.00000000000E+00  0.00000000000E+00  0.23136414670E+03  0.23136414670E+03  0.00000000000E+00 0.  1.
          4   -1    0    0  501    0  0.00000000000E+00 -0.00000000000E+00 -0.10471862275E+03  0.10471862275E+03  0.00000000000E+00 0. -1.
          5    1    1    2  502    0  0.24817918312E+02  0.76894765930E+02 -0.16832157828E+02  0.82668891573E+02  0.47000000000E+01 0. -1.
         -5    1    1    2    0  502 -0.62300839834E+02 -0.13419744285E+02 -0.49554396804E+01  0.64094699961E+02  0.47000000000E+01 0. -1.
        -11    1    1    2    0    0  0.18213271251E+02 -0.66059956829E+02  0.15444868300E+03  0.16896756146E+03  0.00000000000E+00 0.  1.
         11    1    1    2    0    0  0.19269650271E+02  0.25849351831E+01 -0.60155615412E+01  0.20351616450E+02  0.00000000000E+00 0. -1.
<mgrwt>
<rscale>  0 0.13767532E+03</rscale>
<asrwt>0</asrwt>
<pdfrwt beam="2">  1        4 0.16110557E-01 0.14513736E+03</pdfrwt>
<pdfrwt beam="1">  1       -4 0.35594484E-01 0.14513736E+03</pdfrwt>
<totfact> 0.42751297E+02</totfact>
</mgrwt>
</event>
<event>
 6    1  0.6101889E-006  0.2938283E+03  0.7546771E-02  0.1088367E+00
          1   -1    0    0  501    0  0.00000000000E+00  0.00000000000E+00  0.24817698500E+03  0.24817698500E+03  0.00000000000E+00 0. -1.
         -1   -1    0    0    0  501 -0.00000000000E+00 -0.00000000000E+00 -0.86969272604E+02  0.86969272604E+02  0.00000000000E+00 0.  1.
          5    1    1    2  502    0 -0.25668812203E+02 -0.41743443926E+01 -0.77408390033E+00  0.26438651193E+02  0.47000000000E+01 0.  1.
         -5    1    1    2    0  502  0.10595208997E+03 -0.33454595436E+02  0.15712931776E+03  0.19250134500E+03  0.47000000000E+01 0.  1.
        -11    1    1    2    0    0 -0.26823421903E+02  0.26227397890E+02 -0.32799405080E+02  0.49831449269E+02  0.00000000000E+00 0.  1.
         11    1    1    2    0    0 -0.53459855866E+02  0.11401541938E+02  0.37651883617E+02  0.66374812147E+02  0.00000000000E+00 0. -1.
<mgrwt>
<rscale>  0 0.29382833E+03</rscale>
<asrwt>0</asrwt>
<pdfrwt beam="1">  1        1 0.38181074E-01 0.29382833E+03</pdfrwt>
<pdfrwt beam="2">  1       -1 0.13379888E-01 0.29382833E+03</pdfrwt>
<totfact> 0.42844752E+03</totfact>
</mgrwt>
</event>
<event>
 6    1  0.6101889E-006  0.1331992E+03  0.7546771E-02  0.1236277E+00
          2   -1    0    0  501    0  0.00000000000E+00  0.00000000000E+00  0.85101302297E+02  0.85101302297E+02  0.00000000000E+00 0.  1.
         -2   -1    0    0    0  501 -0.00000000000E+00 -0.00000000000E+00 -0.22032534709E+03  0.22032534709E+03  0.00000000000E+00 0. -1.
          5    1    1    2  502    0 -0.19075786758E+02  0.42543880913E+02  0.37154630656E+02  0.59803210806E+02  0.47000000000E+01 0.  1.
         -5    1    1    2    0  502  0.61090925870E+02 -0.23807749406E+02 -0.32808296210E+02  0.73466893603E+02  0.47000000000E+01 0.  1.
        -11    1    1    2    0    0  0.92831385599E+01  0.11125440605E+02  0.54329024503E+01  0.15474770409E+02  0.00000000000E+00 0.  1.
         11    1    1    2    0    0 -0.51298277672E+02 -0.29861572112E+02 -0.14500328169E+03  0.15668177457E+03  0.00000000000E+00 0. -1.
<mgrwt>
<rscale>  0 0.12423020E+03</rscale>
<asrwt>0</asrwt>
<pdfrwt beam="1">  1        2 0.13092508E-01 0.13319921E+03</pdfrwt>
<pdfrwt beam="2">  1       -2 0.33896207E-01 0.13319921E+03</pdfrwt>
<totfact> 0.35856535E+03</totfact>
</mgrwt>
</event>
<event>
 6    1  0.6101889E-006  0.1534723E+03  0.7546771E-02  0.1205134E+00
         -1   -1    0    0    0  501 -0.00000000000E+00  0.00000000000E+00  0.36969227813E+02  0.36969227813E+02  0.00000000000E+00 0.  1.
          1   -1    0    0  501    0  0.00000000000E+00 -0.00000000000E+00 -0.54784136514E+03  0.54784136514E+03  0.00000000000E+00 0. -1.
          5    1    1    2  502    0 -0.91126049545E+01  0.32416683415E+02 -0.12149190624E+02  0.36105037952E+02  0.47000000000E+01 0.  1.
         -5    1    1    2    0  502 -0.78361761872E+02 -0.15779553926E+02 -0.31873091608E+03  0.32863512732E+03  0.47000000000E+01 0.  1.
        -11    1    1    2    0    0  0.68380728072E+02  0.26636572110E+02 -0.14026006613E+03  0.15829819044E+03  0.00000000000E+00 0. -1.
         11    1    1    2    0    0  0.19093638754E+02 -0.43273701599E+02 -0.39731964494E+02  0.61772237239E+02  0.00000000000E+00 0.  1.
<mgrwt>
<rscale>  0 0.14626898E+03</rscale>
<asrwt>0</asrwt>
<pdfrwt beam="2">  1        1 0.84283289E-01 0.15347229E+03</pdfrwt>
<pdfrwt beam="1">  1       -1 0.56875734E-02 0.15347229E+03</pdfrwt>
<totfact> 0.56059291E+03</totfact>
</mgrwt>
</event>
<event>
 6    1  0.6101889E-006  0.4629443E+03  0.7546771E-02  0.1023931E+00
          1   -1    0    0  501    0  0.00000000000E+00  0.00000000000E+00  0.11967294692E+04  0.11967294692E+04  0.00000000000E+00 0. -1.
         -1   -1    0    0    0  501 -0.00000000000E+00 -0.00000000000E+00 -0.44771482827E+02  0.44771482827E+02  0.00000000000E+00 0.  1.
          5    1    1    2  502    0  0.19059753878E+03  0.78463841400E+02  0.45413574378E+03  0.49874378189E+03  0.47000000000E+01 0.  1.
         -5    1    1    2    0  502  0.25513336820E+01 -0.12618925595E+02  0.15666014512E+03  0.15725850583E+03  0.47000000000E+01 0.  1.
        -11    1    1    2    0    0 -0.18401643518E+03 -0.30023420150E+02  0.45742089853E+03  0.49396086139E+03  0.00000000000E+00 0.  1.
         11    1    1    2    0    0 -0.91324372841E+01 -0.35821495655E+02  0.83741198920E+02  0.91537802892E+02  0.00000000000E+00 0. -1.
<mgrwt>
<rscale>  0 0.46294429E+03</rscale>
<asrwt>0</asrwt>
<pdfrwt beam="1">  1        1 0.18411220E+00 0.46294429E+03</pdfrwt>
<pdfrwt beam="2">  1       -1 0.68879214E-02 0.46294429E+03</pdfrwt>
<totfact> 0.12400902E+03</totfact>
</mgrwt>
</event>
<event>
 6    1  0.6101889E-006  0.1455236E+03  0.7546771E-02  0.1226489E+00
         -1   -1    0    0    0  501 -0.00000000000E+00  0.00000000000E+00  0.48213050851E+02  0.48213050851E+02  0.00000000000E+00 0.  1.
          1   -1    0    0  501    0  0.00000000000E+00 -0.00000000000E+00 -0.43919965168E+03  0.43919965168E+03  0.00000000000E+00 0. -1.
          5    1    1    2  502    0  0.57776142543E+02  0.62011299755E+02 -0.20846451839E+03  0.22508449385E+03  0.47000000000E+01 0. -1.
         -5    1    1    2    0  502 -0.45269979905E+02 -0.40064584526E+02 -0.15089683124E+03  0.16262375500E+03  0.47000000000E+01 0.  1.
        -11    1    1    2    0    0  0.11543881071E+02  0.49268285703E+01  0.27624500669E+02  0.30342179670E+02  0.00000000000E+00 0.  1.
         11    1    1    2    0    0 -0.24050043709E+02 -0.26873543799E+02 -0.59249751868E+02  0.69362274005E+02  0.00000000000E+00 0. -1.
<mgrwt>
<rscale>  0 0.13065384E+03</rscale>
<asrwt>0</asrwt>
<pdfrwt beam="2">  1        1 0.67569177E-01 0.14552356E+03</pdfrwt>
<pdfrwt beam="1">  1       -1 0.74173925E-02 0.14552356E+03</pdfrwt>
<totfact> 0.50109979E+03</totfact>
</mgrwt>
</event>
<event>
 6    1  0.6101889E-006  0.1560604E+03  0.7546771E-02  0.1201533E+00
         -2   -1    0    0    0  501 -0.00000000000E+00  0.00000000000E+00  0.14294887355E+02  0.14294887355E+02  0.00000000000E+00 0.  1.
          2   -1    0    0  501    0  0.00000000000E+00 -0.00000000000E+00 -0.16939652564E+04  0.16939652564E+04  0.00000000000E+00 0. -1.
          5    1    1    2  502    0 -0.48570408073E+02 -0.22988680720E+02 -0.23224052111E+03  0.23842255268E+03  0.47000000000E+01 0.  1.
         -5    1    1    2    0  502 -0.24094317239E+02  0.81734715250E+02 -0.10060689844E+04  0.10096821239E+04  0.47000000000E+01 0.  1.
        -11    1    1    2    0    0  0.41163572484E+02 -0.76119669539E+02 -0.37299838864E+03  0.38290526468E+03  0.00000000000E+00 0. -1.
         11    1    1    2    0    0  0.31501152828E+02  0.17373635009E+02 -0.68362474862E+02  0.77250202538E+02  0.00000000000E+00 0.  1.
<mgrwt>
<rscale>  0 0.14914044E+03</rscale>
<asrwt>0</asrwt>
<pdfrwt beam="2">  1        2 0.26060994E+00 0.15606041E+03</pdfrwt>
<pdfrwt beam="1">  1       -2 0.21992143E-02 0.15606041E+03</pdfrwt>
<totfact> 0.71394236E+03</totfact>
</mgrwt>
</event>
<event>
 6    1  0.6101889E-006  0.1983705E+03  0.7546771E-02  0.1155436E+00
          2   -1    0    0  501    0  0.00000000000E+00  0.00000000000E+00  0.18642763150E+04  0.18642763150E+04  0.00000000000E+00 0.  1.
         -2   -1    0    0    0  501 -0.00000000000E+00 -0.00000000000E+00 -0.23629154868E+02  0.23629154868E+02  0.00000000000E+00 0. -1.
          5    1    1    2  502    0 -0.91133195460E+02 -0.63575287250E+02  0.12070636427E+04  0.12121764739E+04  0.47000000000E+01 0.  1.
         -5    1    1    2    0  502 -0.74676241547E+01 -0.54761588719E+02  0.16313004000E+03  0.17230234171E+03  0.47000000000E+01 0.  1.
        -11    1    1    2    0    0  0.76250593943E+02  0.22962043507E+02  0.17793472416E+03  0.19494146450E+03  0.00000000000E+00 0. -1.
         11    1    1    2    0    0  0.22350225672E+02  0.95374832461E+02  0.29251875330E+03  0.30848518974E+03  0.00000000000E+00 0.  1.
<mgrwt>
<rscale>  0 0.19339317E+03</rscale>
<asrwt>0</asrwt>
<pdfrwt beam="1">  1        2 0.28681163E+00 0.19837052E+03</pdfrwt>
<pdfrwt beam="2">  1       -2 0.36352560E-02 0.19837052E+03</pdfrwt>
<totfact> 0.27830884E+03</totfact>
</mgrwt>
</event>
<event>
 6    1  0.6101889E-006  0.1365283E+03  0.7546771E-02  0.1229922E+00
          2   -1    0    0  501    0  0.00000000000E+00  0.00000000000E+00  0.29817780163E+03  0.29817780163E+03  0.00000000000E+00 0. -1.
         -2   -1    0    0    0  501 -0.00000000000E+00 -0.00000000000E+00 -0.73032383723E+02  0.73032383723E+02  0.00000000000E+00 0.  1.
          5    1    1    2  502    0 -0.16125359814E+01  0.20230979165E+02 -0.87483612511E+01  0.22594614731E+02  0.47000000000E+01 0.  1.
         -5    1    1    2    0  502 -0.53220556707E+02 -0.17307535516E+02  0.23535285949E+03  0.24196081690E+03  0.47000000000E+01 0.  1.
        -11    1    1    2    0    0  0.32644512071E+02 -0.55510156885E+01  0.44549303045E+02  0.55507822380E+02  0.00000000000E+00 0. -1.
         11    1    1    2    0    0  0.22188580617E+02  0.26275720402E+01 -0.46008383381E+02  0.51146931345E+02  0.00000000000E+00 0.  1.
<mgrwt>
<rscale>  0 0.12835179E+03</rscale>
<asrwt>0</asrwt>
<pdfrwt beam="1">  1        2 0.45873507E-01 0.13652830E+03</pdfrwt>
<pdfrwt beam="2">  1       -2 0.11235751E-01 0.13652830E+03</pdfrwt>
<totfact> 0.57906958E+03</totfact>
</mgrwt>
</event>
<event>
 6    1  0.6101889E-006  0.1442344E+03  0.7546771E-02  0.1217461E+00
         -2   -1    0    0    0  501 -0.00000000000E+00  0.00000000000E+00  0.54434590176E+02  0.54434590176E+02  0.00000000000E+00 0. -1.
          2   -1    0    0  501    0  0.00000000000E+00 -0.00000000000E+00 -0.32652879310E+03  0.32652879310E+03  0.00000000000E+00 0.  1.
          5    1    1    2  502    0 -0.91963037604E+02  0.44467543543E+02 -0.97322185021E+02  0.14116749063E+03  0.47000000000E+01 0.  1.
         -5    1    1    2    0  502  0.24504881227E+02 -0.19404098182E+02 -0.89079610293E+02  0.94521294956E+02  0.47000000000E+01 0.  1.
        -11    1    1    2    0    0  0.84337289002E+02 -0.26476510693E+02 -0.91637609564E+02  0.12732334987E+03  0.00000000000E+00 0.  1.
         11    1    1    2    0    0 -0.16879132625E+02  0.14130653320E+01  0.59452019603E+01  0.17951247816E+02  0.00000000000E+00 0. -1.
<mgrwt>
<rscale>  0 0.13697302E+03</rscale>
<asrwt>0</asrwt>
<pdfrwt beam="2">  1        2 0.50235198E-01 0.14423444E+03</pdfrwt>
<pdfrwt beam="1">  1       -2 0.83745525E-02 0.14423444E+03</pdfrwt>
<totfact> 0.83687145E+03</totfact>
</mgrwt>
</event>
<event>
 6    1  0.6101889E-006  0.3916266E+03  0.7546771E-02  0.1046718E+00
          1   -1    0    0  501    0  0.00000000000E+00  0.00000000000E+00  0.13601328720E+04  0.13601328720E+04  0.00000000000E+00 0. -1.
         -1   -1    0    0    0  501 -0.00000000000E+00 -0.00000000000E+00 -0.28190512731E+02  0.28190512731E+02  0.00000000000E+00 0.  1.
          5    1    1    2  502    0  0.20511597725E+02 -0.93606421071E+01  0.37398748374E+03  0.37469597710E+03  0.47000000000E+01 0.  1.
         -5    1    1    2    0  502 -0.84049623917E+02  0.10438913943E+03  0.73043704842E+03  0.74264513963E+03  0.47000000000E+01 0.  1.
        -11    1    1    2    0    0  0.15649986121E+02 -0.46903613095E+02  0.21231724958E+02  0.53811310443E+02  0.00000000000E+00 0.  1.
         11    1    1    2    0    0  0.47888040071E+02 -0.48124884232E+02  0.20628610212E+03  0.21717095752E+03  0.00000000000E+00 0. -1.
<mgrwt>
<rscale>  0 0.39162657E+03</rscale>
<asrwt>0</asrwt>
<pdfrwt beam="1">  1        1 0.20925116E+00 0.39162657E+03</pdfrwt>
<pdfrwt beam="2">  1       -1 0.43370030E-02 0.39162657E+03</pdfrwt>
<totfact> 0.19326683E+03</totfact>
</mgrwt>
</event>
<event>
 6    1  0.6101889E-006  0.1254966E+03  0.7546771E-02  0.1251307E+00
         -2   -1    0    0    0  501 -0.00000000000E+00  0.00000000000E+00  0.94962312881E+01  0.94962312881E+01  0.00000000000E+00 0.  1.
          2   -1    0    0  501    0  0.00000000000E+00 -0.00000000000E+00 -0.15937234459E+04  0.15937234459E+04  0.00000000000E+00 0. -1.
          5    1    1    2  502    0  0.37498295693E+02  0.89538104677E+01 -0.12820071995E+03  0.13395449786E+03  0.47000000000E+01 0. -1.
         -5    1    1    2    0  502 -0.28772830937E+02 -0.14863084577E+01 -0.11548941321E+04  0.11552630139E+04  0.47000000000E+01 0. -1.
        -11    1    1    2    0    0  0.28807719647E+02  0.25911249419E+02 -0.13187582695E+03  0.13745003198E+03  0.00000000000E+00 0. -1.
         11    1    1    2    0    0 -0.37533184403E+02 -0.33378751429E+02 -0.16925653558E+03  0.17655213342E+03  0.00000000000E+00 0.  1.
<mgrwt>
<rscale>  0 0.11515736E+03</rscale>
<asrwt>0</asrwt>
<pdfrwt beam="2">  1        2 0.24518809E+00 0.12549659E+03</pdfrwt>
<pdfrwt beam="1">  1       -2 0.14609594E-02 0.12549659E+03</pdfrwt>
<totfact> 0.14419961E+04</totfact>
</mgrwt>
</event>
<event>
 6    1  0.6101889E-006  0.1507788E+03  0.7546771E-02  0.1209710E+00
         -1   -1    0    0    0  501 -0.00000000000E+00  0.00000000000E+00  0.15778818601E+02  0.15778818601E+02  0.00000000000E+00 0. -1.
          1   -1    0    0  501    0  0.00000000000E+00 -0.00000000000E+00 -0.15273800471E+04  0.15273800471E+04  0.00000000000E+00 0.  1.
          5    1    1    2  502    0  0.17111522133E+02  0.36294997812E+02 -0.12287912319E+03  0.12935029946E+03  0.47000000000E+01 0.  1.
         -5    1    1    2    0  502  0.66757997231E+02 -0.44965587564E+02 -0.10674073067E+04  0.10704480289E+04  0.47000000000E+01 0.  1.
        -11    1    1    2    0    0 -0.39893337839E+02 -0.28886418636E+02 -0.70733185520E+02  0.86192152307E+02  0.00000000000E+00 0.  1.
         11    1    1    2    0    0 -0.43976181526E+02  0.37557008387E+02 -0.25058161310E+03  0.25716838500E+03  0.00000000000E+00 0. -1.
<mgrwt>
<rscale>  0 0.14272399E+03</rscale>
<asrwt>0</asrwt>
<pdfrwt beam="2">  1        1 0.23498162E+00 0.15077879E+03</pdfrwt>
<pdfrwt beam="1">  1       -1 0.24275098E-02 0.15077879E+03</pdfrwt>
<totfact> 0.35100016E+03</totfact>
</mgrwt>
</event>
<event>
 6    1  0.6101889E-006  0.1704337E+03  0.7546771E-02  0.1182743E+00
          2   -1    0    0  501    0  0.00000000000E+00  0.00000000000E+00  0.15663248796E+04  0.15663248796E+04  0.00000000000E+00 0. -1.
         -2   -1    0    0    0  501 -0.00000000000E+00 -0.00000000000E+00 -0.18248238048E+02  0.18248238048E+02  0.00000000000E+00 0.  1.
          5    1    1    2  502    0 -0.11126769465E+02 -0.15876456561E+02  0.39269761484E+02  0.44046237508E+02  0.47000000000E+01 0. -1.
         -5    1    1    2    0  502  0.10225937684E+03  0.87385936127E+02  0.10212971760E+04  0.10301278045E+04  0.47000000000E+01 0. -1.
        -11    1    1    2    0    0 -0.93933153215E+02 -0.57083941914E+02  0.48251817770E+03  0.49487958688E+03  0.00000000000E+00 0. -1.
         11    1    1    2    0    0  0.28005458356E+01 -0.14425537652E+02  0.49915263164E+01  0.15519488668E+02  0.00000000000E+00 0.  1.
<mgrwt>
<rscale>  0 0.16538921E+03</rscale>
<asrwt>0</asrwt>
<pdfrwt beam="1">  1        2 0.24097295E+00 0.17043369E+03</pdfrwt>
<pdfrwt beam="2">  1       -2 0.28074225E-02 0.17043369E+03</pdfrwt>
<totfact> 0.58237692E+03</totfact>
</mgrwt>
</event>
<event>
 6    1  0.6101889E-006  0.3336102E+03  0.7546771E-02  0.1070897E+00
          2   -1    0    0  501    0  0.00000000000E+00  0.00000000000E+00  0.46389653839E+03  0.46389653839E+03  0.00000000000E+00 0.  1.
         -2   -1    0    0    0  501 -0.00000000000E+00 -0.00000000000E+00 -0.23194338738E+03  0.23194338738E+03  0.00000000000E+00 0. -1.
          5    1    1    2  502    0 -0.12320787980E+03 -0.28272396772E+03  0.13522183296E+03  0.33677894482E+03  0.47000000000E+01 0.  1.
         -5    1    1    2    0  502  0.21254961572E+02 -0.93030727967E+01  0.13744864530E+01  0.23712860812E+02  0.47000000000E+01 0.  1.
        -11    1    1    2    0    0  0.50746706561E+01  0.10625631951E+03  0.31033907459E+01  0.10642268908E+03  0.00000000000E+00 0.  1.
         11    1    1    2    0    0  0.96878247573E+02  0.18577072101E+03  0.92253440854E+02  0.22892543106E+03  0.00000000000E+00 0. -1.
<mgrwt>
<rscale>  0 0.33054184E+03</rscale>
<asrwt>0</asrwt>
<pdfrwt beam="1">  1        2 0.71368698E-01 0.33361023E+03</pdfrwt>
<pdfrwt beam="2">  1       -2 0.35683598E-01 0.33361023E+03</pdfrwt>
<totfact> 0.50338996E+02</totfact>
</mgrwt>
</event>
<event>
 6    1  0.6101889E-006  0.1242285E+03  0.7546771E-02  0.1246266E+00
          3   -1    0    0  501    0  0.00000000000E+00  0.00000000000E+00  0.12477007155E+03  0.12477007155E+03  0.00000000000E+00 0. -1.
         -3   -1    0    0    0  501 -0.00000000000E+00 -0.00000000000E+00 -0.10221784660E+03  0.10221784660E+03  0.00000000000E+00 0.  1.
          5    1    1    2  502    0  0.15019547712E+02 -0.34995568816E+02  0.63778986905E+01  0.38897869376E+02  0.47000000000E+01 0. -1.
         -5    1    1    2    0  502 -0.23729711416E+02  0.82084193697E+02  0.16666937380E+01  0.85590781786E+02  0.47000000000E+01 0.  1.
        -11    1    1    2    0    0  0.27804935961E+02 -0.56362637181E+02 -0.16447791293E+02  0.64964537805E+02  0.00000000000E+00 0. -1.
         11    1    1    2    0    0 -0.19094772256E+02  0.92740123006E+01  0.30955423814E+02  0.37534729187E+02  0.00000000000E+00 0.  1.
<mgrwt>
<rscale>  0 0.11809933E+03</rscale>
<asrwt>0</asrwt>
<pdfrwt beam="1">  1        3 0.19195396E-01 0.12422845E+03</pdfrwt>
<pdfrwt beam="2">  1       -3 0.15725823E-01 0.12422845E+03</pdfrwt>
<totfact> 0.18643123E+03</totfact>
</mgrwt>
</event>
<event>
 6    1  0.6101889E-006  0.1275948E+03  0.7546771E-02  0.1245449E+00
         -1   -1    0    0    0  501 -0.00000000000E+00  0.00000000000E+00  0.75692247824E+02  0.75692247824E+02  0.00000000000E+00 0.  1.
          1   -1    0    0  501    0  0.00000000000E+00 -0.00000000000E+00 -0.16748937785E+03  0.16748937785E+03  0.00000000000E+00 0. -1.
          5    1    1    2  502    0  0.69163531819E+02 -0.21357132061E+02 -0.49681440014E+02  0.87920741042E+02  0.47000000000E+01 0. -1.
         -5    1    1    2    0  502 -0.44892247104E+02  0.29467516037E+02 -0.20263471100E+02  0.57587729704E+02  0.47000000000E+01 0. -1.
        -11    1    1    2    0    0 -0.39331927847E+02 -0.24730849887E+02  0.19691414462E+02  0.50461542662E+02  0.00000000000E+00 0.  1.
         11    1    1    2    0    0  0.15060643133E+02  0.16620465911E+02 -0.41543633371E+02  0.47211612261E+02  0.00000000000E+00 0. -1.
<mgrwt>
<rscale>  0 0.11858529E+03</rscale>
<asrwt>0</asrwt>
<pdfrwt beam="2">  1        1 0.25767596E-01 0.12759477E+03</pdfrwt>
<pdfrwt beam="1">  1       -1 0.11644961E-01 0.12759477E+03</pdfrwt>
<totfact> 0.83143985E+03</totfact>
</mgrwt>
</event>
<event>
 6    1  0.6101889E-006  0.1256898E+03  0.7546771E-02  0.1248740E+00
          1   -1    0    0  501    0  0.00000000000E+00  0.00000000000E+00  0.64536512771E+03  0.64536512771E+03  0.00000000000E+00 0. -1.
         -1   -1    0    0    0  501 -0.00000000000E+00 -0.00000000000E+00 -0.18786954662E+02  0.18786954662E+02  0.00000000000E+00 0.  1.
          5    1    1    2  502    0  0.19487099010E+02  0.52075983644E+02  0.29398446957E+03  0.29923337622E+03  0.47000000000E+01 0. -1.
         -5    1    1    2    0  502 -0.66568841603E+01 -0.54937751590E+02  0.10094649168E+03  0.11521612230E+03  0.47000000000E+01 0. -1.
        -11    1    1    2    0    0 -0.34791460860E+02  0.35000366643E+02  0.88200216744E+02  0.10106804464E+03  0.00000000000E+00 0.  1.
         11    1    1    2    0    0  0.21961246011E+02 -0.32138598697E+02  0.14344699506E+03  0.14863453921E+03  0.00000000000E+00 0. -1.
<mgrwt>
<rscale>  0 0.11664292E+03</rscale>
<asrwt>0</asrwt>
<pdfrwt beam="1">  1        1 0.99286925E-01 0.12568979E+03</pdfrwt>
<pdfrwt beam="2">  1       -1 0.28903012E-02 0.12568979E+03</pdfrwt>
<totfact> 0.11988849E+04</totfact>
</mgrwt>
</event>
<event>
 6    1  0.6101889E-006  0.1289337E+03  0.7546771E-02  0.1243606E+00
          2   -1    0    0  501    0  0.00000000000E+00  0.00000000000E+00  0.30515184170E+03  0.30515184170E+03  0.00000000000E+00 0. -1.
         -2   -1    0    0    0  501 -0.00000000000E+00 -0.00000000000E+00 -0.46022408345E+02  0.46022408345E+02  0.00000000000E+00 0.  1.
          5    1    1    2  502    0 -0.70572427674E+02  0.37806018925E+02  0.12414829747E+03  0.14779936529E+03  0.47000000000E+01 0. -1.
         -5    1    1    2    0  502  0.42795524431E+02 -0.22812353764E+02  0.77942203026E+02  0.91918101634E+02  0.47000000000E+01 0. -1.
        -11    1    1    2    0    0  0.47995947679E+02  0.22593625428E+02  0.30278636896E+02  0.61080919736E+02  0.00000000000E+00 0.  1.
         11    1    1    2    0    0 -0.20219044436E+02 -0.37587290590E+02  0.26760295962E+02  0.50375863385E+02  0.00000000000E+00 0. -1.
<mgrwt>
<rscale>  0 0.11969226E+03</rscale>
<asrwt>0</asrwt>
<pdfrwt beam="1">  1        2 0.46946436E-01 0.12893368E+03</pdfrwt>
<pdfrwt beam="2">  1       -2 0.70803707E-02 0.12893368E+03</pdfrwt>
<totfact> 0.11549591E+04</totfact>
</mgrwt>
</event>
<event>
 6    1  0.6101889E-006  0.1497756E+03  0.7546771E-02  0.1209601E+00
         -2   -1    0    0    0  501 -0.00000000000E+00  0.00000000000E+00  0.49950757790E+02  0.49950757790E+02  0.00000000000E+00 0.  1.
          2   -1    0    0  501    0  0.00000000000E+00 -0.00000000000E+00 -0.40151818003E+03  0.40151818003E+03  0.00000000000E+00 0. -1.
          5    1    1    2  502    0 -0.22403620882E+02 -0.33713056755E+02 -0.42934905169E+02  0.59194497264E+02  0.47000000000E+01 0.  1.
         -5    1    1    2    0  502  0.10346184857E+03  0.18385168881E+02 -0.20667777795E+03  0.23190550326E+03  0.47000000000E+01 0.  1.
        -11    1    1    2    0    0 -0.77726831935E+02 -0.15623312408E+01 -0.11496965592E+03  0.13878733034E+03  0.00000000000E+00 0. -1.
         11    1    1    2    0    0 -0.33313957520E+01  0.16890219115E+02  0.13014916797E+02  0.21581606952E+02  0.00000000000E+00 0.  1.
<mgrwt>
<rscale>  0 0.14280723E+03</rscale>
<asrwt>0</asrwt>
<pdfrwt beam="2">  1        2 0.61772029E-01 0.14977556E+03</pdfrwt>
<pdfrwt beam="1">  1       -2 0.76847318E-02 0.14977556E+03</pdfrwt>
<totfact> 0.76865223E+03</totfact>
</mgrwt>
</event>
<event>
 6    1  0.6101889E-006  0.1339790E+03  0.7546771E-02  0.1233484E+00
          4   -1    0    0  501    0  0.00000000000E+00  0.00000000000E+00  0.59827026569E+02  0.59827026569E+02  0.00000000000E+00 0. -1.
         -4   -1    0    0    0  501 -0.00000000000E+00 -0.00000000000E+00 -0.24034813845E+03  0.24034813845E+03  0.00000000000E+00 0.  1.
          5    1    1    2  502    0  0.44278987155E+02  0.92141249275E+01 -0.74301585424E+02  0.87111103759E+02  0.47000000000E+01 0.  1.
         -5    1    1    2    0  502 -0.62167982649E+02  0.35580931162E+02 -0.13411391087E+02  0.73026133267E+02  0.47000000000E+01 0.  1.
        -11    1    1    2    0    0  0.13814279405E+02 -0.27102816994E+02 -0.11054638321E+03  0.11465557050E+03  0.00000000000E+00 0.  1.
         11    1    1    2    0    0  0.40747160888E+01 -0.17692239096E+02  0.17738247844E+02  0.25382357495E+02  0.00000000000E+00 0. -1.
<mgrwt>
<rscale>  0 0.12601961E+03</rscale>
<asrwt>0</asrwt>
<pdfrwt beam="1">  1        4 0.92041578E-02 0.13397899E+03</pdfrwt>
<pdfrwt beam="2">  1       -4 0.36976637E-01 0.13397899E+03</pdfrwt>
<totfact> 0.10208477E+03</totfact>
</mgrwt>
</event>
<event>
 6    1  0.6101889E-006  0.1864696E+03  0.7546771E-02  0.1166632E+00
         -2   -1    0    0    0  501 -0.00000000000E+00  0.00000000000E+00  0.57363342603E+02  0.57363342603E+02  0.00000000000E+00 0.  1.
          2   -1    0    0  501    0  0.00000000000E+00 -0.00000000000E+00 -0.55559721848E+03  0.55559721848E+03  0.00000000000E+00 0. -1.
          5    1    1    2  502    0  0.47916281252E+02 -0.61076987614E+02 -0.50701455069E+02  0.92839086441E+02  0.47000000000E+01 0. -1.
         -5    1    1    2    0  502  0.70254193423E+02 -0.10909010044E+02 -0.25941000133E+03  0.26901728008E+03  0.47000000000E+01 0. -1.
        -11    1    1    2    0    0 -0.12448496646E+03  0.63442927323E+02 -0.19391248497E+03  0.23900536339E+03  0.00000000000E+00 0. -1.
         11    1    1    2    0    0  0.63144917866E+01  0.85430703351E+01  0.57900654908E+01  0.12098831169E+02  0.00000000000E+00 0.  1.
<mgrwt>
<rscale>  0 0.18121493E+03</rscale>
<asrwt>0</asrwt>
<pdfrwt beam="2">  1        2 0.85476494E-01 0.18646961E+03</pdfrwt>
<pdfrwt beam="1">  1       -2 0.88251298E-02 0.18646961E+03</pdfrwt>
<totfact> 0.43871229E+03</totfact>
</mgrwt>
</event>
<event>
 6    1  0.6101889E-006  0.2187722E+03  0.7546771E-02  0.1134802E+00
         -1   -1    0    0    0  501 -0.00000000000E+00  0.00000000000E+00  0.21934718802E+03  0.21934718802E+03  0.00000000000E+00 0.  1.
          1   -1    0    0  501    0  0.00000000000E+00 -0.00000000000E+00 -0.54549693876E+02  0.54549693876E+02  0.00000000000E+00 0. -1.
          5    1    1    2  502    0 -0.61532590063E+02  0.45229752467E+02  0.33383807631E+02  0.83477893841E+02  0.47000000000E+01 0. -1.
         -5    1    1    2    0  502  0.28106705559E+02 -0.25761557958E+02  0.34812326768E+02  0.51842384791E+02  0.47000000000E+01 0.  1.
        -11    1    1    2    0    0 -0.36253126819E+01 -0.42773978682E+02  0.81783320358E+02  0.92364861463E+02  0.00000000000E+00 0.  1.
         11    1    1    2    0    0  0.37051197186E+02  0.23305784172E+02  0.14818039382E+02  0.46211741797E+02  0.00000000000E+00 0. -1.
<mgrwt>
<rscale>  0 0.21877223E+03</rscale>
<asrwt>0</asrwt>
<pdfrwt beam="2">  1        1 0.83922607E-02 0.21877223E+03</pdfrwt>
<pdfrwt beam="1">  1       -1 0.33745721E-01 0.21877223E+03</pdfrwt>
<totfact> 0.66506343E+03</totfact>
</mgrwt>
</event>
<event>
 6    1  0.6101889E-006  0.1359883E+03  0.7546771E-02  0.1231213E+00
         -1   -1    0    0    0  501 -0.00000000000E+00  0.00000000000E+00  0.52958078095E+02  0.52958078095E+02  0.00000000000E+00 0.  1.
          1   -1    0    0  501    0  0.00000000000E+00 -0.00000000000E+00 -0.31085710152E+03  0.31085710152E+03  0.00000000000E+00 0. -1.
          5    1    1    2  502    0  0.24711115168E+02  0.30697345744E+02 -0.36785276593E+02  0.54112963536E+02  0.47000000000E+01 0. -1.
         -5    1    1    2    0  502 -0.68012782535E+02 -0.62217112088E+02 -0.16863852904E+03  0.19224398847E+03  0.47000000000E+01 0. -1.
        -11    1    1    2    0    0 -0.99270167477E+01 -0.16884789445E+02 -0.39862410194E+02  0.44414564307E+02  0.00000000000E+00 0. -1.
         11    1    1    2    0    0  0.53228684115E+02  0.48404555789E+02 -0.12612807599E+02  0.73043663306E+02  0.00000000000E+00 0.  1.
<mgrwt>
<rscale>  0 0.12750021E+03</rscale>
<asrwt>0</asrwt>
<pdfrwt beam="2">  1        1 0.47824170E-01 0.13598826E+03</pdfrwt>
<pdfrwt beam="1">  1       -1 0.81473965E-02 0.13598826E+03</pdfrwt>
<totfact> 0.66860555E+03</totfact>
</mgrwt>
</event>
<event>
 6    1  0.6101889E-006  0.1563649E+03  0.7546771E-02  0.1201260E+00
         -2   -1    0    0    0  501 -0.00000000000E+00  0.00000000000E+00  0.79857695772E+02  0.79857695772E+02  0.00000000000E+00 0. -1.
          2   -1    0    0  501    0  0.00000000000E+00 -0.00000000000E+00 -0.26178167804E+03  0.26178167804E+03  0.00000000000E+00 0.  1.
          5    1    1    2  502    0  0.78153764472E+02  0.35313489674E+02 -0.12969692649E+03  0.15555846552E+03  0.47000000000E+01 0. -1.
         -5    1    1    2    0  502 -0.18700621784E+02  0.37412026279E+02  0.76752213233E+01  0.42782846887E+02  0.47000000000E+01 0. -1.
        -11    1    1    2    0    0 -0.77101784925E+02 -0.57174653659E+02 -0.68854764584E+02  0.11812961045E+03  0.00000000000E+00 0.  1.
         11    1    1    2    0    0  0.17648642236E+02 -0.15550862293E+02  0.89524874883E+01  0.25168450947E+02  0.00000000000E+00 0. -1.
<mgrwt>
<rscale>  0 0.14936127E+03</rscale>
<asrwt>0</asrwt>
<pdfrwt beam="2">  1        2 0.40274104E-01 0.15636489E+03</pdfrwt>
<pdfrwt beam="1">  1       -2 0.12285799E-01 0.15636489E+03</pdfrwt>
<totfact> 0.58132699E+03</totfact>
</mgrwt>
</event>
<event>
 6    1  0.6101889E-006  0.1817394E+03  0.7546771E-02  0.1169822E+00
          1   -1    0    0  501    0  0.00000000000E+00  0.00000000000E+00  0.18388775512E+03  0.18388775512E+03  0.00000000000E+00 0. -1.
         -1   -1    0    0    0  501 -0.00000000000E+00 -0.00000000000E+00 -0.16581489149E+03  0.16581489149E+03  0.00000000000E+00 0.  1.
          5    1    1    2  502    0 -0.42981887102E+02  0.83985182862E+02 -0.51994843390E+02  0.10782628297E+03  0.47000000000E+01 0. -1.
         -5    1    1    2    0  502  0.10574635870E+02  0.51401535962E+02  0.51837498043E+02  0.73913172211E+02  0.47000000000E+01 0.  1.
        -11    1    1    2    0    0  0.18928614714E+02 -0.14263285910E+03  0.31975419705E+02  0.14739352908E+03  0.00000000000E+00 0.  1.
         11    1    1    2    0    0  0.13478636518E+02  0.72461402740E+01 -0.13745210723E+02  0.20569662348E+02  0.00000000000E+00 0. -1.
<mgrwt>
<rscale>  0 0.17792911E+03</rscale>
<asrwt>0</asrwt>
<pdfrwt beam="1">  1        1 0.28290424E-01 0.18173939E+03</pdfrwt>
<pdfrwt beam="2">  1       -1 0.25509983E-01 0.18173939E+03</pdfrwt>
<totfact> 0.21634919E+03</totfact>
</mgrwt>
</event>
<event>
 6    1  0.6101889E-006  0.2918366E+03  0.7546771E-02  0.1089394E+00
         -1   -1    0    0    0  501 -0.00000000000E+00  0.00000000000E+00  0.13625750496E+03  0.13625750496E+03  0.00000000000E+00 0.  1.
          1   -1    0    0  501    0  0.00000000000E+00 -0.00000000000E+00 -0.15626408462E+03  0.15626408462E+03  0.00000000000E+00 0. -1.
          5    1    1    2  502    0 -0.36880090286E+01 -0.11652090200E+02  0.27419292995E+02  0.30385526899E+02  0.47000000000E+01 0.  1.
         -5    1    1    2    0  502 -0.20488975654E+02  0.75933874909E+02 -0.10719246906E+03  0.13303408174E+03  0.47000000000E+01 0.  1.
        -11    1    1    2    0    0 -0.29099928810E+02 -0.50676668997E+02  0.39332295781E+02  0.70441182052E+02  0.00000000000E+00 0. -1.
         11    1    1    2    0    0  0.53276913493E+02 -0.13605115712E+02  0.20434300617E+02  0.58660798891E+02  0.00000000000E+00 0.  1.
<mgrwt>
<rscale>  0 0.29183663E+03</rscale>
<asrwt>0</asrwt>
<pdfrwt beam="2">  1        1 0.24040628E-01 0.29183663E+03</pdfrwt>
<pdfrwt beam="1">  1       -1 0.20962693E-01 0.29183663E+03</pdfrwt>
<totfact> 0.37431660E+03</totfact>
</mgrwt>
</event>
<event>
 6    1  0.6101889E-006  0.1916649E+03  0.7546771E-02  0.1161683E+00
          1   -1    0    0  501    0  0.00000000000E+00  0.00000000000E+00  0.67044127290E+02  0.67044127290E+02  0.00000000000E+00 0. -1.
         -1   -1    0    0    0  501 -0.00000000000E+00 -0.00000000000E+00 -0.51369848825E+03  0.51369848825E+03  0.00000000000E+00 0.  1.
          5    1    1    2  502    0  0.11974966362E+02  0.30291790458E+02  0.10707904372E+01  0.32927632479E+02  0.47000000000E+01 0.  1.
         -5    1    1    2    0  502 -0.13370971377E+03  0.49024631198E+02 -0.17709900671E+03  0.22730563169E+03  0.47000000000E+01 0.  1.
        -11    1    1    2    0    0  0.82358717692E+02 -0.93958452435E+02 -0.23167872958E+03  0.26322268691E+03  0.00000000000E+00 0.  1.
         11    1    1    2    0    0  0.39376029717E+02  0.14642030779E+02 -0.38947415112E+02  0.57286664465E+02  0.00000000000E+00 0. -1.
<mgrwt>
<rscale>  0 0.18647132E+03</rscale>
<asrwt>0</asrwt>
<pdfrwt beam="1">  1        1 0.10314481E-01 0.19166486E+03</pdfrwt>
<pdfrwt beam="2">  1       -1 0.79030535E-01 0.19166486E+03</pdfrwt>
<totfact> 0.10224178E+03</totfact>
</mgrwt>
</event>
<event>
 6    1  0.6101889E-006  0.1696483E+03  0.7546771E-02  0.1185539E+00
          2   -1    0    0  501    0  0.00000000000E+00  0.00000000000E+00  0.70443313707E+03  0.70443313707E+03  0.00000000000E+00 0. -1.
         -2   -1    0    0    0  501 -0.00000000000E+00 -0.00000000000E+00 -0.35461922939E+02  0.35461922939E+02  0.00000000000E+00 0.  1.
          5    1    1    2  502    0  0.92721812839E+01  0.76919417429E+02  0.37502233190E+03  0.38297050741E+03  0.47000000000E+01 0.  1.
         -5    1    1    2    0  502 -0.33122153086E+02  0.35267942001E+02  0.32557158308E+02  0.58506096393E+02  0.47000000000E+01 0.  1.
        -11    1    1    2    0    0  0.37048961718E+02 -0.14248391631E+02  0.41963582902E+02  0.57763176146E+02  0.00000000000E+00 0.  1.
         11    1    1    2    0    0 -0.13198989916E+02 -0.97938967799E+02  0.21942814102E+03  0.24065528006E+03  0.00000000000E+00 0. -1.
<mgrwt>
<rscale>  0 0.16282897E+03</rscale>
<asrwt>0</asrwt>
<pdfrwt beam="1">  1        2 0.10837432E+00 0.16964832E+03</pdfrwt>
<pdfrwt beam="2">  1       -2 0.54556810E-02 0.16964832E+03</pdfrwt>
<totfact> 0.69527019E+03</totfact>
</mgrwt>
</event>
<event>
 6    1  0.6101889E-006  0.1255088E+03  0.7546771E-02  0.1249728E+00
          1   -1    0    0  501    0  0.00000000000E+00  0.00000000000E+00  0.98243864510E+02  0.98243864510E+02  0.00000000000E+00 0. -1.
         -1   -1    0    0    0  501 -0.00000000000E+00 -0.00000000000E+00 -0.13169562126E+03  0.13169562126E+03  0.00000000000E+00 0.  1.
          5    1    1    2  502    0 -0.17491108635E+01 -0.89526831505E+01  0.68588266547E+02  0.69351641887E+02  0.47000000000E+01 0.  1.
         -5    1    1    2    0  502 -0.68896336980E+01  0.16097371105E+02 -0.54037646811E+02  0.56997804184E+02  0.47000000000E+01 0.  1.
        -11    1    1    2    0    0  0.41731889229E+02 -0.30131594235E+02 -0.25596034031E+02  0.57485828757E+02  0.00000000000E+00 0. -1.
         11    1    1    2    0    0 -0.33093144668E+02  0.22986906280E+02 -0.22406342453E+02  0.46104210940E+02  0.00000000000E+00 0.  1.
<mgrwt>
<rscale>  0 0.11606804E+03</rscale>
<asrwt>0</asrwt>
<pdfrwt beam="1">  1        1 0.15114441E-01 0.12550881E+03</pdfrwt>
<pdfrwt beam="2">  1       -1 0.20260865E-01 0.12550881E+03</pdfrwt>
<totfact> 0.68599625E+03</totfact>
</mgrwt>
</event>
<event>
 6    1  0.6101889E-006  0.2076292E+03  0.7546771E-02  0.1147517E+00
          1   -1    0    0  501    0  0.00000000000E+00  0.00000000000E+00  0.85483071083E+03  0.85483071083E+03  0.00000000000E+00 0. -1.
         -1   -1    0    0    0  501 -0.00000000000E+00 -0.00000000000E+00 -0.46035293786E+02  0.46035293786E+02  0.00000000000E+00 0.  1.
          5    1    1    2  502    0 -0.11317856592E+03 -0.70827340326E+02  0.29981453333E+03  0.32823275936E+03  0.47000000000E+01 0. -1.
         -5    1    1    2    0  502  0.20745067978E+02 -0.66801282499E+02  0.97842158470E+02  0.12036588870E+03  0.47000000000E+01 0. -1.
        -11    1    1    2    0    0  0.64667312314E+02  0.99804310093E+02  0.17546905244E+03  0.21197204995E+03  0.00000000000E+00 0.  1.
         11    1    1    2    0    0  0.27766185625E+02  0.37824312732E+02  0.23566967280E+03  0.24029530660E+03  0.00000000000E+00 0. -1.
<mgrwt>
<rscale>  0 0.20265686E+03</rscale>
<asrwt>0</asrwt>
<pdfrwt beam="1">  1        1 0.13151241E+00 0.20762924E+03</pdfrwt>
<pdfrwt beam="2">  1       -1 0.70823535E-02 0.20762924E+03</pdfrwt>
<totfact> 0.21449860E+03</totfact>
</mgrwt>
</event>
<event>
 6    1  0.6101889E-006  0.1319913E+03  0.7546771E-02  0.1237299E+00
          1   -1    0    0  501    0  0.00000000000E+00  0.00000000000E+00  0.21002334975E+03  0.21002334975E+03  0.00000000000E+00 0. -1.
         -1   -1    0    0    0  501 -0.00000000000E+00 -0.00000000000E+00 -0.71354275431E+02  0.71354275431E+02  0.00000000000E+00 0.  1.
          5    1    1    2  502    0 -0.25399937605E+02 -0.62705290206E+02  0.24055576014E+02  0.71957424825E+02  0.47000000000E+01 0.  1.
         -5    1    1    2    0  502 -0.12720210631E+02  0.44194543671E+02  0.95630670666E+02  0.10621806165E+03  0.47000000000E+01 0.  1.
        -11    1    1    2    0    0  0.48675091311E+02  0.45361589596E+02 -0.34973672630E+01  0.66627095859E+02  0.00000000000E+00 0.  1.
         11    1    1    2    0    0 -0.10554943076E+02 -0.26850843061E+02  0.22480194906E+02  0.36575042850E+02  0.00000000000E+00 0. -1.
<mgrwt>
<rscale>  0 0.12358413E+03</rscale>
<asrwt>0</asrwt>
<pdfrwt beam="1">  1        1 0.32311284E-01 0.13199131E+03</pdfrwt>
<pdfrwt beam="2">  1       -1 0.10977581E-01 0.13199131E+03</pdfrwt>
<totfact> 0.68859453E+03</totfact>
</mgrwt>
</event>
<event>
 6    1  0.6101889E-006  0.1495759E+03  0.7546771E-02  0.1211090E+00
         -1   -1    0    0    0  501 -0.00000000000E+00  0.00000000000E+00  0.14794389286E+02  0.14794389286E+02  0.00000000000E+00 0.  1.
          1   -1    0    0  501    0  0.00000000000E+00 -0.00000000000E+00 -0.12610609497E+04  0.12610609497E+04  0.00000000000E+00 0. -1.
          5    1    1    2  502    0  0.51662284549E+01 -0.39421696022E+02 -0.58723078355E+03  0.58859395442E+03  0.47000000000E+01 0. -1.
         -5    1    1    2    0  502  0.69963781312E+02  0.17544545051E+02 -0.19859530526E+03  0.21134078411E+03  0.47000000000E+01 0.  1.
        -11    1    1    2    0    0 -0.75963519825E+02  0.48821068358E+02 -0.30227710689E+03  0.31547646887E+03  0.00000000000E+00 0.  1.
         11    1    1    2    0    0  0.83351005769E+00 -0.26943917387E+02 -0.15816336471E+03  0.16044413158E+03  0.00000000000E+00 0. -1.
<mgrwt>
<rscale>  0 0.14167669E+03</rscale>
<asrwt>0</asrwt>
<pdfrwt beam="2">  1        1 0.19400939E+00 0.14957588E+03</pdfrwt>
<pdfrwt beam="1">  1       -1 0.22760597E-02 0.14957588E+03</pdfrwt>
<totfact> 0.57779715E+03</totfact>
</mgrwt>
</event>
<event>
 6    1  0.6101889E-006  0.1256348E+03  0.7546771E-02  0.1249088E+00
         -4   -1    0    0    0  501 -0.00000000000E+00  0.00000000000E+00  0.16680309624E+02  0.16680309624E+02  0.00000000000E+00 0.  1.
          4   -1    0    0  501    0  0.00000000000E+00 -0.00000000000E+00 -0.85483257218E+03  0.85483257218E+03  0.00000000000E+00 0. -1.
          5    1    1    2  502    0  0.59879612360E+01  0.63651745714E+02 -0.28144817252E+03  0.28865648135E+03  0.47000000000E+01 0. -1.
         -5    1    1    2    0  502  0.59299441669E+01 -0.59436357054E+02 -0.36535620536E+03  0.37023653463E+03  0.47000000000E+01 0. -1.
        -11    1    1    2    0    0 -0.36949040996E+02  0.30375686426E+02 -0.78018657419E+02  0.91514069201E+02  0.00000000000E+00 0. -1.
         11    1    1    2    0    0  0.25031135593E+02 -0.34591075087E+02 -0.11332922726E+03  0.12110579662E+03  0.00000000000E+00 0.  1.
<mgrwt>
<rscale>  0 0.11643989E+03</rscale>
<asrwt>0</asrwt>
<pdfrwt beam="2">  1        4 0.13151267E+00 0.12563480E+03</pdfrwt>
<pdfrwt beam="1">  1       -4 0.25662022E-02 0.12563480E+03</pdfrwt>
<totfact> 0.50117273E+02</totfact>
</mgrwt>
</event>
<event>
 6    1  0.6101889E-006  0.1630836E+03  0.7546771E-02  0.1192105E+00
          1   -1    0    0  501    0  0.00000000000E+00  0.00000000000E+00  0.49555958476E+03  0.49555958476E+03  0.00000000000E+00 0. -1.
         -1   -1    0    0    0  501 -0.00000000000E+00 -0.00000000000E+00 -0.50590854548E+02  0.50590854548E+02  0.00000000000E+00 0.  1.
          5    1    1    2  502    0  0.31033768555E+01 -0.53675501424E+02  0.20577487211E+03  0.21273476066E+03  0.47000000000E+01 0.  1.
         -5    1    1    2    0  502 -0.90780534392E+02 -0.36355772504E+01  0.11067888537E+03  0.14326977530E+03  0.47000000000E+01 0.  1.
        -11    1    1    2    0    0  0.15194055060E+02  0.29076129492E+02 -0.73207689233E+01  0.33613602500E+02  0.00000000000E+00 0.  1.
         11    1    1    2    0    0  0.72483102476E+02  0.28234949182E+02  0.13583574166E+03  0.15653230086E+03  0.00000000000E+00 0. -1.
<mgrwt>
<rscale>  0 0.15701769E+03</rscale>
<asrwt>0</asrwt>
<pdfrwt beam="1">  1        1 0.76239933E-01 0.16308356E+03</pdfrwt>
<pdfrwt beam="2">  1       -1 0.77832087E-02 0.16308356E+03</pdfrwt>
<totfact> 0.40075765E+03</totfact>
</mgrwt>
</event>
<event>
 6    1  0.6101889E-006  0.1557240E+03  0.7546771E-02  0.1199380E+00
          1   -1    0    0  501    0  0.00000000000E+00  0.00000000000E+00  0.47859405547E+03  0.47859405547E+03  0.00000000000E+00 0. -1.
         -1   -1    0    0    0  501 -0.00000000000E+00 -0.00000000000E+00 -0.45818225887E+02  0.45818225887E+02  0.00000000000E+00 0.  1.
          5    1    1    2  502    0 -0.17425163459E+02 -0.10980377017E+02  0.15135094737E+03  0.15281820661E+03  0.47000000000E+01 0.  1.
         -5    1    1    2    0  502  0.22885229265E+02 -0.81768255835E+02  0.40251029808E+02  0.94085157073E+02  0.47000000000E+01 0.  1.
        -11    1    1    2    0    0  0.19104450192E+02 -0.10314076253E+02  0.92072505624E+02  0.94597602918E+02  0.00000000000E+00 0.  1.
         11    1    1    2    0    0 -0.24564515998E+02  0.10306270910E+03  0.14910134678E+03  0.18291131476E+03  0.00000000000E+00 0. -1.
<mgrwt>
<rscale>  0 0.15089334E+03</rscale>
<asrwt>0</asrwt>
<pdfrwt beam="1">  1        1 0.73629851E-01 0.15572397E+03</pdfrwt>
<pdfrwt beam="2">  1       -1 0.70489582E-02 0.15572397E+03</pdfrwt>
<totfact> 0.48601607E+03</totfact>
</mgrwt>
</event>
<event>
 6    1  0.6101889E-006  0.3201441E+03  0.7546771E-02  0.1076179E+00
          2   -1    0    0  501    0  0.00000000000E+00  0.00000000000E+00  0.21617948358E+04  0.21617948358E+04  0.00000000000E+00 0. -1.
         -2   -1    0    0    0  501 -0.00000000000E+00 -0.00000000000E+00 -0.46926578241E+02  0.46926578241E+02  0.00000000000E+00 0.  1.
          5    1    1    2  502    0  0.53099291514E+02  0.19216162975E+03  0.82736093856E+03  0.85105454547E+03  0.47000000000E+01 0.  1.
         -5    1    1    2    0  502  0.28992185931E+02  0.90904040380E+02  0.15418124428E+03  0.18137816156E+03  0.47000000000E+01 0.  1.
        -11    1    1    2    0    0 -0.81638901846E+02 -0.11768505722E+03  0.41002700375E+03  0.43432341267E+03  0.00000000000E+00 0.  1.
         11    1    1    2    0    0 -0.45257559915E+00 -0.16538061291E+03  0.72329907100E+03  0.74196529437E+03  0.00000000000E+00 0. -1.
<mgrwt>
<rscale>  0 0.31885110E+03</rscale>
<asrwt>0</asrwt>
<pdfrwt beam="1">  1        2 0.33258374E+00 0.32014409E+03</pdfrwt>
<pdfrwt beam="2">  1       -2 0.72194753E-02 0.32014409E+03</pdfrwt>
<totfact> 0.67302749E+02</totfact>
</mgrwt>
</event>
<event>
 6    1  0.6101889E-006  0.5791428E+03  0.7546771E-02  0.9949648E-01
          1   -1    0    0  501    0  0.00000000000E+00  0.00000000000E+00  0.59716589201E+03  0.59716589201E+03  0.00000000000E+00 0. -1.
         -1   -1    0    0    0  501 -0.00000000000E+00 -0.00000000000E+00 -0.14041593478E+03  0.14041593478E+03  0.00000000000E+00 0.  1.
          5    1    1    2  502    0 -0.62883004526E+02 -0.12273224712E+03  0.21146336270E+03  0.25250013962E+03  0.47000000000E+01 0. -1.
         -5    1    1    2    0  502  0.26578406089E+02 -0.30460703209E+02  0.28721081869E+01  0.40799572493E+02  0.47000000000E+01 0.  1.
        -11    1    1    2    0    0  0.16190328712E+03  0.16439379365E+03  0.93003728649E+02  0.24877236043E+03  0.00000000000E+00 0.  1.
         11    1    1    2    0    0 -0.12559868869E+03 -0.11200843327E+02  0.14941075769E+03  0.19550975424E+03  0.00000000000E+00 0. -1.
<mgrwt>
<rscale>  0 0.57914284E+03</rscale>
<asrwt>0</asrwt>
<pdfrwt beam="1">  1        1 0.91871675E-01 0.57914284E+03</pdfrwt>
<pdfrwt beam="2">  1       -1 0.21602452E-01 0.57914284E+03</pdfrwt>
<totfact> 0.62504701E+02</totfact>
</mgrwt>
</event>
<event>
 6    1  0.6101889E-006  0.2743677E+03  0.7546771E-02  0.1100785E+00
          2   -1    0    0  501    0  0.00000000000E+00  0.00000000000E+00  0.20687751601E+04  0.20687751601E+04  0.00000000000E+00 0. -1.
         -2   -1    0    0    0  501 -0.00000000000E+00 -0.00000000000E+00 -0.55279349558E+02  0.55279349558E+02  0.00000000000E+00 0.  1.
          5    1    1    2  502    0 -0.20528129072E+03 -0.42083793413E+02  0.14216064763E+04  0.14369754756E+04  0.47000000000E+01 0. -1.
         -5    1    1    2    0  502 -0.38938142982E+02  0.44904498420E+02  0.25093950150E+03  0.25792502083E+03  0.47000000000E+01 0. -1.
        -11    1    1    2    0    0  0.11854109991E+03 -0.46063442746E+02  0.15291933694E+03  0.19889232448E+03  0.00000000000E+00 0.  1.
         11    1    1    2    0    0  0.12567833380E+03  0.43242737739E+02  0.18803049571E+03  0.23026168868E+03  0.00000000000E+00 0. -1.
<mgrwt>
<rscale>  0 0.27086605E+03</rscale>
<asrwt>0</asrwt>
<pdfrwt beam="1">  1        2 0.31827304E+00 0.27436772E+03</pdfrwt>
<pdfrwt beam="2">  1       -2 0.85045169E-02 0.27436772E+03</pdfrwt>
<totfact> 0.58717366E+02</totfact>
</mgrwt>
</event>
<event>
 6    1  0.6101889E-006  0.1655850E+03  0.7546771E-02  0.1191331E+00
          3   -1    0    0  501    0  0.00000000000E+00  0.00000000000E+00  0.45662950410E+03  0.45662950410E+03  0.00000000000E+00 0. -1.
         -3   -1    0    0    0  501 -0.00000000000E+00 -0.00000000000E+00 -0.50878312641E+02  0.50878312641E+02  0.00000000000E+00 0.  1.
          5    1    1    2  502    0 -0.35407403330E+02 -0.29497269104E+02  0.20179125837E+03  0.20704003248E+03  0.47000000000E+01 0. -1.
         -5    1    1    2    0  502 -0.72882641612E+02  0.37573833623E+02  0.56206383578E+02  0.99523464451E+02  0.47000000000E+01 0. -1.
        -11    1    1    2    0    0  0.10566395782E+03 -0.20879627192E+02  0.15279034787E+03  0.18693774689E+03  0.00000000000E+00 0. -1.
         11    1    1    2    0    0  0.26260871256E+01  0.12803062673E+02 -0.50367983481E+01  0.14006572922E+02  0.00000000000E+00 0.  1.
<mgrwt>
<rscale>  0 0.15768902E+03</rscale>
<asrwt>0</asrwt>
<pdfrwt beam="1">  1        3 0.70250690E-01 0.16558501E+03</pdfrwt>
<pdfrwt beam="2">  1       -3 0.78274330E-02 0.16558501E+03</pdfrwt>
<totfact> 0.52099778E+02</totfact>
</mgrwt>
</event>
<event>
 6    1  0.6101889E-006  0.2240739E+03  0.7546771E-02  0.1134075E+00
          2   -1    0    0  501    0  0.00000000000E+00  0.00000000000E+00  0.74377650789E+03  0.74377650789E+03  0.00000000000E+00 0. -1.
         -2   -1    0    0    0  501 -0.00000000000E+00 -0.00000000000E+00 -0.77925250466E+02  0.77925250466E+02  0.00000000000E+00 0.  1.
          5    1    1    2  502    0 -0.13023198179E+03  0.10416797201E+02  0.39651451807E+03  0.41751015770E+03  0.47000000000E+01 0.  1.
         -5    1    1    2    0  502 -0.34292683401E+02  0.76276582322E+02  0.12933432346E+03  0.15408946223E+03  0.47000000000E+01 0.  1.
        -11    1    1    2    0    0  0.15021698385E+03 -0.62796571418E+02  0.14913190614E+03  0.22079147866E+03  0.00000000000E+00 0.  1.
         11    1    1    2    0    0  0.14307681345E+02 -0.23896808105E+02 -0.91294902549E+01  0.29310659756E+02  0.00000000000E+00 0. -1.
<mgrwt>
<rscale>  0 0.21974267E+03</rscale>
<asrwt>0</asrwt>
<pdfrwt beam="1">  1        2 0.11442715E+00 0.22407392E+03</pdfrwt>
<pdfrwt beam="2">  1       -2 0.11988501E-01 0.22407392E+03</pdfrwt>
<totfact> 0.19201126E+03</totfact>
</mgrwt>
</event>
<event>
 6    1  0.6101889E-006  0.1676965E+03  0.7546771E-02  0.1205049E+00
          1   -1    0    0  501    0  0.00000000000E+00  0.00000000000E+00  0.59516371697E+02  0.59516371697E+02  0.00000000000E+00 0. -1.
         -1   -1    0    0    0  501 -0.00000000000E+00 -0.00000000000E+00 -0.50627931658E+03  0.50627931658E+03  0.00000000000E+00 0.  1.
          5    1    1    2  502    0 -0.73466946577E+01 -0.65707430610E+02  0.17968033102E+02  0.68675909701E+02  0.47000000000E+01 0. -1.
         -5    1    1    2    0  502 -0.28451382823E+02  0.58203963157E+02 -0.96926860912E+02  0.11667942783E+03  0.47000000000E+01 0.  1.
        -11    1    1    2    0    0 -0.27142578526E+02 -0.12613958058E+02 -0.88416400082E+02  0.93345012242E+02  0.00000000000E+00 0. -1.
         11    1    1    2    0    0  0.62940656006E+02  0.20117425511E+02 -0.27938771699E+03  0.28709533850E+03  0.00000000000E+00 0.  1.
<mgrwt>
<rscale>  0 0.14633580E+03</rscale>
<asrwt>0</asrwt>
<pdfrwt beam="1">  1        1 0.91563647E-02 0.16769647E+03</pdfrwt>
<pdfrwt beam="2">  1       -1 0.77889127E-01 0.16769647E+03</pdfrwt>
<totfact> 0.12313873E+03</totfact>
</mgrwt>
</event>
<event>
 6    1  0.6101889E-006  0.2730345E+03  0.7546771E-02  0.1099555E+00
          2   -1    0    0  501    0  0.00000000000E+00  0.00000000000E+00  0.18754164352E+03  0.18754164352E+03  0.00000000000E+00 0. -1.
         -2   -1    0    0    0  501 -0.00000000000E+00 -0.00000000000E+00 -0.99375048905E+02  0.99375048905E+02  0.00000000000E+00 0.  1.
          5    1    1    2  502    0 -0.12658057407E+02  0.56410790951E+02  0.12639121609E+03  0.13906557179E+03  0.47000000000E+01 0. -1.
         -5    1    1    2    0  502 -0.76542279532E+00  0.17884271275E+02 -0.30320668578E+02  0.35522752907E+02  0.47000000000E+01 0.  1.
        -11    1    1    2    0    0 -0.34253118604E+02 -0.43094114651E+02 -0.50091974419E+01  0.55276314191E+02  0.00000000000E+00 0.  1.
         11    1    1    2    0    0  0.47676598806E+02 -0.31200947576E+02 -0.28947554555E+01  0.57052053534E+02  0.00000000000E+00 0. -1.
<mgrwt>
<rscale>  0 0.27303450E+03</rscale>
<asrwt>0</asrwt>
<pdfrwt beam="1">  1        2 0.28852560E-01 0.27303450E+03</pdfrwt>
<pdfrwt beam="2">  1       -2 0.15288469E-01 0.27303450E+03</pdfrwt>
<totfact> 0.60254002E+03</totfact>
</mgrwt>
</event>
<event>
 6    1  0.6101889E-006  0.3759600E+03  0.7546771E-02  0.1052437E+00
          1   -1    0    0  501    0  0.00000000000E+00  0.00000000000E+00  0.22741973910E+04  0.22741973910E+04  0.00000000000E+00 0. -1.
         -1   -1    0    0    0  501 -0.00000000000E+00 -0.00000000000E+00 -0.15538001251E+02  0.15538001251E+02  0.00000000000E+00 0.  1.
          5    1    1    2  502    0 -0.33477303920E+02  0.10579740432E+01  0.78594010531E+02  0.85562595088E+02  0.47000000000E+01 0. -1.
         -5    1    1    2    0  502 -0.84823893176E+02  0.74450837021E+02  0.14842757693E+04  0.14885679928E+04  0.47000000000E+01 0. -1.
        -11    1    1    2    0    0  0.20416130417E+02 -0.63598002392E+02  0.33428977379E+03  0.34089760508E+03  0.00000000000E+00 0.  1.
         11    1    1    2    0    0  0.97885066679E+02 -0.11910808673E+02  0.36149983620E+03  0.37470719931E+03  0.00000000000E+00 0. -1.
<mgrwt>
<rscale>  0 0.37596001E+03</rscale>
<asrwt>0</asrwt>
<pdfrwt beam="1">  1        1 0.34987626E+00 0.37596001E+03</pdfrwt>
<pdfrwt beam="2">  1       -1 0.23904635E-02 0.37596001E+03</pdfrwt>
<totfact> 0.11685197E+03</totfact>
</mgrwt>
</event>
<event>
 6    1  0.6101889E-006  0.2074901E+03  0.7546771E-02  0.1147401E+00
         -1   -1    0    0    0  501 -0.00000000000E+00  0.00000000000E+00  0.62793765186E+02  0.62793765186E+02  0.00000000000E+00 0.  1.
          1   -1    0    0  501    0  0.00000000000E+00 -0.00000000000E+00 -0.62706528275E+03  0.62706528275E+03  0.00000000000E+00 0. -1.
          5    1    1    2  502    0 -0.14782624219E+02 -0.10843759969E+03 -0.10249647068E+03  0.15001618415E+03  0.47000000000E+01 0. -1.
         -5    1    1    2    0  502  0.69354742907E+02 -0.47921745890E+02 -0.19702250294E+03  0.21435141884E+03  0.47000000000E+01 0. -1.
        -11    1    1    2    0    0  0.96011317527E+01 -0.55198626646E+01 -0.38052538342E+02  0.39631380105E+02  0.00000000000E+00 0. -1.
         11    1    1    2    0    0 -0.64173250441E+02  0.16187920824E+03 -0.22670000561E+03  0.28586006485E+03  0.00000000000E+00 0.  1.
<mgrwt>
<rscale>  0 0.20279644E+03</rscale>
<asrwt>0</asrwt>
<pdfrwt beam="2">  1        1 0.96471587E-01 0.20749008E+03</pdfrwt>
<pdfrwt beam="1">  1       -1 0.96605787E-02 0.20749008E+03</pdfrwt>
<totfact> 0.21121545E+03</totfact>
</mgrwt>
</event>
<event>
 6    1  0.6101889E-006  0.1250246E+03  0.7546771E-02  0.1247399E+00
         -4   -1    0    0    0  501 -0.00000000000E+00  0.00000000000E+00  0.71070060361E+02  0.71070060361E+02  0.00000000000E+00 0. -1.
          4   -1    0    0  501    0  0.00000000000E+00 -0.00000000000E+00 -0.19346457637E+03  0.19346457637E+03  0.00000000000E+00 0.  1.
          5    1    1    2  502    0 -0.40223657923E+02 -0.79676272036E+01  0.68627737581E+01  0.41840332260E+02  0.47000000000E+01 0.  1.
         -5    1    1    2    0  502  0.42506767764E+02  0.84407599789E+01 -0.11671243055E+03  0.12458713088E+03  0.47000000000E+01 0.  1.
        -11    1    1    2    0    0 -0.48385808303E+02 -0.11846397748E+02 -0.61014645913E+01  0.50187164244E+02  0.00000000000E+00 0.  1.
         11    1    1    2    0    0  0.46102698462E+02  0.11373264973E+02 -0.64433946223E+01  0.47920009348E+02  0.00000000000E+00 0. -1.
<mgrwt>
<rscale>  0 0.11742941E+03</rscale>
<asrwt>0</asrwt>
<pdfrwt beam="2">  1        4 0.29763781E-01 0.12502461E+03</pdfrwt>
<pdfrwt beam="1">  1       -4 0.10933855E-01 0.12502461E+03</pdfrwt>
<totfact> 0.11399329E+03</totfact>
</mgrwt>
</event>
<event>
 6    1  0.6101889E-006  0.2840309E+03  0.7546771E-02  0.1093508E+00
         -2   -1    0    0    0  501 -0.00000000000E+00  0.00000000000E+00  0.54945361121E+03  0.54945361121E+03  0.00000000000E+00 0. -1.
          2   -1    0    0  501    0  0.00000000000E+00 -0.00000000000E+00 -0.36706259533E+02  0.36706259533E+02  0.00000000000E+00 0.  1.
          5    1    1    2  502    0 -0.12608429593E+02  0.43203979632E+02 -0.13866856846E+02  0.47327962894E+02  0.47000000000E+01 0.  1.
         -5    1    1    2    0  502 -0.27643087221E+01 -0.60569579299E+01  0.12339234085E+03  0.12366118196E+03  0.47000000000E+01 0.  1.
        -11    1    1    2    0    0 -0.32783434328E+02 -0.30517098121E+02  0.26239830112E+03  0.26619337947E+03  0.00000000000E+00 0. -1.
         11    1    1    2    0    0  0.48156172643E+02 -0.66299235814E+01  0.14082356655E+03  0.14897734642E+03  0.00000000000E+00 0.  1.
<mgrwt>
<rscale>  0 0.28403089E+03</rscale>
<asrwt>0</asrwt>
<pdfrwt beam="2">  1        2 0.56471173E-02 0.28403089E+03</pdfrwt>
<pdfrwt beam="1">  1       -2 0.84531319E-01 0.28403089E+03</pdfrwt>
<totfact> 0.16849367E+03</totfact>
</mgrwt>
</event>
<event>
 6    1  0.6101889E-006  0.1204525E+03  0.7546771E-02  0.1252690E+00
          1   -1    0    0  501    0  0.00000000000E+00  0.00000000000E+00  0.33892811238E+03  0.33892811238E+03  0.00000000000E+00 0. -1.
         -1   -1    0    0    0  501 -0.00000000000E+00 -0.00000000000E+00 -0.56561368147E+02  0.56561368147E+02  0.00000000000E+00 0.  1.
          5    1    1    2  502    0  0.48652405704E+02  0.41417509221E+02  0.16759750167E+03  0.17942541408E+03  0.47000000000E+01 0. -1.
         -5    1    1    2    0  502 -0.54533143860E+02 -0.60530398357E+01  0.10387040106E+03  0.11756552763E+03  0.47000000000E+01 0.  1.
        -11    1    1    2    0    0  0.10021711048E+02 -0.65660017443E+02  0.13612970551E+02  0.67801073370E+02  0.00000000000E+00 0.  1.
         11    1    1    2    0    0 -0.41409728921E+01  0.30295548057E+02 -0.27141290467E+01  0.30697465450E+02  0.00000000000E+00 0. -1.
<mgrwt>
<rscale>  0 0.11436693E+03</rscale>
<asrwt>0</asrwt>
<pdfrwt beam="1">  1        1 0.52142785E-01 0.12045247E+03</pdfrwt>
<pdfrwt beam="2">  1       -1 0.87017491E-02 0.12045247E+03</pdfrwt>
<totfact> 0.53967663E+03</totfact>
</mgrwt>
</event>
<event>
 6    1  0.6101889E-006  0.1316191E+03  0.7546771E-02  0.1237414E+00
         -3   -1    0    0    0  501 -0.00000000000E+00  0.00000000000E+00  0.61140175448E+03  0.61140175448E+03  0.00000000000E+00 0.  1.
          3   -1    0    0  501    0  0.00000000000E+00 -0.00000000000E+00 -0.22344583657E+02  0.22344583657E+02  0.00000000000E+00 0. -1.
          5    1    1    2  502    0  0.52521920846E+02 -0.17235311614E+02  0.18211962959E+03  0.19038187313E+03  0.47000000000E+01 0.  1.
         -5    1    1    2    0  502 -0.69366790660E+02 -0.20411477424E+02  0.14135200235E+03  0.15884224446E+03  0.47000000000E+01 0.  1.
        -11    1    1    2    0    0 -0.23178761621E+02  0.41507099945E+02  0.21346129755E+03  0.21869115182E+03  0.00000000000E+00 0.  1.
         11    1    1    2    0    0  0.40023631436E+02 -0.38603109072E+01  0.52124241332E+02  0.65831068714E+02  0.00000000000E+00 0. -1.
<mgrwt>
<rscale>  0 0.12351171E+03</rscale>
<asrwt>0</asrwt>
<pdfrwt beam="2">  1        3 0.34376287E-02 0.13161910E+03</pdfrwt>
<pdfrwt beam="1">  1       -3 0.94061796E-01 0.13161910E+03</pdfrwt>
<totfact> 0.98444019E+02</totfact>
</mgrwt>
</event>
<event>
 6    1  0.6101889E-006  0.1848055E+03  0.7546771E-02  0.1166411E+00
          2   -1    0    0  501    0  0.00000000000E+00  0.00000000000E+00  0.11827278750E+03  0.11827278750E+03  0.00000000000E+00 0. -1.
         -2   -1    0    0    0  501 -0.00000000000E+00 -0.00000000000E+00 -0.30111496288E+03  0.30111496288E+03  0.00000000000E+00 0.  1.
          5    1    1    2  502    0 -0.48176843385E+02 -0.45024947017E+02 -0.27899923808E+02  0.71754789672E+02  0.47000000000E+01 0. -1.
         -5    1    1    2    0  502 -0.95709263653E+02  0.63219435165E+02  0.22509459204E+01  0.11482210976E+03  0.47000000000E+01 0.  1.
        -11    1    1    2    0    0  0.90733407084E+02 -0.55856908366E+02 -0.95158655818E+02  0.14285557445E+03  0.00000000000E+00 0. -1.
         11    1    1    2    0    0  0.53152699954E+02  0.37662420218E+02 -0.62034541673E+02  0.89955276497E+02  0.00000000000E+00 0.  1.
<mgrwt>
<rscale>  0 0.18144612E+03</rscale>
<asrwt>0</asrwt>
<pdfrwt beam="1">  1        2 0.18195814E-01 0.18480549E+03</pdfrwt>
<pdfrwt beam="2">  1       -2 0.46325379E-01 0.18480549E+03</pdfrwt>
<totfact> 0.13694194E+03</totfact>
</mgrwt>
</event>
<event>
 6    1  0.6101889E-006  0.1310488E+03  0.7546771E-02  0.1236712E+00
          4   -1    0    0  501    0  0.00000000000E+00  0.00000000000E+00  0.19562719955E+03  0.19562719955E+03  0.00000000000E+00 0.  1.
         -4   -1    0    0    0  501 -0.00000000000E+00 -0.00000000000E+00 -0.73027995291E+02  0.73027995291E+02  0.00000000000E+00 0. -1.
          5    1    1    2  502    0  0.18891226931E+02 -0.48101616552E+02  0.97416309379E+02  0.11037513897E+03  0.47000000000E+01 0.  1.
         -5    1    1    2    0  502 -0.43922171497E+02  0.17664027379E+02 -0.80421470058E+01  0.48248742375E+02  0.47000000000E+01 0.  1.
        -11    1    1    2    0    0  0.50639006513E+00 -0.32321007954E+02 -0.47728174447E+01  0.32675430715E+02  0.00000000000E+00 0.  1.
         11    1    1    2    0    0  0.24524554501E+02  0.62758597127E+02  0.37997859328E+02  0.77355882778E+02  0.00000000000E+00 0. -1.
<mgrwt>
<rscale>  0 0.12395489E+03</rscale>
<asrwt>0</asrwt>
<pdfrwt beam="1">  1        4 0.30096492E-01 0.13104883E+03</pdfrwt>
<pdfrwt beam="2">  1       -4 0.11235076E-01 0.13104883E+03</pdfrwt>
<totfact> 0.10770533E+03</totfact>
</mgrwt>
</event>
<event>
 6    1  0.6101889E-006  0.2100834E+03  0.7546771E-02  0.1154019E+00
         -1   -1    0    0    0  501 -0.00000000000E+00  0.00000000000E+00  0.17587128710E+03  0.17587128710E+03  0.00000000000E+00 0.  1.
          1   -1    0    0  501    0  0.00000000000E+00 -0.00000000000E+00 -0.19419699009E+03  0.19419699009E+03  0.00000000000E+00 0. -1.
          5    1    1    2  502    0 -0.53090830947E+02  0.10163729548E+03  0.38188641985E+02  0.12095138916E+03  0.47000000000E+01 0. -1.
         -5    1    1    2    0  502 -0.45212281601E+02 -0.30817060938E+02 -0.74016959838E+02  0.92165297135E+02  0.47000000000E+01 0.  1.
        -11    1    1    2    0    0  0.70607913145E+02 -0.56945681949E+02 -0.33982406873E+02  0.96866361902E+02  0.00000000000E+00 0. -1.
         11    1    1    2    0    0  0.27695199403E+02 -0.13874552592E+02  0.51485021741E+02  0.60085228994E+02  0.00000000000E+00 0.  1.
<mgrwt>
<rscale>  0 0.19500959E+03</rscale>
<asrwt>0</asrwt>
<pdfrwt beam="2">  1        1 0.29876460E-01 0.21008344E+03</pdfrwt>
<pdfrwt beam="1">  1       -1 0.27057121E-01 0.21008344E+03</pdfrwt>
<totfact> 0.18392533E+03</totfact>
</mgrwt>
</event>
<event>
 6    1  0.6101889E-006  0.1305731E+03  0.7546771E-02  0.1240221E+00
         -2   -1    0    0    0  501 -0.00000000000E+00  0.00000000000E+00  0.13450816872E+02  0.13450816872E+02  0.00000000000E+00 0.  1.
          2   -1    0    0  501    0  0.00000000000E+00 -0.00000000000E+00 -0.97841687166E+03  0.97841687166E+03  0.00000000000E+00 0. -1.
          5    1    1    2  502    0 -0.30940148344E+02 -0.24975695467E+02 -0.31115796084E+03  0.31372351639E+03  0.47000000000E+01 0.  1.
         -5    1    1    2    0  502  0.57864581154E+02  0.51520898744E+02 -0.22154764775E+03  0.23475127898E+03  0.47000000000E+01 0.  1.
        -11    1    1    2    0    0 -0.13165158515E+01  0.32688699789E+02 -0.18379474088E+03  0.18668366582E+03  0.00000000000E+00 0. -1.
         11    1    1    2    0    0 -0.25607916958E+02 -0.59233903067E+02 -0.24846570532E+03  0.25670922734E+03  0.00000000000E+00 0.  1.
<mgrwt>
<rscale>  0 0.12176028E+03</rscale>
<asrwt>0</asrwt>
<pdfrwt beam="2">  1        2 0.15052573E+00 0.13057310E+03</pdfrwt>
<pdfrwt beam="1">  1       -2 0.20693557E-02 0.13057310E+03</pdfrwt>
<totfact> 0.18936239E+04</totfact>
</mgrwt>
</event>
<event>
 6    1  0.6101889E-006  0.1266326E+03  0.7546771E-02  0.1247318E+00
         -2   -1    0    0    0  501 -0.00000000000E+00  0.00000000000E+00  0.61905160050E+02  0.61905160050E+02  0.00000000000E+00 0.  1.
          2   -1    0    0  501    0  0.00000000000E+00 -0.00000000000E+00 -0.21914793256E+03  0.21914793256E+03  0.00000000000E+00 0. -1.
          5    1    1    2  502    0 -0.22684717098E+02 -0.19162991899E+02  0.13370088387E+02  0.32903889007E+02  0.47000000000E+01 0.  1.
         -5    1    1    2    0  502  0.83781568075E+01  0.33514081886E+02 -0.14747973463E+03  0.15154454567E+03  0.47000000000E+01 0.  1.
        -11    1    1    2    0    0  0.52119515944E+02  0.17998296683E+01 -0.78482713689E+01  0.52737829805E+02  0.00000000000E+00 0.  1.
         11    1    1    2    0    0 -0.37812955654E+02 -0.16150919656E+02 -0.15284854904E+02  0.43866828133E+02  0.00000000000E+00 0. -1.
<mgrwt>
<rscale>  0 0.11747706E+03</rscale>
<asrwt>0</asrwt>
<pdfrwt beam="2">  1        2 0.33715066E-01 0.12663265E+03</pdfrwt>
<pdfrwt beam="1">  1       -2 0.95238709E-02 0.12663265E+03</pdfrwt>
<totfact> 0.10368436E+04</totfact>
</mgrwt>
</event>
<event>
 6    1  0.6101889E-006  0.1217770E+03  0.7546771E-02  0.1248561E+00
          1   -1    0    0  501    0  0.00000000000E+00  0.00000000000E+00  0.51884972771E+02  0.51884972771E+02  0.00000000000E+00 0. -1.
         -1   -1    0    0    0  501 -0.00000000000E+00 -0.00000000000E+00 -0.35608224633E+03  0.35608224633E+03  0.00000000000E+00 0.  1.
          5    1    1    2  502    0 -0.36875253963E+01  0.28247441195E+02  0.33221960042E+02  0.44014820307E+02  0.47000000000E+01 0. -1.
         -5    1    1    2    0  502 -0.33161531793E+02  0.11493573063E+01 -0.79472243689E+02  0.86249265098E+02  0.47000000000E+01 0.  1.
        -11    1    1    2    0    0 -0.18051152533E+02 -0.37124644459E+02 -0.65445669087E+02  0.77377121529E+02  0.00000000000E+00 0.  1.
         11    1    1    2    0    0  0.54900209722E+02  0.77278459579E+01 -0.19250132083E+03  0.20032601217E+03  0.00000000000E+00 0. -1.
<mgrwt>
<rscale>  0 0.11674732E+03</rscale>
<asrwt>0</asrwt>
<pdfrwt beam="1">  1        1 0.79823033E-02 0.12177702E+03</pdfrwt>
<pdfrwt beam="2">  1       -1 0.54781885E-01 0.12177702E+03</pdfrwt>
<totfact> 0.28937022E+03</totfact>
</mgrwt>
</event>
<event>
 6    1  0.6101889E-006  0.1279460E+03  0.7546771E-02  0.1245592E+00
          1   -1    0    0  501    0  0.00000000000E+00  0.00000000000E+00  0.85424348022E+03  0.85424348022E+03  0.00000000000E+00 0. -1.
         -1   -1    0    0    0  501 -0.00000000000E+00 -0.00000000000E+00 -0.16920244790E+02  0.16920244790E+02  0.00000000000E+00 0.  1.
          5    1    1    2  502    0 -0.12782113767E+02 -0.55004665120E+02  0.15640824226E+03  0.16635661653E+03  0.47000000000E+01 0.  1.
         -5    1    1    2    0  502 -0.13948670396E+02  0.49395798213E+02  0.48189305645E+03  0.48464163889E+03  0.47000000000E+01 0.  1.
        -11    1    1    2    0    0  0.48827909946E+02  0.32735052061E+02  0.11511912188E+03  0.12926005046E+03  0.00000000000E+00 0. -1.
         11    1    1    2    0    0 -0.22097125783E+02 -0.27126185154E+02  0.83902814843E+02  0.90905419131E+02  0.00000000000E+00 0.  1.
<mgrwt>
<rscale>  0 0.11849998E+03</rscale>
<asrwt>0</asrwt>
<pdfrwt beam="1">  1        1 0.13142204E+00 0.12794601E+03</pdfrwt>
<pdfrwt beam="2">  1       -1 0.26031153E-02 0.12794601E+03</pdfrwt>
<totfact> 0.92754203E+03</totfact>
</mgrwt>
</event>
<event>
 6    1  0.6101889E-006  0.1254173E+03  0.7546771E-02  0.1252425E+00
          1   -1    0    0  501    0  0.00000000000E+00  0.00000000000E+00  0.40939341546E+03  0.40939341546E+03  0.00000000000E+00 0. -1.
         -1   -1    0    0    0  501 -0.00000000000E+00 -0.00000000000E+00 -0.27675231776E+02  0.27675231776E+02  0.00000000000E+00 0.  1.
          5    1    1    2  502    0 -0.55446375991E+02 -0.17404456247E+02  0.66239388488E+02  0.88243766324E+02  0.47000000000E+01 0. -1.
         -5    1    1    2    0  502  0.56101695730E+02  0.71209605817E+01  0.17003144857E+03  0.17925091868E+03  0.47000000000E+01 0. -1.
        -11    1    1    2    0    0 -0.32755632837E+02  0.30255240270E+02  0.10568824467E+03  0.11470970363E+03  0.00000000000E+00 0. -1.
         11    1    1    2    0    0  0.32100313098E+02 -0.19971744606E+02  0.39759101953E+02  0.54864258600E+02  0.00000000000E+00 0.  1.
<mgrwt>
<rscale>  0 0.11451770E+03</rscale>
<asrwt>0</asrwt>
<pdfrwt beam="1">  1        1 0.62983598E-01 0.12541730E+03</pdfrwt>
<pdfrwt beam="2">  1       -1 0.42577283E-02 0.12541730E+03</pdfrwt>
<totfact> 0.12378241E+04</totfact>
</mgrwt>
</event>
<event>
 6    1  0.6101889E-006  0.2005503E+03  0.7546771E-02  0.1181813E+00
         -2   -1    0    0    0  501 -0.00000000000E+00  0.00000000000E+00  0.11332408533E+02  0.11332408533E+02  0.00000000000E+00 0.  1.
          2   -1    0    0  501    0  0.00000000000E+00 -0.00000000000E+00 -0.24146290974E+04  0.24146290974E+04  0.00000000000E+00 0. -1.
          5    1    1    2  502    0  0.17110857004E+02 -0.48562593193E+02 -0.17582136178E+04  0.17589736560E+04  0.47000000000E+01 0. -1.
         -5    1    1    2    0  502 -0.83842694132E+01  0.73861152831E+02 -0.30496064780E+03  0.31392491551E+03  0.47000000000E+01 0.  1.
        -11    1    1    2    0    0 -0.49326102858E+02 -0.84960138753E+01 -0.15928270237E+03  0.16696174996E+03  0.00000000000E+00 0.  1.
         11    1    1    2    0    0  0.40599515267E+02 -0.16802545763E+02 -0.18083972090E+03  0.18610118441E+03  0.00000000000E+00 0. -1.
<mgrwt>
<rscale>  0 0.16625229E+03</rscale>
<asrwt>0</asrwt>
<pdfrwt beam="2">  1        2 0.37148182E+00 0.20055034E+03</pdfrwt>
<pdfrwt beam="1">  1       -2 0.17434455E-02 0.20055034E+03</pdfrwt>
<totfact> 0.42317683E+03</totfact>
</mgrwt>
</event>
<event>
 6    1  0.6101889E-006  0.1441887E+03  0.7546771E-02  0.1216679E+00
          1   -1    0    0  501    0  0.00000000000E+00  0.00000000000E+00  0.14109870620E+03  0.14109870620E+03  0.00000000000E+00 0. -1.
         -1   -1    0    0    0  501 -0.00000000000E+00 -0.00000000000E+00 -0.12460175565E+03  0.12460175565E+03  0.00000000000E+00 0.  1.
          5    1    1    2  502    0 -0.45785632785E+02  0.38881205610E+02 -0.17584682100E+02  0.62764507198E+02  0.47000000000E+01 0.  1.
         -5    1    1    2    0  502  0.65692243004E+02  0.30172744816E+02  0.41218743679E+02  0.83348306229E+02  0.47000000000E+01 0.  1.
        -11    1    1    2    0    0  0.16783958314E+02  0.37548867742E+01 -0.30290513123E+02  0.34832680296E+02  0.00000000000E+00 0.  1.
         11    1    1    2    0    0 -0.36690568532E+02 -0.72808837201E+02  0.23153402097E+02  0.84754968128E+02  0.00000000000E+00 0. -1.
<mgrwt>
<rscale>  0 0.13753915E+03</rscale>
<asrwt>0</asrwt>
<pdfrwt beam="1">  1        1 0.21707493E-01 0.14418871E+03</pdfrwt>
<pdfrwt beam="2">  1       -1 0.19169501E-01 0.14418871E+03</pdfrwt>
<totfact> 0.47624719E+03</totfact>
</mgrwt>
</event>
<event>
 6    1  0.6101889E-006  0.1636928E+03  0.7546771E-02  0.1192135E+00
          1   -1    0    0  501    0  0.00000000000E+00  0.00000000000E+00  0.82064047251E+03  0.82064047251E+03  0.00000000000E+00 0. -1.
         -1   -1    0    0    0  501 -0.00000000000E+00 -0.00000000000E+00 -0.28990174658E+02  0.28990174658E+02  0.00000000000E+00 0.  1.
          5    1    1    2  502    0 -0.67589906369E+02 -0.37068462030E+02  0.47951842133E+03  0.48569792332E+03  0.47000000000E+01 0.  1.
         -5    1    1    2    0  502 -0.45447961519E+01 -0.40127322784E+02  0.33114827909E+02  0.52436047080E+02  0.47000000000E+01 0.  1.
        -11    1    1    2    0    0 -0.35914516916E+01  0.34368751617E+02  0.16221951359E+03  0.16585921802E+03  0.00000000000E+00 0. -1.
         11    1    1    2    0    0  0.75726154212E+02  0.42827033197E+02  0.11679753503E+03  0.14563745876E+03  0.00000000000E+00 0.  1.
<mgrwt>
<rscale>  0 0.15699190E+03</rscale>
<asrwt>0</asrwt>
<pdfrwt beam="1">  1        1 0.12625236E+00 0.16369277E+03</pdfrwt>
<pdfrwt beam="2">  1       -1 0.44600275E-02 0.16369277E+03</pdfrwt>
<totfact> 0.45404718E+03</totfact>
</mgrwt>
</event>
<event>
 6    1  0.6101889E-006  0.2688277E+03  0.7546771E-02  0.1142642E+00
          2   -1    0    0  501    0  0.00000000000E+00  0.00000000000E+00  0.19251710066E+03  0.19251710066E+03  0.00000000000E+00 0. -1.
         -2   -1    0    0    0  501 -0.00000000000E+00 -0.00000000000E+00 -0.25963338903E+03  0.25963338903E+03  0.00000000000E+00 0.  1.
          5    1    1    2  502    0 -0.38920490542E+01  0.55325348231E+02  0.14998223082E+03  0.15997750393E+03  0.47000000000E+01 0. -1.
         -5    1    1    2    0  502  0.32405824943E+02 -0.87334654942E+02 -0.74358723171E+02  0.11928448833E+03  0.47000000000E+01 0.  1.
        -11    1    1    2    0    0  0.12467732548E+02  0.34146411991E+02 -0.16084443084E+02  0.39750863086E+02  0.00000000000E+00 0.  1.
         11    1    1    2    0    0 -0.40981508437E+02 -0.21371052799E+01 -0.12665535293E+03  0.13313763435E+03  0.00000000000E+00 0. -1.
<mgrwt>
<rscale>  0 0.20864650E+03</rscale>
<asrwt>0</asrwt>
<pdfrwt beam="1">  1        2 0.29618016E-01 0.26882772E+03</pdfrwt>
<pdfrwt beam="2">  1       -2 0.39943598E-01 0.26882772E+03</pdfrwt>
<totfact> 0.10629847E+03</totfact>
</mgrwt>
</event>
<event>
 6    1  0.6101889E-006  0.1989105E+03  0.7546771E-02  0.1154847E+00
          1   -1    0    0  501    0  0.00000000000E+00  0.00000000000E+00  0.13093605471E+03  0.13093605471E+03  0.00000000000E+00 0. -1.
         -1   -1    0    0    0  501 -0.00000000000E+00 -0.00000000000E+00 -0.27501191932E+03  0.27501191932E+03  0.00000000000E+00 0.  1.
          5    1    1    2  502    0 -0.11388371885E+03  0.69956080126E+02 -0.25857603926E+02  0.13621328954E+03  0.47000000000E+01 0. -1.
         -5    1    1    2    0  502 -0.39117105055E+02 -0.46961090817E+02 -0.40516684226E+02  0.73479137578E+02  0.47000000000E+01 0. -1.
        -11    1    1    2    0    0  0.96905522704E+02  0.27900843047E+02 -0.24739880520E+02  0.10383255300E+03  0.00000000000E+00 0. -1.
         11    1    1    2    0    0  0.56095301204E+02 -0.50895832356E+02 -0.52961695935E+02  0.92422993918E+02  0.00000000000E+00 0.  1.
<mgrwt>
<rscale>  0 0.19406313E+03</rscale>
<asrwt>0</asrwt>
<pdfrwt beam="1">  1        1 0.20144009E-01 0.19891045E+03</pdfrwt>
<pdfrwt beam="2">  1       -1 0.42309525E-01 0.19891045E+03</pdfrwt>
<totfact> 0.14008597E+03</totfact>
</mgrwt>
</event>
<event>
 6    1  0.6101889E-006  0.1447540E+03  0.7546771E-02  0.1217960E+00
         -1   -1    0    0    0  501 -0.00000000000E+00  0.00000000000E+00  0.68779658016E+03  0.68779658016E+03  0.00000000000E+00 0.  1.
          1   -1    0    0  501    0  0.00000000000E+00 -0.00000000000E+00 -0.26876084155E+02  0.26876084155E+02  0.00000000000E+00 0. -1.
          5    1    1    2  502    0 -0.55797867002E+02  0.83353076503E+01  0.22251370462E+03  0.22960252189E+03  0.47000000000E+01 0.  1.
         -5    1    1    2    0  502  0.90922663385E+00 -0.56281921139E+02  0.36914429141E+02  0.67477747584E+02  0.47000000000E+01 0.  1.
        -11    1    1    2    0    0 -0.49937561398E+01 -0.21718985649E+02  0.97956808853E+02  0.10045988423E+03  0.00000000000E+00 0. -1.
         11    1    1    2    0    0  0.59882396508E+02  0.69665599138E+02  0.30353555340E+03  0.31713251062E+03  0.00000000000E+00 0.  1.
<mgrwt>
<rscale>  0 0.13661313E+03</rscale>
<asrwt>0</asrwt>
<pdfrwt beam="2">  1        1 0.41347827E-02 0.14475403E+03</pdfrwt>
<pdfrwt beam="1">  1       -1 0.10581485E+00 0.14475403E+03</pdfrwt>
<totfact> 0.18766977E+03</totfact>
</mgrwt>
</event>
<event>
 6    1  0.6101889E-006  0.1380486E+03  0.7546771E-02  0.1226169E+00
          2   -1    0    0  501    0  0.00000000000E+00  0.00000000000E+00  0.24469503548E+03  0.24469503548E+03  0.00000000000E+00 0. -1.
         -2   -1    0    0    0  501 -0.00000000000E+00 -0.00000000000E+00 -0.86902302663E+02  0.86902302663E+02  0.00000000000E+00 0.  1.
          5    1    1    2  502    0 -0.30987397432E+02 -0.68265252398E+02  0.18241422560E+03  0.19727494313E+03  0.47000000000E+01 0. -1.
         -5    1    1    2    0  502  0.12936733217E+02  0.12524035185E+02 -0.11920971904E+02  0.22100002144E+02  0.47000000000E+01 0. -1.
        -11    1    1    2    0    0  0.12193048870E+02  0.46573832133E+02 -0.52341576570E+02  0.71115630618E+02  0.00000000000E+00 0.  1.
         11    1    1    2    0    0  0.58576153439E+01  0.91673850802E+01  0.39641055693E+02  0.41106762257E+02  0.00000000000E+00 0. -1.
<mgrwt>
<rscale>  0 0.13087120E+03</rscale>
<asrwt>0</asrwt>
<pdfrwt beam="1">  1        2 0.37645390E-01 0.13804860E+03</pdfrwt>
<pdfrwt beam="2">  1       -2 0.13369585E-01 0.13804860E+03</pdfrwt>
<totfact> 0.54117975E+03</totfact>
</mgrwt>
</event>
<event>
 6    1  0.6101889E-006  0.1662033E+03  0.7546771E-02  0.1188952E+00
         -2   -1    0    0    0  501 -0.00000000000E+00  0.00000000000E+00  0.11405053465E+03  0.11405053465E+03  0.00000000000E+00 0.  1.
          2   -1    0    0  501    0  0.00000000000E+00 -0.00000000000E+00 -0.20929918704E+03  0.20929918704E+03  0.00000000000E+00 0. -1.
          5    1    1    2  502    0  0.33186040465E+02 -0.56336287696E+02 -0.20834875909E+02  0.68784247086E+02  0.47000000000E+01 0. -1.
         -5    1    1    2    0  502 -0.94167238463E+02 -0.34667802660E+02 -0.42536349568E+02  0.10909058793E+03  0.47000000000E+01 0. -1.
        -11    1    1    2    0    0  0.10193784930E+02  0.90578119117E+02 -0.20353481317E+02  0.93394716744E+02  0.00000000000E+00 0.  1.
         11    1    1    2    0    0  0.50787413069E+02  0.42597123905E+00 -0.11523945601E+02  0.52080169930E+02  0.00000000000E+00 0. -1.
<mgrwt>
<rscale>  0 0.15977376E+03</rscale>
<asrwt>0</asrwt>
<pdfrwt beam="2">  1        2 0.32199874E-01 0.16620332E+03</pdfrwt>
<pdfrwt beam="1">  1       -2 0.17546236E-01 0.16620332E+03</pdfrwt>
<totfact> 0.41395504E+03</totfact>
</mgrwt>
</event>
<event>
 6    1  0.6101889E-006  0.2028519E+03  0.7546771E-02  0.1152155E+00
          1   -1    0    0  501    0  0.00000000000E+00  0.00000000000E+00  0.94954839715E+03  0.94954839715E+03  0.00000000000E+00 0. -1.
         -1   -1    0    0    0  501 -0.00000000000E+00 -0.00000000000E+00 -0.40184780881E+02  0.40184780881E+02  0.00000000000E+00 0.  1.
          5    1    1    2  502    0  0.13596274969E+02 -0.39855197687E+02  0.11681096670E+03  0.12425855068E+03  0.47000000000E+01 0. -1.
         -5    1    1    2    0  502 -0.15235317721E+03 -0.39333618508E+02  0.27109540395E+03  0.31348593620E+03  0.47000000000E+01 0. -1.
        -11    1    1    2    0    0  0.48194434757E+02  0.18141230801E+02  0.66509280712E+02  0.84114756240E+02  0.00000000000E+00 0.  1.
         11    1    1    2    0    0  0.90562467482E+02  0.61047585393E+02  0.45494796490E+03  0.46787393491E+03  0.00000000000E+00 0. -1.
<mgrwt>
<rscale>  0 0.19716291E+03</rscale>
<asrwt>0</asrwt>
<pdfrwt beam="1">  1        1 0.14608435E+00 0.20285188E+03</pdfrwt>
<pdfrwt beam="2">  1       -1 0.61822747E-02 0.20285188E+03</pdfrwt>
<totfact> 0.22213126E+03</totfact>
</mgrwt>
</event>
<event>
 6    1  0.6101889E-006  0.2027895E+03  0.7546771E-02  0.1150462E+00
          1   -1    0    0  501    0  0.00000000000E+00  0.00000000000E+00  0.23721977872E+03  0.23721977872E+03  0.00000000000E+00 0. -1.
         -1   -1    0    0    0  501 -0.00000000000E+00 -0.00000000000E+00 -0.26921993119E+03  0.26921993119E+03  0.00000000000E+00 0.  1.
          5    1    1    2  502    0 -0.94321942731E+02 -0.12354417691E+03  0.11040399588E+03  0.19071162742E+03  0.47000000000E+01 0. -1.
         -5    1    1    2    0  502 -0.36839125963E+02  0.29267231591E+02  0.33404054729E+02  0.57893116336E+02  0.47000000000E+01 0.  1.
        -11    1    1    2    0    0  0.11668243990E+03  0.79127252960E+02 -0.84963770657E+02  0.16460484886E+03  0.00000000000E+00 0.  1.
         11    1    1    2    0    0  0.14478628790E+02  0.15149692355E+02 -0.90844432416E+02  0.93230117296E+02  0.00000000000E+00 0. -1.
<mgrwt>
<rscale>  0 0.19914529E+03</rscale>
<asrwt>0</asrwt>
<pdfrwt beam="1">  1        1 0.36495351E-01 0.20278946E+03</pdfrwt>
<pdfrwt beam="2">  1       -1 0.41418451E-01 0.20278946E+03</pdfrwt>
<totfact> 0.68616179E+02</totfact>
</mgrwt>
</event>
<event>
 6    1  0.6101889E-006  0.2645674E+03  0.7546771E-02  0.1104430E+00
          2   -1    0    0  501    0  0.00000000000E+00  0.00000000000E+00  0.18320909547E+04  0.18320909547E+04  0.00000000000E+00 0. -1.
         -2   -1    0    0    0  501 -0.00000000000E+00 -0.00000000000E+00 -0.95513677950E+01  0.95513677950E+01  0.00000000000E+00 0.  1.
          5    1    1    2  502    0 -0.50895413663E+02  0.17314820172E+02  0.13541211910E+04  0.13551960877E+04  0.47000000000E+01 0. -1.
         -5    1    1    2    0  502 -0.43195248530E+01 -0.18401806640E+02  0.35897048334E+02  0.40840823470E+02  0.47000000000E+01 0.  1.
        -11    1    1    2    0    0  0.50233761107E+02  0.42191497328E+02  0.25234413267E+03  0.26073188239E+03  0.00000000000E+00 0.  1.
         11    1    1    2    0    0  0.49811774091E+01 -0.41104510860E+02  0.18017721490E+03  0.18487352896E+03  0.00000000000E+00 0. -1.
<mgrwt>
<rscale>  0 0.26456738E+03</rscale>
<asrwt>0</asrwt>
<pdfrwt beam="1">  1        2 0.28185987E+00 0.26456738E+03</pdfrwt>
<pdfrwt beam="2">  1       -2 0.14694427E-02 0.26456738E+03</pdfrwt>
<totfact> 0.11060208E+04</totfact>
</mgrwt>
</event>
<event>
 6    1  0.6101889E-006  0.1305447E+03  0.7546771E-02  0.1240826E+00
          1   -1    0    0  501    0  0.00000000000E+00  0.00000000000E+00  0.97256486200E+03  0.97256486200E+03  0.00000000000E+00 0. -1.
         -1   -1    0    0    0  501 -0.00000000000E+00 -0.00000000000E+00 -0.15185033824E+02  0.15185033824E+02  0.00000000000E+00 0.  1.
          5    1    1    2  502    0 -0.10092002858E+02  0.44716871548E+02  0.29296789530E+03  0.29656993240E+03  0.47000000000E+01 0.  1.
         -5    1    1    2    0  502  0.17207954615E+02 -0.81662992179E+02  0.41541220433E+03  0.42373853672E+03  0.47000000000E+01 0.  1.
        -11    1    1    2    0    0 -0.26821170793E+02 -0.14490364771E+02  0.34760443007E+02  0.46234557118E+02  0.00000000000E+00 0.  1.
         11    1    1    2    0    0  0.19705219036E+02  0.51436485401E+02  0.21423928553E+03  0.22120686959E+03  0.00000000000E+00 0. -1.
<mgrwt>
<rscale>  0 0.12138701E+03</rscale>
<asrwt>0</asrwt>
<pdfrwt beam="1">  1        1 0.14962531E+00 0.13054472E+03</pdfrwt>
<pdfrwt beam="2">  1       -1 0.23361598E-02 0.13054472E+03</pdfrwt>
<totfact> 0.88243571E+03</totfact>
</mgrwt>
</event>
<event>
 6    1  0.6101889E-006  0.2809820E+03  0.7546771E-02  0.1095154E+00
          1   -1    0    0  501    0  0.00000000000E+00  0.00000000000E+00  0.18977557432E+03  0.18977557432E+03  0.00000000000E+00 0. -1.
         -1   -1    0    0    0  501 -0.00000000000E+00 -0.00000000000E+00 -0.10400557150E+03  0.10400557150E+03  0.00000000000E+00 0.  1.
          5    1    1    2  502    0 -0.12638954275E+02 -0.17955554615E+02 -0.20607148942E+02  0.30477691747E+02  0.47000000000E+01 0.  1.
         -5    1    1    2    0  502  0.85882077194E+02 -0.30168646539E+01  0.11527503999E+03  0.14385846343E+03  0.47000000000E+01 0.  1.
        -11    1    1    2    0    0 -0.14957944842E+02  0.36652450529E+02 -0.35790372791E+02  0.53367527845E+02  0.00000000000E+00 0.  1.
         11    1    1    2    0    0 -0.58285178078E+02 -0.15680031260E+02  0.26892484569E+02  0.66077462801E+02  0.00000000000E+00 0. -1.
<mgrwt>
<rscale>  0 0.28098197E+03</rscale>
<asrwt>0</asrwt>
<pdfrwt beam="1">  1        1 0.29196242E-01 0.28098197E+03</pdfrwt>
<pdfrwt beam="2">  1       -1 0.16000857E-01 0.28098197E+03</pdfrwt>
<totfact> 0.45186446E+03</totfact>
</mgrwt>
</event>
<event>
 6    1  0.6101889E-006  0.1455421E+03  0.7546771E-02  0.1215486E+00
          2   -1    0    0  501    0  0.00000000000E+00  0.00000000000E+00  0.43879485774E+03  0.43879485774E+03  0.00000000000E+00 0. -1.
         -2   -1    0    0    0  501 -0.00000000000E+00 -0.00000000000E+00 -0.40959364957E+02  0.40959364957E+02  0.00000000000E+00 0.  1.
          5    1    1    2  502    0  0.32857370188E+02  0.78468983134E+02  0.19809278202E+03  0.21563818859E+03  0.47000000000E+01 0. -1.
         -5    1    1    2    0  502 -0.53073671224E+02 -0.67159110743E+01  0.58913171677E+02  0.79716810246E+02  0.47000000000E+01 0. -1.
        -11    1    1    2    0    0  0.10961703519E+01 -0.68816481299E+02  0.35754404892E+02  0.77558282324E+02  0.00000000000E+00 0. -1.
         11    1    1    2    0    0  0.19120130683E+02 -0.29365907608E+01  0.10507513420E+03  0.10684094154E+03  0.00000000000E+00 0.  1.
<mgrwt>
<rscale>  0 0.13840865E+03</rscale>
<asrwt>0</asrwt>
<pdfrwt beam="1">  1        2 0.67506898E-01 0.14554214E+03</pdfrwt>
<pdfrwt beam="2">  1       -2 0.63014411E-02 0.14554214E+03</pdfrwt>
<totfact> 0.94526692E+03</totfact>
</mgrwt>
</event>
<event>
 6    1  0.6101889E-006  0.3283079E+03  0.7546771E-02  0.1095583E+00
          2   -1    0    0  501    0  0.00000000000E+00  0.00000000000E+00  0.76521152424E+03  0.76521152424E+03  0.00000000000E+00 0. -1.
         -2   -1    0    0    0  501 -0.00000000000E+00 -0.00000000000E+00 -0.15123449065E+03  0.15123449065E+03  0.00000000000E+00 0.  1.
          5    1    1    2  502    0 -0.11284879679E+03 -0.22961800573E+02  0.68442607245E+03  0.69406284576E+03  0.47000000000E+01 0. -1.
         -5    1    1    2    0  502 -0.33732016916E+02 -0.23841699957E+01 -0.25171334502E+02  0.42417205382E+02  0.47000000000E+01 0.  1.
        -11    1    1    2    0    0  0.15578640356E+03  0.10133151806E+02 -0.37489452833E+02  0.16055386440E+03  0.00000000000E+00 0.  1.
         11    1    1    2    0    0 -0.92055898568E+01  0.15212818763E+02 -0.77882515157E+01  0.19412099345E+02  0.00000000000E+00 0. -1.
<mgrwt>
<rscale>  0 0.28019395E+03</rscale>
<asrwt>0</asrwt>
<pdfrwt beam="1">  1        2 0.11772485E+00 0.32830787E+03</pdfrwt>
<pdfrwt beam="2">  1       -2 0.23266845E-01 0.32830787E+03</pdfrwt>
<totfact> 0.60719811E+02</totfact>
</mgrwt>
</event>
<event>
 6    1  0.6101889E-006  0.1492969E+03  0.7546771E-02  0.1211202E+00
         -1   -1    0    0    0  501 -0.00000000000E+00  0.00000000000E+00  0.67035616575E+02  0.67035616575E+02  0.00000000000E+00 0.  1.
          1   -1    0    0  501    0  0.00000000000E+00 -0.00000000000E+00 -0.28967633537E+03  0.28967633537E+03  0.00000000000E+00 0. -1.
          5    1    1    2  502    0 -0.32690246333E+02 -0.93126311895E+01 -0.30499480159E+01  0.34449520866E+02  0.47000000000E+01 0.  1.
         -5    1    1    2    0  502  0.72144640230E+02 -0.62158509474E+02 -0.16309451277E+03  0.18891913484E+03  0.47000000000E+01 0.  1.
        -11    1    1    2    0    0 -0.13505363770E+02 -0.17863823321E+02 -0.28396820465E+02  0.36164768031E+02  0.00000000000E+00 0. -1.
         11    1    1    2    0    0 -0.25949030127E+02  0.89334963984E+02 -0.28099437549E+02  0.97178528210E+02  0.00000000000E+00 0.  1.
<mgrwt>
<rscale>  0 0.14159238E+03</rscale>
<asrwt>0</asrwt>
<pdfrwt beam="2">  1        1 0.44565590E-01 0.14929693E+03</pdfrwt>
<pdfrwt beam="1">  1       -1 0.10313172E-01 0.14929693E+03</pdfrwt>
<totfact> 0.51273142E+03</totfact>
</mgrwt>
</event>
<event>
 6    1  0.6101889E-006  0.1472014E+03  0.7546771E-02  0.1213363E+00
         -2   -1    0    0    0  501 -0.00000000000E+00  0.00000000000E+00  0.12448725393E+03  0.12448725393E+03  0.00000000000E+00 0.  1.
          2   -1    0    0  501    0  0.00000000000E+00 -0.00000000000E+00 -0.15049462408E+03  0.15049462408E+03  0.00000000000E+00 0. -1.
          5    1    1    2  502    0  0.52058596522E+02 -0.69963069914E+02  0.72261939997E+01  0.87631253006E+02  0.47000000000E+01 0.  1.
         -5    1    1    2    0  502 -0.41387853341E+02 -0.70417381675E+01 -0.50416135856E+02  0.65775506347E+02  0.47000000000E+01 0.  1.
        -11    1    1    2    0    0 -0.40076047605E+02  0.61540676204E+02  0.37675490685E+02  0.82539608781E+02  0.00000000000E+00 0.  1.
         11    1    1    2    0    0  0.29405304425E+02  0.15464131877E+02 -0.20492918972E+02  0.39035509873E+02  0.00000000000E+00 0. -1.
<mgrwt>
<rscale>  0 0.13997480E+03</rscale>
<asrwt>0</asrwt>
<pdfrwt beam="2">  1        2 0.23153019E-01 0.14720144E+03</pdfrwt>
<pdfrwt beam="1">  1       -2 0.19151885E-01 0.14720144E+03</pdfrwt>
<totfact> 0.50982373E+03</totfact>
</mgrwt>
</event>
<event>
 6    1  0.6101889E-006  0.1562544E+03  0.7546771E-02  0.1206074E+00
          2   -1    0    0  501    0  0.00000000000E+00  0.00000000000E+00  0.32912878777E+03  0.32912878777E+03  0.00000000000E+00 0. -1.
         -2   -1    0    0    0  501 -0.00000000000E+00 -0.00000000000E+00 -0.57605902075E+02  0.57605902075E+02  0.00000000000E+00 0.  1.
          5    1    1    2  502    0 -0.56180190702E+01 -0.25068822568E+02  0.13526070759E+03  0.13775905423E+03  0.47000000000E+01 0.  1.
         -5    1    1    2    0  502 -0.71950485172E+01 -0.67802163925E+02 -0.85281161867E+00  0.68349977643E+02  0.47000000000E+01 0.  1.
        -11    1    1    2    0    0  0.40501590832E+02  0.56990996182E+02  0.65073495857E+02  0.95513938086E+02  0.00000000000E+00 0.  1.
         11    1    1    2    0    0 -0.27688523245E+02  0.35879990312E+02  0.72041493870E+02  0.85111719893E+02  0.00000000000E+00 0. -1.
<mgrwt>
<rscale>  0 0.14553178E+03</rscale>
<asrwt>0</asrwt>
<pdfrwt beam="1">  1        2 0.50635197E-01 0.15625444E+03</pdfrwt>
<pdfrwt beam="2">  1       -2 0.88624466E-02 0.15625444E+03</pdfrwt>
<totfact> 0.76387673E+03</totfact>
</mgrwt>
</event>
<event>
 6    1  0.6101889E-006  0.1800483E+03  0.7546771E-02  0.1173621E+00
          2   -1    0    0  501    0  0.00000000000E+00  0.00000000000E+00  0.79726311865E+03  0.79726311865E+03  0.00000000000E+00 0.  1.
         -2   -1    0    0    0  501 -0.00000000000E+00 -0.00000000000E+00 -0.36776124149E+02  0.36776124149E+02  0.00000000000E+00 0. -1.
          5    1    1    2  502    0  0.12553319692E+02  0.34173144052E+02  0.20106170329E+03  0.20438514657E+03  0.47000000000E+01 0. -1.
         -5    1    1    2    0  502 -0.12873682604E+03  0.23224552145E+02  0.27432952315E+03  0.30395941748E+03  0.47000000000E+01 0. -1.
        -11    1    1    2    0    0  0.45100008498E+02  0.22381798296E+02  0.82583158715E+02  0.96720906555E+02  0.00000000000E+00 0. -1.
         11    1    1    2    0    0  0.71083497852E+02 -0.79779494493E+02  0.20251260935E+03  0.22897377220E+03  0.00000000000E+00 0.  1.
<mgrwt>
<rscale>  0 0.17411754E+03</rscale>
<asrwt>0</asrwt>
<pdfrwt beam="1">  1        2 0.12265585E+00 0.18004826E+03</pdfrwt>
<pdfrwt beam="2">  1       -2 0.56578659E-02 0.18004826E+03</pdfrwt>
<totfact> 0.56664469E+03</totfact>
</mgrwt>
</event>
<event>
 6    1  0.6101889E-006  0.1264020E+03  0.7546771E-02  0.1248588E+00
         -2   -1    0    0    0  501 -0.00000000000E+00  0.00000000000E+00  0.18534918746E+02  0.18534918746E+02  0.00000000000E+00 0.  1.
          2   -1    0    0  501    0  0.00000000000E+00 -0.00000000000E+00 -0.76337012934E+03  0.76337012934E+03  0.00000000000E+00 0. -1.
          5    1    1    2  502    0  0.35099979383E+02  0.24004254314E+02 -0.65763897126E+02  0.78455037717E+02  0.47000000000E+01 0.  1.
         -5    1    1    2    0  502 -0.16701745639E+02 -0.27311145266E+02 -0.50977529707E+03  0.51080112614E+03  0.47000000000E+01 0.  1.
        -11    1    1    2    0    0  0.15251046570E+02  0.20346734810E+02 -0.14625768105E+03  0.14845165309E+03  0.00000000000E+00 0. -1.
         11    1    1    2    0    0 -0.33649280315E+02 -0.17039843858E+02 -0.23038335339E+02  0.44197231130E+02  0.00000000000E+00 0.  1.
<mgrwt>
<rscale>  0 0.11673155E+03</rscale>
<asrwt>0</asrwt>
<pdfrwt beam="2">  1        2 0.11744155E+00 0.12640199E+03</pdfrwt>
<pdfrwt beam="1">  1       -2 0.28515261E-02 0.12640199E+03</pdfrwt>
<totfact> 0.16275235E+04</totfact>
</mgrwt>
</event>
<event>
 6    1  0.6101889E-006  0.1536479E+03  0.7546771E-02  0.1205182E+00
          1   -1    0    0  501    0  0.00000000000E+00  0.00000000000E+00  0.54241303077E+03  0.54241303077E+03  0.00000000000E+00 0. -1.
         -1   -1    0    0    0  501 -0.00000000000E+00 -0.00000000000E+00 -0.38109318786E+02  0.38109318786E+02  0.00000000000E+00 0.  1.
          5    1    1    2  502    0 -0.44733200480E+02  0.38906628094E+02  0.21170476495E+03  0.21989948258E+03  0.47000000000E+01 0.  1.
         -5    1    1    2    0  502  0.69647512952E+02  0.46901167827E+02  0.13098577371E+03  0.15565943119E+03  0.47000000000E+01 0.  1.
        -11    1    1    2    0    0 -0.39393053495E+02 -0.96791920207E+02  0.11746663857E+03  0.15722245278E+03  0.00000000000E+00 0.  1.
         11    1    1    2    0    0  0.14478741023E+02  0.10984124286E+02  0.44146534759E+02  0.47740983014E+02  0.00000000000E+00 0. -1.
<mgrwt>
<rscale>  0 0.14623106E+03</rscale>
<asrwt>0</asrwt>
<pdfrwt beam="1">  1        1 0.83448153E-01 0.15364795E+03</pdfrwt>
<pdfrwt beam="2">  1       -1 0.58629725E-02 0.15364795E+03</pdfrwt>
<totfact> 0.54295596E+03</totfact>
</mgrwt>
</event>
<event>
 6    1  0.6101889E-006  0.1318951E+03  0.7546771E-02  0.1238930E+00
          3   -1    0    0  501    0  0.00000000000E+00  0.00000000000E+00  0.10961057675E+03  0.10961057675E+03  0.00000000000E+00 0. -1.
         -3   -1    0    0    0  501 -0.00000000000E+00 -0.00000000000E+00 -0.12549321095E+03  0.12549321095E+03  0.00000000000E+00 0.  1.
          5    1    1    2  502    0 -0.19224796933E+02 -0.56455148583E+02 -0.20548483952E+02  0.63254302711E+02  0.47000000000E+01 0. -1.
         -5    1    1    2    0  502 -0.22778716575E+02  0.55880477488E+02  0.33746666430E+02  0.69299532381E+02  0.47000000000E+01 0. -1.
        -11    1    1    2    0    0 -0.24162643125E+02 -0.46121521933E+01 -0.26461471316E+02  0.36129139691E+02  0.00000000000E+00 0.  1.
         11    1    1    2    0    0  0.66166156633E+02  0.51868232886E+01 -0.26193453621E+01  0.66420812925E+02  0.00000000000E+00 0. -1.
<mgrwt>
<rscale>  0 0.12256159E+03</rscale>
<asrwt>0</asrwt>
<pdfrwt beam="1">  1        3 0.16863166E-01 0.13189514E+03</pdfrwt>
<pdfrwt beam="2">  1       -3 0.19306648E-01 0.13189514E+03</pdfrwt>
<totfact> 0.16539251E+03</totfact>
</mgrwt>
</event>
<event>
 6    1  0.6101889E-006  0.2265329E+03  0.7546771E-02  0.1132219E+00
         -1   -1    0    0    0  501 -0.00000000000E+00  0.00000000000E+00  0.11306880906E+03  0.11306880906E+03  0.00000000000E+00 0.  1.
          1   -1    0    0  501    0  0.00000000000E+00 -0.00000000000E+00 -0.10430462468E+04  0.10430462468E+04  0.00000000000E+00 0. -1.
          5    1    1    2  502    0 -0.17990651798E+03  0.83047382228E+02 -0.72874827686E+03  0.75522140061E+03  0.47000000000E+01 0.  1.
         -5    1    1    2    0  502  0.16047154539E+02  0.10990138312E+02 -0.18965478360E+03  0.19070742317E+03  0.47000000000E+01 0.  1.
        -11    1    1    2    0    0  0.71339283931E+02 -0.17509114144E+02  0.35040314688E+02  0.81386031746E+02  0.00000000000E+00 0.  1.
         11    1    1    2    0    0  0.92520079514E+02 -0.76528406395E+02 -0.46614691956E+02  0.12880020033E+03  0.00000000000E+00 0. -1.
<mgrwt>
<rscale>  0 0.22224637E+03</rscale>
<asrwt>0</asrwt>
<pdfrwt beam="2">  1        1 0.16046865E+00 0.22653291E+03</pdfrwt>
<pdfrwt beam="1">  1       -1 0.17395201E-01 0.22653291E+03</pdfrwt>
<totfact> 0.38036853E+02</totfact>
</mgrwt>
</event>
<event>
 6    1  0.6101889E-006  0.2454016E+03  0.7546771E-02  0.1118809E+00
         -1   -1    0    0    0  501 -0.00000000000E+00  0.00000000000E+00  0.11977747728E+03  0.11977747728E+03  0.00000000000E+00 0.  1.
          1   -1    0    0  501    0  0.00000000000E+00 -0.00000000000E+00 -0.54434112337E+03  0.54434112337E+03  0.00000000000E+00 0. -1.
          5    1    1    2  502    0 -0.35513134349E+02  0.31302228936E+02 -0.23317252626E+02  0.52979208353E+02  0.47000000000E+01 0.  1.
         -5    1    1    2    0  502 -0.17344471209E+03 -0.61923452010E+02 -0.31595810047E+03  0.36574471057E+03  0.47000000000E+01 0.  1.
        -11    1    1    2    0    0  0.31887186540E+02  0.41592463884E+02 -0.24560286578E+02  0.57878609125E+02  0.00000000000E+00 0. -1.
         11    1    1    2    0    0  0.17707065990E+03 -0.10971240811E+02 -0.60728006406E+02  0.18751607260E+03  0.00000000000E+00 0.  1.
<mgrwt>
<rscale>  0 0.24148248E+03</rscale>
<asrwt>0</asrwt>
<pdfrwt beam="2">  1        1 0.83744789E-01 0.24540162E+03</pdfrwt>
<pdfrwt beam="1">  1       -1 0.18427304E-01 0.24540162E+03</pdfrwt>
<totfact> 0.92982848E+02</totfact>
</mgrwt>
</event>
<event>
 6    1  0.6101889E-006  0.1397205E+03  0.7546771E-02  0.1224400E+00
         -2   -1    0    0    0  501 -0.00000000000E+00  0.00000000000E+00  0.60338997352E+02  0.60338997352E+02  0.00000000000E+00 0.  1.
          2   -1    0    0  501    0  0.00000000000E+00 -0.00000000000E+00 -0.27288627132E+03  0.27288627132E+03  0.00000000000E+00 0. -1.
          5    1    1    2  502    0  0.18643347578E+02  0.97509856957E+02 -0.11221056154E+03  0.14989678694E+03  0.47000000000E+01 0. -1.
         -5    1    1    2    0  502  0.47262859527E+01 -0.39610223552E+02 -0.39073850071E+02  0.56037160422E+02  0.47000000000E+01 0. -1.
        -11    1    1    2    0    0 -0.18238061974E+02 -0.80452148835E+02 -0.28685872637E+02  0.87338733937E+02  0.00000000000E+00 0.  1.
         11    1    1    2    0    0 -0.51315715563E+01  0.22552515430E+02 -0.32576989713E+02  0.39952587371E+02  0.00000000000E+00 0. -1.
<mgrwt>
<rscale>  0 0.13208120E+03</rscale>
<asrwt>0</asrwt>
<pdfrwt beam="2">  1        2 0.41982503E-01 0.13972050E+03</pdfrwt>
<pdfrwt beam="1">  1       -2 0.92829227E-02 0.13972050E+03</pdfrwt>
<totfact> 0.86056169E+03</totfact>
</mgrwt>
</event>
<event>
 6    1  0.6101889E-006  0.1395633E+03  0.7546771E-02  0.1224709E+00
         -2   -1    0    0    0  501 -0.00000000000E+00  0.00000000000E+00  0.10276407056E+03  0.10276407056E+03  0.00000000000E+00 0.  1.
          2   -1    0    0  501    0  0.00000000000E+00 -0.00000000000E+00 -0.17897800205E+03  0.17897800205E+03  0.00000000000E+00 0. -1.
          5    1    1    2  502    0 -0.23305433794E+02 -0.65525095034E+02 -0.88410949045E+02  0.11258448932E+03  0.47000000000E+01 0.  1.
         -5    1    1    2    0  502  0.54448866997E+02  0.11832302969E+02 -0.67258311509E+01  0.56320594062E+02  0.47000000000E+01 0.  1.
        -11    1    1    2    0    0 -0.30099294428E+02 -0.13795845247E+02  0.29707612571E+02  0.44484099584E+02  0.00000000000E+00 0. -1.
         11    1    1    2    0    0 -0.10441387756E+01  0.67488637312E+02 -0.10784763865E+02  0.68352889651E+02  0.00000000000E+00 0.  1.
<mgrwt>
<rscale>  0 0.13186900E+03</rscale>
<asrwt>0</asrwt>
<pdfrwt beam="2">  1        2 0.27535077E-01 0.13956332E+03</pdfrwt>
<pdfrwt beam="1">  1       -2 0.15809857E-01 0.13956332E+03</pdfrwt>
<totfact> 0.57741212E+03</totfact>
</mgrwt>
</event>
<event>
 6    1  0.6101889E-006  0.2543604E+03  0.7546771E-02  0.1121400E+00
         -1   -1    0    0    0  501 -0.00000000000E+00  0.00000000000E+00  0.47347699899E+02  0.47347699899E+02  0.00000000000E+00 0.  1.
          1   -1    0    0  501    0  0.00000000000E+00 -0.00000000000E+00 -0.10600576118E+04  0.10600576118E+04  0.00000000000E+00 0. -1.
          5    1    1    2  502    0 -0.66239815279E+02  0.10876438522E+02 -0.13483270548E+03  0.15069160066E+03  0.47000000000E+01 0. -1.
         -5    1    1    2    0  502  0.49984230009E+02 -0.17951710880E+03 -0.44721394157E+03  0.48450718790E+03  0.47000000000E+01 0.  1.
        -11    1    1    2    0    0  0.43364562435E+02  0.13942979654E+03 -0.27313828481E+03  0.30971870475E+03  0.00000000000E+00 0.  1.
         11    1    1    2    0    0 -0.27108977164E+02  0.29210873732E+02 -0.15752498007E+03  0.16248781842E+03  0.00000000000E+00 0. -1.
<mgrwt>
<rscale>  0 0.23760348E+03</rscale>
<asrwt>0</asrwt>
<pdfrwt beam="2">  1        1 0.16308578E+00 0.25436038E+03</pdfrwt>
<pdfrwt beam="1">  1       -1 0.72842620E-02 0.25436038E+03</pdfrwt>
<totfact> 0.14351039E+03</totfact>
</mgrwt>
</event>
<event>
 6    1  0.6101889E-006  0.1389491E+03  0.7546771E-02  0.1226410E+00
         -2   -1    0    0    0  501 -0.00000000000E+00  0.00000000000E+00  0.44938956835E+02  0.44938956835E+02  0.00000000000E+00 0.  1.
          2   -1    0    0  501    0  0.00000000000E+00 -0.00000000000E+00 -0.64122920272E+03  0.64122920272E+03  0.00000000000E+00 0. -1.
          5    1    1    2  502    0 -0.89790834543E+00  0.65279266960E+02 -0.53007103698E+03  0.53409697919E+03  0.47000000000E+01 0. -1.
         -5    1    1    2    0  502  0.24866277566E+02 -0.95273838422E+01 -0.21043769246E+02  0.34264165347E+02  0.47000000000E+01 0. -1.
        -11    1    1    2    0    0  0.24397949266E+02 -0.12411520438E+02  0.13284852724E+02  0.30426848011E+02  0.00000000000E+00 0.  1.
         11    1    1    2    0    0 -0.48366318487E+02 -0.43340362680E+02 -0.58460292391E+02  0.87380167015E+02  0.00000000000E+00 0. -1.
<mgrwt>
<rscale>  0 0.13070740E+03</rscale>
<asrwt>0</asrwt>
<pdfrwt beam="2">  1        2 0.98650638E-01 0.13894913E+03</pdfrwt>
<pdfrwt beam="1">  1       -2 0.69136863E-02 0.13894913E+03</pdfrwt>
<totfact> 0.53627239E+03</totfact>
</mgrwt>
</event>
<event>
 6    1  0.6101889E-006  0.1389932E+03  0.7546771E-02  0.1226132E+00
          3   -1    0    0  501    0  0.00000000000E+00  0.00000000000E+00  0.31945426856E+03  0.31945426856E+03  0.00000000000E+00 0. -1.
         -3   -1    0    0    0  501 -0.00000000000E+00 -0.00000000000E+00 -0.68047027473E+02  0.68047027473E+02  0.00000000000E+00 0.  1.
          5    1    1    2  502    0 -0.64774571202E+02  0.38075293784E+02  0.10923108744E+03  0.13266119830E+03  0.47000000000E+01 0. -1.
         -5    1    1    2    0  502  0.57545301973E+02  0.22254701191E+02  0.13107993345E+03  0.14495093121E+03  0.47000000000E+01 0. -1.
        -11    1    1    2    0    0 -0.24951098395E+02 -0.30800012903E+02  0.40944507101E+02  0.56988163400E+02  0.00000000000E+00 0. -1.
         11    1    1    2    0    0  0.32180367623E+02 -0.29529982072E+02 -0.29848286899E+02  0.52901003131E+02  0.00000000000E+00 0.  1.
<mgrwt>
<rscale>  0 0.13089634E+03</rscale>
<asrwt>0</asrwt>
<pdfrwt beam="1">  1        3 0.49146810E-01 0.13899319E+03</pdfrwt>
<pdfrwt beam="2">  1       -3 0.10468774E-01 0.13899319E+03</pdfrwt>
<totfact> 0.65679795E+02</totfact>
</mgrwt>
</event>
<event>
 6    1  0.6101889E-006  0.3329089E+03  0.7546771E-02  0.1069857E+00
         -1   -1    0    0    0  501 -0.00000000000E+00  0.00000000000E+00  0.23399711663E+02  0.23399711663E+02  0.00000000000E+00 0.  1.
          1   -1    0    0  501    0  0.00000000000E+00 -0.00000000000E+00 -0.11840781746E+04  0.11840781746E+04  0.00000000000E+00 0. -1.
          5    1    1    2  502    0 -0.27660356023E+02 -0.12319497421E+02 -0.13712145899E+03  0.14050355806E+03  0.47000000000E+01 0.  1.
         -5    1    1    2    0  502  0.75703508330E+02  0.11618922576E+03 -0.67130553501E+03  0.68549556431E+03  0.47000000000E+01 0.  1.
        -11    1    1    2    0    0 -0.33849527896E+02 -0.60930889607E+02 -0.82680981049E+02  0.10814115070E+03  0.00000000000E+00 0.  1.
         11    1    1    2    0    0 -0.14193624412E+02 -0.42938838731E+02 -0.26957048787E+03  0.27333761318E+03  0.00000000000E+00 0. -1.
<mgrwt>
<rscale>  0 0.33290892E+03</rscale>
<asrwt>0</asrwt>
<pdfrwt beam="2">  1        1 0.18216590E+00 0.33290892E+03</pdfrwt>
<pdfrwt beam="1">  1       -1 0.35999551E-02 0.33290892E+03</pdfrwt>
<totfact> 0.33885887E+03</totfact>
</mgrwt>
</event>
<event>
 6    1  0.6101889E-006  0.1355437E+03  0.7546771E-02  0.1224895E+00
         -1   -1    0    0    0  501 -0.00000000000E+00  0.00000000000E+00  0.10307022077E+03  0.10307022077E+03  0.00000000000E+00 0.  1.
          1   -1    0    0  501    0  0.00000000000E+00 -0.00000000000E+00 -0.19406352991E+03  0.19406352991E+03  0.00000000000E+00 0. -1.
          5    1    1    2  502    0  0.81105699195E+02  0.16779659348E+02 -0.87846670015E+02  0.12082557197E+03  0.47000000000E+01 0. -1.
         -5    1    1    2    0  502 -0.27976439215E+02  0.39947915531E+02 -0.22312421166E+02  0.53837266319E+02  0.47000000000E+01 0.  1.
        -11    1    1    2    0    0 -0.71636079568E+02 -0.13928976705E+02  0.20569727706E+02  0.75821223848E+02  0.00000000000E+00 0.  1.
         11    1    1    2    0    0  0.18506819588E+02 -0.42798598174E+02 -0.14039456674E+01  0.46649688534E+02  0.00000000000E+00 0. -1.
<mgrwt>
<rscale>  0 0.13174119E+03</rscale>
<asrwt>0</asrwt>
<pdfrwt beam="2">  1        1 0.29855927E-01 0.13554365E+03</pdfrwt>
<pdfrwt beam="1">  1       -1 0.15856957E-01 0.13554365E+03</pdfrwt>
<totfact> 0.42986986E+03</totfact>
</mgrwt>
</event>
<event>
 6    1  0.6101889E-006  0.2547818E+03  0.7546771E-02  0.1133995E+00
          1   -1    0    0  501    0  0.00000000000E+00  0.00000000000E+00  0.71611304091E+02  0.71611304091E+02  0.00000000000E+00 0. -1.
         -1   -1    0    0    0  501 -0.00000000000E+00 -0.00000000000E+00 -0.60088531163E+03  0.60088531163E+03  0.00000000000E+00 0.  1.
          5    1    1    2  502    0  0.67082820865E+02  0.16649401853E+03 -0.19372066189E+03  0.26414039431E+03  0.47000000000E+01 0. -1.
         -5    1    1    2    0  502 -0.18870033465E+02 -0.69191288010E+02 -0.43694030155E+02  0.84111656568E+02  0.47000000000E+01 0.  1.
        -11    1    1    2    0    0 -0.96208662193E+01 -0.60506964912E+02 -0.24723544945E+03  0.25471360650E+03  0.00000000000E+00 0.  1.
         11    1    1    2    0    0 -0.38591921181E+02 -0.36795765613E+02 -0.44623866035E+02  0.69530958338E+02  0.00000000000E+00 0. -1.
<mgrwt>
<rscale>  0 0.21984998E+03</rscale>
<asrwt>0</asrwt>
<pdfrwt beam="1">  1        1 0.11017124E-01 0.25478178E+03</pdfrwt>
<pdfrwt beam="2">  1       -1 0.92443890E-01 0.25478178E+03</pdfrwt>
<totfact> 0.67473166E+02</totfact>
</mgrwt>
</event>
<event>
 6    1  0.6101889E-006  0.1642544E+03  0.7546771E-02  0.1189572E+00
         -1   -1    0    0    0  501 -0.00000000000E+00  0.00000000000E+00  0.85805694881E+02  0.85805694881E+02  0.00000000000E+00 0.  1.
          1   -1    0    0  501    0  0.00000000000E+00 -0.00000000000E+00 -0.32326030182E+03  0.32326030182E+03  0.00000000000E+00 0. -1.
          5    1    1    2  502    0 -0.40774321977E+02  0.66960920110E+02 -0.29675773489E+02  0.83958630806E+02  0.47000000000E+01 0. -1.
         -5    1    1    2    0  502  0.29213309756E+01  0.38330475283E+02 -0.17118515350E+03  0.17551127112E+03  0.47000000000E+01 0.  1.
        -11    1    1    2    0    0  0.74899757210E+01 -0.76106429836E+02  0.20005238737E+02  0.79047441297E+02  0.00000000000E+00 0.  1.
         11    1    1    2    0    0  0.30363015280E+02 -0.29184965558E+02 -0.56598918684E+02  0.70548653479E+02  0.00000000000E+00 0. -1.
<mgrwt>
<rscale>  0 0.15922757E+03</rscale>
<asrwt>0</asrwt>
<pdfrwt beam="2">  1        1 0.49732354E-01 0.16425443E+03</pdfrwt>
<pdfrwt beam="1">  1       -1 0.13200876E-01 0.16425443E+03</pdfrwt>
<totfact> 0.30681907E+03</totfact>
</mgrwt>
</event>
<event>
 6    1  0.6101889E-006  0.2013783E+03  0.7546771E-02  0.1152812E+00
          3   -1    0    0  501    0  0.00000000000E+00  0.00000000000E+00  0.90492807609E+02  0.90492807609E+02  0.00000000000E+00 0. -1.
         -3   -1    0    0    0  501 -0.00000000000E+00 -0.00000000000E+00 -0.42132488567E+03  0.42132488567E+03  0.00000000000E+00 0.  1.
          5    1    1    2  502    0 -0.25423465337E+02  0.57702737161E+02 -0.12645754061E+03  0.14138443353E+03  0.47000000000E+01 0.  1.
         -5    1    1    2    0  502 -0.19417466138E+02  0.93726916193E+02  0.10722169199E+01  0.95838470665E+02  0.47000000000E+01 0.  1.
        -11    1    1    2    0    0  0.58238154082E+02 -0.49066887013E+02 -0.11141492603E+03  0.13495379852E+03  0.00000000000E+00 0.  1.
         11    1    1    2    0    0 -0.13397222607E+02 -0.10236276634E+03 -0.94031828335E+02  0.13964099057E+03  0.00000000000E+00 0. -1.
<mgrwt>
<rscale>  0 0.19640017E+03</rscale>
<asrwt>0</asrwt>
<pdfrwt beam="1">  1        3 0.13921970E-01 0.20137832E+03</pdfrwt>
<pdfrwt beam="2">  1       -3 0.64819215E-01 0.20137832E+03</pdfrwt>
<totfact> 0.24150076E+02</totfact>
</mgrwt>
</event>
<event>
 6    1  0.6101889E-006  0.1277723E+03  0.7546771E-02  0.1245326E+00
          2   -1    0    0  501    0  0.00000000000E+00  0.00000000000E+00  0.42074663643E+03  0.42074663643E+03  0.00000000000E+00 0. -1.
         -2   -1    0    0    0  501 -0.00000000000E+00 -0.00000000000E+00 -0.29797562761E+02  0.29797562761E+02  0.00000000000E+00 0.  1.
          5    1    1    2  502    0 -0.20116771461E+02  0.31910079310E+02  0.12264531087E+02  0.39943039173E+02  0.47000000000E+01 0. -1.
         -5    1    1    2    0  502 -0.50809707492E+01 -0.39992588858E+02  0.23401411750E+03  0.23750772748E+03  0.47000000000E+01 0. -1.
        -11    1    1    2    0    0  0.83594073521E+01 -0.34646571549E+02  0.10976774996E+03  0.11540894048E+03  0.00000000000E+00 0. -1.
         11    1    1    2    0    0  0.16838334858E+02  0.42729081097E+02  0.34902675118E+02  0.57684492045E+02  0.00000000000E+00 0.  1.
<mgrwt>
<rscale>  0 0.11865862E+03</rscale>
<asrwt>0</asrwt>
<pdfrwt beam="1">  1        2 0.64730247E-01 0.12777228E+03</pdfrwt>
<pdfrwt beam="2">  1       -2 0.45842407E-02 0.12777228E+03</pdfrwt>
<totfact> 0.15819778E+04</totfact>
</mgrwt>
</event>
<event>
 6    1  0.6101889E-006  0.1755073E+03  0.7546771E-02  0.1178515E+00
          2   -1    0    0  501    0  0.00000000000E+00  0.00000000000E+00  0.63194405150E+03  0.63194405150E+03  0.00000000000E+00 0. -1.
         -2   -1    0    0    0  501 -0.00000000000E+00 -0.00000000000E+00 -0.42742695918E+02  0.42742695918E+02  0.00000000000E+00 0.  1.
          5    1    1    2  502    0 -0.40789925600E+02  0.74927735155E+01  0.54626579648E+02  0.68746730027E+02  0.47000000000E+01 0.  1.
         -5    1    1    2    0  502  0.64706534940E+02  0.11336107700E+03  0.28711093542E+03  0.31542423604E+03  0.47000000000E+01 0.  1.
        -11    1    1    2    0    0 -0.28602753842E+02 -0.94011542774E+02  0.98698396717E+02  0.13927548678E+03  0.00000000000E+00 0.  1.
         11    1    1    2    0    0  0.46861445009E+01 -0.26842307744E+02  0.14876544380E+03  0.15124029458E+03  0.00000000000E+00 0. -1.
<mgrwt>
<rscale>  0 0.16936207E+03</rscale>
<asrwt>0</asrwt>
<pdfrwt beam="1">  1        2 0.97222155E-01 0.17550727E+03</pdfrwt>
<pdfrwt beam="2">  1       -2 0.65757998E-02 0.17550727E+03</pdfrwt>
<totfact> 0.59553824E+03</totfact>
</mgrwt>
</event>
<event>
 6    1  0.6101889E-006  0.2248826E+03  0.7546771E-02  0.1133180E+00
          2   -1    0    0  501    0  0.00000000000E+00  0.00000000000E+00  0.72699275162E+03  0.72699275162E+03  0.00000000000E+00 0. -1.
         -2   -1    0    0    0  501 -0.00000000000E+00 -0.00000000000E+00 -0.11015791274E+03  0.11015791274E+03  0.00000000000E+00 0.  1.
          5    1    1    2  502    0  0.11615672982E+03 -0.80727216335E+02  0.42383618490E+03  0.44684278104E+03  0.47000000000E+01 0.  1.
         -5    1    1    2    0  502 -0.17036040603E+02 -0.77770973596E+02  0.15919617167E+03  0.17805634526E+03  0.47000000000E+01 0.  1.
        -11    1    1    2    0    0 -0.73827405882E+02  0.42749080030E+02  0.38681204117E+02  0.93670727842E+02  0.00000000000E+00 0. -1.
         11    1    1    2    0    0 -0.25293283334E+02  0.11574910990E+03 -0.48787218130E+01  0.11858081021E+03  0.00000000000E+00 0.  1.
<mgrwt>
<rscale>  0 0.22094542E+03</rscale>
<asrwt>0</asrwt>
<pdfrwt beam="1">  1        2 0.11184504E+00 0.22488261E+03</pdfrwt>
<pdfrwt beam="2">  1       -2 0.16947372E-01 0.22488261E+03</pdfrwt>
<totfact> 0.11178119E+03</totfact>
</mgrwt>
</event>
<event>
 6    1  0.6101889E-006  0.2085201E+03  0.7546771E-02  0.1146496E+00
         -2   -1    0    0    0  501 -0.00000000000E+00  0.00000000000E+00  0.23121557509E+02  0.23121557509E+02  0.00000000000E+00 0.  1.
          2   -1    0    0  501    0  0.00000000000E+00 -0.00000000000E+00 -0.18042479394E+04  0.18042479394E+04  0.00000000000E+00 0. -1.
          5    1    1    2  502    0 -0.11751674805E+02 -0.94560573426E+01 -0.35167724369E+03  0.35203194828E+03  0.47000000000E+01 0. -1.
         -5    1    1    2    0  502 -0.55270860892E+02  0.16230181533E+03 -0.77130816752E+03  0.79014880030E+03  0.47000000000E+01 0. -1.
        -11    1    1    2    0    0  0.10089282694E+02  0.39837096619E+01 -0.67637969771E+01  0.12783290558E+02  0.00000000000E+00 0.  1.
         11    1    1    2    0    0  0.56933253002E+02 -0.15682946765E+03 -0.65137717366E+03  0.67240545773E+03  0.00000000000E+00 0. -1.
<mgrwt>
<rscale>  0 0.20389201E+03</rscale>
<asrwt>0</asrwt>
<pdfrwt beam="2">  1        2 0.27757664E+00 0.20852009E+03</pdfrwt>
<pdfrwt beam="1">  1       -2 0.35571622E-02 0.20852009E+03</pdfrwt>
<totfact> 0.30886013E+03</totfact>
</mgrwt>
</event>
<event>
 6    1  0.6101889E-006  0.2341741E+03  0.7546771E-02  0.1126661E+00
          1   -1    0    0  501    0  0.00000000000E+00  0.00000000000E+00  0.16781908454E+04  0.16781908454E+04  0.00000000000E+00 0. -1.
         -1   -1    0    0    0  501 -0.00000000000E+00 -0.00000000000E+00 -0.30573111214E+02  0.30573111214E+02  0.00000000000E+00 0.  1.
          5    1    1    2  502    0 -0.40532395505E+02  0.34152041084E+02  0.72900683560E+02  0.90254288869E+02  0.47000000000E+01 0.  1.
         -5    1    1    2    0  502 -0.15473256361E+03 -0.62223189775E+00  0.72267997023E+03  0.73907440950E+03  0.47000000000E+01 0.  1.
        -11    1    1    2    0    0  0.57167128624E+02  0.25114297826E+02  0.34741118460E+03  0.35297781763E+03  0.00000000000E+00 0. -1.
         11    1    1    2    0    0  0.13809783049E+03 -0.58644107013E+02  0.50462589580E+03  0.52645744062E+03  0.00000000000E+00 0.  1.
<mgrwt>
<rscale>  0 0.22997007E+03</rscale>
<asrwt>0</asrwt>
<pdfrwt beam="1">  1        1 0.25818314E+00 0.23417411E+03</pdfrwt>
<pdfrwt beam="2">  1       -1 0.47035569E-02 0.23417411E+03</pdfrwt>
<totfact> 0.10568455E+03</totfact>
</mgrwt>
</event>
<event>
 6    1  0.6101889E-006  0.1363033E+03  0.7546771E-02  0.1230958E+00
          1   -1    0    0  501    0  0.00000000000E+00  0.00000000000E+00  0.42001473186E+03  0.42001473186E+03  0.00000000000E+00 0. -1.
         -1   -1    0    0    0  501 -0.00000000000E+00 -0.00000000000E+00 -0.35223878264E+02  0.35223878264E+02  0.00000000000E+00 0.  1.
          5    1    1    2  502    0  0.30440460400E+02  0.16172365001E+01  0.13789158400E+03  0.14129903050E+03  0.47000000000E+01 0.  1.
         -5    1    1    2    0  502 -0.58049820094E+02 -0.48478497872E+02  0.49846000165E+02  0.90700937709E+02  0.47000000000E+01 0.  1.
        -11    1    1    2    0    0 -0.81866882590E+01  0.50840379858E+02  0.49770687276E+02  0.71616250954E+02  0.00000000000E+00 0.  1.
         11    1    1    2    0    0  0.35796047954E+02 -0.39791184860E+01  0.14728258216E+03  0.15162239096E+03  0.00000000000E+00 0. -1.
<mgrwt>
<rscale>  0 0.12766768E+03</rscale>
<asrwt>0</asrwt>
<pdfrwt beam="1">  1        1 0.64617648E-01 0.13630328E+03</pdfrwt>
<pdfrwt beam="2">  1       -1 0.54190585E-02 0.13630328E+03</pdfrwt>
<totfact> 0.84466249E+03</totfact>
</mgrwt>
</event>
<event>
 6    1  0.6101889E-006  0.3910579E+03  0.7546771E-02  0.1047773E+00
         -1   -1    0    0    0  501 -0.00000000000E+00  0.00000000000E+00  0.83988512563E+02  0.83988512563E+02  0.00000000000E+00 0.  1.
          1   -1    0    0  501    0  0.00000000000E+00 -0.00000000000E+00 -0.28266019629E+04  0.28266019629E+04  0.00000000000E+00 0. -1.
          5    1    1    2  502    0  0.23277333483E+03  0.25708110059E+03 -0.18168848437E+04  0.18496936890E+04  0.47000000000E+01 0.  1.
         -5    1    1    2    0  502  0.14774851370E+02  0.18633125791E+02 -0.45167615725E+03  0.45232613305E+03  0.47000000000E+01 0.  1.
        -11    1    1    2    0    0 -0.16959872750E+03 -0.13803271044E+03 -0.32127496542E+03  0.38863139468E+03  0.00000000000E+00 0.  1.
         11    1    1    2    0    0 -0.77949458703E+02 -0.13768151594E+03 -0.15277748394E+03  0.21993925876E+03  0.00000000000E+00 0. -1.
<mgrwt>
<rscale>  0 0.38867629E+03</rscale>
<asrwt>0</asrwt>
<pdfrwt beam="2">  1        1 0.43486178E+00 0.39105785E+03</pdfrwt>
<pdfrwt beam="1">  1       -1 0.12921311E-01 0.39105785E+03</pdfrwt>
<totfact> 0.37592911E+01</totfact>
</mgrwt>
</event>
<event>
 6    1  0.6101889E-006  0.1640660E+03  0.7546771E-02  0.1191360E+00
         -2   -1    0    0    0  501 -0.00000000000E+00  0.00000000000E+00  0.26255547378E+02  0.26255547378E+02  0.00000000000E+00 0.  1.
          2   -1    0    0  501    0  0.00000000000E+00 -0.00000000000E+00 -0.11826834659E+04  0.11826834659E+04  0.00000000000E+00 0. -1.
          5    1    1    2  502    0  0.24010044645E+02  0.61905320600E+01 -0.33201677372E+02  0.41704272099E+02  0.47000000000E+01 0. -1.
         -5    1    1    2    0  502  0.25144612571E+02 -0.10041671651E+03 -0.88433296899E+03  0.89038343344E+03  0.47000000000E+01 0. -1.
        -11    1    1    2    0    0 -0.67247230536E+02  0.80746067390E+02 -0.13793032055E+03  0.17339807018E+03  0.00000000000E+00 0.  1.
         11    1    1    2    0    0  0.18092573321E+02  0.13480117056E+02 -0.10096295163E+03  0.10345323759E+03  0.00000000000E+00 0. -1.
<mgrwt>
<rscale>  0 0.15766355E+03</rscale>
<asrwt>0</asrwt>
<pdfrwt beam="2">  1        2 0.18195130E+00 0.16406603E+03</pdfrwt>
<pdfrwt beam="1">  1       -2 0.40393150E-02 0.16406603E+03</pdfrwt>
<totfact> 0.54530604E+03</totfact>
</mgrwt>
</event>
<event>
 6    1  0.6101889E-006  0.1397012E+03  0.7546771E-02  0.1224214E+00
         -3   -1    0    0    0  501 -0.00000000000E+00  0.00000000000E+00  0.25851769428E+03  0.25851769428E+03  0.00000000000E+00 0.  1.
          3   -1    0    0  501    0  0.00000000000E+00 -0.00000000000E+00 -0.81920388479E+02  0.81920388479E+02  0.00000000000E+00 0. -1.
          5    1    1    2  502    0 -0.51053355705E+02  0.68646709497E+02  0.34779342859E+02  0.92468959890E+02  0.47000000000E+01 0. -1.
         -5    1    1    2    0  502 -0.46029406031E+01 -0.40459645532E+02 -0.24252766973E+02  0.47628318096E+02  0.47000000000E+01 0. -1.
        -11    1    1    2    0    0 -0.10472352609E+02 -0.38973935895E+02  0.36238793958E+02  0.54239174365E+02  0.00000000000E+00 0. -1.
         11    1    1    2    0    0  0.66128648917E+02  0.10786871930E+02  0.12983193596E+03  0.14610163041E+03  0.00000000000E+00 0.  1.
<mgrwt>
<rscale>  0 0.13220891E+03</rscale>
<asrwt>0</asrwt>
<pdfrwt beam="2">  1        3 0.12603137E-01 0.13970125E+03</pdfrwt>
<pdfrwt beam="1">  1       -3 0.39771953E-01 0.13970125E+03</pdfrwt>
<totfact> 0.72911694E+02</totfact>
</mgrwt>
</event>
<event>
 6    1  0.6101889E-006  0.2178193E+03  0.7546771E-02  0.1138698E+00
         -3   -1    0    0    0  501 -0.00000000000E+00  0.00000000000E+00  0.22596595213E+03  0.22596595213E+03  0.00000000000E+00 0.  1.
          3   -1    0    0  501    0  0.00000000000E+00 -0.00000000000E+00 -0.22522851850E+03  0.22522851850E+03  0.00000000000E+00 0. -1.
          5    1    1    2  502    0  0.41102101757E+02 -0.57647890948E+02 -0.99821984375E+02  0.12247114217E+03  0.47000000000E+01 0.  1.
         -5    1    1    2    0  502  0.37432880071E+02 -0.10243169751E+03  0.17173329400E+02  0.11050106971E+03  0.47000000000E+01 0.  1.
        -11    1    1    2    0    0 -0.46272149410E+02  0.16013818645E+03  0.55822445896E+02  0.17578821359E+03  0.00000000000E+00 0. -1.
         11    1    1    2    0    0 -0.32262832419E+02 -0.58597996392E-01  0.27563642705E+02  0.42434045160E+02  0.00000000000E+00 0.  1.
<mgrwt>
<rscale>  0 0.21366260E+03</rscale>
<asrwt>0</asrwt>
<pdfrwt beam="2">  1        3 0.34650541E-01 0.21781931E+03</pdfrwt>
<pdfrwt beam="1">  1       -3 0.34763992E-01 0.21781931E+03</pdfrwt>
<totfact> 0.16392037E+02</totfact>
</mgrwt>
</event>
<event>
 6    1  0.6101889E-006  0.1459477E+03  0.7546771E-02  0.1215274E+00
         -2   -1    0    0    0  501 -0.00000000000E+00  0.00000000000E+00  0.16117185325E+02  0.16117185325E+02  0.00000000000E+00 0.  1.
          2   -1    0    0  501    0  0.00000000000E+00 -0.00000000000E+00 -0.11581616925E+04  0.11581616925E+04  0.00000000000E+00 0. -1.
          5    1    1    2  502    0 -0.46478206127E+00  0.32191197201E+02 -0.67534651471E+03  0.67612979089E+03  0.47000000000E+01 0.  1.
         -5    1    1    2    0  502 -0.42292404304E+02  0.29412093813E+02 -0.97456344225E+02  0.11033380150E+03  0.47000000000E+01 0.  1.
        -11    1    1    2    0    0  0.51549094217E+02  0.20288768319E+00 -0.11506737653E+03  0.12608668217E+03  0.00000000000E+00 0.  1.
         11    1    1    2    0    0 -0.87919078521E+01 -0.61806178697E+02 -0.25417427174E+03  0.26172860329E+03  0.00000000000E+00 0. -1.
<mgrwt>
<rscale>  0 0.13856421E+03</rscale>
<asrwt>0</asrwt>
<pdfrwt beam="2">  1        2 0.17817872E+00 0.14594767E+03</pdfrwt>
<pdfrwt beam="1">  1       -2 0.24795670E-02 0.14594767E+03</pdfrwt>
<totfact> 0.11519929E+04</totfact>
</mgrwt>
</event>
<event>
 6    1  0.6101889E-006  0.1544323E+03  0.7546771E-02  0.1203659E+00
         -1   -1    0    0    0  501 -0.00000000000E+00  0.00000000000E+00  0.41596559452E+02  0.41596559452E+02  0.00000000000E+00 0.  1.
          1   -1    0    0  501    0  0.00000000000E+00 -0.00000000000E+00 -0.51950240444E+03  0.51950240444E+03  0.00000000000E+00 0. -1.
          5    1    1    2  502    0  0.26104147960E+02 -0.16479118892E+02 -0.29357945531E+03  0.29523545600E+03  0.47000000000E+01 0. -1.
         -5    1    1    2    0  502  0.59959394246E+02 -0.11985942359E+02 -0.42457379590E+02  0.74588945925E+02  0.47000000000E+01 0. -1.
        -11    1    1    2    0    0 -0.77199881091E+01  0.32950197298E+02 -0.59965527345E+01  0.34369643046E+02  0.00000000000E+00 0.  1.
         11    1    1    2    0    0 -0.78343554097E+02 -0.44851360469E+01 -0.13587245736E+03  0.15690491892E+03  0.00000000000E+00 0. -1.
<mgrwt>
<rscale>  0 0.14743632E+03</rscale>
<asrwt>0</asrwt>
<pdfrwt beam="2">  1        1 0.79923451E-01 0.15443230E+03</pdfrwt>
<pdfrwt beam="1">  1       -1 0.63994703E-02 0.15443230E+03</pdfrwt>
<totfact> 0.50450294E+03</totfact>
</mgrwt>
</event>
<event>
 6    1  0.6101889E-006  0.1306230E+03  0.7546771E-02  0.1239975E+00
          1   -1    0    0  501    0  0.00000000000E+00  0.00000000000E+00  0.28933637246E+03  0.28933637246E+03  0.00000000000E+00 0. -1.
         -1   -1    0    0    0  501 -0.00000000000E+00 -0.00000000000E+00 -0.78484263733E+02  0.78484263733E+02  0.00000000000E+00 0.  1.
          5    1    1    2  502    0  0.68306708129E+02 -0.36566852709E+02  0.10093592868E+03  0.12733064357E+03  0.47000000000E+01 0. -1.
         -5    1    1    2    0  502 -0.30487292081E+02  0.34110799912E+02  0.13127720562E+03  0.13910002287E+03  0.47000000000E+01 0. -1.
        -11    1    1    2    0    0  0.84385856233E+01  0.11013384906E+02 -0.46167539731E+02  0.48207324124E+02  0.00000000000E+00 0.  1.
         11    1    1    2    0    0 -0.46258001672E+02 -0.85573321085E+01  0.24806514164E+02  0.53182645632E+02  0.00000000000E+00 0. -1.
<mgrwt>
<rscale>  0 0.12191262E+03</rscale>
<asrwt>0</asrwt>
<pdfrwt beam="1">  1        1 0.44513288E-01 0.13062297E+03</pdfrwt>
<pdfrwt beam="2">  1       -1 0.12074502E-01 0.13062297E+03</pdfrwt>
<totfact> 0.40005912E+03</totfact>
</mgrwt>
</event>
<event>
 6    1  0.6101889E-006  0.1628882E+03  0.7546771E-02  0.1192819E+00
         -3   -1    0    0    0  501 -0.00000000000E+00  0.00000000000E+00  0.24422872738E+03  0.24422872738E+03  0.00000000000E+00 0.  1.
          3   -1    0    0  501    0  0.00000000000E+00 -0.00000000000E+00 -0.96530299227E+02  0.96530299227E+02  0.00000000000E+00 0. -1.
          5    1    1    2  502    0  0.28199678056E+02 -0.50430779339E+02  0.35289127191E+02  0.67866765395E+02  0.47000000000E+01 0.  1.
         -5    1    1    2    0  502  0.74801959348E+02  0.67667697532E+02  0.11631688313E+02  0.10164465842E+03  0.47000000000E+01 0.  1.
        -11    1    1    2    0    0 -0.13934303301E+02 -0.37916934237E+02  0.57021519360E+02  0.69880701059E+02  0.00000000000E+00 0.  1.
         11    1    1    2    0    0 -0.89067334104E+02  0.20680016044E+02  0.43756093292E+02  0.10136690174E+03  0.00000000000E+00 0. -1.
<mgrwt>
<rscale>  0 0.15640256E+03</rscale>
<asrwt>0</asrwt>
<pdfrwt beam="2">  1        3 0.14850815E-01 0.16288818E+03</pdfrwt>
<pdfrwt beam="1">  1       -3 0.37573650E-01 0.16288818E+03</pdfrwt>
<totfact> 0.62900627E+02</totfact>
</mgrwt>
</event>
<event>
 6    1  0.6101889E-006  0.1583586E+03  0.7546771E-02  0.1199097E+00
          1   -1    0    0  501    0  0.00000000000E+00  0.00000000000E+00  0.92666811165E+03  0.92666811165E+03  0.00000000000E+00 0. -1.
         -1   -1    0    0    0  501 -0.00000000000E+00 -0.00000000000E+00 -0.25765510530E+02  0.25765510530E+02  0.00000000000E+00 0.  1.
          5    1    1    2  502    0 -0.56448590896E+02 -0.66756220631E+02  0.60097355304E+03  0.60731716414E+03  0.47000000000E+01 0. -1.
         -5    1    1    2    0  502  0.27498628018E+02 -0.26056955047E+02  0.51539145775E+02  0.64136674348E+02  0.47000000000E+01 0. -1.
        -11    1    1    2    0    0  0.22278390710E+02  0.22061397741E+02  0.17875677045E+03  0.18148557778E+03  0.00000000000E+00 0. -1.
         11    1    1    2    0    0  0.66715721677E+01  0.70751777937E+02  0.69633131852E+02  0.99494205902E+02  0.00000000000E+00 0.  1.
<mgrwt>
<rscale>  0 0.15112503E+03</rscale>
<asrwt>0</asrwt>
<pdfrwt beam="1">  1        1 0.14256430E+00 0.15835856E+03</pdfrwt>
<pdfrwt beam="2">  1       -1 0.39639254E-02 0.15835856E+03</pdfrwt>
<totfact> 0.44556121E+03</totfact>
</mgrwt>
</event>
<event>
 6    1  0.6101889E-006  0.1375235E+03  0.7546771E-02  0.1228453E+00
          2   -1    0    0  501    0  0.00000000000E+00  0.00000000000E+00  0.34207082574E+03  0.34207082574E+03  0.00000000000E+00 0. -1.
         -2   -1    0    0    0  501 -0.00000000000E+00 -0.00000000000E+00 -0.56696120541E+02  0.56696120541E+02  0.00000000000E+00 0.  1.
          5    1    1    2  502    0  0.80447672166E+02  0.16840737464E+02  0.13432233214E+03  0.15754369967E+03  0.47000000000E+01 0. -1.
         -5    1    1    2    0  502 -0.45745700601E+02  0.28815300588E+02  0.11604013294E+03  0.12810305666E+03  0.47000000000E+01 0. -1.
        -11    1    1    2    0    0  0.14810288233E+02 -0.19487950401E+02 -0.22211621163E+02  0.33052699785E+02  0.00000000000E+00 0.  1.
         11    1    1    2    0    0 -0.49512259799E+02 -0.26168087650E+02  0.57223861281E+02  0.80067490166E+02  0.00000000000E+00 0. -1.
<mgrwt>
<rscale>  0 0.12933045E+03</rscale>
<asrwt>0</asrwt>
<pdfrwt beam="1">  1        2 0.52626279E-01 0.13752347E+03</pdfrwt>
<pdfrwt beam="2">  1       -2 0.87224803E-02 0.13752347E+03</pdfrwt>
<totfact> 0.74539286E+03</totfact>
</mgrwt>
</event>
<event>
 6    1  0.6101889E-006  0.1614470E+03  0.7546771E-02  0.1194959E+00
          2   -1    0    0  501    0  0.00000000000E+00  0.00000000000E+00  0.62306345104E+02  0.62306345104E+02  0.00000000000E+00 0. -1.
         -2   -1    0    0    0  501 -0.00000000000E+00 -0.00000000000E+00 -0.40344257798E+03  0.40344257798E+03  0.00000000000E+00 0.  1.
          5    1    1    2  502    0  0.48297215857E+02  0.69747839210E+02 -0.11240787584E+03  0.14090778078E+03  0.47000000000E+01 0.  1.
         -5    1    1    2    0  502  0.42959016257E+02 -0.23790965929E+02  0.99246251114E+01  0.50319730933E+02  0.47000000000E+01 0.  1.
        -11    1    1    2    0    0 -0.25270607331E+02 -0.71578992565E+01 -0.26303764461E+01  0.26396173907E+02  0.00000000000E+00 0. -1.
         11    1    1    2    0    0 -0.65985624783E+02 -0.38798974024E+02 -0.23602260570E+03  0.24812523746E+03  0.00000000000E+00 0.  1.
<mgrwt>
<rscale>  0 0.15457694E+03</rscale>
<asrwt>0</asrwt>
<pdfrwt beam="1">  1        2 0.95855917E-02 0.16144703E+03</pdfrwt>
<pdfrwt beam="2">  1       -2 0.62068088E-01 0.16144703E+03</pdfrwt>
<totfact> 0.16265357E+03</totfact>
</mgrwt>
</event>
<event>
 6    1  0.6101889E-006  0.1454358E+03  0.7546771E-02  0.1215353E+00
          2   -1    0    0  501    0  0.00000000000E+00  0.00000000000E+00  0.60262553046E+02  0.60262553046E+02  0.00000000000E+00 0. -1.
         -2   -1    0    0    0  501 -0.00000000000E+00 -0.00000000000E+00 -0.31670105194E+03  0.31670105194E+03  0.00000000000E+00 0.  1.
          5    1    1    2  502    0 -0.67377112434E+02 -0.14881499215E+02 -0.84080464505E+02  0.10887033026E+03  0.47000000000E+01 0.  1.
         -5    1    1    2    0  502  0.32441237038E+02 -0.50752917613E+02 -0.26789646232E+01  0.60477759203E+02  0.47000000000E+01 0.  1.
        -11    1    1    2    0    0  0.10720356860E+02  0.73234801544E+02 -0.16627948300E+03  0.18200859506E+03  0.00000000000E+00 0.  1.
         11    1    1    2    0    0  0.24215518535E+02 -0.76003847169E+01 -0.33995867694E+01  0.25606920471E+02  0.00000000000E+00 0. -1.
<mgrwt>
<rscale>  0 0.13850667E+03</rscale>
<asrwt>0</asrwt>
<pdfrwt beam="1">  1        2 0.92711621E-02 0.14543582E+03</pdfrwt>
<pdfrwt beam="2">  1       -2 0.48723238E-01 0.14543582E+03</pdfrwt>
<totfact> 0.27504451E+03</totfact>
</mgrwt>
</event>
<event>
 6    1  0.6101889E-006  0.1841967E+03  0.7546771E-02  0.1168925E+00
         -2   -1    0    0    0  501 -0.00000000000E+00  0.00000000000E+00  0.15825777929E+03  0.15825777929E+03  0.00000000000E+00 0.  1.
          2   -1    0    0  501    0  0.00000000000E+00 -0.00000000000E+00 -0.19301985326E+03  0.19301985326E+03  0.00000000000E+00 0. -1.
          5    1    1    2  502    0 -0.16128298168E+02  0.28045584528E+01  0.30644232990E+02  0.35059186606E+02  0.47000000000E+01 0. -1.
         -5    1    1    2    0  502  0.11377155299E+03  0.90837084212E+02 -0.32033206882E+02  0.14914274532E+03  0.47000000000E+01 0. -1.
        -11    1    1    2    0    0 -0.76604004284E+01  0.17494176379E+02  0.34660692704E+01  0.19409831996E+02  0.00000000000E+00 0.  1.
         11    1    1    2    0    0 -0.89982854393E+02 -0.11113581904E+03 -0.36839169350E+02  0.14766586863E+03  0.00000000000E+00 0. -1.
<mgrwt>
<rscale>  0 0.17884602E+03</rscale>
<asrwt>0</asrwt>
<pdfrwt beam="2">  1        2 0.29695362E-01 0.18419670E+03</pdfrwt>
<pdfrwt beam="1">  1       -2 0.24347351E-01 0.18419670E+03</pdfrwt>
<totfact> 0.25943655E+03</totfact>
</mgrwt>
</event>
<event>
 6    1  0.6101889E-006  0.1391597E+03  0.7546771E-02  0.1225885E+00
          2   -1    0    0  501    0  0.00000000000E+00  0.00000000000E+00  0.60200836316E+03  0.60200836316E+03  0.00000000000E+00 0. -1.
         -2   -1    0    0    0  501 -0.00000000000E+00 -0.00000000000E+00 -0.26072574781E+02  0.26072574781E+02  0.00000000000E+00 0.  1.
          5    1    1    2  502    0  0.27086571335E+02  0.18684756571E+02  0.30488286012E+03  0.30668950238E+03  0.47000000000E+01 0.  1.
         -5    1    1    2    0  502  0.24685005474E+02 -0.51221162016E+02  0.55358279087E+02  0.79495823771E+02  0.47000000000E+01 0.  1.
        -11    1    1    2    0    0 -0.26312044972E+02 -0.28115753945E+02  0.46563993872E+02  0.60423711040E+02  0.00000000000E+00 0. -1.
         11    1    1    2    0    0 -0.25459531837E+02  0.60652159389E+02  0.16913065530E+03  0.18147190075E+03  0.00000000000E+00 0.  1.
<mgrwt>
<rscale>  0 0.13106430E+03</rscale>
<asrwt>0</asrwt>
<pdfrwt beam="1">  1        2 0.92616661E-01 0.13915972E+03</pdfrwt>
<pdfrwt beam="2">  1       -2 0.40111658E-02 0.13915972E+03</pdfrwt>
<totfact> 0.13099866E+04</totfact>
</mgrwt>
</event>
<event>
 6    1  0.6101889E-006  0.1631390E+03  0.7546771E-02  0.1192093E+00
          2   -1    0    0  501    0  0.00000000000E+00  0.00000000000E+00  0.25734892391E+03  0.25734892391E+03  0.00000000000E+00 0.  1.
         -2   -1    0    0    0  501 -0.00000000000E+00 -0.00000000000E+00 -0.92386359387E+02  0.92386359387E+02  0.00000000000E+00 0. -1.
          5    1    1    2  502    0 -0.63830330411E+02  0.20185887929E+02  0.89627351657E+02  0.11196844786E+03  0.47000000000E+01 0. -1.
         -5    1    1    2    0  502  0.31136558913E+02  0.79421912853E+02  0.30854162112E+02  0.90837188760E+02  0.47000000000E+01 0. -1.
        -11    1    1    2    0    0 -0.31573031486E+02 -0.28091789645E+02  0.34842721113E+01  0.42404541205E+02  0.00000000000E+00 0.  1.
         11    1    1    2    0    0  0.64266802983E+02 -0.71516011137E+02  0.40996778645E+02  0.10452510547E+03  0.00000000000E+00 0. -1.
<mgrwt>
<rscale>  0 0.15702809E+03</rscale>
<asrwt>0</asrwt>
<pdfrwt beam="1">  1        2 0.39592142E-01 0.16313899E+03</pdfrwt>
<pdfrwt beam="2">  1       -2 0.14213286E-01 0.16313899E+03</pdfrwt>
<totfact> 0.46875759E+03</totfact>
</mgrwt>
</event>
<event>
 6    1  0.6101889E-006  0.1465376E+03  0.7546771E-02  0.1215274E+00
          1   -1    0    0  501    0  0.00000000000E+00  0.00000000000E+00  0.37767617163E+02  0.37767617163E+02  0.00000000000E+00 0. -1.
         -1   -1    0    0    0  501 -0.00000000000E+00 -0.00000000000E+00 -0.48990171391E+03  0.48990171391E+03  0.00000000000E+00 0.  1.
          5    1    1    2  502    0 -0.26859242631E+02  0.49524352629E+02 -0.19620700897E+03  0.20418952174E+03  0.47000000000E+01 0.  1.
         -5    1    1    2    0  502  0.14416378794E+02  0.25941361519E+02  0.10981825471E+02  0.31991822481E+02  0.47000000000E+01 0.  1.
        -11    1    1    2    0    0 -0.34589809122E+02 -0.38620900527E+02 -0.16915048362E+03  0.17691781980E+03  0.00000000000E+00 0.  1.
         11    1    1    2    0    0  0.47032672959E+02 -0.36844813622E+02 -0.97758429623E+02  0.11457016705E+03  0.00000000000E+00 0. -1.
<mgrwt>
<rscale>  0 0.13856396E+03</rscale>
<asrwt>0</asrwt>
<pdfrwt beam="1">  1        1 0.58104029E-02 0.14653757E+03</pdfrwt>
<pdfrwt beam="2">  1       -1 0.75369491E-01 0.14653757E+03</pdfrwt>
<totfact> 0.24219545E+03</totfact>
</mgrwt>
</event>
<event>
 6    1  0.6101889E-006  0.1419322E+03  0.7546771E-02  0.1221249E+00
         -1   -1    0    0    0  501 -0.00000000000E+00  0.00000000000E+00  0.63061728388E+02  0.63061728388E+02  0.00000000000E+00 0.  1.
          1   -1    0    0  501    0  0.00000000000E+00 -0.00000000000E+00 -0.27079316766E+03  0.27079316766E+03  0.00000000000E+00 0. -1.
          5    1    1    2  502    0 -0.73163361837E+01  0.69904087835E+02 -0.68131174122E+02  0.98000291624E+02  0.47000000000E+01 0.  1.
         -5    1    1    2    0  502 -0.55100674407E+02 -0.44903583899E+02 -0.81281369508E+02  0.10807944854E+03  0.47000000000E+01 0.  1.
        -11    1    1    2    0    0  0.38341420133E+02 -0.26730885298E+02  0.16181911841E+02  0.49461692222E+02  0.00000000000E+00 0.  1.
         11    1    1    2    0    0  0.24075590457E+02  0.17303813630E+01 -0.74500807484E+02  0.78313463666E+02  0.00000000000E+00 0. -1.
<mgrwt>
<rscale>  0 0.13427378E+03</rscale>
<asrwt>0</asrwt>
<pdfrwt beam="2">  1        1 0.41660486E-01 0.14193221E+03</pdfrwt>
<pdfrwt beam="1">  1       -1 0.97018046E-02 0.14193221E+03</pdfrwt>
<totfact> 0.61014012E+03</totfact>
</mgrwt>
</event>
<event>
 6    1  0.6101889E-006  0.1370497E+03  0.7546771E-02  0.1229217E+00
         -1   -1    0    0    0  501 -0.00000000000E+00  0.00000000000E+00  0.96569171942E+02  0.96569171942E+02  0.00000000000E+00 0.  1.
          1   -1    0    0  501    0  0.00000000000E+00 -0.00000000000E+00 -0.20366225162E+03  0.20366225162E+03  0.00000000000E+00 0. -1.
          5    1    1    2  502    0  0.26806278068E+02  0.42121517597E+02 -0.41851885813E+02  0.65318214417E+02  0.47000000000E+01 0.  1.
         -5    1    1    2    0  502  0.82919129338E+01 -0.86006857031E+02 -0.90268614161E+02  0.12504578353E+03  0.47000000000E+01 0.  1.
        -11    1    1    2    0    0 -0.44049948581E+02  0.49331640969E+02  0.49918634298E+02  0.82860598724E+02  0.00000000000E+00 0.  1.
         11    1    1    2    0    0  0.89517575791E+01 -0.54463015357E+01 -0.24891214004E+02  0.27006826891E+02  0.00000000000E+00 0. -1.
<mgrwt>
<rscale>  0 0.12881995E+03</rscale>
<asrwt>0</asrwt>
<pdfrwt beam="2">  1        1 0.31332654E-01 0.13704972E+03</pdfrwt>
<pdfrwt beam="1">  1       -1 0.14856796E-01 0.13704972E+03</pdfrwt>
<totfact> 0.44870551E+03</totfact>
</mgrwt>
</event>
<event>
 6    1  0.6101889E-006  0.3865537E+03  0.7546771E-02  0.1049463E+00
          2   -1    0    0  501    0  0.00000000000E+00  0.00000000000E+00  0.45625307847E+03  0.45625307847E+03  0.00000000000E+00 0. -1.
         -2   -1    0    0    0  501 -0.00000000000E+00 -0.00000000000E+00 -0.32017342772E+03  0.32017342772E+03  0.00000000000E+00 0.  1.
          5    1    1    2  502    0  0.83459091816E+02  0.18591822649E+03  0.86520079017E+02  0.22144710660E+03  0.47000000000E+01 0.  1.
         -5    1    1    2    0  502  0.83530943892E+02  0.13952628015E+03 -0.41010088787E+02  0.16777639531E+03  0.47000000000E+01 0.  1.
        -11    1    1    2    0    0 -0.61329064955E+02 -0.43015602380E+02  0.17274741270E+02  0.76876608551E+02  0.00000000000E+00 0.  1.
         11    1    1    2    0    0 -0.10566097075E+03 -0.28242890426E+03  0.73294919253E+02  0.31032639573E+03  0.00000000000E+00 0. -1.
<mgrwt>
<rscale>  0 0.38400559E+03</rscale>
<asrwt>0</asrwt>
<pdfrwt beam="1">  1        2 0.70192781E-01 0.38655372E+03</pdfrwt>
<pdfrwt beam="2">  1       -2 0.49257450E-01 0.38655372E+03</pdfrwt>
<totfact> 0.27336463E+02</totfact>
</mgrwt>
</event>
<event>
 6    1  0.6101889E-006  0.2566321E+03  0.7546771E-02  0.1111370E+00
          2   -1    0    0  501    0  0.00000000000E+00  0.00000000000E+00  0.17346718635E+04  0.17346718635E+04  0.00000000000E+00 0. -1.
         -2   -1    0    0    0  501 -0.00000000000E+00 -0.00000000000E+00 -0.47793066463E+02  0.47793066463E+02  0.00000000000E+00 0.  1.
          5    1    1    2  502    0  0.37230446131E+02  0.22336240178E+03  0.11903492193E+04  0.12117055015E+04  0.47000000000E+01 0.  1.
         -5    1    1    2    0  502  0.27354868078E+02 -0.87472043977E+01  0.11445252878E+03  0.11809434253E+03  0.47000000000E+01 0.  1.
        -11    1    1    2    0    0 -0.77271199671E+02 -0.19635293223E+03  0.37319881123E+03  0.42872213029E+03  0.00000000000E+00 0. -1.
         11    1    1    2    0    0  0.12685885462E+02 -0.18262265147E+02  0.88782377775E+01  0.23942955630E+02  0.00000000000E+00 0.  1.
<mgrwt>
<rscale>  0 0.25308630E+03</rscale>
<asrwt>0</asrwt>
<pdfrwt beam="1">  1        2 0.26687255E+00 0.25663208E+03</pdfrwt>
<pdfrwt beam="2">  1       -2 0.73527808E-02 0.25663208E+03</pdfrwt>
<totfact> 0.11077873E+03</totfact>
</mgrwt>
</event>
<event>
 6    1  0.6101889E-006  0.1379716E+03  0.7546771E-02  0.1221907E+00
          2   -1    0    0  501    0  0.00000000000E+00  0.00000000000E+00  0.33657364439E+03  0.33657364439E+03  0.00000000000E+00 0. -1.
         -2   -1    0    0    0  501 -0.00000000000E+00 -0.00000000000E+00 -0.51665564090E+02  0.51665564090E+02  0.00000000000E+00 0.  1.
          5    1    1    2  502    0 -0.70933105687E+02  0.10031894445E+02  0.14711511627E+03  0.16369817294E+03  0.47000000000E+01 0. -1.
         -5    1    1    2    0  502  0.38577360834E+02  0.38709238195E+02  0.36131634422E+02  0.65682592036E+02  0.47000000000E+01 0. -1.
        -11    1    1    2    0    0  0.56444630683E+02  0.74401253910E+01  0.69318018712E+02  0.89701390831E+02  0.00000000000E+00 0.  1.
         11    1    1    2    0    0 -0.24088885830E+02 -0.56181258031E+02  0.32343310889E+02  0.69157052668E+02  0.00000000000E+00 0. -1.
<mgrwt>
<rscale>  0 0.13381172E+03</rscale>
<asrwt>0</asrwt>
<pdfrwt beam="1">  1        2 0.51780559E-01 0.13797160E+03</pdfrwt>
<pdfrwt beam="2">  1       -2 0.79485485E-02 0.13797160E+03</pdfrwt>
<totfact> 0.87592297E+03</totfact>
</mgrwt>
</event>
<event>
 6    1  0.6101889E-006  0.1730312E+03  0.7546771E-02  0.1180791E+00
         -2   -1    0    0    0  501 -0.00000000000E+00  0.00000000000E+00  0.31366854562E+03  0.31366854562E+03  0.00000000000E+00 0.  1.
          2   -1    0    0  501    0  0.00000000000E+00 -0.00000000000E+00 -0.91518842896E+02  0.91518842896E+02  0.00000000000E+00 0. -1.
          5    1    1    2  502    0 -0.31085670681E+02 -0.20956050842E+02  0.28220789990E+02  0.47159070986E+02  0.47000000000E+01 0.  1.
         -5    1    1    2    0  502 -0.15743586390E+02  0.13105576645E+03  0.30426307349E+02  0.13554085957E+03  0.47000000000E+01 0.  1.
        -11    1    1    2    0    0 -0.20599229141E+02 -0.37980524255E+02  0.88550602615E+02  0.98529476236E+02  0.00000000000E+00 0. -1.
         11    1    1    2    0    0  0.67428486212E+02 -0.72119191356E+02  0.74952002772E+02  0.12395798173E+03  0.00000000000E+00 0.  1.
<mgrwt>
<rscale>  0 0.16720830E+03</rscale>
<asrwt>0</asrwt>
<pdfrwt beam="2">  1        2 0.14079822E-01 0.17303116E+03</pdfrwt>
<pdfrwt beam="1">  1       -2 0.48256699E-01 0.17303116E+03</pdfrwt>
<totfact> 0.17022414E+03</totfact>
</mgrwt>
</event>
<event>
 6    1  0.6101889E-006  0.1266061E+03  0.7546771E-02  0.1248255E+00
          2   -1    0    0  501    0  0.00000000000E+00  0.00000000000E+00  0.12322531286E+03  0.12322531286E+03  0.00000000000E+00 0. -1.
         -2   -1    0    0    0  501 -0.00000000000E+00 -0.00000000000E+00 -0.11414419392E+03  0.11414419392E+03  0.00000000000E+00 0.  1.
          5    1    1    2  502    0  0.19308015413E+02 -0.49452733573E+02  0.20440967843E+02  0.57081481090E+02  0.47000000000E+01 0.  1.
         -5    1    1    2    0  502 -0.26034338671E+02  0.68359176299E+02  0.30152563955E+02  0.79259263732E+02  0.47000000000E+01 0.  1.
        -11    1    1    2    0    0  0.21192128700E+02  0.35657089101E+01 -0.63109193913E+02  0.66667765489E+02  0.00000000000E+00 0.  1.
         11    1    1    2    0    0 -0.14465805442E+02 -0.22472151635E+02  0.21596781053E+02  0.34360996465E+02  0.00000000000E+00 0. -1.
<mgrwt>
<rscale>  0 0.11692650E+03</rscale>
<asrwt>0</asrwt>
<pdfrwt beam="1">  1        2 0.18957740E-01 0.12660606E+03</pdfrwt>
<pdfrwt beam="2">  1       -2 0.17560645E-01 0.12660606E+03</pdfrwt>
<totfact> 0.73052584E+03</totfact>
</mgrwt>
</event>
<event>
 6    1  0.6101889E-006  0.1261497E+03  0.7546771E-02  0.1248460E+00
         -3   -1    0    0    0  501 -0.00000000000E+00  0.00000000000E+00  0.31244310201E+02  0.31244310201E+02  0.00000000000E+00 0.  1.
          3   -1    0    0  501    0  0.00000000000E+00 -0.00000000000E+00 -0.12427310936E+04  0.12427310936E+04  0.00000000000E+00 0. -1.
          5    1    1    2  502    0 -0.56872650288E+02  0.10731538268E+02 -0.65617815132E+03  0.65874237797E+03  0.47000000000E+01 0.  1.
         -5    1    1    2    0  502  0.59598109667E+02 -0.27518650329E+02 -0.50590067713E+03  0.51016349920E+03  0.47000000000E+01 0.  1.
        -11    1    1    2    0    0 -0.98253233969E+01  0.45824271373E+02  0.52964307527E+00  0.46868767303E+02  0.00000000000E+00 0.  1.
         11    1    1    2    0    0  0.70998640177E+01 -0.29037159312E+02 -0.49937598010E+02  0.58200759316E+02  0.00000000000E+00 0. -1.
<mgrwt>
<rscale>  0 0.11680656E+03</rscale>
<asrwt>0</asrwt>
<pdfrwt beam="2">  1        3 0.19118936E+00 0.12614970E+03</pdfrwt>
<pdfrwt beam="1">  1       -3 0.48068179E-02 0.12614970E+03</pdfrwt>
<totfact> 0.10369190E+02</totfact>
</mgrwt>
</event>
<event>
 6    1  0.6101889E-006  0.3193680E+03  0.7546771E-02  0.1075941E+00
         -1   -1    0    0    0  501 -0.00000000000E+00  0.00000000000E+00  0.13030277824E+03  0.13030277824E+03  0.00000000000E+00 0.  1.
          1   -1    0    0  501    0  0.00000000000E+00 -0.00000000000E+00 -0.19569027432E+03  0.19569027432E+03  0.00000000000E+00 0. -1.
          5    1    1    2  502    0 -0.58127827328E+02 -0.91072531110E+02 -0.10395816836E+03  0.15000813645E+03  0.47000000000E+01 0.  1.
         -5    1    1    2    0  502 -0.94404066322E+01  0.55488985984E+01  0.29478699936E+02  0.31796152329E+02  0.47000000000E+01 0.  1.
        -11    1    1    2    0    0  0.33144865671E+02  0.84721308788E+01  0.41505006312E+02  0.53786844776E+02  0.00000000000E+00 0.  1.
         11    1    1    2    0    0  0.34423368289E+02  0.77051501633E+02 -0.32413033972E+02  0.90401919003E+02  0.00000000000E+00 0. -1.
<mgrwt>
<rscale>  0 0.31936804E+03</rscale>
<asrwt>0</asrwt>
<pdfrwt beam="2">  1        1 0.30106196E-01 0.31936804E+03</pdfrwt>
<pdfrwt beam="1">  1       -1 0.20046581E-01 0.31936804E+03</pdfrwt>
<totfact> 0.30305593E+03</totfact>
</mgrwt>
</event>
<event>
 6    1  0.6101889E-006  0.2847791E+03  0.7546771E-02  0.1093107E+00
          3   -1    0    0  501    0  0.00000000000E+00  0.00000000000E+00  0.77858578719E+03  0.77858578719E+03  0.00000000000E+00 0. -1.
         -3   -1    0    0    0  501 -0.00000000000E+00 -0.00000000000E+00 -0.26040535082E+02  0.26040535082E+02  0.00000000000E+00 0.  1.
          5    1    1    2  502    0 -0.86512677521E+02 -0.55153689276E+02  0.32593199407E+03  0.34173107493E+03  0.47000000000E+01 0.  1.
         -5    1    1    2    0  502  0.25366671423E+02  0.18650493097E+02  0.24441584279E+03  0.24648022865E+03  0.47000000000E+01 0.  1.
        -11    1    1    2    0    0  0.10845405462E+02  0.39246722088E+02  0.17738397711E+02  0.44413722741E+02  0.00000000000E+00 0.  1.
         11    1    1    2    0    0  0.50300600635E+02 -0.27435259094E+01  0.16445901754E+03  0.17200129595E+03  0.00000000000E+00 0. -1.
<mgrwt>
<rscale>  0 0.28477915E+03</rscale>
<asrwt>0</asrwt>
<pdfrwt beam="1">  1        3 0.11978241E+00 0.28477915E+03</pdfrwt>
<pdfrwt beam="2">  1       -3 0.40062368E-02 0.28477915E+03</pdfrwt>
<totfact> 0.49048737E+02</totfact>
</mgrwt>
</event>
<event>
 6    1  0.6101889E-006  0.3271142E+03  0.7546771E-02  0.1072421E+00
          2   -1    0    0  501    0  0.00000000000E+00  0.00000000000E+00  0.14694664934E+03  0.14694664934E+03  0.00000000000E+00 0. -1.
         -2   -1    0    0    0  501 -0.00000000000E+00 -0.00000000000E+00 -0.18204509711E+03  0.18204509711E+03  0.00000000000E+00 0.  1.
          5    1    1    2  502    0 -0.25859488191E+02 -0.21195415138E+02 -0.37601759302E+02  0.50536531885E+02  0.47000000000E+01 0. -1.
         -5    1    1    2    0  502  0.26963902712E+02 -0.89821099311E+02  0.76502537124E+02  0.12111816593E+03  0.47000000000E+01 0. -1.
        -11    1    1    2    0    0  0.72577307233E+01  0.57117368868E+02 -0.84045137504E+02  0.10187567727E+03  0.00000000000E+00 0.  1.
         11    1    1    2    0    0 -0.83621452444E+01  0.53899145581E+02  0.10045911912E+02  0.55461371364E+02  0.00000000000E+00 0. -1.
<mgrwt>
<rscale>  0 0.32711415E+03</rscale>
<asrwt>0</asrwt>
<pdfrwt beam="1">  1        2 0.22607177E-01 0.32711415E+03</pdfrwt>
<pdfrwt beam="2">  1       -2 0.28006938E-01 0.32711415E+03</pdfrwt>
<totfact> 0.28017316E+03</totfact>
</mgrwt>
</event>
<event>
 6    1  0.6101889E-006  0.1376740E+03  0.7546771E-02  0.1230071E+00
          2   -1    0    0  501    0  0.00000000000E+00  0.00000000000E+00  0.77213705809E+03  0.77213705809E+03  0.00000000000E+00 0. -1.
         -2   -1    0    0    0  501 -0.00000000000E+00 -0.00000000000E+00 -0.43343292952E+02  0.43343292952E+02  0.00000000000E+00 0.  1.
          5    1    1    2  502    0 -0.94553810510E+02 -0.57612074480E+01  0.49119808536E+03  0.50027119011E+03  0.47000000000E+01 0.  1.
         -5    1    1    2    0  502  0.38242319931E+02  0.18392536852E+02  0.20064440620E+03  0.20513660859E+03  0.47000000000E+01 0.  1.
        -11    1    1    2    0    0  0.73355370162E+02  0.10445922818E+02  0.33003698882E+02  0.81113326741E+02  0.00000000000E+00 0.  1.
         11    1    1    2    0    0 -0.17043879583E+02 -0.23077252222E+02  0.39475746980E+01  0.28959225600E+02  0.00000000000E+00 0. -1.
<mgrwt>
<rscale>  0 0.12825310E+03</rscale>
<asrwt>0</asrwt>
<pdfrwt beam="1">  1        2 0.11879031E+00 0.13767400E+03</pdfrwt>
<pdfrwt beam="2">  1       -2 0.66681995E-02 0.13767400E+03</pdfrwt>
<totfact> 0.45405488E+03</totfact>
</mgrwt>
</event>
<event>
 6    1  0.6101889E-006  0.1324657E+03  0.7546771E-02  0.1237280E+00
         -2   -1    0    0    0  501 -0.00000000000E+00  0.00000000000E+00  0.13871348220E+02  0.13871348220E+02  0.00000000000E+00 0. -1.
          2   -1    0    0  501    0  0.00000000000E+00 -0.00000000000E+00 -0.10962966176E+04  0.10962966176E+04  0.00000000000E+00 0.  1.
          5    1    1    2  502    0 -0.28549619277E+02 -0.23765641062E+02 -0.85741246114E+02  0.93560342780E+02  0.47000000000E+01 0. -1.
         -5    1    1    2    0  502  0.15257168083E+02  0.65492038111E+02 -0.70327525363E+03  0.70649852130E+03  0.47000000000E+01 0. -1.
        -11    1    1    2    0    0  0.91821741368E+01 -0.70574391410E+02 -0.20226253598E+03  0.21441826066E+03  0.00000000000E+00 0.  1.
         11    1    1    2    0    0  0.41102770565E+01  0.28847994362E+02 -0.91146233676E+02  0.95690841095E+02  0.00000000000E+00 0. -1.
<mgrwt>
<rscale>  0 0.12359599E+03</rscale>
<asrwt>0</asrwt>
<pdfrwt beam="2">  1        2 0.16866110E+00 0.13246565E+03</pdfrwt>
<pdfrwt beam="1">  1       -2 0.21340525E-02 0.13246565E+03</pdfrwt>
<totfact> 0.15457436E+04</totfact>
</mgrwt>
</event>
<event>
 6    1  0.6101889E-006  0.2263093E+03  0.7546771E-02  0.1132405E+00
         -2   -1    0    0    0  501 -0.00000000000E+00  0.00000000000E+00  0.49051525340E+03  0.49051525340E+03  0.00000000000E+00 0.  1.
          2   -1    0    0  501    0  0.00000000000E+00 -0.00000000000E+00 -0.10084508772E+03  0.10084508772E+03  0.00000000000E+00 0. -1.
          5    1    1    2  502    0  0.10486967018E+03  0.10119814871E+03  0.34392667830E+02  0.14981207770E+03  0.47000000000E+01 0.  1.
         -5    1    1    2    0  502  0.42494416803E+02  0.16638205694E+02  0.10858567107E+03  0.11787935913E+03  0.47000000000E+01 0.  1.
        -11    1    1    2    0    0 -0.11294343339E+03 -0.83597953163E+02  0.23488001740E+03  0.27370323252E+03  0.00000000000E+00 0.  1.
         11    1    1    2    0    0 -0.34420653593E+02 -0.34238401242E+02  0.11811809380E+02  0.49965671758E+02  0.00000000000E+00 0. -1.
<mgrwt>
<rscale>  0 0.22199372E+03</rscale>
<asrwt>0</asrwt>
<pdfrwt beam="2">  1        2 0.15514629E-01 0.22630930E+03</pdfrwt>
<pdfrwt beam="1">  1       -2 0.75463884E-01 0.22630930E+03</pdfrwt>
<totfact> 0.60531341E+02</totfact>
</mgrwt>
</event>
<event>
 6    1  0.3598758E-005  0.3641872E+03  0.7546771E-02  0.1057947E+00
          1   -1    0    0  501    0  0.00000000000E+00  0.00000000000E+00  0.85366989648E+03  0.85366989648E+03  0.00000000000E+00 0. -1.
         -1   -1    0    0    0  501 -0.00000000000E+00 -0.00000000000E+00 -0.15769606865E+03  0.15769606865E+03  0.00000000000E+00 0.  1.
          5    1    1    2  502    0  0.21575973560E+02 -0.28735012445E+03  0.15615427803E+03  0.32778325950E+03  0.47000000000E+01 0. -1.
         -5    1    1    2    0  502 -0.35444655888E+02 -0.54432236919E+02  0.92768623100E+02  0.11334592837E+03  0.47000000000E+01 0. -1.
        -11    1    1    2    0    0  0.37445319689E+02  0.71904288362E+02  0.78650970829E+02  0.11295288338E+03  0.00000000000E+00 0.  1.
         11    1    1    2    0    0 -0.23576637361E+02  0.26987807301E+03  0.36839995587E+03  0.45728389388E+03  0.00000000000E+00 0. -1.
<mgrwt>
<rscale>  0 0.36161308E+03</rscale>
<asrwt>0</asrwt>
<pdfrwt beam="1">  1        1 0.13133383E+00 0.36418725E+03</pdfrwt>
<pdfrwt beam="2">  1       -1 0.24260934E-01 0.36418725E+03</pdfrwt>
<totfact> 0.30395280E+02</totfact>
</mgrwt>
</event>
<event>
 6    1  0.6101889E-006  0.2439622E+03  0.7546771E-02  0.1117181E+00
         -3   -1    0    0    0  501 -0.00000000000E+00  0.00000000000E+00  0.99540751379E+02  0.99540751379E+02  0.00000000000E+00 0. -1.
          3   -1    0    0  501    0  0.00000000000E+00 -0.00000000000E+00 -0.14948041120E+03  0.14948041120E+03  0.00000000000E+00 0.  1.
          5    1    1    2  502    0  0.10238794014E+02  0.20497111233E+00 -0.95247414103E+02  0.95911598930E+02  0.47000000000E+01 0.  1.
         -5    1    1    2    0  502  0.29574494658E+02 -0.20490695077E+02  0.34501416812E+02  0.50069522477E+02  0.47000000000E+01 0.  1.
        -11    1    1    2    0    0  0.28088066706E+00  0.48106116024E+02  0.22114111717E+02  0.52946305158E+02  0.00000000000E+00 0.  1.
         11    1    1    2    0    0 -0.40094169339E+02 -0.27820392060E+02 -0.11307774245E+02  0.50093736012E+02  0.00000000000E+00 0. -1.
<mgrwt>
<rscale>  0 0.24396223E+03</rscale>
<asrwt>0</asrwt>
<pdfrwt beam="2">  1        3 0.22996986E-01 0.24396223E+03</pdfrwt>
<pdfrwt beam="1">  1       -3 0.15313962E-01 0.24396223E+03</pdfrwt>
<totfact> 0.15713124E+03</totfact>
</mgrwt>
</event>
<event>
 6    1  0.6101889E-006  0.2516601E+03  0.7546771E-02  0.1112260E+00
          1   -1    0    0  501    0  0.00000000000E+00  0.00000000000E+00  0.33700801061E+03  0.33700801061E+03  0.00000000000E+00 0. -1.
         -1   -1    0    0    0  501 -0.00000000000E+00 -0.00000000000E+00 -0.46981683715E+02  0.46981683715E+02  0.00000000000E+00 0.  1.
          5    1    1    2  502    0  0.59226638864E+02 -0.28450394183E+02  0.24304751186E+02  0.70214176706E+02  0.47000000000E+01 0. -1.
         -5    1    1    2    0  502 -0.32391069937E+01  0.21874317299E+02  0.14935198391E+03  0.15105324448E+03  0.47000000000E+01 0. -1.
        -11    1    1    2    0    0 -0.21906792118E+02  0.45475092350E+02  0.93330078562E+02  0.10610558482E+03  0.00000000000E+00 0. -1.
         11    1    1    2    0    0 -0.34080739752E+02 -0.38899015467E+02  0.23039513245E+02  0.56616688325E+02  0.00000000000E+00 0.  1.
<mgrwt>
<rscale>  0 0.25166012E+03</rscale>
<asrwt>0</asrwt>
<pdfrwt beam="1">  1        1 0.51847385E-01 0.25166012E+03</pdfrwt>
<pdfrwt beam="2">  1       -1 0.72279515E-02 0.25166012E+03</pdfrwt>
<totfact> 0.75115481E+03</totfact>
</mgrwt>
</event>
<event>
 6    1  0.6101889E-006  0.1262586E+03  0.7546771E-02  0.1242438E+00
          2   -1    0    0  501    0  0.00000000000E+00  0.00000000000E+00  0.10033987848E+04  0.10033987848E+04  0.00000000000E+00 0. -1.
         -2   -1    0    0    0  501 -0.00000000000E+00 -0.00000000000E+00 -0.15144544893E+02  0.15144544893E+02  0.00000000000E+00 0.  1.
          5    1    1    2  502    0 -0.51096778840E+02 -0.87082618500E+01  0.21425102980E+03  0.22048199111E+03  0.47000000000E+01 0.  1.
         -5    1    1    2    0  502  0.68999149162E+02  0.91302416424E+01  0.49995042203E+03  0.50479377808E+03  0.47000000000E+01 0.  1.
        -11    1    1    2    0    0 -0.62860770609E+01 -0.42085751492E+02  0.52731395242E+02  0.67759318825E+02  0.00000000000E+00 0.  1.
         11    1    1    2    0    0 -0.11616293262E+02  0.41663771699E+02  0.22132139289E+03  0.22550824174E+03  0.00000000000E+00 0. -1.
<mgrwt>
<rscale>  0 0.12040059E+03</rscale>
<asrwt>0</asrwt>
<pdfrwt beam="1">  1        2 0.15436899E+00 0.12625857E+03</pdfrwt>
<pdfrwt beam="2">  1       -2 0.23299308E-02 0.12625857E+03</pdfrwt>
<totfact> 0.15361704E+04</totfact>
</mgrwt>
</event>
<event>
 6    1  0.6101889E-006  0.1306896E+03  0.7546771E-02  0.1240263E+00
          1   -1    0    0  501    0  0.00000000000E+00  0.00000000000E+00  0.19602607678E+03  0.19602607678E+03  0.00000000000E+00 0. -1.
         -1   -1    0    0    0  501 -0.00000000000E+00 -0.00000000000E+00 -0.67240164349E+02  0.67240164349E+02  0.00000000000E+00 0.  1.
          5    1    1    2  502    0  0.24088088697E+02  0.43130371385E+02  0.89887154744E+02  0.10267548656E+03  0.47000000000E+01 0.  1.
         -5    1    1    2    0  502  0.12435379784E+02 -0.32131015613E+02 -0.25397003623E+02  0.43059710029E+02  0.47000000000E+01 0.  1.
        -11    1    1    2    0    0  0.75805065829E+01 -0.38250848011E+02  0.58939652792E+01  0.39437675899E+02  0.00000000000E+00 0.  1.
         11    1    1    2    0    0 -0.44103975064E+02  0.27251492239E+02  0.58401796027E+02  0.78093368636E+02  0.00000000000E+00 0. -1.
<mgrwt>
<rscale>  0 0.12173429E+03</rscale>
<asrwt>0</asrwt>
<pdfrwt beam="1">  1        1 0.30157858E-01 0.13068959E+03</pdfrwt>
<pdfrwt beam="2">  1       -1 0.10344641E-01 0.13068959E+03</pdfrwt>
<totfact> 0.82089522E+03</totfact>
</mgrwt>
</event>
<event>
 6    1  0.6101889E-006  0.3754278E+03  0.7546771E-02  0.1052637E+00
          2   -1    0    0  501    0  0.00000000000E+00  0.00000000000E+00  0.12647056851E+03  0.12647056851E+03  0.00000000000E+00 0. -1.
         -2   -1    0    0    0  501 -0.00000000000E+00 -0.00000000000E+00 -0.27861432164E+03  0.27861432164E+03  0.00000000000E+00 0.  1.
          5    1    1    2  502    0 -0.14276518001E+02 -0.15270139311E+02 -0.21817673451E+02  0.30579355710E+02  0.47000000000E+01 0.  1.
         -5    1    1    2    0  502  0.25347732583E+02  0.13601802958E+03  0.42424792803E+02  0.14479421592E+03  0.47000000000E+01 0.  1.
        -11    1    1    2    0    0 -0.34458951805E+02 -0.92143694292E+02 -0.16478092408E+03  0.19191308632E+03  0.00000000000E+00 0.  1.
         11    1    1    2    0    0  0.23387737224E+02 -0.28604195980E+02 -0.79699483975E+01  0.37798232202E+02  0.00000000000E+00 0. -1.
<mgrwt>
<rscale>  0 0.37542782E+03</rscale>
<asrwt>0</asrwt>
<pdfrwt beam="1">  1        2 0.19457011E-01 0.37542782E+03</pdfrwt>
<pdfrwt beam="2">  1       -2 0.42863742E-01 0.37542782E+03</pdfrwt>
<totfact> 0.15033267E+03</totfact>
</mgrwt>
</event>
<event>
 6    1  0.6101889E-006  0.3165109E+03  0.7546771E-02  0.1077266E+00
         -1   -1    0    0    0  501 -0.00000000000E+00  0.00000000000E+00  0.11322277026E+03  0.11322277026E+03  0.00000000000E+00 0.  1.
          1   -1    0    0  501    0  0.00000000000E+00 -0.00000000000E+00 -0.22119919881E+03  0.22119919881E+03  0.00000000000E+00 0. -1.
          5    1    1    2  502    0 -0.17037345199E+02 -0.67611853614E+01  0.15432918555E+02  0.24418225448E+02  0.47000000000E+01 0. -1.
         -5    1    1    2    0  502  0.16309443964E+02  0.78137421666E+02 -0.16394571687E+03  0.18240543497E+03  0.47000000000E+01 0. -1.
        -11    1    1    2    0    0 -0.68285593583E+01 -0.36185085760E+02  0.71301167740E+02  0.80248652172E+02  0.00000000000E+00 0.  1.
         11    1    1    2    0    0  0.75564605931E+01 -0.35191150545E+02 -0.30764797976E+02  0.47349656470E+02  0.00000000000E+00 0. -1.
<mgrwt>
<rscale>  0 0.31651089E+03</rscale>
<asrwt>0</asrwt>
<pdfrwt beam="2">  1        1 0.34030645E-01 0.31651089E+03</pdfrwt>
<pdfrwt beam="1">  1       -1 0.17418888E-01 0.31651089E+03</pdfrwt>
<totfact> 0.32590358E+03</totfact>
</mgrwt>
</event>
<event>
 6    1  0.6101889E-006  0.1404539E+03  0.7546771E-02  0.1223815E+00
         -1   -1    0    0    0  501 -0.00000000000E+00  0.00000000000E+00  0.24545624244E+02  0.24545624244E+02  0.00000000000E+00 0.  1.
          1   -1    0    0  501    0  0.00000000000E+00 -0.00000000000E+00 -0.81939482346E+03  0.81939482346E+03  0.00000000000E+00 0. -1.
          5    1    1    2  502    0  0.49305241625E+02 -0.86459118607E+02 -0.37932449682E+03  0.39219300087E+03  0.47000000000E+01 0. -1.
         -5    1    1    2    0  502 -0.22722873196E+02  0.28078293647E+02 -0.24813643742E+03  0.25079573584E+03  0.47000000000E+01 0. -1.
        -11    1    1    2    0    0 -0.50252415975E+02  0.65802463985E+02 -0.14753134588E+03  0.16917673479E+03  0.00000000000E+00 0.  1.
         11    1    1    2    0    0  0.23670047545E+02 -0.74216390248E+01 -0.19856919089E+02  0.31774976197E+02  0.00000000000E+00 0. -1.
<mgrwt>
<rscale>  0 0.13248439E+03</rscale>
<asrwt>0</asrwt>
<pdfrwt beam="2">  1        1 0.12606076E+00 0.14045388E+03</pdfrwt>
<pdfrwt beam="1">  1       -1 0.37762492E-02 0.14045388E+03</pdfrwt>
<totfact> 0.57783923E+03</totfact>
</mgrwt>
</event>
<event>
 6    1  0.6101889E-006  0.1275920E+03  0.7546771E-02  0.1247211E+00
          1   -1    0    0  501    0  0.00000000000E+00  0.00000000000E+00  0.36675101588E+03  0.36675101588E+03  0.00000000000E+00 0. -1.
         -1   -1    0    0    0  501 -0.00000000000E+00 -0.00000000000E+00 -0.43739345966E+02  0.43739345966E+02  0.00000000000E+00 0.  1.
          5    1    1    2  502    0  0.60690902258E+02 -0.27324609660E+02  0.10896760242E+03  0.12777342559E+03  0.47000000000E+01 0.  1.
         -5    1    1    2    0  502 -0.55270022548E+02  0.23090899524E+01  0.17370481599E+03  0.18236107146E+03  0.47000000000E+01 0.  1.
        -11    1    1    2    0    0 -0.30962188416E+02  0.35787875303E+01  0.55556748864E+02  0.63702568049E+02  0.00000000000E+00 0. -1.
         11    1    1    2    0    0  0.25541308706E+02  0.21436732177E+02 -0.15217497351E+02  0.36653296748E+02  0.00000000000E+00 0.  1.
<mgrwt>
<rscale>  0 0.11754017E+03</rscale>
<asrwt>0</asrwt>
<pdfrwt beam="1">  1        1 0.56423231E-01 0.12759197E+03</pdfrwt>
<pdfrwt beam="2">  1       -1 0.67291304E-02 0.12759197E+03</pdfrwt>
<totfact> 0.72242854E+03</totfact>
</mgrwt>
</event>
<event>
 6    1  0.6101889E-006  0.1549389E+03  0.7546771E-02  0.1203009E+00
          2   -1    0    0  501    0  0.00000000000E+00  0.00000000000E+00  0.34750467916E+03  0.34750467916E+03  0.00000000000E+00 0. -1.
         -2   -1    0    0    0  501 -0.00000000000E+00 -0.00000000000E+00 -0.58532722405E+02  0.58532722405E+02  0.00000000000E+00 0.  1.
          5    1    1    2  502    0  0.62158783833E+01 -0.63119205396E+02  0.39274557005E+02  0.74747923462E+02  0.47000000000E+01 0. -1.
         -5    1    1    2    0  502 -0.81311621934E+02  0.10759534768E+02  0.13884215348E+03  0.16132755820E+03  0.47000000000E+01 0. -1.
        -11    1    1    2    0    0  0.58742708163E+02  0.49055618190E+02  0.12600521851E+03  0.14742616637E+03  0.00000000000E+00 0. -1.
         11    1    1    2    0    0  0.16353035387E+02  0.33040524378E+01 -0.15149972239E+02  0.22535753542E+02  0.00000000000E+00 0.  1.
<mgrwt>
<rscale>  0 0.14795441E+03</rscale>
<asrwt>0</asrwt>
<pdfrwt beam="1">  1        2 0.53462257E-01 0.15493893E+03</pdfrwt>
<pdfrwt beam="2">  1       -2 0.90050345E-02 0.15493893E+03</pdfrwt>
<totfact> 0.70275716E+03</totfact>
</mgrwt>
</event>
<event>
 6    1  0.6101889E-006  0.2352299E+03  0.7546771E-02  0.1126695E+00
         -1   -1    0    0    0  501 -0.00000000000E+00  0.00000000000E+00  0.12650941086E+03  0.12650941086E+03  0.00000000000E+00 0.  1.
          1   -1    0    0  501    0  0.00000000000E+00 -0.00000000000E+00 -0.87003231155E+03  0.87003231155E+03  0.00000000000E+00 0. -1.
          5    1    1    2  502    0 -0.68229471284E+02  0.66865051417E+02 -0.48297332546E+03  0.49235304301E+03  0.47000000000E+01 0. -1.
         -5    1    1    2    0  502 -0.12003456021E+03 -0.19790504781E+02 -0.26262699842E+03  0.28947364306E+03  0.47000000000E+01 0.  1.
        -11    1    1    2    0    0  0.19199068743E+03 -0.59558952996E+02 -0.21168852677E+01  0.20102779446E+03  0.00000000000E+00 0.  1.
         11    1    1    2    0    0 -0.37266559409E+01  0.12484406360E+02  0.41943084633E+01  0.13687241875E+02  0.00000000000E+00 0. -1.
<mgrwt>
<rscale>  0 0.22992171E+03</rscale>
<asrwt>0</asrwt>
<pdfrwt beam="2">  1        1 0.13385113E+00 0.23522994E+03</pdfrwt>
<pdfrwt beam="1">  1       -1 0.19462986E-01 0.23522994E+03</pdfrwt>
<totfact> 0.42951132E+02</totfact>
</mgrwt>
</event>
<event>
 6    1  0.6101889E-006  0.1347721E+03  0.7546771E-02  0.1232784E+00
          2   -1    0    0  501    0  0.00000000000E+00  0.00000000000E+00  0.69982625767E+03  0.69982625767E+03  0.00000000000E+00 0. -1.
         -2   -1    0    0    0  501 -0.00000000000E+00 -0.00000000000E+00 -0.25533573803E+02  0.25533573803E+02  0.00000000000E+00 0.  1.
          5    1    1    2  502    0 -0.58650508859E+02 -0.67758211071E+01  0.31840012416E+03  0.32386188879E+03  0.47000000000E+01 0.  1.
         -5    1    1    2    0  502  0.44101600935E+02  0.54842203116E+02  0.21359605678E+03  0.22493995626E+03  0.47000000000E+01 0.  1.
        -11    1    1    2    0    0 -0.11823598596E+02  0.19554645817E+02  0.71905111381E+02  0.75448834978E+02  0.00000000000E+00 0. -1.
         11    1    1    2    0    0  0.26372506520E+02 -0.67621027826E+02  0.70391391541E+02  0.10110915145E+03  0.00000000000E+00 0.  1.
<mgrwt>
<rscale>  0 0.12647361E+03</rscale>
<asrwt>0</asrwt>
<pdfrwt beam="1">  1        2 0.10766556E+00 0.13477214E+03</pdfrwt>
<pdfrwt beam="2">  1       -2 0.39282427E-02 0.13477214E+03</pdfrwt>
<totfact> 0.11318790E+04</totfact>
</mgrwt>
</event>
<event>
 6    1  0.6101889E-006  0.1329312E+03  0.7546771E-02  0.1237510E+00
         -2   -1    0    0    0  501 -0.00000000000E+00  0.00000000000E+00  0.17744602253E+02  0.17744602253E+02  0.00000000000E+00 0.  1.
          2   -1    0    0  501    0  0.00000000000E+00 -0.00000000000E+00 -0.76429858417E+03  0.76429858417E+03  0.00000000000E+00 0. -1.
          5    1    1    2  502    0  0.62952812201E+02  0.20856779157E+02 -0.11650169179E+03  0.13413722821E+03  0.47000000000E+01 0. -1.
         -5    1    1    2    0  502 -0.25394894546E+02  0.44993041019E+01 -0.34870912547E+03  0.34969313489E+03  0.47000000000E+01 0. -1.
        -11    1    1    2    0    0  0.68493985153E+01  0.11286935904E+02 -0.24362006245E+01  0.13425507648E+02  0.00000000000E+00 0.  1.
         11    1    1    2    0    0 -0.44407316170E+02 -0.36643019163E+02 -0.27890696404E+03  0.28478731568E+03  0.00000000000E+00 0. -1.
<mgrwt>
<rscale>  0 0.12345126E+03</rscale>
<asrwt>0</asrwt>
<pdfrwt beam="2">  1        2 0.11758443E+00 0.13293124E+03</pdfrwt>
<pdfrwt beam="1">  1       -2 0.27299381E-02 0.13293124E+03</pdfrwt>
<totfact> 0.17388965E+04</totfact>
</mgrwt>
</event>
<event>
 6    1  0.6101889E-006  0.1391392E+03  0.7546771E-02  0.1225393E+00
          2   -1    0    0  501    0  0.00000000000E+00  0.00000000000E+00  0.75461443086E+02  0.75461443086E+02  0.00000000000E+00 0. -1.
         -2   -1    0    0    0  501 -0.00000000000E+00 -0.00000000000E+00 -0.20708059110E+03  0.20708059110E+03  0.00000000000E+00 0.  1.
          5    1    1    2  502    0  0.30459061096E+02  0.42535597314E+02 -0.47860820744E+02  0.71061801300E+02  0.47000000000E+01 0. -1.
         -5    1    1    2    0  502 -0.82499949183E+02 -0.10554845164E+02 -0.31099202056E+02  0.88920732904E+02  0.47000000000E+01 0. -1.
        -11    1    1    2    0    0  0.75106766548E+01  0.15284738245E+02 -0.55002846322E+02  0.57579046455E+02  0.00000000000E+00 0. -1.
         11    1    1    2    0    0  0.44530211432E+02 -0.47265490395E+02  0.23437211055E+01  0.64980453531E+02  0.00000000000E+00 0.  1.
<mgrwt>
<rscale>  0 0.13139979E+03</rscale>
<asrwt>0</asrwt>
<pdfrwt beam="1">  1        2 0.11609453E-01 0.13913923E+03</pdfrwt>
<pdfrwt beam="2">  1       -2 0.31858552E-01 0.13913923E+03</pdfrwt>
<totfact> 0.46504696E+03</totfact>
</mgrwt>
</event>
<event>
 6    1  0.6101889E-006  0.1264076E+03  0.7546771E-02  0.1243451E+00
         -2   -1    0    0    0  501 -0.00000000000E+00  0.00000000000E+00  0.13258956016E+02  0.13258956016E+02  0.00000000000E+00 0.  1.
          2   -1    0    0  501    0  0.00000000000E+00 -0.00000000000E+00 -0.10027547148E+04  0.10027547148E+04  0.00000000000E+00 0. -1.
          5    1    1    2  502    0 -0.25384791229E+02 -0.54197502421E+02 -0.16475029922E+03  0.17534682201E+03  0.47000000000E+01 0.  1.
         -5    1    1    2    0  502  0.26304004904E+02  0.35928220112E+02 -0.45277524198E+03  0.45498378809E+03  0.47000000000E+01 0.  1.
        -11    1    1    2    0    0 -0.12000042902E+02 -0.37481184686E+02 -0.93057543729E+02  0.10103735289E+03  0.00000000000E+00 0.  1.
         11    1    1    2    0    0  0.11080829227E+02  0.55750466995E+02 -0.27891267385E+03  0.28464570782E+03  0.00000000000E+00 0. -1.
<mgrwt>
<rscale>  0 0.11978562E+03</rscale>
<asrwt>0</asrwt>
<pdfrwt beam="2">  1        2 0.15426997E+00 0.12640761E+03</pdfrwt>
<pdfrwt beam="1">  1       -2 0.20398392E-02 0.12640761E+03</pdfrwt>
<totfact> 0.18652688E+04</totfact>
</mgrwt>
</event>
<event>
 6    1  0.6101889E-006  0.1493157E+03  0.7546771E-02  0.1210635E+00
         -1   -1    0    0    0  501 -0.00000000000E+00  0.00000000000E+00  0.58276449809E+02  0.58276449809E+02  0.00000000000E+00 0.  1.
          1   -1    0    0  501    0  0.00000000000E+00 -0.00000000000E+00 -0.34819168417E+03  0.34819168417E+03  0.00000000000E+00 0. -1.
          5    1    1    2  502    0 -0.56793608823E+02  0.73017661317E+02 -0.11722028035E+03  0.14939804882E+03  0.47000000000E+01 0.  1.
         -5    1    1    2    0  502 -0.21635387980E+02 -0.50235467070E+02 -0.10214116557E+03  0.11595947512E+03  0.47000000000E+01 0.  1.
        -11    1    1    2    0    0  0.43653857518E+02 -0.97408256436E+01 -0.89026147106E+02  0.99630305776E+02  0.00000000000E+00 0. -1.
         11    1    1    2    0    0  0.34775139285E+02 -0.13041368604E+02  0.18472358663E+02  0.41480304265E+02  0.00000000000E+00 0.  1.
<mgrwt>
<rscale>  0 0.14202095E+03</rscale>
<asrwt>0</asrwt>
<pdfrwt beam="2">  1        1 0.53567952E-01 0.14931568E+03</pdfrwt>
<pdfrwt beam="1">  1       -1 0.89656076E-02 0.14931568E+03</pdfrwt>
<totfact> 0.50497616E+03</totfact>
</mgrwt>
</event>
<event>
 6    1  0.7239667E-006  0.3942634E+03  0.7546771E-02  0.1046639E+00
         -1   -1    0    0    0  501 -0.00000000000E+00  0.00000000000E+00  0.11496714480E+03  0.11496714480E+03  0.00000000000E+00 0.  1.
          1   -1    0    0  501    0  0.00000000000E+00 -0.00000000000E+00 -0.14757075682E+04  0.14757075682E+04  0.00000000000E+00 0. -1.
          5    1    1    2  502    0 -0.14382276359E+03 -0.16994642423E+03 -0.64845588599E+03  0.68562664804E+03  0.47000000000E+01 0.  1.
         -5    1    1    2    0  502 -0.15196314869E+03 -0.58807727358E+02 -0.29816510091E+03  0.33981710486E+03  0.47000000000E+01 0.  1.
        -11    1    1    2    0    0  0.12898407465E+03  0.45202848855E+02 -0.14762234502E+03  0.20117789592E+03  0.00000000000E+00 0. -1.
         11    1    1    2    0    0  0.16680183762E+03  0.18355130273E+03 -0.26649709152E+03  0.36405306421E+03  0.00000000000E+00 0.  1.
<mgrwt>
<rscale>  0 0.39184948E+03</rscale>
<asrwt>0</asrwt>
<pdfrwt beam="2">  1        1 0.22703193E+00 0.39426336E+03</pdfrwt>
<pdfrwt beam="1">  1       -1 0.17687254E-01 0.39426336E+03</pdfrwt>
<totfact> 0.18043909E+02</totfact>
</mgrwt>
</event>
<event>
 6    1  0.6101889E-006  0.1415726E+03  0.7546771E-02  0.1221960E+00
         -1   -1    0    0    0  501 -0.00000000000E+00  0.00000000000E+00  0.43107385539E+02  0.43107385539E+02  0.00000000000E+00 0.  1.
          1   -1    0    0  501    0  0.00000000000E+00 -0.00000000000E+00 -0.46698573771E+03  0.46698573771E+03  0.00000000000E+00 0. -1.
          5    1    1    2  502    0  0.44790585738E+02 -0.10040362201E+02 -0.12565061990E+03  0.13385504744E+03  0.47000000000E+01 0. -1.
         -5    1    1    2    0  502 -0.84474042498E+02 -0.43282959825E+02 -0.21785337152E+03  0.23767932167E+03  0.47000000000E+01 0. -1.
        -11    1    1    2    0    0 -0.26277564092E+02  0.15444214922E+01 -0.72644399545E+01  0.27306916710E+02  0.00000000000E+00 0.  1.
         11    1    1    2    0    0  0.65961020853E+02  0.51778900534E+02 -0.73109920799E+02  0.11125183743E+03  0.00000000000E+00 0. -1.
<mgrwt>
<rscale>  0 0.13377474E+03</rscale>
<asrwt>0</asrwt>
<pdfrwt beam="2">  1        1 0.71843961E-01 0.14157258E+03</pdfrwt>
<pdfrwt beam="1">  1       -1 0.66319053E-02 0.14157258E+03</pdfrwt>
<totfact> 0.54711108E+03</totfact>
</mgrwt>
</event>
<event>
 6    1  0.6101889E-006  0.1295969E+03  0.7546771E-02  0.1240490E+00
          1   -1    0    0  501    0  0.00000000000E+00  0.00000000000E+00  0.28094683357E+02  0.28094683357E+02  0.00000000000E+00 0. -1.
         -1   -1    0    0    0  501 -0.00000000000E+00 -0.00000000000E+00 -0.47085292108E+03  0.47085292108E+03  0.00000000000E+00 0.  1.
          5    1    1    2  502    0  0.56994638190E+01 -0.75872808024E+02 -0.17023206298E+03  0.18652134503E+03  0.47000000000E+01 0.  1.
         -5    1    1    2    0  502  0.15649150101E+02  0.49117492027E+02 -0.80154471457E+02  0.95416210449E+02  0.47000000000E+01 0.  1.
        -11    1    1    2    0    0 -0.39978407642E+02 -0.11684704885E+01 -0.26976526158E+02  0.48242837442E+02  0.00000000000E+00 0. -1.
         11    1    1    2    0    0  0.18629793722E+02  0.27923786485E+02 -0.16539517713E+03  0.16876721152E+03  0.00000000000E+00 0.  1.
<mgrwt>
<rscale>  0 0.12159440E+03</rscale>
<asrwt>0</asrwt>
<pdfrwt beam="1">  1        1 0.43222590E-02 0.12959695E+03</pdfrwt>
<pdfrwt beam="2">  1       -1 0.72438910E-01 0.12959695E+03</pdfrwt>
<totfact> 0.39022558E+03</totfact>
</mgrwt>
</event>
<event>
 6    1  0.6101889E-006  0.1820771E+03  0.7546771E-02  0.1171646E+00
         -2   -1    0    0    0  501 -0.00000000000E+00  0.00000000000E+00  0.62450882064E+02  0.62450882064E+02  0.00000000000E+00 0. -1.
          2   -1    0    0  501    0  0.00000000000E+00 -0.00000000000E+00 -0.85644292658E+03  0.85644292658E+03  0.00000000000E+00 0.  1.
          5    1    1    2  502    0  0.56438358575E+02 -0.17953956372E+02 -0.17368362824E+03  0.18356395503E+03  0.47000000000E+01 0. -1.
         -5    1    1    2    0  502 -0.38526829242E+02 -0.11232565589E+03 -0.54742803852E+03  0.56017936137E+03  0.47000000000E+01 0. -1.
        -11    1    1    2    0    0 -0.33881783859E+01  0.61037293828E+02 -0.83628836378E+02  0.10358963879E+03  0.00000000000E+00 0.  1.
         11    1    1    2    0    0 -0.14523350947E+02  0.69242318432E+02  0.10748458624E+02  0.71560853456E+02  0.00000000000E+00 0. -1.
<mgrwt>
<rscale>  0 0.17608541E+03</rscale>
<asrwt>0</asrwt>
<pdfrwt beam="2">  1        2 0.13176044E+00 0.18207714E+03</pdfrwt>
<pdfrwt beam="1">  1       -2 0.96078285E-02 0.18207714E+03</pdfrwt>
<totfact> 0.22799714E+03</totfact>
</mgrwt>
</event>
<event>
 6    1  0.9079565E-006  0.4155623E+03  0.7546771E-02  0.1038520E+00
         -1   -1    0    0    0  501 -0.00000000000E+00  0.00000000000E+00  0.25528432025E+03  0.25528432025E+03  0.00000000000E+00 0.  1.
          1   -1    0    0  501    0  0.00000000000E+00 -0.00000000000E+00 -0.16911733774E+03  0.16911733774E+03  0.00000000000E+00 0. -1.
          5    1    1    2  502    0  0.14055171431E+03 -0.22032523015E+02  0.37300856033E+02  0.14715182747E+03  0.47000000000E+01 0.  1.
         -5    1    1    2    0  502  0.24687152517E+02  0.98447591599E+01 -0.54861690811E+02  0.61141392697E+02  0.47000000000E+01 0.  1.
        -11    1    1    2    0    0 -0.49716311875E+02  0.18574030751E+02  0.83074848524E+02  0.98580610376E+02  0.00000000000E+00 0.  1.
         11    1    1    2    0    0 -0.11552255495E+03 -0.63862668957E+01  0.20652968770E+02  0.11752782746E+03  0.00000000000E+00 0. -1.
<mgrwt>
<rscale>  0 0.41556229E+03</rscale>
<asrwt>0</asrwt>
<pdfrwt beam="2">  1        1 0.26018052E-01 0.41556229E+03</pdfrwt>
<pdfrwt beam="1">  1       -1 0.39274511E-01 0.41556229E+03</pdfrwt>
<totfact> 0.11649741E+03</totfact>
</mgrwt>
</event>
<event>
 6    1  0.6101889E-006  0.1176832E+03  0.7546771E-02  0.1258042E+00
          4   -1    0    0  501    0  0.00000000000E+00  0.00000000000E+00  0.21266014968E+03  0.21266014968E+03  0.00000000000E+00 0. -1.
         -4   -1    0    0    0  501 -0.00000000000E+00 -0.00000000000E+00 -0.73384741392E+02  0.73384741392E+02  0.00000000000E+00 0.  1.
          5    1    1    2  502    0  0.37511059106E+02  0.20276840276E+02  0.14130786307E+03  0.14767610495E+03  0.47000000000E+01 0. -1.
         -5    1    1    2    0  502 -0.11141291174E+02 -0.40570725876E+02  0.91025234302E+01  0.43301941064E+02  0.47000000000E+01 0.  1.
        -11    1    1    2    0    0 -0.58881101115E+02  0.18160004885E+02 -0.42375716877E+01  0.61763475127E+02  0.00000000000E+00 0.  1.
         11    1    1    2    0    0  0.32511333183E+02  0.21338807143E+01 -0.68974065240E+01  0.33303369935E+02  0.00000000000E+00 0. -1.
<mgrwt>
<rscale>  0 0.11137639E+03</rscale>
<asrwt>0</asrwt>
<pdfrwt beam="1">  1        4 0.32716946E-01 0.11768318E+03</pdfrwt>
<pdfrwt beam="2">  1       -4 0.11289960E-01 0.11768318E+03</pdfrwt>
<totfact> 0.89052058E+02</totfact>
</mgrwt>
</event>
<event>
 6    1  0.6101889E-006  0.1750505E+03  0.7546771E-02  0.1178897E+00
          2   -1    0    0  501    0  0.00000000000E+00  0.00000000000E+00  0.12302247177E+04  0.12302247177E+04  0.00000000000E+00 0. -1.
         -2   -1    0    0    0  501 -0.00000000000E+00 -0.00000000000E+00 -0.22069353642E+02  0.22069353642E+02  0.00000000000E+00 0.  1.
          5    1    1    2  502    0  0.91594390583E+01  0.20956192426E+02  0.15493406808E+03  0.15668347959E+03  0.47000000000E+01 0. -1.
         -5    1    1    2    0  502 -0.83715871274E+02 -0.11803233961E+03  0.41525810275E+03  0.43977421730E+03  0.47000000000E+01 0. -1.
        -11    1    1    2    0    0 -0.18518551850E+02  0.34926005561E+01  0.11142652046E+03  0.11300886905E+03  0.00000000000E+00 0.  1.
         11    1    1    2    0    0  0.93074984065E+02  0.93583546633E+02  0.52653667273E+03  0.54282750537E+03  0.00000000000E+00 0. -1.
<mgrwt>
<rscale>  0 0.16899782E+03</rscale>
<asrwt>0</asrwt>
<pdfrwt beam="1">  1        2 0.18926529E+00 0.17505049E+03</pdfrwt>
<pdfrwt beam="2">  1       -2 0.33952861E-02 0.17505049E+03</pdfrwt>
<totfact> 0.66586440E+03</totfact>
</mgrwt>
</event>
<event>
 6    1  0.6101889E-006  0.1994871E+03  0.7546771E-02  0.1154821E+00
          3   -1    0    0  501    0  0.00000000000E+00  0.00000000000E+00  0.15608354181E+03  0.15608354181E+03  0.00000000000E+00 0. -1.
         -3   -1    0    0    0  501 -0.00000000000E+00 -0.00000000000E+00 -0.25134887161E+03  0.25134887161E+03  0.00000000000E+00 0.  1.
          5    1    1    2  502    0  0.33765305420E+02 -0.22282013266E+02 -0.32012009775E+02  0.51801956866E+02  0.47000000000E+01 0. -1.
         -5    1    1    2    0  502  0.10165386750E+03  0.98666924569E+02  0.42432960004E+02  0.14795714540E+03  0.47000000000E+01 0. -1.
        -11    1    1    2    0    0 -0.93118677233E+02 -0.74617492551E+02 -0.33419753486E+02  0.12391827213E+03  0.00000000000E+00 0. -1.
         11    1    1    2    0    0 -0.42300495684E+02 -0.17674187517E+01 -0.72266526537E+02  0.83755039023E+02  0.00000000000E+00 0.  1.
<mgrwt>
<rscale>  0 0.19409288E+03</rscale>
<asrwt>0</asrwt>
<pdfrwt beam="1">  1        3 0.24012853E-01 0.19948710E+03</pdfrwt>
<pdfrwt beam="2">  1       -3 0.38669057E-01 0.19948710E+03</pdfrwt>
<totfact> 0.26168953E+02</totfact>
</mgrwt>
</event>
<event>
 6    1  0.6101889E-006  0.3789513E+03  0.7546771E-02  0.1051322E+00
         -2   -1    0    0    0  501 -0.00000000000E+00  0.00000000000E+00  0.16929343348E+03  0.16929343348E+03  0.00000000000E+00 0.  1.
          2   -1    0    0  501    0  0.00000000000E+00 -0.00000000000E+00 -0.21206390393E+03  0.21206390393E+03  0.00000000000E+00 0. -1.
          5    1    1    2  502    0  0.11562569767E+03  0.12161301799E+03 -0.39939970849E+01  0.16791983242E+03  0.47000000000E+01 0.  1.
         -5    1    1    2    0  502 -0.19438090218E+01 -0.22226148574E+02  0.17124070661E+02  0.28514976240E+02  0.47000000000E+01 0.  1.
        -11    1    1    2    0    0 -0.59664701913E+02 -0.41021018639E+01 -0.45011757713E+02  0.74851601362E+02  0.00000000000E+00 0.  1.
         11    1    1    2    0    0 -0.54017186739E+02 -0.95284767549E+02 -0.10888786310E+02  0.11007092739E+03  0.00000000000E+00 0. -1.
<mgrwt>
<rscale>  0 0.37895132E+03</rscale>
<asrwt>0</asrwt>
<pdfrwt beam="2">  1        2 0.32625216E-01 0.37895132E+03</pdfrwt>
<pdfrwt beam="1">  1       -2 0.26045144E-01 0.37895132E+03</pdfrwt>
<totfact> 0.21240854E+03</totfact>
</mgrwt>
</event>
<event>
 6    1  0.6101889E-006  0.1321159E+03  0.7546771E-02  0.1237068E+00
         -2   -1    0    0    0  501 -0.00000000000E+00  0.00000000000E+00  0.69412274744E+02  0.69412274744E+02  0.00000000000E+00 0.  1.
          2   -1    0    0  501    0  0.00000000000E+00 -0.00000000000E+00 -0.55569552830E+03  0.55569552830E+03  0.00000000000E+00 0. -1.
          5    1    1    2  502    0  0.47366871237E+02 -0.31674765588E+02 -0.15574570178E+03  0.16590878484E+03  0.47000000000E+01 0. -1.
         -5    1    1    2    0  502 -0.21609960683E+02  0.65819596039E+02 -0.34905472964E+03  0.35589395037E+03  0.47000000000E+01 0. -1.
        -11    1    1    2    0    0 -0.53278568482E+02 -0.41612594604E+02 -0.28622974181E+01  0.67663924182E+02  0.00000000000E+00 0.  1.
         11    1    1    2    0    0  0.27521657928E+02  0.74677641526E+01  0.21379475289E+02  0.35641143643E+02  0.00000000000E+00 0. -1.
<mgrwt>
<rscale>  0 0.12372970E+03</rscale>
<asrwt>0</asrwt>
<pdfrwt beam="2">  1        2 0.85491616E-01 0.13211593E+03</pdfrwt>
<pdfrwt beam="1">  1       -2 0.10678812E-01 0.13211593E+03</pdfrwt>
<totfact> 0.32054096E+03</totfact>
</mgrwt>
</event>
<event>
 6    1  0.6101889E-006  0.1576475E+03  0.7546771E-02  0.1197196E+00
         -2   -1    0    0    0  501 -0.00000000000E+00  0.00000000000E+00  0.40680938075E+02  0.40680938075E+02  0.00000000000E+00 0.  1.
          2   -1    0    0  501    0  0.00000000000E+00 -0.00000000000E+00 -0.12496105552E+04  0.12496105552E+04  0.00000000000E+00 0. -1.
          5    1    1    2  502    0  0.26953746500E+02  0.40564689827E+01 -0.65088237143E+03  0.65146980807E+03  0.47000000000E+01 0. -1.
         -5    1    1    2    0  502  0.24190419353E+02 -0.95686460800E+02 -0.45598198889E+03  0.46656482868E+03  0.47000000000E+01 0.  1.
        -11    1    1    2    0    0  0.21196561645E+02  0.21353100352E+02 -0.19547604623E+01  0.30150791179E+02  0.00000000000E+00 0. -1.
         11    1    1    2    0    0 -0.72340727498E+02  0.70276891465E+02 -0.10011049634E+03  0.14210606534E+03  0.00000000000E+00 0.  1.
<mgrwt>
<rscale>  0 0.15269808E+03</rscale>
<asrwt>0</asrwt>
<pdfrwt beam="2">  1        2 0.19224774E+00 0.15764751E+03</pdfrwt>
<pdfrwt beam="1">  1       -2 0.62586072E-02 0.15764751E+03</pdfrwt>
<totfact> 0.25834748E+03</totfact>
</mgrwt>
</event>
<event>
 6    1  0.6101889E-006  0.2538752E+03  0.7546771E-02  0.1113191E+00
         -2   -1    0    0    0  501 -0.00000000000E+00  0.00000000000E+00  0.21782065992E+02  0.21782065992E+02  0.00000000000E+00 0.  1.
          2   -1    0    0  501    0  0.00000000000E+00 -0.00000000000E+00 -0.27981699096E+04  0.27981699096E+04  0.00000000000E+00 0. -1.
          5    1    1    2  502    0 -0.50597507747E+02 -0.12503491354E+02 -0.30568178415E+03  0.31012882525E+03  0.47000000000E+01 0.  1.
         -5    1    1    2    0  502 -0.46224147830E+01 -0.20143555747E+03 -0.11846832227E+04  0.12017046554E+04  0.47000000000E+01 0.  1.
        -11    1    1    2    0    0  0.73987069719E+02  0.18404685672E+03 -0.11748309281E+04  0.11914592068E+04  0.00000000000E+00 0. -1.
         11    1    1    2    0    0 -0.18767147189E+02  0.29892192096E+02 -0.11119190862E+03  0.11665928812E+03  0.00000000000E+00 0.  1.
<mgrwt>
<rscale>  0 0.25018011E+03</rscale>
<asrwt>0</asrwt>
<pdfrwt beam="2">  1        2 0.43048733E+00 0.25387520E+03</pdfrwt>
<pdfrwt beam="1">  1       -2 0.33510898E-02 0.25387520E+03</pdfrwt>
<totfact> 0.98273253E+02</totfact>
</mgrwt>
</event>
<event>
 6    1  0.6101889E-006  0.1564146E+03  0.7546771E-02  0.1200682E+00
         -1   -1    0    0    0  501 -0.00000000000E+00  0.00000000000E+00  0.38475377125E+03  0.38475377125E+03  0.00000000000E+00 0.  1.
          1   -1    0    0  501    0  0.00000000000E+00 -0.00000000000E+00 -0.93531662602E+02  0.93531662602E+02  0.00000000000E+00 0. -1.
          5    1    1    2  502    0  0.78708020539E+02  0.58917259785E+02  0.12897731635E+02  0.99270526739E+02  0.47000000000E+01 0.  1.
         -5    1    1    2    0  502  0.15102421586E+02 -0.52742782222E+02 -0.15351384862E+02  0.57163268201E+02  0.47000000000E+01 0.  1.
        -11    1    1    2    0    0 -0.10406054567E+03  0.16939073363E+02  0.22000106393E+03  0.24395900783E+03  0.00000000000E+00 0. -1.
         11    1    1    2    0    0  0.10250103547E+02 -0.23113550926E+02  0.73674697941E+02  0.77892631075E+02  0.00000000000E+00 0.  1.
<mgrwt>
<rscale>  0 0.14982989E+03</rscale>
<asrwt>0</asrwt>
<pdfrwt beam="2">  1        1 0.14389487E-01 0.15641455E+03</pdfrwt>
<pdfrwt beam="1">  1       -1 0.59192887E-01 0.15641455E+03</pdfrwt>
<totfact> 0.11604909E+03</totfact>
</mgrwt>
</event>
<event>
 6    1  0.6101889E-006  0.2904358E+03  0.7546771E-02  0.1113679E+00
          2   -1    0    0  501    0  0.00000000000E+00  0.00000000000E+00  0.17876867012E+04  0.17876867012E+04  0.00000000000E+00 0. -1.
         -2   -1    0    0    0  501 -0.00000000000E+00 -0.00000000000E+00 -0.32570086694E+02  0.32570086694E+02  0.00000000000E+00 0.  1.
          5    1    1    2  502    0 -0.88138493865E+02  0.21890166093E+02  0.53114912117E+03  0.53887758572E+03  0.47000000000E+01 0. -1.
         -5    1    1    2    0  502  0.13919160505E+03 -0.14009369868E+03  0.89392379558E+03  0.91549024552E+03  0.47000000000E+01 0.  1.
        -11    1    1    2    0    0 -0.20453684750E+02  0.10106328975E+03  0.14726226578E+03  0.17977295870E+03  0.00000000000E+00 0.  1.
         11    1    1    2    0    0 -0.30599426434E+02  0.17140242836E+02  0.18278143193E+03  0.18611599791E+03  0.00000000000E+00 0. -1.
<mgrwt>
<rscale>  0 0.24940922E+03</rscale>
<asrwt>0</asrwt>
<pdfrwt beam="1">  1        2 0.27502865E+00 0.29043583E+03</pdfrwt>
<pdfrwt beam="2">  1       -2 0.50107840E-02 0.29043583E+03</pdfrwt>
<totfact> 0.18725331E+03</totfact>
</mgrwt>
</event>
<event>
 6    1  0.6101889E-006  0.1478722E+03  0.7546771E-02  0.1212486E+00
          2   -1    0    0  501    0  0.00000000000E+00  0.00000000000E+00  0.77551971190E+02  0.77551971190E+02  0.00000000000E+00 0. -1.
         -2   -1    0    0    0  501 -0.00000000000E+00 -0.00000000000E+00 -0.34992829658E+03  0.34992829658E+03  0.00000000000E+00 0.  1.
          5    1    1    2  502    0  0.55016094960E+02 -0.49466681544E+02 -0.21059648102E+02  0.77066997254E+02  0.47000000000E+01 0.  1.
         -5    1    1    2    0  502  0.21528996290E+02  0.69008319521E+02 -0.10494536068E+01  0.72448859185E+02  0.47000000000E+01 0.  1.
        -11    1    1    2    0    0 -0.76063026433E+02  0.12606491258E+02 -0.22250747524E+03  0.23548690865E+03  0.00000000000E+00 0.  1.
         11    1    1    2    0    0 -0.48206481718E+00 -0.32148129235E+02 -0.27759748442E+02  0.42477502673E+02  0.00000000000E+00 0. -1.
<mgrwt>
<rscale>  0 0.14062818E+03</rscale>
<asrwt>0</asrwt>
<pdfrwt beam="1">  1        2 0.11931072E-01 0.14787217E+03</pdfrwt>
<pdfrwt beam="2">  1       -2 0.53835123E-01 0.14787217E+03</pdfrwt>
<totfact> 0.16580225E+03</totfact>
</mgrwt>
</event>
<event>
 6    1  0.6101889E-006  0.1299835E+03  0.7546771E-02  0.1240856E+00
          2   -1    0    0  501    0  0.00000000000E+00  0.00000000000E+00  0.10023714412E+04  0.10023714412E+04  0.00000000000E+00 0. -1.
         -2   -1    0    0    0  501 -0.00000000000E+00 -0.00000000000E+00 -0.14392692493E+02  0.14392692493E+02  0.00000000000E+00 0.  1.
          5    1    1    2  502    0  0.21209987406E+02  0.28307058093E+02  0.65951073901E+02  0.74985246898E+02  0.47000000000E+01 0. -1.
         -5    1    1    2    0  502 -0.56028337659E+02 -0.20711175167E+02  0.64280112102E+03  0.64558771563E+03  0.47000000000E+01 0. -1.
        -11    1    1    2    0    0 -0.29886342203E+02 -0.10746313197E+02  0.64332500549E+02  0.71745016025E+02  0.00000000000E+00 0.  1.
         11    1    1    2    0    0  0.64704692456E+02  0.31504302706E+01  0.21489405325E+03  0.22444615514E+03  0.00000000000E+00 0. -1.
<mgrwt>
<rscale>  0 0.12136883E+03</rscale>
<asrwt>0</asrwt>
<pdfrwt beam="1">  1        2 0.15421094E+00 0.12998354E+03</pdfrwt>
<pdfrwt beam="2">  1       -2 0.22142612E-02 0.12998354E+03</pdfrwt>
<totfact> 0.16599448E+04</totfact>
</mgrwt>
</event>
<event>
 6    1  0.6101889E-006  0.2649263E+03  0.7546771E-02  0.1106402E+00
         -2   -1    0    0    0  501 -0.00000000000E+00  0.00000000000E+00  0.91435282650E+02  0.91435282650E+02  0.00000000000E+00 0.  1.
          2   -1    0    0  501    0  0.00000000000E+00 -0.00000000000E+00 -0.81642776369E+03  0.81642776369E+03  0.00000000000E+00 0. -1.
          5    1    1    2  502    0 -0.37903587504E+02  0.13884574161E+03 -0.29517986900E+03  0.32843274345E+03  0.47000000000E+01 0.  1.
         -5    1    1    2    0  502 -0.11441925628E+03  0.38237560211E+02 -0.22711656158E+03  0.25721177998E+03  0.47000000000E+01 0.  1.
        -11    1    1    2    0    0  0.14356591800E+03 -0.10682686384E+03 -0.13391295336E+03  0.22350801043E+03  0.00000000000E+00 0. -1.
         11    1    1    2    0    0  0.87569257815E+01 -0.70256437979E+02 -0.68783097102E+02  0.98710512477E+02  0.00000000000E+00 0.  1.
<mgrwt>
<rscale>  0 0.26123784E+03</rscale>
<asrwt>0</asrwt>
<pdfrwt beam="2">  1        2 0.12560427E+00 0.26492630E+03</pdfrwt>
<pdfrwt beam="1">  1       -2 0.14066966E-01 0.26492630E+03</pdfrwt>
<totfact> 0.13169480E+03</totfact>
</mgrwt>
</event>
<event>
 6    1  0.6101889E-006  0.2337230E+03  0.7546771E-02  0.1126891E+00
         -1   -1    0    0    0  501 -0.00000000000E+00  0.00000000000E+00  0.10518327643E+03  0.10518327643E+03  0.00000000000E+00 0.  1.
          1   -1    0    0  501    0  0.00000000000E+00 -0.00000000000E+00 -0.48799499082E+03  0.48799499082E+03  0.00000000000E+00 0. -1.
          5    1    1    2  502    0  0.30656106392E+02 -0.17687237285E+02 -0.12842702787E+01  0.35726384816E+02  0.47000000000E+01 0.  1.
         -5    1    1    2    0  502 -0.65700982751E+02 -0.17666605256E+03 -0.17218074889E+03  0.25533470886E+03  0.47000000000E+01 0.  1.
        -11    1    1    2    0    0 -0.69356164675E+01  0.36289904675E+02 -0.96741224340E+02  0.10355638292E+03  0.00000000000E+00 0.  1.
         11    1    1    2    0    0  0.41980492827E+02  0.15806338517E+03 -0.11260547088E+03  0.19856079065E+03  0.00000000000E+00 0. -1.
<mgrwt>
<rscale>  0 0.22964352E+03</rscale>
<asrwt>0</asrwt>
<pdfrwt beam="2">  1        1 0.75076152E-01 0.23372301E+03</pdfrwt>
<pdfrwt beam="1">  1       -1 0.16182043E-01 0.23372301E+03</pdfrwt>
<totfact> 0.13257379E+03</totfact>
</mgrwt>
</event>
<event>
 6    1  0.6101889E-006  0.1257931E+03  0.7546771E-02  0.1248926E+00
          1   -1    0    0  501    0  0.00000000000E+00  0.00000000000E+00  0.70986739490E+03  0.70986739490E+03  0.00000000000E+00 0. -1.
         -1   -1    0    0    0  501 -0.00000000000E+00 -0.00000000000E+00 -0.17252980458E+02  0.17252980458E+02  0.00000000000E+00 0.  1.
          5    1    1    2  502    0 -0.31564795978E+02  0.43970233175E+02  0.12470472519E+03  0.13602601308E+03  0.47000000000E+01 0.  1.
         -5    1    1    2    0  502  0.45631505575E+02 -0.41476456080E+02  0.33069631924E+03  0.33642930352E+03  0.47000000000E+01 0.  1.
        -11    1    1    2    0    0 -0.56418112621E+01 -0.43763823468E+02  0.74491366462E+02  0.86579824187E+02  0.00000000000E+00 0.  1.
         11    1    1    2    0    0 -0.84248983339E+01  0.41270046372E+02  0.16272200356E+03  0.16808523457E+03  0.00000000000E+00 0. -1.
<mgrwt>
<rscale>  0 0.11653453E+03</rscale>
<asrwt>0</asrwt>
<pdfrwt beam="1">  1        1 0.10921035E+00 0.12579314E+03</pdfrwt>
<pdfrwt beam="2">  1       -1 0.26543052E-02 0.12579314E+03</pdfrwt>
<totfact> 0.11861909E+04</totfact>
</mgrwt>
</event>
<event>
 6    1  0.6101889E-006  0.1494838E+03  0.7546771E-02  0.1209678E+00
          2   -1    0    0  501    0  0.00000000000E+00  0.00000000000E+00  0.77354207755E+03  0.77354207755E+03  0.00000000000E+00 0. -1.
         -2   -1    0    0    0  501 -0.00000000000E+00 -0.00000000000E+00 -0.24360090117E+02  0.24360090117E+02  0.00000000000E+00 0.  1.
          5    1    1    2  502    0 -0.47508670545E+02  0.24997465050E+02  0.42728526618E+03  0.43067010081E+03  0.47000000000E+01 0. -1.
         -5    1    1    2    0  502 -0.18409251567E+02  0.23760435243E+02  0.10908700476E+02  0.32319476671E+02  0.47000000000E+01 0. -1.
        -11    1    1    2    0    0 -0.23318417840E+01 -0.53750388905E+02  0.16776663371E+03  0.17618224990E+03  0.00000000000E+00 0. -1.
         11    1    1    2    0    0  0.68249763895E+02  0.49924886127E+01  0.14322138707E+03  0.15873034029E+03  0.00000000000E+00 0.  1.
<mgrwt>
<rscale>  0 0.14274857E+03</rscale>
<asrwt>0</asrwt>
<pdfrwt beam="1">  1        2 0.11900645E+00 0.14948377E+03</pdfrwt>
<pdfrwt beam="2">  1       -2 0.37477068E-02 0.14948377E+03</pdfrwt>
<totfact> 0.10824464E+04</totfact>
</mgrwt>
</event>
<event>
 6    1  0.6101889E-006  0.3203798E+03  0.7546771E-02  0.1075475E+00
          3   -1    0    0  501    0  0.00000000000E+00  0.00000000000E+00  0.34408803429E+03  0.34408803429E+03  0.00000000000E+00 0. -1.
         -3   -1    0    0    0  501 -0.00000000000E+00 -0.00000000000E+00 -0.74576270636E+02  0.74576270636E+02  0.00000000000E+00 0.  1.
          5    1    1    2  502    0  0.39847419943E+01  0.27705992653E+00 -0.12909832103E+02  0.14307644666E+02  0.47000000000E+01 0. -1.
         -5    1    1    2    0  502  0.30341779783E+02 -0.60296527500E+02  0.28589961637E+03  0.29379750760E+03  0.47000000000E+01 0. -1.
        -11    1    1    2    0    0 -0.47615035357E+02  0.75329619313E+02 -0.89392087548E+01  0.89563678972E+02  0.00000000000E+00 0. -1.
         11    1    1    2    0    0  0.13288513580E+02 -0.15310151740E+02  0.54611881382E+01  0.20995473687E+02  0.00000000000E+00 0.  1.
<mgrwt>
<rscale>  0 0.32037979E+03</rscale>
<asrwt>0</asrwt>
<pdfrwt beam="1">  1        3 0.52936620E-01 0.32037979E+03</pdfrwt>
<pdfrwt beam="2">  1       -3 0.11473273E-01 0.32037979E+03</pdfrwt>
<totfact> 0.53742204E+02</totfact>
</mgrwt>
</event>
<event>
 6    1  0.6101889E-006  0.2436722E+03  0.7546771E-02  0.1120059E+00
          2   -1    0    0  501    0  0.00000000000E+00  0.00000000000E+00  0.19540872335E+03  0.19540872335E+03  0.00000000000E+00 0. -1.
         -2   -1    0    0    0  501 -0.00000000000E+00 -0.00000000000E+00 -0.28901107938E+03  0.28901107938E+03  0.00000000000E+00 0.  1.
          5    1    1    2  502    0  0.60369813569E+02 -0.23789657798E+02  0.52123080915E+02  0.83362868069E+02  0.47000000000E+01 0. -1.
         -5    1    1    2    0  502  0.14197845199E+03 -0.29186348232E+02 -0.69807975126E+02  0.16095020082E+03  0.47000000000E+01 0. -1.
        -11    1    1    2    0    0 -0.14958112971E+03  0.64842861821E+02 -0.87157185696E+02  0.18486613025E+03  0.00000000000E+00 0.  1.
         11    1    1    2    0    0 -0.52767135851E+02 -0.11866855791E+02  0.11239723879E+02  0.55240603591E+02  0.00000000000E+00 0. -1.
<mgrwt>
<rscale>  0 0.23960042E+03</rscale>
<asrwt>0</asrwt>
<pdfrwt beam="1">  1        2 0.30062881E-01 0.24367216E+03</pdfrwt>
<pdfrwt beam="2">  1       -2 0.44463243E-01 0.24367216E+03</pdfrwt>
<totfact> 0.84850960E+02</totfact>
</mgrwt>
</event>
<event>
 6    1  0.6101889E-006  0.1560418E+03  0.7546771E-02  0.1201584E+00
          2   -1    0    0  501    0  0.00000000000E+00  0.00000000000E+00  0.91764142094E+03  0.91764142094E+03  0.00000000000E+00 0. -1.
         -2   -1    0    0    0  501 -0.00000000000E+00 -0.00000000000E+00 -0.31969784922E+02  0.31969784922E+02  0.00000000000E+00 0.  1.
          5    1    1    2  502    0 -0.11694061177E+03  0.68721194449E+01  0.55458077505E+03  0.56683706545E+03  0.47000000000E+01 0. -1.
         -5    1    1    2    0  502  0.26045362477E+02 -0.28352008132E+02  0.17664607100E+03  0.18085386828E+03  0.47000000000E+01 0. -1.
        -11    1    1    2    0    0  0.73055270125E+02 -0.10323057900E+02  0.44675655799E+02  0.86252839017E+02  0.00000000000E+00 0.  1.
         11    1    1    2    0    0  0.17839979170E+02  0.31802946587E+02  0.10976913417E+03  0.11566743312E+03  0.00000000000E+00 0. -1.
<mgrwt>
<rscale>  0 0.14909950E+03</rscale>
<asrwt>0</asrwt>
<pdfrwt beam="1">  1        2 0.14117558E+00 0.15604176E+03</pdfrwt>
<pdfrwt beam="2">  1       -2 0.49184291E-02 0.15604176E+03</pdfrwt>
<totfact> 0.58085653E+03</totfact>
</mgrwt>
</event>
<event>
 6    1  0.6101889E-006  0.2947512E+03  0.7546771E-02  0.1093325E+00
         -2   -1    0    0    0  501 -0.00000000000E+00  0.00000000000E+00  0.32659459819E+03  0.32659459819E+03  0.00000000000E+00 0.  1.
          2   -1    0    0  501    0  0.00000000000E+00 -0.00000000000E+00 -0.25921945412E+03  0.25921945412E+03  0.00000000000E+00 0. -1.
          5    1    1    2  502    0 -0.18029990756E+03 -0.20535685783E+02 -0.10426484121E+03  0.20933948068E+03  0.47000000000E+01 0. -1.
         -5    1    1    2    0  502 -0.55583771573E+02  0.56774232115E+02  0.44822838974E+02  0.91345749700E+02  0.47000000000E+01 0.  1.
        -11    1    1    2    0    0  0.94754395297E+02  0.29585891059E+02  0.57021501938E+02  0.11447782345E+03  0.00000000000E+00 0. -1.
         11    1    1    2    0    0  0.14112928384E+03 -0.65824437391E+02  0.69795644362E+02  0.17065099849E+03  0.00000000000E+00 0.  1.
<mgrwt>
<rscale>  0 0.28437133E+03</rscale>
<asrwt>0</asrwt>
<pdfrwt beam="2">  1        2 0.39879916E-01 0.29475118E+03</pdfrwt>
<pdfrwt beam="1">  1       -2 0.50245323E-01 0.29475118E+03</pdfrwt>
<totfact> 0.48959587E+02</totfact>
</mgrwt>
</event>
<event>
 6    1  0.6101889E-006  0.1261786E+03  0.7546771E-02  0.1248567E+00
         -1   -1    0    0    0  501 -0.00000000000E+00  0.00000000000E+00  0.71714318517E+02  0.71714318517E+02  0.00000000000E+00 0.  1.
          1   -1    0    0  501    0  0.00000000000E+00 -0.00000000000E+00 -0.18176042277E+03  0.18176042277E+03  0.00000000000E+00 0. -1.
          5    1    1    2  502    0  0.41705790689E+02  0.51254976598E+02 -0.76653632190E+02  0.10131295540E+03  0.47000000000E+01 0. -1.
         -5    1    1    2    0  502 -0.24711416008E+02 -0.48530654704E+02 -0.22286496656E+02  0.59030978819E+02  0.47000000000E+01 0. -1.
        -11    1    1    2    0    0 -0.50171912346E+02 -0.11361966492E+02 -0.23658076107E+02  0.56621724065E+02  0.00000000000E+00 0.  1.
         11    1    1    2    0    0  0.33177537666E+02  0.86376445974E+01  0.12552100704E+02  0.36509083004E+02  0.00000000000E+00 0. -1.
<mgrwt>
<rscale>  0 0.11674410E+03</rscale>
<asrwt>0</asrwt>
<pdfrwt beam="2">  1        1 0.27963142E-01 0.12617856E+03</pdfrwt>
<pdfrwt beam="1">  1       -1 0.11032972E-01 0.12617856E+03</pdfrwt>
<totfact> 0.81494135E+03</totfact>
</mgrwt>
</event>
<event>
 6    1  0.6101889E-006  0.2379219E+03  0.7546771E-02  0.1121185E+00
         -2   -1    0    0    0  501 -0.00000000000E+00  0.00000000000E+00  0.31558337770E+02  0.31558337770E+02  0.00000000000E+00 0.  1.
          2   -1    0    0  501    0  0.00000000000E+00 -0.00000000000E+00 -0.44843020114E+03  0.44843020114E+03  0.00000000000E+00 0. -1.
          5    1    1    2  502    0 -0.38095754523E+02 -0.18694570300E+02 -0.63934525579E+02  0.76879691937E+02  0.47000000000E+01 0.  1.
         -5    1    1    2    0  502  0.73180648940E+02  0.52872643816E+02 -0.18733793794E+03  0.20801085749E+03  0.47000000000E+01 0.  1.
        -11    1    1    2    0    0 -0.34834935302E+02  0.36712528539E+01 -0.12190181979E+02  0.37088426115E+02  0.00000000000E+00 0.  1.
         11    1    1    2    0    0 -0.24995911548E+00 -0.37849326370E+02 -0.15340921787E+03  0.15800956336E+03  0.00000000000E+00 0. -1.
<mgrwt>
<rscale>  0 0.23792193E+03</rscale>
<asrwt>0</asrwt>
<pdfrwt beam="2">  1        2 0.68989251E-01 0.23792193E+03</pdfrwt>
<pdfrwt beam="1">  1       -2 0.48551297E-02 0.23792193E+03</pdfrwt>
<totfact> 0.14179614E+04</totfact>
</mgrwt>
</event>
<event>
 6    1  0.6101889E-006  0.2016641E+03  0.7546771E-02  0.1184876E+00
          2   -1    0    0  501    0  0.00000000000E+00  0.00000000000E+00  0.20776686748E+04  0.20776686748E+04  0.00000000000E+00 0. -1.
         -2   -1    0    0    0  501 -0.00000000000E+00 -0.00000000000E+00 -0.11945414529E+02  0.11945414529E+02  0.00000000000E+00 0.  1.
          5    1    1    2  502    0 -0.76652390201E+02  0.34955134910E+01  0.15358038054E+04  0.15377266422E+04  0.47000000000E+01 0. -1.
         -5    1    1    2    0  502  0.66980683765E+02  0.18708340404E+01  0.23157571910E+03  0.24112095656E+03  0.47000000000E+01 0.  1.
        -11    1    1    2    0    0  0.39578509186E+02  0.19077306471E+02  0.20665748757E+03  0.21127640469E+03  0.00000000000E+00 0.  1.
         11    1    1    2    0    0 -0.29906802751E+02 -0.24443654002E+02  0.91686248211E+02  0.99490085852E+02  0.00000000000E+00 0. -1.
<mgrwt>
<rscale>  0 0.16343144E+03</rscale>
<asrwt>0</asrwt>
<pdfrwt beam="1">  1        2 0.31964105E+00 0.20166407E+03</pdfrwt>
<pdfrwt beam="2">  1       -2 0.18377577E-02 0.20166407E+03</pdfrwt>
<totfact> 0.59044246E+03</totfact>
</mgrwt>
</event>
<event>
 6    1  0.6101889E-006  0.1456201E+03  0.7546771E-02  0.1214836E+00
         -1   -1    0    0    0  501 -0.00000000000E+00  0.00000000000E+00  0.12346390415E+03  0.12346390415E+03  0.00000000000E+00 0.  1.
          1   -1    0    0  501    0  0.00000000000E+00 -0.00000000000E+00 -0.23128998405E+03  0.23128998405E+03  0.00000000000E+00 0. -1.
          5    1    1    2  502    0  0.45432011154E+02  0.75421710408E+01 -0.10332856453E+03  0.11322470680E+03  0.47000000000E+01 0.  1.
         -5    1    1    2    0  502 -0.56916794739E+02  0.66267380907E+02 -0.62783126179E+02  0.10767868047E+03  0.47000000000E+01 0.  1.
        -11    1    1    2    0    0  0.43995660657E+02 -0.21375432630E+02  0.52702422477E+02  0.71903216978E+02  0.00000000000E+00 0.  1.
         11    1    1    2    0    0 -0.32510877072E+02 -0.52434119318E+02  0.55831883324E+01  0.61947283948E+02  0.00000000000E+00 0. -1.
<mgrwt>
<rscale>  0 0.13888557E+03</rscale>
<asrwt>0</asrwt>
<pdfrwt beam="2">  1        1 0.35583074E-01 0.14562010E+03</pdfrwt>
<pdfrwt beam="1">  1       -1 0.18994447E-01 0.14562010E+03</pdfrwt>
<totfact> 0.26048057E+03</totfact>
</mgrwt>
</event>
<event>
 6    1  0.6101889E-006  0.2604997E+03  0.7546771E-02  0.1134221E+00
         -1   -1    0    0    0  501 -0.00000000000E+00  0.00000000000E+00  0.36328899640E+02  0.36328899640E+02  0.00000000000E+00 0.  1.
          1   -1    0    0  501    0  0.00000000000E+00 -0.00000000000E+00 -0.10710553055E+04  0.10710553055E+04  0.00000000000E+00 0. -1.
          5    1    1    2  502    0  0.32561425357E+02  0.23691752851E+02 -0.68346930833E+03  0.68467067339E+03  0.47000000000E+01 0. -1.
         -5    1    1    2    0  502  0.45349963607E+02 -0.71348493984E+02 -0.61834024358E+02  0.10484637982E+03  0.47000000000E+01 0.  1.
        -11    1    1    2    0    0 -0.97362239078E+02  0.46403170454E+02 -0.26808211350E+03  0.28896484112E+03  0.00000000000E+00 0. -1.
         11    1    1    2    0    0  0.19450850114E+02  0.12535706790E+01 -0.21340959632E+02  0.28902310766E+02  0.00000000000E+00 0.  1.
<mgrwt>
<rscale>  0 0.21954776E+03</rscale>
<asrwt>0</asrwt>
<pdfrwt beam="2">  1        1 0.16477776E+00 0.26049975E+03</pdfrwt>
<pdfrwt beam="1">  1       -1 0.55890609E-02 0.26049975E+03</pdfrwt>
<totfact> 0.21056320E+03</totfact>
</mgrwt>
</event>
<event>
 6    1  0.6101889E-006  0.1317289E+03  0.7546771E-02  0.1238749E+00
         -2   -1    0    0    0  501 -0.00000000000E+00  0.00000000000E+00  0.35880047067E+02  0.35880047067E+02  0.00000000000E+00 0. -1.
          2   -1    0    0  501    0  0.00000000000E+00 -0.00000000000E+00 -0.43152851603E+03  0.43152851603E+03  0.00000000000E+00 0.  1.
          5    1    1    2  502    0 -0.20665085078E+02 -0.10827301779E+02 -0.23965175346E+03  0.24083049878E+03  0.47000000000E+01 0.  1.
         -5    1    1    2    0  502  0.59961575947E+02  0.24414690918E+02 -0.68885108664E+02  0.94650493493E+02  0.47000000000E+01 0.  1.
        -11    1    1    2    0    0 -0.26873431609E+02 -0.34005641502E+02 -0.96860188913E+02  0.10611532018E+03  0.00000000000E+00 0.  1.
         11    1    1    2    0    0 -0.12423059260E+02  0.20418252363E+02  0.97485820756E+01  0.25812250646E+02  0.00000000000E+00 0. -1.
<mgrwt>
<rscale>  0 0.12267473E+03</rscale>
<asrwt>0</asrwt>
<pdfrwt beam="2">  1        2 0.66389003E-01 0.13172889E+03</pdfrwt>
<pdfrwt beam="1">  1       -2 0.55200072E-02 0.13172889E+03</pdfrwt>
<totfact> 0.11680212E+04</totfact>
</mgrwt>
</event>
<event>
 6    1  0.6101889E-006  0.1284464E+03  0.7546771E-02  0.1242591E+00
         -2   -1    0    0    0  501 -0.00000000000E+00  0.00000000000E+00  0.66556482979E+02  0.66556482979E+02  0.00000000000E+00 0.  1.
          2   -1    0    0  501    0  0.00000000000E+00 -0.00000000000E+00 -0.20634575538E+03  0.20634575538E+03  0.00000000000E+00 0. -1.
          5    1    1    2  502    0 -0.20091578064E+02  0.50091390414E+02 -0.90252199514E+02  0.10526332894E+03  0.47000000000E+01 0.  1.
         -5    1    1    2    0  502 -0.75185328227E+01 -0.60588974705E+02 -0.21214068819E+02  0.64804929654E+02  0.47000000000E+01 0.  1.
        -11    1    1    2    0    0  0.48478202410E+02  0.38681161659E+02 -0.86360918814E+01  0.62617493236E+02  0.00000000000E+00 0.  1.
         11    1    1    2    0    0 -0.20868091523E+02 -0.28183577369E+02 -0.19686912188E+02  0.40216486528E+02  0.00000000000E+00 0. -1.
<mgrwt>
<rscale>  0 0.12030757E+03</rscale>
<asrwt>0</asrwt>
<pdfrwt beam="2">  1        2 0.31745501E-01 0.12844642E+03</pdfrwt>
<pdfrwt beam="1">  1       -2 0.10239459E-01 0.12844642E+03</pdfrwt>
<totfact> 0.98848429E+03</totfact>
</mgrwt>
</event>
<event>
 6    1  0.6101889E-006  0.1422074E+03  0.7546771E-02  0.1222167E+00
         -2   -1    0    0    0  501 -0.00000000000E+00  0.00000000000E+00  0.42585474050E+02  0.42585474050E+02  0.00000000000E+00 0.  1.
          2   -1    0    0  501    0  0.00000000000E+00 -0.00000000000E+00 -0.38283361511E+03  0.38283361511E+03  0.00000000000E+00 0. -1.
          5    1    1    2  502    0  0.85576974007E+01  0.28739914103E+02  0.32469391731E+01  0.30526209418E+02  0.47000000000E+01 0. -1.
         -5    1    1    2    0  502 -0.59049984775E+02  0.16513501951E+02 -0.22221848486E+03  0.23057046962E+03  0.47000000000E+01 0. -1.
        -11    1    1    2    0    0  0.36769497934E+02  0.16741544530E+02 -0.20740701176E+02  0.45414226590E+02  0.00000000000E+00 0. -1.
         11    1    1    2    0    0  0.13722789441E+02 -0.61994960583E+02 -0.10053589419E+03  0.11890818353E+03  0.00000000000E+00 0.  1.
<mgrwt>
<rscale>  0 0.13362956E+03</rscale>
<asrwt>0</asrwt>
<pdfrwt beam="2">  1        2 0.58897477E-01 0.14220738E+03</pdfrwt>
<pdfrwt beam="1">  1       -2 0.65516117E-02 0.14220738E+03</pdfrwt>
<totfact> 0.10296384E+04</totfact>
</mgrwt>
</event>
<event>
 6    1  0.6101889E-006  0.2424318E+03  0.7546771E-02  0.1118183E+00
          2   -1    0    0  501    0  0.00000000000E+00  0.00000000000E+00  0.49287333292E+03  0.49287333292E+03  0.00000000000E+00 0.  1.
         -2   -1    0    0    0  501 -0.00000000000E+00 -0.00000000000E+00 -0.29811491545E+02  0.29811491545E+02  0.00000000000E+00 0. -1.
          5    1    1    2  502    0  0.11138102555E+02 -0.12814828055E+02 -0.19687004015E+01  0.17726898428E+02  0.47000000000E+01 0. -1.
         -5    1    1    2    0  502 -0.25272329526E+02  0.40476457020E+02  0.35198784564E+03  0.35523874745E+03  0.47000000000E+01 0. -1.
        -11    1    1    2    0    0  0.51904504505E+02 -0.20278267641E+02  0.86764471570E+02  0.10311818100E+03  0.00000000000E+00 0. -1.
         11    1    1    2    0    0 -0.37770277534E+02 -0.73833613236E+01  0.26278224570E+02  0.46600997585E+02  0.00000000000E+00 0.  1.
<mgrwt>
<rscale>  0 0.24243176E+03</rscale>
<asrwt>0</asrwt>
<pdfrwt beam="1">  1        2 0.75826660E-01 0.24243176E+03</pdfrwt>
<pdfrwt beam="2">  1       -2 0.45863837E-02 0.24243176E+03</pdfrwt>
<totfact> 0.13936340E+04</totfact>
</mgrwt>
</event>
<event>
 6    1  0.6101889E-006  0.2502102E+03  0.7546771E-02  0.1115719E+00
          1   -1    0    0  501    0  0.00000000000E+00  0.00000000000E+00  0.16034363042E+03  0.16034363042E+03  0.00000000000E+00 0. -1.
         -1   -1    0    0    0  501 -0.00000000000E+00 -0.00000000000E+00 -0.39464591664E+03  0.39464591664E+03  0.00000000000E+00 0.  1.
          5    1    1    2  502    0 -0.89302544902E+02 -0.21448708476E+03 -0.43222507669E+02  0.23636820688E+03  0.47000000000E+01 0. -1.
         -5    1    1    2    0  502  0.11307728341E+02  0.12956231660E+02 -0.33441868598E+01  0.18138419027E+02  0.47000000000E+01 0.  1.
        -11    1    1    2    0    0  0.58603465066E+02  0.42586436394E+02 -0.77483622892E+02  0.10607394826E+03  0.00000000000E+00 0. -1.
         11    1    1    2    0    0  0.19391351495E+02  0.15894441671E+03 -0.11025196880E+03  0.19440897289E+03  0.00000000000E+00 0.  1.
<mgrwt>
<rscale>  0 0.24621748E+03</rscale>
<asrwt>0</asrwt>
<pdfrwt beam="1">  1        1 0.24668251E-01 0.25021024E+03</pdfrwt>
<pdfrwt beam="2">  1       -1 0.60714755E-01 0.25021024E+03</pdfrwt>
<totfact> 0.55447753E+02</totfact>
</mgrwt>
</event>
<event>
 6    1  0.6101889E-006  0.1322619E+03  0.7546771E-02  0.1236830E+00
         -1   -1    0    0    0  501 -0.00000000000E+00  0.00000000000E+00  0.28021409221E+02  0.28021409221E+02  0.00000000000E+00 0.  1.
          1   -1    0    0  501    0  0.00000000000E+00 -0.00000000000E+00 -0.52869059158E+03  0.52869059158E+03  0.00000000000E+00 0. -1.
          5    1    1    2  502    0  0.42016369190E+02  0.10483066003E+02 -0.89694211181E+02  0.99711641608E+02  0.47000000000E+01 0.  1.
         -5    1    1    2    0  502 -0.84235627918E+02 -0.19904361872E+02 -0.26669186619E+03  0.28042550905E+03  0.47000000000E+01 0.  1.
        -11    1    1    2    0    0  0.24287002688E+02  0.40749835364E+02 -0.28605142862E+02  0.55395503247E+02  0.00000000000E+00 0.  1.
         11    1    1    2    0    0  0.17932256040E+02 -0.31328539495E+02 -0.11567796213E+03  0.12117934691E+03  0.00000000000E+00 0. -1.
<mgrwt>
<rscale>  0 0.12388014E+03</rscale>
<asrwt>0</asrwt>
<pdfrwt beam="2">  1        1 0.81337013E-01 0.13226193E+03</pdfrwt>
<pdfrwt beam="1">  1       -1 0.43109861E-02 0.13226193E+03</pdfrwt>
<totfact> 0.87819013E+03</totfact>
</mgrwt>
</event>
<event>
 6    1  0.6101889E-006  0.1269428E+03  0.7546771E-02  0.1247864E+00
          3   -1    0    0  501    0  0.00000000000E+00  0.00000000000E+00  0.61197021716E+03  0.61197021716E+03  0.00000000000E+00 0. -1.
         -3   -1    0    0    0  501 -0.00000000000E+00 -0.00000000000E+00 -0.20765803926E+02  0.20765803926E+02  0.00000000000E+00 0.  1.
          5    1    1    2  502    0 -0.28254741270E+01  0.54010490831E+02  0.84360577731E+02  0.10031905850E+03  0.47000000000E+01 0. -1.
         -5    1    1    2    0  502 -0.15762015051E+02 -0.41940869074E+02  0.32969994528E+03  0.33276361210E+03  0.47000000000E+01 0. -1.
        -11    1    1    2    0    0  0.15505996050E+02 -0.48918482753E+02  0.12982903700E+03  0.13960312574E+03  0.00000000000E+00 0. -1.
         11    1    1    2    0    0  0.30814931287E+01  0.36848860995E+02  0.47314853224E+02  0.60050224747E+02  0.00000000000E+00 0.  1.
<mgrwt>
<rscale>  0 0.11715619E+03</rscale>
<asrwt>0</asrwt>
<pdfrwt beam="1">  1        3 0.94149251E-01 0.12694283E+03</pdfrwt>
<pdfrwt beam="2">  1       -3 0.31947395E-02 0.12694283E+03</pdfrwt>
<totfact> 0.10960187E+03</totfact>
</mgrwt>
</event>
<event>
 6    1  0.6101889E-006  0.2008808E+03  0.7546771E-02  0.1153113E+00
          2   -1    0    0  501    0  0.00000000000E+00  0.00000000000E+00  0.10609650663E+04  0.10609650663E+04  0.00000000000E+00 0. -1.
         -2   -1    0    0    0  501 -0.00000000000E+00 -0.00000000000E+00 -0.35400023732E+02  0.35400023732E+02  0.00000000000E+00 0.  1.
          5    1    1    2  502    0 -0.45788257472E+02 -0.14951712795E+03  0.60266258297E+03  0.62263650309E+03  0.47000000000E+01 0.  1.
         -5    1    1    2    0  502 -0.21641030908E+02  0.74558842298E+01  0.17343202021E+02  0.29099846817E+02  0.47000000000E+01 0.  1.
        -11    1    1    2    0    0  0.88235745710E+02  0.13108360341E+03  0.33855391649E+03  0.37361372067E+03  0.00000000000E+00 0.  1.
         11    1    1    2    0    0 -0.20806457330E+02  0.10977640304E+02  0.67005341086E+02  0.71015019449E+02  0.00000000000E+00 0. -1.
<mgrwt>
<rscale>  0 0.19605273E+03</rscale>
<asrwt>0</asrwt>
<pdfrwt beam="1">  1        2 0.16322537E+00 0.20088080E+03</pdfrwt>
<pdfrwt beam="2">  1       -2 0.54461583E-02 0.20088080E+03</pdfrwt>
<totfact> 0.41060823E+03</totfact>
</mgrwt>
</event>
<event>
 6    1  0.6101889E-006  0.1906443E+03  0.7546771E-02  0.1184783E+00
         -1   -1    0    0    0  501 -0.00000000000E+00  0.00000000000E+00  0.23058336434E+03  0.23058336434E+03  0.00000000000E+00 0.  1.
          1   -1    0    0  501    0  0.00000000000E+00 -0.00000000000E+00 -0.97027520936E+02  0.97027520936E+02  0.00000000000E+00 0. -1.
          5    1    1    2  502    0  0.68598891661E+02 -0.31707202186E+02  0.22003849791E+02  0.78850580297E+02  0.47000000000E+01 0. -1.
         -5    1    1    2    0  502 -0.84203883468E+02  0.78071549306E+02  0.34507410311E+02  0.11999296716E+03  0.47000000000E+01 0.  1.
        -11    1    1    2    0    0  0.12421434613E+02  0.10041765168E+02  0.70040773913E+02  0.71838980337E+02  0.00000000000E+00 0.  1.
         11    1    1    2    0    0  0.31835571941E+01 -0.56406112287E+02  0.70038093934E+01  0.56928357483E+02  0.00000000000E+00 0. -1.
<mgrwt>
<rscale>  0 0.16351659E+03</rscale>
<asrwt>0</asrwt>
<pdfrwt beam="2">  1        1 0.14927311E-01 0.19064426E+03</pdfrwt>
<pdfrwt beam="1">  1       -1 0.35474364E-01 0.19064426E+03</pdfrwt>
<totfact> 0.28123926E+03</totfact>
</mgrwt>
</event>
<event>
 6    1  0.6101889E-006  0.1433760E+03  0.7546771E-02  0.1219252E+00
         -3   -1    0    0    0  501 -0.00000000000E+00  0.00000000000E+00  0.85211972474E+03  0.85211972474E+03  0.00000000000E+00 0.  1.
          3   -1    0    0  501    0  0.00000000000E+00 -0.00000000000E+00 -0.20256099590E+02  0.20256099590E+02  0.00000000000E+00 0. -1.
          5    1    1    2  502    0  0.53183773939E+02  0.85814342773E+02  0.30064145158E+03  0.31717501107E+03  0.47000000000E+01 0. -1.
         -5    1    1    2    0  502 -0.23265614457E+02 -0.22281324717E+02  0.23823171587E+03  0.24044580823E+03  0.47000000000E+01 0. -1.
        -11    1    1    2    0    0 -0.16977623895E+02 -0.46196078701E+01  0.21501056971E+01  0.17725784736E+02  0.00000000000E+00 0. -1.
         11    1    1    2    0    0 -0.12940535587E+02 -0.58913410186E+02  0.29084035199E+03  0.29702922029E+03  0.00000000000E+00 0.  1.
<mgrwt>
<rscale>  0 0.13568797E+03</rscale>
<asrwt>0</asrwt>
<pdfrwt beam="2">  1        3 0.31163237E-02 0.14337604E+03</pdfrwt>
<pdfrwt beam="1">  1       -3 0.13109531E+00 0.14337604E+03</pdfrwt>
<totfact> 0.53710453E+02</totfact>
</mgrwt>
</event>
<event>
 6    1  0.6101889E-006  0.1625701E+03  0.7546771E-02  0.1193201E+00
          3   -1    0    0  501    0  0.00000000000E+00  0.00000000000E+00  0.60554900391E+02  0.60554900391E+02  0.00000000000E+00 0. -1.
         -3   -1    0    0    0  501 -0.00000000000E+00 -0.00000000000E+00 -0.42839624648E+03  0.42839624648E+03  0.00000000000E+00 0.  1.
          5    1    1    2  502    0 -0.65897379395E+01 -0.43556725209E+02 -0.15567309919E+02  0.46957897048E+02  0.47000000000E+01 0.  1.
         -5    1    1    2    0  502  0.11018485690E+03  0.35073238686E+02 -0.93921532469E+02  0.14904421835E+03  0.47000000000E+01 0.  1.
        -11    1    1    2    0    0 -0.10197740576E+03  0.28703979811E+02 -0.15577912335E+03  0.18838907881E+03  0.00000000000E+00 0. -1.
         11    1    1    2    0    0 -0.16177132047E+01 -0.20220493287E+02 -0.10257338035E+03  0.10455995267E+03  0.00000000000E+00 0.  1.
<mgrwt>
<rscale>  0 0.15607492E+03</rscale>
<asrwt>0</asrwt>
<pdfrwt beam="1">  1        3 0.93161381E-02 0.16257005E+03</pdfrwt>
<pdfrwt beam="2">  1       -3 0.65907118E-01 0.16257005E+03</pdfrwt>
<totfact> 0.44657768E+02</totfact>
</mgrwt>
</event>
<event>
 6    1  0.6101889E-006  0.2964086E+03  0.7546771E-02  0.1088717E+00
          1   -1    0    0  501    0  0.00000000000E+00  0.00000000000E+00  0.24115826546E+03  0.24115826546E+03  0.00000000000E+00 0. -1.
         -1   -1    0    0    0  501 -0.00000000000E+00 -0.00000000000E+00 -0.34892962850E+03  0.34892962850E+03  0.00000000000E+00 0.  1.
          5    1    1    2  502    0  0.12022975176E+03  0.39581935652E+02 -0.26459082841E+02  0.12939897953E+03  0.47000000000E+01 0. -1.
         -5    1    1    2    0  502  0.62541537328E+02  0.15747434064E+03 -0.21439454177E+02  0.17085476887E+03  0.47000000000E+01 0. -1.
        -11    1    1    2    0    0  0.82960819738E+01 -0.22575957221E+02  0.81267310684E+00  0.24065727875E+02  0.00000000000E+00 0. -1.
         11    1    1    2    0    0 -0.19106737107E+03 -0.17448031907E+03 -0.60685499132E+02  0.26576841768E+03  0.00000000000E+00 0.  1.
<mgrwt>
<rscale>  0 0.29314869E+03</rscale>
<asrwt>0</asrwt>
<pdfrwt beam="1">  1        1 0.37101272E-01 0.29640858E+03</pdfrwt>
<pdfrwt beam="2">  1       -1 0.53681481E-01 0.29640858E+03</pdfrwt>
<totfact> 0.41732519E+02</totfact>
</mgrwt>
</event>
<event>
 6    1  0.6101889E-006  0.1414076E+03  0.7546771E-02  0.1222258E+00
          1   -1    0    0  501    0  0.00000000000E+00  0.00000000000E+00  0.94889476604E+02  0.94889476604E+02  0.00000000000E+00 0. -1.
         -1   -1    0    0    0  501 -0.00000000000E+00 -0.00000000000E+00 -0.29185239177E+03  0.29185239177E+03  0.00000000000E+00 0.  1.
          5    1    1    2  502    0 -0.17358843735E+02  0.62394686462E+02  0.16878228394E+01  0.64956640157E+02  0.47000000000E+01 0.  1.
         -5    1    1    2    0  502  0.71505609668E+02 -0.24463685360E+02  0.17830467231E+02  0.77791642720E+02  0.47000000000E+01 0.  1.
        -11    1    1    2    0    0 -0.23590108163E+02 -0.35455216904E+02 -0.20781766991E+03  0.21213615801E+03  0.00000000000E+00 0.  1.
         11    1    1    2    0    0 -0.30556657770E+02 -0.24757841984E+01 -0.86635353226E+01  0.31857427482E+02  0.00000000000E+00 0. -1.
<mgrwt>
<rscale>  0 0.13356612E+03</rscale>
<asrwt>0</asrwt>
<pdfrwt beam="1">  1        1 0.14598381E-01 0.14140760E+03</pdfrwt>
<pdfrwt beam="2">  1       -1 0.44900367E-01 0.14140760E+03</pdfrwt>
<totfact> 0.18888774E+03</totfact>
</mgrwt>
</event>
<event>
 6    1  0.6101889E-006  0.2655379E+03  0.7546771E-02  0.1107312E+00
          2   -1    0    0  501    0  0.00000000000E+00  0.00000000000E+00  0.61827750225E+02  0.61827750225E+02  0.00000000000E+00 0. -1.
         -2   -1    0    0    0  501 -0.00000000000E+00 -0.00000000000E+00 -0.11463024776E+04  0.11463024776E+04  0.00000000000E+00 0.  1.
          5    1    1    2  502    0  0.19833256988E+03 -0.48133653174E+02 -0.37579043938E+03  0.42766014681E+03  0.47000000000E+01 0.  1.
         -5    1    1    2    0  502  0.21694908473E+02 -0.32315452843E+02 -0.96180952431E+01  0.40367750769E+02  0.47000000000E+01 0.  1.
        -11    1    1    2    0    0 -0.10255593558E+03  0.20429224523E+02 -0.39593151562E+03  0.40950804412E+03  0.00000000000E+00 0.  1.
         11    1    1    2    0    0 -0.11747154277E+03  0.60019881493E+02 -0.30313467708E+03  0.33059428607E+03  0.00000000000E+00 0. -1.
<mgrwt>
<rscale>  0 0.25971955E+03</rscale>
<asrwt>0</asrwt>
<pdfrwt beam="1">  1        2 0.95119618E-02 0.26553790E+03</pdfrwt>
<pdfrwt beam="2">  1       -2 0.17635422E+00 0.26553790E+03</pdfrwt>
<totfact> 0.14057051E+02</totfact>
</mgrwt>
</event>
<event>
 6    1  0.6101889E-006  0.3473355E+03  0.7546771E-02  0.1063714E+00
          2   -1    0    0  501    0  0.00000000000E+00  0.00000000000E+00  0.48353936386E+03  0.48353936386E+03  0.00000000000E+00 0. -1.
         -2   -1    0    0    0  501 -0.00000000000E+00 -0.00000000000E+00 -0.62374430011E+02  0.62374430011E+02  0.00000000000E+00 0.  1.
          5    1    1    2  502    0 -0.92482480854E+01 -0.16938681172E+02 -0.96922573279E+01  0.22101557968E+02  0.47000000000E+01 0.  1.
         -5    1    1    2    0  502 -0.32880831685E+02 -0.10573488703E+03  0.29702562279E+03  0.31702890408E+03  0.47000000000E+01 0.  1.
        -11    1    1    2    0    0 -0.61287273267E+00  0.75270762472E+02  0.11971563536E+03  0.14141391956E+03  0.00000000000E+00 0. -1.
         11    1    1    2    0    0  0.42741952504E+02  0.47402805726E+02  0.14115933027E+02  0.65369412264E+02  0.00000000000E+00 0.  1.
<mgrwt>
<rscale>  0 0.34733553E+03</rscale>
<asrwt>0</asrwt>
<pdfrwt beam="1">  1        2 0.74390669E-01 0.34733553E+03</pdfrwt>
<pdfrwt beam="2">  1       -2 0.95960665E-02 0.34733553E+03</pdfrwt>
<totfact> 0.45983506E+03</totfact>
</mgrwt>
</event>
<event>
 6    1  0.6101889E-006  0.1260245E+03  0.7546771E-02  0.1249027E+00
          3   -1    0    0  501    0  0.00000000000E+00  0.00000000000E+00  0.11407727373E+03  0.11407727373E+03  0.00000000000E+00 0. -1.
         -3   -1    0    0    0  501 -0.00000000000E+00 -0.00000000000E+00 -0.10786097269E+03  0.10786097269E+03  0.00000000000E+00 0.  1.
          5    1    1    2  502    0 -0.17794665365E+02  0.30916322760E+02 -0.40847123975E+02  0.54433874247E+02  0.47000000000E+01 0.  1.
         -5    1    1    2    0  502  0.22802290660E+01 -0.34998113370E+02  0.64821020018E+02  0.73850673797E+02  0.47000000000E+01 0.  1.
        -11    1    1    2    0    0  0.24548499252E+02 -0.39260011780E+02 -0.17147298928E+02  0.49376180502E+02  0.00000000000E+00 0. -1.
         11    1    1    2    0    0 -0.90340629524E+01  0.43341802389E+02 -0.61029607795E+00  0.44277517874E+02  0.00000000000E+00 0.  1.
<mgrwt>
<rscale>  0 0.11647557E+03</rscale>
<asrwt>0</asrwt>
<pdfrwt beam="1">  1        3 0.17550350E-01 0.12602451E+03</pdfrwt>
<pdfrwt beam="2">  1       -3 0.16593996E-01 0.12602451E+03</pdfrwt>
<totfact> 0.19919223E+03</totfact>
</mgrwt>
</event>
<event>
 6    1  0.6101889E-006  0.4144227E+03  0.7546771E-02  0.1038897E+00
         -1   -1    0    0    0  501 -0.00000000000E+00  0.00000000000E+00  0.39947621010E+02  0.39947621010E+02  0.00000000000E+00 0.  1.
          1   -1    0    0  501    0  0.00000000000E+00 -0.00000000000E+00 -0.10748209806E+04  0.10748209806E+04  0.00000000000E+00 0. -1.
          5    1    1    2  502    0  0.18187850536E+03  0.14025870506E+02 -0.67182612355E+03  0.69616732618E+03  0.47000000000E+01 0. -1.
         -5    1    1    2    0  502 -0.20077134398E+02  0.76806888763E+00 -0.47236335679E+02  0.51546509716E+02  0.47000000000E+01 0. -1.
        -11    1    1    2    0    0 -0.10829633727E+03  0.34868812619E+02 -0.18228578922E+03  0.21487680124E+03  0.00000000000E+00 0.  1.
         11    1    1    2    0    0 -0.53505033687E+02 -0.49662752012E+02 -0.13352511116E+03  0.15217796450E+03  0.00000000000E+00 0. -1.
<mgrwt>
<rscale>  0 0.41442269E+03</rscale>
<asrwt>0</asrwt>
<pdfrwt beam="2">  1        1 0.16535703E+00 0.41442269E+03</pdfrwt>
<pdfrwt beam="1">  1       -1 0.61457895E-02 0.41442269E+03</pdfrwt>
<totfact> 0.18128666E+03</totfact>
</mgrwt>
</event>
<event>
 6    1  0.6101889E-006  0.1346101E+03  0.7546771E-02  0.1237341E+00
          1   -1    0    0  501    0  0.00000000000E+00  0.00000000000E+00  0.86745717037E+03  0.86745717037E+03  0.00000000000E+00 0. -1.
         -1   -1    0    0    0  501 -0.00000000000E+00 -0.00000000000E+00 -0.15793481336E+02  0.15793481336E+02  0.00000000000E+00 0.  1.
          5    1    1    2  502    0  0.43689494848E+02 -0.36821968789E+02  0.55163117410E+03  0.55460226431E+03  0.47000000000E+01 0.  1.
         -5    1    1    2    0  502  0.51732371829E+01  0.26469819882E+02  0.23525172764E+02  0.36096225580E+02  0.47000000000E+01 0.  1.
        -11    1    1    2    0    0 -0.68094473691E+02 -0.39376118844E+01  0.16580185643E+03  0.17928362371E+03  0.00000000000E+00 0.  1.
         11    1    1    2    0    0  0.19231741660E+02  0.14289760792E+02  0.11070548575E+03  0.11326853811E+03  0.00000000000E+00 0. -1.
<mgrwt>
<rscale>  0 0.12355770E+03</rscale>
<asrwt>0</asrwt>
<pdfrwt beam="1">  1        1 0.13345491E+00 0.13461011E+03</pdfrwt>
<pdfrwt beam="2">  1       -1 0.24297670E-02 0.13461011E+03</pdfrwt>
<totfact> 0.10038272E+04</totfact>
</mgrwt>
</event>
<event>
 6    1  0.6101889E-006  0.3294188E+03  0.7546771E-02  0.1071394E+00
          1   -1    0    0  501    0  0.00000000000E+00  0.00000000000E+00  0.41209447649E+03  0.41209447649E+03  0.00000000000E+00 0. -1.
         -1   -1    0    0    0  501 -0.00000000000E+00 -0.00000000000E+00 -0.65832453434E+02  0.65832453434E+02  0.00000000000E+00 0.  1.
          5    1    1    2  502    0 -0.27808243203E+02 -0.88707235378E+00  0.11676079156E+03  0.12012184536E+03  0.47000000000E+01 0. -1.
         -5    1    1    2    0  502  0.73399901087E+02 -0.98453653540E+02  0.14768356233E+03  0.19212806135E+03  0.47000000000E+01 0. -1.
        -11    1    1    2    0    0  0.37070025800E+00  0.77358388718E+02  0.84619673429E+02  0.11465141454E+03  0.00000000000E+00 0. -1.
         11    1    1    2    0    0 -0.45962358142E+02  0.21982337176E+02 -0.28020042562E+01  0.51025608684E+02  0.00000000000E+00 0.  1.
<mgrwt>
<rscale>  0 0.32941882E+03</rscale>
<asrwt>0</asrwt>
<pdfrwt beam="1">  1        1 0.63399148E-01 0.32941882E+03</pdfrwt>
<pdfrwt beam="2">  1       -1 0.10128070E-01 0.32941882E+03</pdfrwt>
<totfact> 0.34882133E+03</totfact>
</mgrwt>
</event>
<event>
 6    1  0.6101889E-006  0.1966600E+03  0.7546771E-02  0.1156874E+00
          2   -1    0    0  501    0  0.00000000000E+00  0.00000000000E+00  0.22802461769E+03  0.22802461769E+03  0.00000000000E+00 0. -1.
         -2   -1    0    0    0  501 -0.00000000000E+00 -0.00000000000E+00 -0.15476702716E+03  0.15476702716E+03  0.00000000000E+00 0.  1.
          5    1    1    2  502    0  0.83419361762E+02 -0.36645980585E+02  0.31944820365E+02  0.96665812767E+02  0.47000000000E+01 0. -1.
         -5    1    1    2    0  502 -0.22525198088E+02 -0.10242547391E+03  0.22001860597E+02  0.10725919133E+03  0.47000000000E+01 0. -1.
        -11    1    1    2    0    0 -0.80845672545E+02  0.76171554407E+02  0.41261472193E+01  0.11115373840E+03  0.00000000000E+00 0.  1.
         11    1    1    2    0    0  0.19951508871E+02  0.62899900091E+02  0.15184762344E+02  0.67712902353E+02  0.00000000000E+00 0. -1.
<mgrwt>
<rscale>  0 0.19177099E+03</rscale>
<asrwt>0</asrwt>
<pdfrwt beam="1">  1        2 0.35080711E-01 0.19666002E+03</pdfrwt>
<pdfrwt beam="2">  1       -2 0.23810312E-01 0.19666002E+03</pdfrwt>
<totfact> 0.22558295E+03</totfact>
</mgrwt>
</event>
<event>
 6    1  0.6101889E-006  0.1329503E+03  0.7546771E-02  0.1239479E+00
         -1   -1    0    0    0  501 -0.00000000000E+00  0.00000000000E+00  0.19270253688E+02  0.19270253688E+02  0.00000000000E+00 0.  1.
          1   -1    0    0  501    0  0.00000000000E+00 -0.00000000000E+00 -0.11942320279E+04  0.11942320279E+04  0.00000000000E+00 0. -1.
          5    1    1    2  502    0  0.19525638876E+02  0.33055269919E+02 -0.84568061838E+02  0.92993271401E+02  0.47000000000E+01 0.  1.
         -5    1    1    2    0  502  0.47465455603E+01  0.51625905466E+01 -0.95555934363E+03  0.95559663626E+03  0.47000000000E+01 0.  1.
        -11    1    1    2    0    0  0.19543535561E+02  0.10309044115E+02 -0.67644732818E+02  0.71162040800E+02  0.00000000000E+00 0.  1.
         11    1    1    2    0    0 -0.43815719997E+02 -0.48526904581E+02 -0.67189635957E+02  0.93750333157E+02  0.00000000000E+00 0. -1.
<mgrwt>
<rscale>  0 0.12222002E+03</rscale>
<asrwt>0</asrwt>
<pdfrwt beam="2">  1        1 0.18372808E+00 0.13295027E+03</pdfrwt>
<pdfrwt beam="1">  1       -1 0.29646531E-02 0.13295027E+03</pdfrwt>
<totfact> 0.43528392E+03</totfact>
</mgrwt>
</event>
<event>
 6    1  0.6101889E-006  0.1558556E+03  0.7546771E-02  0.1201683E+00
         -1   -1    0    0    0  501 -0.00000000000E+00  0.00000000000E+00  0.60663142499E+02  0.60663142499E+02  0.00000000000E+00 0.  1.
          1   -1    0    0  501    0  0.00000000000E+00 -0.00000000000E+00 -0.43749883876E+03  0.43749883876E+03  0.00000000000E+00 0. -1.
          5    1    1    2  502    0 -0.59350602504E+02  0.37484993179E+01 -0.14297042069E+03  0.15491667585E+03  0.47000000000E+01 0.  1.
         -5    1    1    2    0  502  0.27284415874E+02 -0.91129792269E+02 -0.17724263153E+03  0.20121162695E+03  0.47000000000E+01 0.  1.
        -11    1    1    2    0    0  0.81220142610E+01 -0.18765869970E+02 -0.28098211499E+01  0.20640254027E+02  0.00000000000E+00 0.  1.
         11    1    1    2    0    0  0.23944172369E+02  0.10614716292E+03 -0.53812822889E+02  0.12139342443E+03  0.00000000000E+00 0. -1.
<mgrwt>
<rscale>  0 0.14901976E+03</rscale>
<asrwt>0</asrwt>
<pdfrwt beam="2">  1        1 0.67307515E-01 0.15585560E+03</pdfrwt>
<pdfrwt beam="1">  1       -1 0.93327910E-02 0.15585560E+03</pdfrwt>
<totfact> 0.35670547E+03</totfact>
</mgrwt>
</event>
<event>
 6    1  0.6101889E-006  0.1576989E+03  0.7546771E-02  0.1196296E+00
         -2   -1    0    0    0  501 -0.00000000000E+00  0.00000000000E+00  0.11668193531E+03  0.11668193531E+03  0.00000000000E+00 0.  1.
          2   -1    0    0  501    0  0.00000000000E+00 -0.00000000000E+00 -0.20722725881E+03  0.20722725881E+03  0.00000000000E+00 0. -1.
          5    1    1    2  502    0  0.11597358897E+03  0.44026125293E+02 -0.67246715254E+02  0.14118209433E+03  0.47000000000E+01 0.  1.
         -5    1    1    2    0  502 -0.32622686104E+02  0.38670302395E+01 -0.24650433808E+02  0.41339175832E+02  0.47000000000E+01 0.  1.
        -11    1    1    2    0    0 -0.93222009624E+02 -0.64816194510E+02 -0.16682445200E+02  0.11475968860E+03  0.00000000000E+00 0.  1.
         11    1    1    2    0    0  0.98711067628E+01  0.16923038978E+02  0.18034270757E+02  0.26628235366E+02  0.00000000000E+00 0. -1.
<mgrwt>
<rscale>  0 0.15345093E+03</rscale>
<asrwt>0</asrwt>
<pdfrwt beam="2">  1        2 0.31881117E-01 0.15769885E+03</pdfrwt>
<pdfrwt beam="1">  1       -2 0.17951067E-01 0.15769885E+03</pdfrwt>
<totfact> 0.40168666E+03</totfact>
</mgrwt>
</event>
<event>
 6    1  0.6101889E-006  0.1747066E+03  0.7546771E-02  0.1179294E+00
          1   -1    0    0  501    0  0.00000000000E+00  0.00000000000E+00  0.23177703456E+03  0.23177703456E+03  0.00000000000E+00 0. -1.
         -1   -1    0    0    0  501 -0.00000000000E+00 -0.00000000000E+00 -0.14107593894E+03  0.14107593894E+03  0.00000000000E+00 0.  1.
          5    1    1    2  502    0  0.10683981609E+03  0.40959447951E+02  0.60706478065E+02  0.12961400062E+03  0.47000000000E+01 0. -1.
         -5    1    1    2    0  502 -0.24439272385E+02  0.49085396133E+02  0.67473121023E+02  0.87071041161E+02  0.47000000000E+01 0. -1.
        -11    1    1    2    0    0 -0.53309268746E+02 -0.84699717056E+02  0.96317239539E+01  0.10054198282E+03  0.00000000000E+00 0. -1.
         11    1    1    2    0    0 -0.29091274958E+02 -0.53451270287E+01 -0.47110227429E+02  0.55625948891E+02  0.00000000000E+00 0.  1.
<mgrwt>
<rscale>  0 0.16862023E+03</rscale>
<asrwt>0</asrwt>
<pdfrwt beam="1">  1        1 0.35658005E-01 0.17470660E+03</pdfrwt>
<pdfrwt beam="2">  1       -1 0.21703991E-01 0.17470660E+03</pdfrwt>
<totfact> 0.21088946E+03</totfact>
</mgrwt>
</event>
<event>
 6    1  0.6101889E-006  0.1596497E+03  0.7546771E-02  0.1197095E+00
         -2   -1    0    0    0  501 -0.00000000000E+00  0.00000000000E+00  0.87740863343E+02  0.87740863343E+02  0.00000000000E+00 0.  1.
          2   -1    0    0  501    0  0.00000000000E+00 -0.00000000000E+00 -0.24556998799E+03  0.24556998799E+03  0.00000000000E+00 0. -1.
          5    1    1    2  502    0 -0.48105384407E+02 -0.23616964884E+02 -0.41321123932E+02  0.67833725553E+02  0.47000000000E+01 0. -1.
         -5    1    1    2    0  502 -0.10965167988E+02  0.10346318406E+03 -0.42543736983E+02  0.11250299961E+03  0.47000000000E+01 0. -1.
        -11    1    1    2    0    0 -0.87554032969E+01 -0.52395781765E+02 -0.66257348305E+01  0.53533871481E+02  0.00000000000E+00 0.  1.
         11    1    1    2    0    0  0.67825955692E+02 -0.27450437405E+02 -0.67338528906E+02  0.99440254698E+02  0.00000000000E+00 0. -1.
<mgrwt>
<rscale>  0 0.15278288E+03</rscale>
<asrwt>0</asrwt>
<pdfrwt beam="2">  1        2 0.37779997E-01 0.15964968E+03</pdfrwt>
<pdfrwt beam="1">  1       -2 0.13498595E-01 0.15964968E+03</pdfrwt>
<totfact> 0.53540816E+03</totfact>
</mgrwt>
</event>
<event>
 6    1  0.6101889E-006  0.1296866E+03  0.7546771E-02  0.1241818E+00
         -2   -1    0    0    0  501 -0.00000000000E+00  0.00000000000E+00  0.14397860993E+02  0.14397860993E+02  0.00000000000E+00 0. -1.
          2   -1    0    0  501    0  0.00000000000E+00 -0.00000000000E+00 -0.92764714867E+03  0.92764714867E+03  0.00000000000E+00 0.  1.
          5    1    1    2  502    0  0.18873721929E+02 -0.60526883326E+01 -0.50957447298E+03  0.50998145645E+03  0.47000000000E+01 0.  1.
         -5    1    1    2    0  502 -0.51592408245E+02 -0.47719610898E+01 -0.94669765073E+02  0.10802315780E+03  0.47000000000E+01 0.  1.
        -11    1    1    2    0    0  0.49581420223E+02  0.46479581634E+01 -0.29971010505E+03  0.30381913669E+03  0.00000000000E+00 0.  1.
         11    1    1    2    0    0 -0.16862733907E+02  0.61766912590E+01 -0.92949445659E+01  0.20221258720E+02  0.00000000000E+00 0. -1.
<mgrwt>
<rscale>  0 0.12077854E+03</rscale>
<asrwt>0</asrwt>
<pdfrwt beam="2">  1        2 0.14271494E+00 0.12968656E+03</pdfrwt>
<pdfrwt beam="1">  1       -2 0.22150556E-02 0.12968656E+03</pdfrwt>
<totfact> 0.18413837E+04</totfact>
</mgrwt>
</event>
<event>
 6    1  0.6101889E-006  0.1335000E+03  0.7546771E-02  0.1234758E+00
         -2   -1    0    0    0  501 -0.00000000000E+00  0.00000000000E+00  0.58882481393E+02  0.58882481393E+02  0.00000000000E+00 0.  1.
          2   -1    0    0  501    0  0.00000000000E+00 -0.00000000000E+00 -0.29541492908E+03  0.29541492908E+03  0.00000000000E+00 0. -1.
          5    1    1    2  502    0 -0.17029995657E+02  0.34597230121E+02 -0.40566647076E+01  0.39058105595E+02  0.47000000000E+01 0.  1.
         -5    1    1    2    0  502 -0.29473854728E+02 -0.28649920101E+02 -0.20394984795E+03  0.20810371576E+03  0.47000000000E+01 0.  1.
        -11    1    1    2    0    0  0.62982829010E+02 -0.30472739990E+02 -0.32811674747E+02  0.77278914539E+02  0.00000000000E+00 0. -1.
         11    1    1    2    0    0 -0.16478978625E+02  0.24525429970E+02  0.42857397209E+01  0.29856674575E+02  0.00000000000E+00 0.  1.
<mgrwt>
<rscale>  0 0.12519950E+03</rscale>
<asrwt>0</asrwt>
<pdfrwt beam="2">  1        2 0.45448451E-01 0.13350002E+03</pdfrwt>
<pdfrwt beam="1">  1       -2 0.90588431E-02 0.13350002E+03</pdfrwt>
<totfact> 0.81931721E+03</totfact>
</mgrwt>
</event>
<event>
 6    1  0.6101889E-006  0.1406934E+03  0.7546771E-02  0.1224512E+00
         -2   -1    0    0    0  501 -0.00000000000E+00  0.00000000000E+00  0.20420738727E+03  0.20420738727E+03  0.00000000000E+00 0.  1.
          2   -1    0    0  501    0  0.00000000000E+00 -0.00000000000E+00 -0.14050750054E+03  0.14050750054E+03  0.00000000000E+00 0. -1.
          5    1    1    2  502    0  0.44746947534E+02 -0.22921884478E+02 -0.65648529286E+02  0.82822228291E+02  0.47000000000E+01 0. -1.
         -5    1    1    2    0  502 -0.10233675428E+02  0.77496124559E+02 -0.16270539164E+02  0.79982484827E+02  0.47000000000E+01 0. -1.
        -11    1    1    2    0    0  0.20542830797E+02 -0.49648400995E+02  0.73445916197E+02  0.91001506716E+02  0.00000000000E+00 0.  1.
         11    1    1    2    0    0 -0.55056102903E+02 -0.49258390855E+01  0.72173038984E+02  0.90908667979E+02  0.00000000000E+00 0. -1.
<mgrwt>
<rscale>  0 0.13200391E+03</rscale>
<asrwt>0</asrwt>
<pdfrwt beam="2">  1        2 0.21616538E-01 0.14069343E+03</pdfrwt>
<pdfrwt beam="1">  1       -2 0.31416521E-01 0.14069343E+03</pdfrwt>
<totfact> 0.23146331E+03</totfact>
</mgrwt>
</event>
<event>
 6    1  0.6101889E-006  0.1590827E+03  0.7546771E-02  0.1197514E+00
         -1   -1    0    0    0  501 -0.00000000000E+00  0.00000000000E+00  0.13275057448E+03  0.13275057448E+03  0.00000000000E+00 0.  1.
          1   -1    0    0  501    0  0.00000000000E+00 -0.00000000000E+00 -0.29953063138E+03  0.29953063138E+03  0.00000000000E+00 0. -1.
          5    1    1    2  502    0 -0.12575796682E+02 -0.29181069761E+02 -0.49583490280E+01  0.32501703335E+02  0.47000000000E+01 0.  1.
         -5    1    1    2    0  502 -0.80297676170E+02  0.61808781749E+02 -0.22850415777E+03  0.25000856469E+03  0.47000000000E+01 0.  1.
        -11    1    1    2    0    0  0.78432224225E+02 -0.45993257839E+02  0.83829887371E+02  0.12367070623E+03  0.00000000000E+00 0.  1.
         11    1    1    2    0    0  0.14441248627E+02  0.13365545851E+02 -0.17147437470E+02  0.26100231600E+02  0.00000000000E+00 0. -1.
<mgrwt>
<rscale>  0 0.15243349E+03</rscale>
<asrwt>0</asrwt>
<pdfrwt beam="2">  1        1 0.46081635E-01 0.15908271E+03</pdfrwt>
<pdfrwt beam="1">  1       -1 0.20423166E-01 0.15908271E+03</pdfrwt>
<totfact> 0.16870598E+03</totfact>
</mgrwt>
</event>
<event>
 6    1  0.6101889E-006  0.1435580E+03  0.7546771E-02  0.1219341E+00
         -2   -1    0    0    0  501 -0.00000000000E+00  0.00000000000E+00  0.92096249768E+02  0.92096249768E+02  0.00000000000E+00 0.  1.
          2   -1    0    0  501    0  0.00000000000E+00 -0.00000000000E+00 -0.19646349453E+03  0.19646349453E+03  0.00000000000E+00 0. -1.
          5    1    1    2  502    0  0.38347286876E+02  0.32534465568E+02 -0.17499917403E+02  0.53454120231E+02  0.47000000000E+01 0. -1.
         -5    1    1    2    0  502 -0.87429272406E+02  0.18196853282E+02 -0.80904413614E+02  0.12059277460E+03  0.47000000000E+01 0. -1.
        -11    1    1    2    0    0  0.14691211062E+02 -0.34035337474E+02 -0.46051363412E+02  0.59118220132E+02  0.00000000000E+00 0. -1.
         11    1    1    2    0    0  0.34390774468E+02 -0.16695981376E+02  0.40088449668E+02  0.55394629337E+02  0.00000000000E+00 0.  1.
<mgrwt>
<rscale>  0 0.13562407E+03</rscale>
<asrwt>0</asrwt>
<pdfrwt beam="2">  1        2 0.30225153E-01 0.14355803E+03</pdfrwt>
<pdfrwt beam="1">  1       -2 0.14168654E-01 0.14355803E+03</pdfrwt>
<totfact> 0.62525547E+03</totfact>
</mgrwt>
</event>
<event>
 6    1  0.6101889E-006  0.1283056E+03  0.7546771E-02  0.1244779E+00
          2   -1    0    0  501    0  0.00000000000E+00  0.00000000000E+00  0.18534915838E+02  0.18534915838E+02  0.00000000000E+00 0. -1.
         -2   -1    0    0    0  501 -0.00000000000E+00 -0.00000000000E+00 -0.70552231509E+03  0.70552231509E+03  0.00000000000E+00 0.  1.
          5    1    1    2  502    0  0.19771223683E+02  0.46986266205E+02 -0.69361691524E+02  0.86207567816E+02  0.47000000000E+01 0.  1.
         -5    1    1    2    0  502  0.35645230625E+01 -0.64158748639E+02 -0.24499182872E+03  0.25332219996E+03  0.47000000000E+01 0.  1.
        -11    1    1    2    0    0 -0.46057875674E+02  0.38599615329E+02 -0.29062392156E+03  0.29677183491E+03  0.00000000000E+00 0.  1.
         11    1    1    2    0    0  0.22722128928E+02 -0.21427132895E+02 -0.82009957452E+02  0.87755628244E+02  0.00000000000E+00 0. -1.
<mgrwt>
<rscale>  0 0.11898627E+03</rscale>
<asrwt>0</asrwt>
<pdfrwt beam="1">  1        2 0.28515258E-02 0.12830560E+03</pdfrwt>
<pdfrwt beam="2">  1       -2 0.10854188E+00 0.12830560E+03</pdfrwt>
<totfact> 0.22614957E+03</totfact>
</mgrwt>
</event>
<event>
 6    1  0.6101889E-006  0.1860537E+03  0.7546771E-02  0.1169960E+00
         -2   -1    0    0    0  501 -0.00000000000E+00  0.00000000000E+00  0.24198551798E+03  0.24198551798E+03  0.00000000000E+00 0.  1.
          2   -1    0    0  501    0  0.00000000000E+00 -0.00000000000E+00 -0.12070346652E+03  0.12070346652E+03  0.00000000000E+00 0. -1.
          5    1    1    2  502    0  0.65059389725E+02 -0.93784280029E+02 -0.10756909628E+01  0.11424299752E+03  0.47000000000E+01 0. -1.
         -5    1    1    2    0  502  0.52199214729E+02  0.21373316305E+02  0.56300473569E+02  0.79833639478E+02  0.47000000000E+01 0. -1.
        -11    1    1    2    0    0 -0.10314466927E+03  0.77185545804E+02  0.33964026917E+02  0.13322907492E+03  0.00000000000E+00 0. -1.
         11    1    1    2    0    0 -0.14113935185E+02 -0.47745820795E+01  0.32093241936E+02  0.35383272579E+02  0.00000000000E+00 0.  1.
<mgrwt>
<rscale>  0 0.17778922E+03</rscale>
<asrwt>0</asrwt>
<pdfrwt beam="2">  1        2 0.18569764E-01 0.18605366E+03</pdfrwt>
<pdfrwt beam="1">  1       -2 0.37228541E-01 0.18605366E+03</pdfrwt>
<totfact> 0.20349716E+03</totfact>
</mgrwt>
</event>
<event>
 6    1  0.6101889E-006  0.1375237E+03  0.7546771E-02  0.1229040E+00
          2   -1    0    0  501    0  0.00000000000E+00  0.00000000000E+00  0.99444127549E+02  0.99444127549E+02  0.00000000000E+00 0. -1.
         -2   -1    0    0    0  501 -0.00000000000E+00 -0.00000000000E+00 -0.15374956200E+03  0.15374956200E+03  0.00000000000E+00 0.  1.
          5    1    1    2  502    0  0.55908915145E+01  0.47270961762E+02  0.23419064438E+02  0.53257341963E+02  0.47000000000E+01 0.  1.
         -5    1    1    2    0  502  0.48357350823E+02 -0.27846070316E+02 -0.75047821389E+02  0.93638146639E+02  0.47000000000E+01 0.  1.
        -11    1    1    2    0    0  0.33652791113E+01 -0.42816869443E+02  0.73949015601E+01  0.43580890095E+02  0.00000000000E+00 0. -1.
         11    1    1    2    0    0 -0.57313521449E+02  0.23391977997E+02 -0.10071579059E+02  0.62717310850E+02  0.00000000000E+00 0.  1.
<mgrwt>
<rscale>  0 0.12893775E+03</rscale>
<asrwt>0</asrwt>
<pdfrwt beam="1">  1        2 0.15299097E-01 0.13752366E+03</pdfrwt>
<pdfrwt beam="2">  1       -2 0.23653779E-01 0.13752366E+03</pdfrwt>
<totfact> 0.56772642E+03</totfact>
</mgrwt>
</event>
<event>
 6    1  0.6101889E-006  0.1466439E+03  0.7546771E-02  0.1209296E+00
         -2   -1    0    0    0  501 -0.00000000000E+00  0.00000000000E+00  0.19127775516E+02  0.19127775516E+02  0.00000000000E+00 0.  1.
          2   -1    0    0  501    0  0.00000000000E+00 -0.00000000000E+00 -0.10210752212E+04  0.10210752212E+04  0.00000000000E+00 0. -1.
          5    1    1    2  502    0  0.78921909086E+02 -0.74940932595E+02 -0.42240360731E+03  0.43622437871E+03  0.47000000000E+01 0. -1.
         -5    1    1    2    0  502 -0.36468111865E+02 -0.56148681893E+01 -0.11810130373E+03  0.12382026437E+03  0.47000000000E+01 0.  1.
        -11    1    1    2    0    0 -0.24274742347E+02 -0.16915671831E+02 -0.63583600048E+02  0.70130430375E+02  0.00000000000E+00 0. -1.
         11    1    1    2    0    0 -0.18179054873E+02  0.97471472615E+02 -0.39785893459E+03  0.41002792325E+03  0.00000000000E+00 0.  1.
<mgrwt>
<rscale>  0 0.14304001E+03</rscale>
<asrwt>0</asrwt>
<pdfrwt beam="2">  1        2 0.15708851E+00 0.14664393E+03</pdfrwt>
<pdfrwt beam="1">  1       -2 0.29427345E-02 0.14664393E+03</pdfrwt>
<totfact> 0.10753054E+04</totfact>
</mgrwt>
</event>
<event>
 6    1  0.6101889E-006  0.2080937E+03  0.7546771E-02  0.1163747E+00
         -2   -1    0    0    0  501 -0.00000000000E+00  0.00000000000E+00  0.33594880506E+03  0.33594880506E+03  0.00000000000E+00 0.  1.
          2   -1    0    0  501    0  0.00000000000E+00 -0.00000000000E+00 -0.10047293558E+03  0.10047293558E+03  0.00000000000E+00 0. -1.
          5    1    1    2  502    0 -0.78343797105E+02 -0.89697824409E+02 -0.26847285810E+02  0.12217330725E+03  0.47000000000E+01 0. -1.
         -5    1    1    2    0  502  0.42618061701E+02 -0.10893639343E+02  0.81892552424E+02  0.93077659531E+02  0.47000000000E+01 0.  1.
        -11    1    1    2    0    0 -0.16749683996E+02  0.12300647272E+02  0.56567681823E+02  0.60264089341E+02  0.00000000000E+00 0. -1.
         11    1    1    2    0    0  0.52475419401E+02  0.88290816481E+02  0.12386292104E+03  0.16090668453E+03  0.00000000000E+00 0.  1.
<mgrwt>
<rscale>  0 0.18425594E+03</rscale>
<asrwt>0</asrwt>
<pdfrwt beam="2">  1        2 0.15457375E-01 0.20809372E+03</pdfrwt>
<pdfrwt beam="1">  1       -2 0.51684431E-01 0.20809372E+03</pdfrwt>
<totfact> 0.13384068E+03</totfact>
</mgrwt>
</event>
<event>
 6    1  0.6101889E-006  0.1288715E+03  0.7546771E-02  0.1241840E+00
         -2   -1    0    0    0  501 -0.00000000000E+00  0.00000000000E+00  0.85206190063E+02  0.85206190063E+02  0.00000000000E+00 0.  1.
          2   -1    0    0  501    0  0.00000000000E+00 -0.00000000000E+00 -0.17874531953E+03  0.17874531953E+03  0.00000000000E+00 0. -1.
          5    1    1    2  502    0  0.44255842413E+02  0.26768879688E+02 -0.10290384525E+03  0.11526683771E+03  0.47000000000E+01 0. -1.
         -5    1    1    2    0  502 -0.48535168446E+02  0.42892974204E+01  0.11023191389E+01  0.48962901833E+02  0.47000000000E+01 0. -1.
        -11    1    1    2    0    0  0.91080421707E+01 -0.47630780804E+02 -0.30501194017E+02  0.57288485306E+02  0.00000000000E+00 0. -1.
         11    1    1    2    0    0 -0.48287161375E+01  0.16572603695E+02  0.38763590666E+02  0.42433284743E+02  0.00000000000E+00 0.  1.
<mgrwt>
<rscale>  0 0.12076501E+03</rscale>
<asrwt>0</asrwt>
<pdfrwt beam="2">  1        2 0.27499280E-01 0.12887147E+03</pdfrwt>
<pdfrwt beam="1">  1       -2 0.13108645E-01 0.12887147E+03</pdfrwt>
<totfact> 0.77993556E+03</totfact>
</mgrwt>
</event>
<event>
 6    1  0.6101889E-006  0.1324281E+03  0.7546771E-02  0.1237137E+00
         -3   -1    0    0    0  501 -0.00000000000E+00  0.00000000000E+00  0.37516505710E+02  0.37516505710E+02  0.00000000000E+00 0.  1.
          3   -1    0    0  501    0  0.00000000000E+00 -0.00000000000E+00 -0.66961894636E+03  0.66961894636E+03  0.00000000000E+00 0. -1.
          5    1    1    2  502    0 -0.40665648876E+02  0.54889513787E+02 -0.48534740565E+03  0.49015380025E+03  0.47000000000E+01 0. -1.
         -5    1    1    2    0  502  0.42817478781E+02 -0.11223757886E+02 -0.92216080023E+02  0.10239728827E+03  0.47000000000E+01 0. -1.
        -11    1    1    2    0    0 -0.27219921184E+02  0.21358708267E+01 -0.56053206187E+02  0.62349402381E+02  0.00000000000E+00 0. -1.
         11    1    1    2    0    0  0.25068091279E+02 -0.45801626728E+02  0.15142512189E+01  0.52234961166E+02  0.00000000000E+00 0.  1.
<mgrwt>
<rscale>  0 0.12368602E+03</rscale>
<asrwt>0</asrwt>
<pdfrwt beam="2">  1        3 0.10301830E+00 0.13242814E+03</pdfrwt>
<pdfrwt beam="1">  1       -3 0.57717701E-02 0.13242814E+03</pdfrwt>
<totfact> 0.35592118E+02</totfact>
</mgrwt>
</event>
<event>
 6    1  0.6101889E-006  0.4481536E+03  0.7546771E-02  0.1028274E+00
         -1   -1    0    0    0  501 -0.00000000000E+00  0.00000000000E+00  0.18891839130E+03  0.18891839130E+03  0.00000000000E+00 0.  1.
          1   -1    0    0  501    0  0.00000000000E+00 -0.00000000000E+00 -0.26577832197E+03  0.26577832197E+03  0.00000000000E+00 0. -1.
          5    1    1    2  502    0 -0.25325672176E+02  0.59038386383E+01 -0.16380517492E+02  0.31091097362E+02  0.47000000000E+01 0.  1.
         -5    1    1    2    0  502  0.14657050976E+03  0.85340948910E+02 -0.14946086535E+03  0.22611199031E+03  0.47000000000E+01 0.  1.
        -11    1    1    2    0    0 -0.24216110579E+02 -0.63695540004E+02  0.89356293673E+01  0.68726903758E+02  0.00000000000E+00 0. -1.
         11    1    1    2    0    0 -0.97028727008E+02 -0.27549247544E+02  0.80045822800E+02  0.12876672184E+03  0.00000000000E+00 0.  1.
<mgrwt>
<rscale>  0 0.44815360E+03</rscale>
<asrwt>0</asrwt>
<pdfrwt beam="2">  1        1 0.40888973E-01 0.44815360E+03</pdfrwt>
<pdfrwt beam="1">  1       -1 0.29064368E-01 0.44815360E+03</pdfrwt>
<totfact> 0.11072012E+03</totfact>
</mgrwt>
</event>
<event>
 6    1  0.6101889E-006  0.1445027E+03  0.7546771E-02  0.1218409E+00
          1   -1    0    0  501    0  0.00000000000E+00  0.00000000000E+00  0.36931356402E+03  0.36931356402E+03  0.00000000000E+00 0. -1.
         -1   -1    0    0    0  501 -0.00000000000E+00 -0.00000000000E+00 -0.47739703934E+02  0.47739703934E+02  0.00000000000E+00 0.  1.
          5    1    1    2  502    0  0.80643244182E+02  0.49498848268E+02  0.10901644931E+03  0.14443041588E+03  0.47000000000E+01 0.  1.
         -5    1    1    2    0  502 -0.88113642696E+01 -0.39680607850E+02  0.11584569570E+03  0.12285970044E+03  0.47000000000E+01 0.  1.
        -11    1    1    2    0    0 -0.90285299258E+02  0.17147547806E+01  0.64832276100E+02  0.11116474113E+03  0.00000000000E+00 0. -1.
         11    1    1    2    0    0  0.18453419345E+02 -0.11532995199E+02  0.31879438974E+02  0.38598410499E+02  0.00000000000E+00 0.  1.
<mgrwt>
<rscale>  0 0.13629051E+03</rscale>
<asrwt>0</asrwt>
<pdfrwt beam="1">  1        1 0.56817469E-01 0.14450267E+03</pdfrwt>
<pdfrwt beam="2">  1       -1 0.73445701E-02 0.14450267E+03</pdfrwt>
<totfact> 0.63303365E+03</totfact>
</mgrwt>
</event>
<event>
 6    1  0.6101889E-006  0.2981825E+03  0.7546771E-02  0.1087541E+00
          4   -1    0    0  501    0  0.00000000000E+00  0.00000000000E+00  0.29914754100E+03  0.29914754100E+03  0.00000000000E+00 0.  1.
         -4   -1    0    0    0  501 -0.00000000000E+00 -0.00000000000E+00 -0.31630548103E+03  0.31630548103E+03  0.00000000000E+00 0. -1.
          5    1    1    2  502    0 -0.14797111885E+03  0.12851452541E+03  0.26685033541E+00  0.19604488381E+03  0.47000000000E+01 0. -1.
         -5    1    1    2    0  502 -0.46927838067E+02  0.59373743538E+02  0.85389157133E+02  0.11419659173E+03  0.47000000000E+01 0. -1.
        -11    1    1    2    0    0  0.18634247077E+03 -0.14447587699E+03 -0.59255498359E+02  0.24312138847E+03  0.00000000000E+00 0.  1.
         11    1    1    2    0    0  0.85564861513E+01 -0.43412391967E+02 -0.43558449144E+02  0.62090158024E+02  0.00000000000E+00 0. -1.
<mgrwt>
<rscale>  0 0.29544268E+03</rscale>
<asrwt>0</asrwt>
<pdfrwt beam="1">  1        4 0.46022699E-01 0.29818253E+03</pdfrwt>
<pdfrwt beam="2">  1       -4 0.48662382E-01 0.29818253E+03</pdfrwt>
<totfact> 0.34842668E+01</totfact>
</mgrwt>
</event>
<event>
 6    1  0.6101889E-006  0.1461002E+03  0.7546771E-02  0.1214827E+00
         -2   -1    0    0    0  501 -0.00000000000E+00  0.00000000000E+00  0.12841373843E+02  0.12841373843E+02  0.00000000000E+00 0.  1.
          2   -1    0    0  501    0  0.00000000000E+00 -0.00000000000E+00 -0.14699210138E+04  0.14699210138E+04  0.00000000000E+00 0. -1.
          5    1    1    2  502    0  0.43787496815E+02 -0.55614556713E+02 -0.43999506549E+03  0.44567709325E+03  0.47000000000E+01 0. -1.
         -5    1    1    2    0  502 -0.73167022219E+02 -0.14075008238E+02 -0.54789775819E+03  0.55296072412E+03  0.47000000000E+01 0. -1.
        -11    1    1    2    0    0 -0.21145709667E+02  0.65220902662E+02 -0.27638542264E+03  0.28476272408E+03  0.00000000000E+00 0. -1.
         11    1    1    2    0    0  0.50525235071E+02  0.44686622900E+01 -0.19280139363E+03  0.19936184617E+03  0.00000000000E+00 0.  1.
<mgrwt>
<rscale>  0 0.13889226E+03</rscale>
<asrwt>0</asrwt>
<pdfrwt beam="2">  1        2 0.22614155E+00 0.14610017E+03</pdfrwt>
<pdfrwt beam="1">  1       -2 0.19755973E-02 0.14610017E+03</pdfrwt>
<totfact> 0.10885685E+04</totfact>
</mgrwt>
</event>
<event>
 6    1  0.6101889E-006  0.2630866E+03  0.7546771E-02  0.1105303E+00
         -1   -1    0    0    0  501 -0.00000000000E+00  0.00000000000E+00  0.11840391294E+02  0.11840391294E+02  0.00000000000E+00 0.  1.
          1   -1    0    0  501    0  0.00000000000E+00 -0.00000000000E+00 -0.14614082052E+04  0.14614082052E+04  0.00000000000E+00 0. -1.
          5    1    1    2  502    0 -0.18933207286E+02  0.37480605472E+01 -0.26149250972E+02  0.32838812744E+02  0.47000000000E+01 0. -1.
         -5    1    1    2    0  502  0.41958307098E+02 -0.44897826141E+02 -0.10113809271E+04  0.10132570178E+04  0.47000000000E+01 0. -1.
        -11    1    1    2    0    0 -0.49675025711E+02 -0.98922289967E+01 -0.13487040915E+03  0.14406766340E+03  0.00000000000E+00 0.  1.
         11    1    1    2    0    0  0.26649925900E+02  0.51041994590E+02 -0.27716722663E+03  0.28308510254E+03  0.00000000000E+00 0. -1.
<mgrwt>
<rscale>  0 0.26308664E+03</rscale>
<asrwt>0</asrwt>
<pdfrwt beam="2">  1        1 0.22483212E+00 0.26308664E+03</pdfrwt>
<pdfrwt beam="1">  1       -1 0.18215979E-02 0.26308664E+03</pdfrwt>
<totfact> 0.59638981E+03</totfact>
</mgrwt>
</event>
<event>
 6    1  0.6101889E-006  0.1382141E+03  0.7546771E-02  0.1226073E+00
          2   -1    0    0  501    0  0.00000000000E+00  0.00000000000E+00  0.17171147946E+03  0.17171147946E+03  0.00000000000E+00 0. -1.
         -2   -1    0    0    0  501 -0.00000000000E+00 -0.00000000000E+00 -0.96739343778E+02  0.96739343778E+02  0.00000000000E+00 0.  1.
          5    1    1    2  502    0 -0.18027362232E+02  0.28535151256E+01 -0.26016718350E+02  0.32126125992E+02  0.47000000000E+01 0.  1.
         -5    1    1    2    0  502  0.56414608507E+02 -0.47634029221E+02  0.10075487115E+03  0.12500097141E+03  0.47000000000E+01 0.  1.
        -11    1    1    2    0    0 -0.53901302877E+01 -0.23918707798E+02 -0.20919008194E+02  0.32229846278E+02  0.00000000000E+00 0.  1.
         11    1    1    2    0    0 -0.32997115988E+02  0.68699221894E+02  0.21152991077E+02  0.79093879560E+02  0.00000000000E+00 0. -1.
<mgrwt>
<rscale>  0 0.13093656E+03</rscale>
<asrwt>0</asrwt>
<pdfrwt beam="1">  1        2 0.26417151E-01 0.13821408E+03</pdfrwt>
<pdfrwt beam="2">  1       -2 0.14882976E-01 0.13821408E+03</pdfrwt>
<totfact> 0.66668774E+03</totfact>
</mgrwt>
</event>
<event>
 6    1  0.6101889E-006  0.1357569E+03  0.7546771E-02  0.1230623E+00
         -2   -1    0    0    0  501 -0.00000000000E+00  0.00000000000E+00  0.51904314754E+02  0.51904314754E+02  0.00000000000E+00 0.  1.
          2   -1    0    0  501    0  0.00000000000E+00 -0.00000000000E+00 -0.28500199793E+03  0.28500199793E+03  0.00000000000E+00 0. -1.
          5    1    1    2  502    0 -0.31946788584E+02 -0.22782797587E+02 -0.81946744934E+02  0.90978086218E+02  0.47000000000E+01 0.  1.
         -5    1    1    2    0  502  0.81261718396E+02  0.34370840846E+01 -0.36845293083E+02  0.89414462175E+02  0.47000000000E+01 0.  1.
        -11    1    1    2    0    0 -0.34544146332E+02 -0.28731724036E+00  0.48208321303E+01  0.34880094889E+02  0.00000000000E+00 0.  1.
         11    1    1    2    0    0 -0.14770783479E+02  0.19633030742E+02 -0.11912647729E+03  0.12163366940E+03  0.00000000000E+00 0. -1.
<mgrwt>
<rscale>  0 0.12788829E+03</rscale>
<asrwt>0</asrwt>
<pdfrwt beam="2">  1        2 0.43846461E-01 0.13575685E+03</pdfrwt>
<pdfrwt beam="1">  1       -2 0.79852792E-02 0.13575685E+03</pdfrwt>
<totfact> 0.10361930E+04</totfact>
</mgrwt>
</event>
<event>
 6    1  0.6101889E-006  0.2506595E+03  0.7546771E-02  0.1112889E+00
          2   -1    0    0  501    0  0.00000000000E+00  0.00000000000E+00  0.20850143570E+03  0.20850143570E+03  0.00000000000E+00 0. -1.
         -2   -1    0    0    0  501 -0.00000000000E+00 -0.00000000000E+00 -0.75335404691E+02  0.75335404691E+02  0.00000000000E+00 0.  1.
          5    1    1    2  502    0 -0.25899594624E+02  0.63284721198E+00 -0.12352984993E+02  0.29083942916E+02  0.47000000000E+01 0. -1.
         -5    1    1    2    0  502  0.82967071578E+02 -0.57491526377E+01  0.11604346331E+03  0.14284524178E+03  0.47000000000E+01 0. -1.
        -11    1    1    2    0    0 -0.30592432205E+02  0.38228203780E+02 -0.14260395131E+02  0.50996581667E+02  0.00000000000E+00 0.  1.
         11    1    1    2    0    0 -0.26475044748E+02 -0.33111898354E+02  0.43735947819E+02  0.60911074023E+02  0.00000000000E+00 0. -1.
<mgrwt>
<rscale>  0 0.25065945E+03</rscale>
<asrwt>0</asrwt>
<pdfrwt beam="1">  1        2 0.32077144E-01 0.25065945E+03</pdfrwt>
<pdfrwt beam="2">  1       -2 0.11590062E-01 0.25065945E+03</pdfrwt>
<totfact> 0.83982346E+03</totfact>
</mgrwt>
</event>
<event>
 6    1  0.6101889E-006  0.1666953E+03  0.7546771E-02  0.1186272E+00
         -2   -1    0    0    0  501 -0.00000000000E+00  0.00000000000E+00  0.47542909572E+02  0.47542909572E+02  0.00000000000E+00 0.  1.
          2   -1    0    0  501    0  0.00000000000E+00 -0.00000000000E+00 -0.87746161697E+03  0.87746161697E+03  0.00000000000E+00 0. -1.
          5    1    1    2  502    0 -0.86903878908E+02 -0.36962280964E+02 -0.30945819591E+03  0.32358145713E+03  0.47000000000E+01 0.  1.
         -5    1    1    2    0  502  0.28592918747E+02 -0.56646503136E+02 -0.41198973184E+03  0.41687409426E+03  0.47000000000E+01 0.  1.
        -11    1    1    2    0    0 -0.21470166781E+02 -0.52104188128E+00 -0.19953017448E+01  0.21568977150E+02  0.00000000000E+00 0.  1.
         11    1    1    2    0    0  0.79781126941E+02  0.94129825981E+02 -0.10647547791E+03  0.16297999801E+03  0.00000000000E+00 0. -1.
<mgrwt>
<rscale>  0 0.16216685E+03</rscale>
<asrwt>0</asrwt>
<pdfrwt beam="2">  1        2 0.13499410E+00 0.16669526E+03</pdfrwt>
<pdfrwt beam="1">  1       -2 0.73142933E-02 0.16669526E+03</pdfrwt>
<totfact> 0.33736206E+03</totfact>
</mgrwt>
</event>
<event>
 6    1  0.6101889E-006  0.1276537E+03  0.7546771E-02  0.1245411E+00
          2   -1    0    0  501    0  0.00000000000E+00  0.00000000000E+00  0.58951854712E+03  0.58951854712E+03  0.00000000000E+00 0. -1.
         -2   -1    0    0    0  501 -0.00000000000E+00 -0.00000000000E+00 -0.24553750959E+02  0.24553750959E+02  0.00000000000E+00 0.  1.
          5    1    1    2  502    0  0.32737164247E+02  0.45355764905E+02  0.27089457279E+03  0.27664928502E+03  0.47000000000E+01 0.  1.
         -5    1    1    2    0  502 -0.55854896990E+02 -0.33522289312E+02  0.16185701192E+03  0.17453737624E+03  0.47000000000E+01 0.  1.
        -11    1    1    2    0    0 -0.32086807221E+01  0.24704545020E+02  0.10978364106E+03  0.11257467753E+03  0.00000000000E+00 0. -1.
         11    1    1    2    0    0  0.26326413465E+02 -0.36538020614E+02  0.22429570387E+02  0.50310959283E+02  0.00000000000E+00 0.  1.
<mgrwt>
<rscale>  0 0.11860815E+03</rscale>
<asrwt>0</asrwt>
<pdfrwt beam="1">  1        2 0.90695150E-01 0.12765371E+03</pdfrwt>
<pdfrwt beam="2">  1       -2 0.37775006E-02 0.12765371E+03</pdfrwt>
<totfact> 0.14570384E+04</totfact>
</mgrwt>
</event>
<event>
 6    1  0.6101889E-006  0.1431773E+03  0.7546771E-02  0.1219510E+00
         -2   -1    0    0    0  501 -0.00000000000E+00  0.00000000000E+00  0.51884824589E+02  0.51884824589E+02  0.00000000000E+00 0.  1.
          2   -1    0    0  501    0  0.00000000000E+00 -0.00000000000E+00 -0.35652505478E+03  0.35652505478E+03  0.00000000000E+00 0. -1.
          5    1    1    2  502    0 -0.19583308607E+02 -0.20730198453E+02 -0.12298300897E+03  0.12633351732E+03  0.47000000000E+01 0. -1.
         -5    1    1    2    0  502  0.49878401274E+02  0.83633037264E+02 -0.10863913028E+03  0.14596879962E+03  0.47000000000E+01 0. -1.
        -11    1    1    2    0    0 -0.34011274690E+01 -0.72341073286E+02 -0.78800547618E+02  0.10702487962E+03  0.00000000000E+00 0.  1.
         11    1    1    2    0    0 -0.26893965198E+02  0.94382344756E+01  0.57824566740E+01  0.29082682807E+02  0.00000000000E+00 0. -1.
<mgrwt>
<rscale>  0 0.13550369E+03</rscale>
<asrwt>0</asrwt>
<pdfrwt beam="2">  1        2 0.54850008E-01 0.14317729E+03</pdfrwt>
<pdfrwt beam="1">  1       -2 0.79822807E-02 0.14317729E+03</pdfrwt>
<totfact> 0.82057109E+03</totfact>
</mgrwt>
</event>
<event>
 6    1  0.6101889E-006  0.1295694E+03  0.7546771E-02  0.1242618E+00
         -2   -1    0    0    0  501 -0.00000000000E+00  0.00000000000E+00  0.35629660027E+02  0.35629660027E+02  0.00000000000E+00 0.  1.
          2   -1    0    0  501    0  0.00000000000E+00 -0.00000000000E+00 -0.39725498739E+03  0.39725498739E+03  0.00000000000E+00 0. -1.
          5    1    1    2  502    0 -0.62039064790E+02 -0.12269257743E+02 -0.13053494079E+03  0.14512353707E+03  0.47000000000E+01 0. -1.
         -5    1    1    2    0  502  0.50034841173E+02  0.42987147867E+02 -0.14182326921E+03  0.15648421615E+03  0.47000000000E+01 0.  1.
        -11    1    1    2    0    0  0.49840156640E+02 -0.94541947860E+01 -0.34282043608E+02  0.61226477335E+02  0.00000000000E+00 0.  1.
         11    1    1    2    0    0 -0.37835933023E+02 -0.21263695338E+02 -0.54985073759E+02  0.70050416869E+02  0.00000000000E+00 0. -1.
<mgrwt>
<rscale>  0 0.12029087E+03</rscale>
<asrwt>0</asrwt>
<pdfrwt beam="2">  1        2 0.61116153E-01 0.12956945E+03</pdfrwt>
<pdfrwt beam="1">  1       -2 0.54814861E-02 0.12956945E+03</pdfrwt>
<totfact> 0.12880937E+04</totfact>
</mgrwt>
</event>
<event>
 6    1  0.6101889E-006  0.1984439E+03  0.7546771E-02  0.1155422E+00
         -2   -1    0    0    0  501 -0.00000000000E+00  0.00000000000E+00  0.85417136773E+02  0.85417136773E+02  0.00000000000E+00 0.  1.
          2   -1    0    0  501    0  0.00000000000E+00 -0.00000000000E+00 -0.45010589825E+03  0.45010589825E+03  0.00000000000E+00 0. -1.
          5    1    1    2  502    0  0.73267793825E+02 -0.10310553778E+03 -0.15576849713E+03  0.20071082738E+03  0.47000000000E+01 0.  1.
         -5    1    1    2    0  502  0.63479046834E+02  0.32000975419E+02 -0.10767545761E+03  0.12911137047E+03  0.47000000000E+01 0.  1.
        -11    1    1    2    0    0 -0.56301486359E+02  0.61074775201E+02 -0.10033572199E+02  0.83669935479E+02  0.00000000000E+00 0.  1.
         11    1    1    2    0    0 -0.80445354300E+02  0.10029787158E+02 -0.91211234541E+02  0.12203090168E+03  0.00000000000E+00 0. -1.
<mgrwt>
<rscale>  0 0.19340942E+03</rscale>
<asrwt>0</asrwt>
<pdfrwt beam="2">  1        2 0.69247061E-01 0.19844386E+03</pdfrwt>
<pdfrwt beam="1">  1       -2 0.13141098E-01 0.19844386E+03</pdfrwt>
<totfact> 0.29456375E+03</totfact>
</mgrwt>
</event>
<event>
 6    1  0.6101889E-006  0.3821691E+03  0.7546771E-02  0.1050135E+00
          2   -1    0    0  501    0  0.00000000000E+00  0.00000000000E+00  0.33331040224E+03  0.33331040224E+03  0.00000000000E+00 0. -1.
         -2   -1    0    0    0  501 -0.00000000000E+00 -0.00000000000E+00 -0.10954747214E+03  0.10954747214E+03  0.00000000000E+00 0.  1.
          5    1    1    2  502    0  0.18532241814E+02 -0.29141933939E+01 -0.10613846731E+02  0.22060830724E+02  0.47000000000E+01 0. -1.
         -5    1    1    2    0  502 -0.16572718898E+03 -0.26764222022E+02  0.72548473795E+02  0.18294041597E+03  0.47000000000E+01 0. -1.
        -11    1    1    2    0    0  0.42245651020E+02 -0.69112908574E+01  0.15793196185E+01  0.42836377320E+02  0.00000000000E+00 0.  1.
         11    1    1    2    0    0  0.10494929614E+03  0.36589706273E+02  0.16024898341E+03  0.19502025036E+03  0.00000000000E+00 0. -1.
<mgrwt>
<rscale>  0 0.38216914E+03</rscale>
<asrwt>0</asrwt>
<pdfrwt beam="1">  1        2 0.51278523E-01 0.38216914E+03</pdfrwt>
<pdfrwt beam="2">  1       -2 0.16853457E-01 0.38216914E+03</pdfrwt>
<totfact> 0.27598729E+03</totfact>
</mgrwt>
</event>
<event>
 6    1  0.6101889E-006  0.1310458E+03  0.7546771E-02  0.1240049E+00
         -1   -1    0    0    0  501 -0.00000000000E+00  0.00000000000E+00  0.85874007807E+02  0.85874007807E+02  0.00000000000E+00 0.  1.
          1   -1    0    0  501    0  0.00000000000E+00 -0.00000000000E+00 -0.16535493176E+03  0.16535493176E+03  0.00000000000E+00 0. -1.
          5    1    1    2  502    0 -0.73249820469E+02 -0.40578215951E+02 -0.56934535308E+02  0.10136941905E+03  0.47000000000E+01 0.  1.
         -5    1    1    2    0  502  0.35302556052E+02  0.30260274341E+02 -0.22456893589E+02  0.51849365827E+02  0.47000000000E+01 0.  1.
        -11    1    1    2    0    0  0.21999232742E+02 -0.13340173316E+02  0.40749501497E+02  0.48191787035E+02  0.00000000000E+00 0.  1.
         11    1    1    2    0    0  0.15948031674E+02  0.23658114926E+02 -0.40838996556E+02  0.49818367655E+02  0.00000000000E+00 0. -1.
<mgrwt>
<rscale>  0 0.12186669E+03</rscale>
<asrwt>0</asrwt>
<pdfrwt beam="2">  1        1 0.25439220E-01 0.13104578E+03</pdfrwt>
<pdfrwt beam="1">  1       -1 0.13211386E-01 0.13104578E+03</pdfrwt>
<totfact> 0.69667357E+03</totfact>
</mgrwt>
</event>
<event>
 6    1  0.6101889E-006  0.2698767E+03  0.7546771E-02  0.1103146E+00
         -1   -1    0    0    0  501 -0.00000000000E+00  0.00000000000E+00  0.76958757158E+02  0.76958757158E+02  0.00000000000E+00 0.  1.
          1   -1    0    0  501    0  0.00000000000E+00 -0.00000000000E+00 -0.13670818122E+04  0.13670818122E+04  0.00000000000E+00 0. -1.
          5    1    1    2  502    0 -0.11169159225E+03 -0.10562204195E+03 -0.51855697847E+03  0.54088303490E+03  0.47000000000E+01 0. -1.
         -5    1    1    2    0  502 -0.11008350617E+03  0.16050538133E+02 -0.55655906042E+03  0.56758794547E+03  0.47000000000E+01 0. -1.
        -11    1    1    2    0    0  0.33534971754E+02  0.56455520432E+02 -0.43458742222E+02  0.78743141881E+02  0.00000000000E+00 0.  1.
         11    1    1    2    0    0  0.18824012667E+03  0.33115983387E+02 -0.17154827392E+03  0.25682644710E+03  0.00000000000E+00 0. -1.
<mgrwt>
<rscale>  0 0.26676435E+03</rscale>
<asrwt>0</asrwt>
<pdfrwt beam="2">  1        1 0.21032026E+00 0.26987667E+03</pdfrwt>
<pdfrwt beam="1">  1       -1 0.11839810E-01 0.26987667E+03</pdfrwt>
<totfact> 0.41264378E+02</totfact>
</mgrwt>
</event>
<event>
 6    1  0.6101889E-006  0.1286137E+03  0.7546771E-02  0.1244273E+00
          1   -1    0    0  501    0  0.00000000000E+00  0.00000000000E+00  0.86689752276E+02  0.86689752276E+02  0.00000000000E+00 0. -1.
         -1   -1    0    0    0  501 -0.00000000000E+00 -0.00000000000E+00 -0.18477823643E+03  0.18477823643E+03  0.00000000000E+00 0.  1.
          5    1    1    2  502    0  0.31606138479E+02  0.68891968573E+02  0.72208385830E+01  0.76284217459E+02  0.47000000000E+01 0.  1.
         -5    1    1    2    0  502 -0.35116048167E+02 -0.38847016564E+02  0.87476908046E+00  0.52584054197E+02  0.47000000000E+01 0.  1.
        -11    1    1    2    0    0 -0.19332200094E+02 -0.51902371585E+02 -0.93215050393E+02  0.10842802109E+03  0.00000000000E+00 0.  1.
         11    1    1    2    0    0  0.22842109782E+02  0.21857419576E+02 -0.12969041427E+02  0.34171695968E+02  0.00000000000E+00 0. -1.
<mgrwt>
<rscale>  0 0.11929006E+03</rscale>
<asrwt>0</asrwt>
<pdfrwt beam="1">  1        1 0.13336885E-01 0.12861373E+03</pdfrwt>
<pdfrwt beam="2">  1       -1 0.28427421E-01 0.12861373E+03</pdfrwt>
<totfact> 0.46479361E+03</totfact>
</mgrwt>
</event>
<event>
 6    1  0.6101889E-006  0.1596494E+03  0.7546771E-02  0.1197233E+00
         -1   -1    0    0    0  501 -0.00000000000E+00  0.00000000000E+00  0.36808603368E+03  0.36808603368E+03  0.00000000000E+00 0.  1.
          1   -1    0    0  501    0  0.00000000000E+00 -0.00000000000E+00 -0.59686122092E+02  0.59686122092E+02  0.00000000000E+00 0. -1.
          5    1    1    2  502    0 -0.17232710956E+01 -0.89614719608E+02  0.10199613185E+03  0.13586415475E+03  0.47000000000E+01 0.  1.
         -5    1    1    2    0  502 -0.63679908284E+02  0.14869756924E+02  0.33982206342E+02  0.73845248580E+02  0.47000000000E+01 0.  1.
        -11    1    1    2    0    0  0.13455340843E+02  0.36128084527E+02  0.53896030232E+01  0.38927272054E+02  0.00000000000E+00 0. -1.
         11    1    1    2    0    0  0.51947838536E+02  0.38616878157E+02  0.16703197037E+03  0.17913548038E+03  0.00000000000E+00 0.  1.
<mgrwt>
<rscale>  0 0.15266711E+03</rscale>
<asrwt>0</asrwt>
<pdfrwt beam="2">  1        1 0.91824805E-02 0.15964938E+03</pdfrwt>
<pdfrwt beam="1">  1       -1 0.56628619E-01 0.15964938E+03</pdfrwt>
<totfact> 0.22856715E+03</totfact>
</mgrwt>
</event>
<event>
 6    1  0.6101889E-006  0.1404757E+03  0.7546771E-02  0.1224856E+00
         -1   -1    0    0    0  501 -0.00000000000E+00  0.00000000000E+00  0.42505663973E+02  0.42505663973E+02  0.00000000000E+00 0.  1.
          1   -1    0    0  501    0  0.00000000000E+00 -0.00000000000E+00 -0.36606608880E+03  0.36606608880E+03  0.00000000000E+00 0. -1.
          5    1    1    2  502    0 -0.47429030080E+01 -0.49071721366E+02 -0.42122991747E+02  0.65015116708E+02  0.47000000000E+01 0. -1.
         -5    1    1    2    0  502  0.68538972253E+02  0.55315724983E+02 -0.13110159553E+03  0.15800993165E+03  0.47000000000E+01 0. -1.
        -11    1    1    2    0    0 -0.39670632176E+02 -0.32895036239E+02 -0.13837552162E+03  0.14766051418E+03  0.00000000000E+00 0. -1.
         11    1    1    2    0    0 -0.24125437069E+02  0.26651032622E+02 -0.11960315935E+02  0.37886190240E+02  0.00000000000E+00 0.  1.
<mgrwt>
<rscale>  0 0.13176767E+03</rscale>
<asrwt>0</asrwt>
<pdfrwt beam="2">  1        1 0.56317860E-01 0.14047567E+03</pdfrwt>
<pdfrwt beam="1">  1       -1 0.65393328E-02 0.14047567E+03</pdfrwt>
<totfact> 0.76058432E+03</totfact>
</mgrwt>
</event>
<event>
 6    1  0.6101889E-006  0.1250142E+03  0.7546771E-02  0.1254653E+00
          1   -1    0    0  501    0  0.00000000000E+00  0.00000000000E+00  0.81629807446E+03  0.81629807446E+03  0.00000000000E+00 0. -1.
         -1   -1    0    0    0  501 -0.00000000000E+00 -0.00000000000E+00 -0.13486572693E+02  0.13486572693E+02  0.00000000000E+00 0.  1.
          5    1    1    2  502    0 -0.49331612756E+01  0.57172031516E+02  0.32488960251E+03  0.32995199815E+03  0.47000000000E+01 0.  1.
         -5    1    1    2    0  502  0.51611725883E+01 -0.55357396414E+02  0.12311951338E+03  0.13517242180E+03  0.47000000000E+01 0.  1.
        -11    1    1    2    0    0 -0.40299850003E+02 -0.24149776692E+01  0.12407105562E+03  0.13047427666E+03  0.00000000000E+00 0.  1.
         11    1    1    2    0    0  0.40071838690E+02  0.60034256746E+00  0.23073133026E+03  0.23418595054E+03  0.00000000000E+00 0. -1.
<mgrwt>
<rscale>  0 0.11325786E+03</rscale>
<asrwt>0</asrwt>
<pdfrwt beam="1">  1        1 0.12558428E+00 0.12501423E+03</pdfrwt>
<pdfrwt beam="2">  1       -1 0.20748580E-02 0.12501423E+03</pdfrwt>
<totfact> 0.13777681E+04</totfact>
</mgrwt>
</event>
<event>
 6    1  0.6101889E-006  0.1402739E+03  0.7546771E-02  0.1224278E+00
         -3   -1    0    0    0  501 -0.00000000000E+00  0.00000000000E+00  0.16720624172E+03  0.16720624172E+03  0.00000000000E+00 0.  1.
          3   -1    0    0  501    0  0.00000000000E+00 -0.00000000000E+00 -0.95197439926E+02  0.95197439926E+02  0.00000000000E+00 0. -1.
          5    1    1    2  502    0  0.89766761702E+02  0.86120583021E+01  0.52337446323E+02  0.10437210998E+03  0.47000000000E+01 0.  1.
         -5    1    1    2    0  502 -0.26134438435E+02 -0.81308962376E+01 -0.26357358107E+02  0.38287343501E+02  0.47000000000E+01 0.  1.
        -11    1    1    2    0    0 -0.64180858486E+02  0.33703280979E+02  0.15991825427E+02  0.74234979796E+02  0.00000000000E+00 0.  1.
         11    1    1    2    0    0  0.54853521987E+00 -0.34184443044E+02  0.30036888152E+02  0.45509248367E+02  0.00000000000E+00 0. -1.
<mgrwt>
<rscale>  0 0.13216505E+03</rscale>
<asrwt>0</asrwt>
<pdfrwt beam="2">  1        3 0.14645760E-01 0.14027386E+03</pdfrwt>
<pdfrwt beam="1">  1       -3 0.25724037E-01 0.14027386E+03</pdfrwt>
<totfact> 0.12760745E+03</totfact>
</mgrwt>
</event>
<event>
 6    1  0.6101889E-006  0.1307732E+03  0.7546771E-02  0.1239793E+00
         -2   -1    0    0    0  501 -0.00000000000E+00  0.00000000000E+00  0.23464995431E+02  0.23464995431E+02  0.00000000000E+00 0.  1.
          2   -1    0    0  501    0  0.00000000000E+00 -0.00000000000E+00 -0.77076874975E+03  0.77076874975E+03  0.00000000000E+00 0. -1.
          5    1    1    2  502    0 -0.77456249971E+02 -0.28130828385E+01 -0.49537737351E+03  0.50142618228E+03  0.47000000000E+01 0. -1.
         -5    1    1    2    0  502  0.41869445345E+02 -0.11632469342E+02 -0.12050609634E+03  0.12818804177E+03  0.47000000000E+01 0. -1.
        -11    1    1    2    0    0  0.25493397931E+02 -0.30222132619E+02 -0.20326178893E+02  0.44457217485E+02  0.00000000000E+00 0.  1.
         11    1    1    2    0    0  0.10093406695E+02  0.44667684799E+02 -0.11109410557E+03  0.12016230364E+03  0.00000000000E+00 0. -1.
<mgrwt>
<rscale>  0 0.12202499E+03</rscale>
<asrwt>0</asrwt>
<pdfrwt beam="2">  1        2 0.11857981E+00 0.13077317E+03</pdfrwt>
<pdfrwt beam="1">  1       -2 0.36099992E-02 0.13077317E+03</pdfrwt>
<totfact> 0.11396290E+04</totfact>
</mgrwt>
</event>
<event>
 6    1  0.6101889E-006  0.1620346E+03  0.7546771E-02  0.1206784E+00
         -2   -1    0    0    0  501 -0.00000000000E+00  0.00000000000E+00  0.36123219065E+02  0.36123219065E+02  0.00000000000E+00 0.  1.
          2   -1    0    0  501    0  0.00000000000E+00 -0.00000000000E+00 -0.59765409222E+03  0.59765409222E+03  0.00000000000E+00 0. -1.
          5    1    1    2  502    0 -0.53663985777E+02  0.78770502952E+02 -0.21756975087E+03  0.23757799140E+03  0.47000000000E+01 0. -1.
         -5    1    1    2    0  502  0.55388012586E+02 -0.25618176797E+02 -0.24579153065E+03  0.25329763019E+03  0.47000000000E+01 0.  1.
        -11    1    1    2    0    0 -0.19614983350E+02  0.62808639558E+01  0.61669126727E+01  0.21499479895E+02  0.00000000000E+00 0. -1.
         11    1    1    2    0    0  0.17890956541E+02 -0.59433190111E+02 -0.10433650431E+03  0.12140220980E+03  0.00000000000E+00 0.  1.
<mgrwt>
<rscale>  0 0.14497774E+03</rscale>
<asrwt>0</asrwt>
<pdfrwt beam="2">  1        2 0.91946783E-01 0.16203456E+03</pdfrwt>
<pdfrwt beam="1">  1       -2 0.55574183E-02 0.16203456E+03</pdfrwt>
<totfact> 0.81762437E+03</totfact>
</mgrwt>
</event>
<event>
 6    1  0.6101889E-006  0.1747292E+03  0.7546771E-02  0.1178852E+00
         -2   -1    0    0    0  501 -0.00000000000E+00  0.00000000000E+00  0.19338062377E+02  0.19338062377E+02  0.00000000000E+00 0.  1.
          2   -1    0    0  501    0  0.00000000000E+00 -0.00000000000E+00 -0.15322795405E+04  0.15322795405E+04  0.00000000000E+00 0. -1.
          5    1    1    2  502    0 -0.16241826475E+02 -0.91430606318E+02 -0.50997411696E+03  0.51838117507E+03  0.47000000000E+01 0.  1.
         -5    1    1    2    0  502 -0.79465291556E+02  0.15625533485E+02 -0.52854506486E+03  0.53473438776E+03  0.47000000000E+01 0.  1.
        -11    1    1    2    0    0 -0.15283730098E+02  0.14783847241E+02 -0.12579377591E+03  0.12757832340E+03  0.00000000000E+00 0. -1.
         11    1    1    2    0    0  0.11099084813E+03  0.61021225592E+02 -0.34862852041E+03  0.37092371667E+03  0.00000000000E+00 0.  1.
<mgrwt>
<rscale>  0 0.16904040E+03</rscale>
<asrwt>0</asrwt>
<pdfrwt beam="2">  1        2 0.23573534E+00 0.17472921E+03</pdfrwt>
<pdfrwt beam="1">  1       -2 0.29750862E-02 0.17472921E+03</pdfrwt>
<totfact> 0.55727923E+03</totfact>
</mgrwt>
</event>
<event>
 6    1  0.6101889E-006  0.1476279E+03  0.7546771E-02  0.1212089E+00
          1   -1    0    0  501    0  0.00000000000E+00  0.00000000000E+00  0.27847614188E+03  0.27847614188E+03  0.00000000000E+00 0. -1.
         -1   -1    0    0    0  501 -0.00000000000E+00 -0.00000000000E+00 -0.66304931729E+02  0.66304931729E+02  0.00000000000E+00 0.  1.
          5    1    1    2  502    0  0.65874421410E+02  0.78552126085E+01  0.13640771893E+03  0.15175737065E+03  0.47000000000E+01 0.  1.
         -5    1    1    2    0  502  0.20153563486E+01 -0.47354572892E+02 -0.23050440206E+01  0.47685642105E+02  0.47000000000E+01 0.  1.
        -11    1    1    2    0    0 -0.39079773889E+02  0.69726053640E+02  0.59463295885E+02  0.99623465313E+02  0.00000000000E+00 0.  1.
         11    1    1    2    0    0 -0.28810003870E+02 -0.30226693356E+02  0.18605239348E+02  0.45714595540E+02  0.00000000000E+00 0. -1.
<mgrwt>
<rscale>  0 0.14092582E+03</rscale>
<asrwt>0</asrwt>
<pdfrwt beam="1">  1        1 0.42842483E-01 0.14762787E+03</pdfrwt>
<pdfrwt beam="2">  1       -1 0.10200759E-01 0.14762787E+03</pdfrwt>
<totfact> 0.54717922E+03</totfact>
</mgrwt>
</event>
<event>
 6    1  0.6101889E-006  0.1418910E+03  0.7546771E-02  0.1220972E+00
         -2   -1    0    0    0  501 -0.00000000000E+00  0.00000000000E+00  0.12459787782E+03  0.12459787782E+03  0.00000000000E+00 0. -1.
          2   -1    0    0  501    0  0.00000000000E+00 -0.00000000000E+00 -0.13418940156E+03  0.13418940156E+03  0.00000000000E+00 0.  1.
          5    1    1    2  502    0 -0.24516186959E+02  0.13690530605E+02  0.34149843040E+02  0.44460947256E+02  0.47000000000E+01 0. -1.
         -5    1    1    2    0  502  0.81487252251E+02 -0.49200762335E+02 -0.22445155188E+02  0.97912012977E+02  0.47000000000E+01 0. -1.
        -11    1    1    2    0    0  0.22013200590E+02  0.25639530779E+02  0.81103291249E+00  0.33802726416E+02  0.00000000000E+00 0.  1.
         11    1    1    2    0    0 -0.78984265882E+02  0.98707009522E+01 -0.22107244504E+02  0.82611592732E+02  0.00000000000E+00 0. -1.
<mgrwt>
<rscale>  0 0.13446832E+03</rscale>
<asrwt>0</asrwt>
<pdfrwt beam="2">  1        2 0.20644523E-01 0.14189101E+03</pdfrwt>
<pdfrwt beam="1">  1       -2 0.19168904E-01 0.14189101E+03</pdfrwt>
<totfact> 0.57755229E+03</totfact>
</mgrwt>
</event>
<event>
 6    1  0.1039724E-005  0.2725247E+03  0.7546771E-02  0.1101811E+00
          1   -1    0    0  501    0  0.00000000000E+00  0.00000000000E+00  0.18797021901E+04  0.18797021901E+04  0.00000000000E+00 0. -1.
         -1   -1    0    0    0  501 -0.00000000000E+00 -0.00000000000E+00 -0.37572248248E+02  0.37572248248E+02  0.00000000000E+00 0.  1.
          5    1    1    2  502    0 -0.20245167650E+02  0.17388186907E+03  0.45196666595E+03  0.48470684783E+03  0.47000000000E+01 0.  1.
         -5    1    1    2    0  502  0.32238799951E+02  0.67987589680E+02  0.49449761229E+03  0.50021158636E+03  0.47000000000E+01 0.  1.
        -11    1    1    2    0    0 -0.49116856524E+02 -0.17657192997E+03  0.66305612715E+03  0.68791971901E+03  0.00000000000E+00 0. -1.
         11    1    1    2    0    0  0.37123224223E+02 -0.65297528780E+02  0.23260953642E+03  0.24443628510E+03  0.00000000000E+00 0.  1.
<mgrwt>
<rscale>  0 0.26907354E+03</rscale>
<asrwt>0</asrwt>
<pdfrwt beam="1">  1        1 0.28918488E+00 0.27252466E+03</pdfrwt>
<pdfrwt beam="2">  1       -1 0.57803473E-02 0.27252466E+03</pdfrwt>
<totfact> 0.57089565E+02</totfact>
</mgrwt>
</event>
<event>
 6    1  0.6101889E-006  0.1315163E+03  0.7546771E-02  0.1240918E+00
         -2   -1    0    0    0  501 -0.00000000000E+00  0.00000000000E+00  0.34780318540E+02  0.34780318540E+02  0.00000000000E+00 0.  1.
          2   -1    0    0  501    0  0.00000000000E+00 -0.00000000000E+00 -0.36986207404E+03  0.36986207404E+03  0.00000000000E+00 0. -1.
          5    1    1    2  502    0 -0.35612248711E+02 -0.70964433907E+02 -0.14113860767E+03  0.16200734463E+03  0.47000000000E+01 0. -1.
         -5    1    1    2    0  502  0.39563032981E+02  0.30279249979E+02 -0.57534722015E+02  0.76252218297E+02  0.47000000000E+01 0. -1.
        -11    1    1    2    0    0 -0.34252214568E+02  0.43966480314E+02 -0.50432912860E+02  0.75164780939E+02  0.00000000000E+00 0.  1.
         11    1    1    2    0    0  0.30301430297E+02 -0.32812963860E+01 -0.85975512958E+02  0.91218048721E+02  0.00000000000E+00 0. -1.
<mgrwt>
<rscale>  0 0.12133088E+03</rscale>
<asrwt>0</asrwt>
<pdfrwt beam="2">  1        2 0.56901857E-01 0.13151626E+03</pdfrwt>
<pdfrwt beam="1">  1       -2 0.53508183E-02 0.13151626E+03</pdfrwt>
<totfact> 0.14430595E+04</totfact>
</mgrwt>
</event>
<event>
 6    1  0.6101889E-006  0.1365940E+03  0.7546771E-02  0.1229988E+00
          1   -1    0    0  501    0  0.00000000000E+00  0.00000000000E+00  0.32635542772E+02  0.32635542772E+02  0.00000000000E+00 0. -1.
         -1   -1    0    0    0  501 -0.00000000000E+00 -0.00000000000E+00 -0.45500194572E+03  0.45500194572E+03  0.00000000000E+00 0.  1.
          5    1    1    2  502    0 -0.25225955931E+02  0.36174719357E+02 -0.14715928125E+03  0.15369744055E+03  0.47000000000E+01 0. -1.
         -5    1    1    2    0  502  0.74506595916E+02 -0.11586012537E+02 -0.70872576351E+02  0.10358803309E+03  0.47000000000E+01 0. -1.
        -11    1    1    2    0    0 -0.58528523669E+02 -0.70426216314E+01 -0.20194638360E+03  0.21037473339E+03  0.00000000000E+00 0.  1.
         11    1    1    2    0    0  0.92478836831E+01 -0.17546085189E+02 -0.23881617563E+01  0.19977281463E+02  0.00000000000E+00 0. -1.
<mgrwt>
<rscale>  0 0.12830805E+03</rscale>
<asrwt>0</asrwt>
<pdfrwt beam="1">  1        1 0.50208526E-02 0.13659401E+03</pdfrwt>
<pdfrwt beam="2">  1       -1 0.70000302E-01 0.13659401E+03</pdfrwt>
<totfact> 0.34127484E+03</totfact>
</mgrwt>
</event>
<event>
 6    1  0.6101889E-006  0.1201668E+03  0.7546771E-02  0.1255157E+00
          1   -1    0    0  501    0  0.00000000000E+00  0.00000000000E+00  0.25968827111E+03  0.25968827111E+03  0.00000000000E+00 0. -1.
         -1   -1    0    0    0  501 -0.00000000000E+00 -0.00000000000E+00 -0.69332255220E+02  0.69332255220E+02  0.00000000000E+00 0.  1.
          5    1    1    2  502    0  0.55547603220E+02 -0.29123066886E+02  0.10972427917E+03  0.12647211822E+03  0.47000000000E+01 0. -1.
         -5    1    1    2    0  502 -0.36246681451E+02  0.43988810655E+02  0.91640051139E+02  0.10802234191E+03  0.47000000000E+01 0.  1.
        -11    1    1    2    0    0 -0.32378386627E+02  0.23906642199E+02  0.18281272565E+02  0.44205117219E+02  0.00000000000E+00 0. -1.
         11    1    1    2    0    0  0.13077464858E+02 -0.38772385969E+02 -0.29289586980E+02  0.50320948980E+02  0.00000000000E+00 0.  1.
<mgrwt>
<rscale>  0 0.11297568E+03</rscale>
<asrwt>0</asrwt>
<pdfrwt beam="1">  1        1 0.39952041E-01 0.12016679E+03</pdfrwt>
<pdfrwt beam="2">  1       -1 0.10666501E-01 0.12016679E+03</pdfrwt>
<totfact> 0.55013090E+03</totfact>
</mgrwt>
</event>
<event>
 6    1  0.6101889E-006  0.1278302E+03  0.7546771E-02  0.1245435E+00
          1   -1    0    0  501    0  0.00000000000E+00  0.00000000000E+00  0.41527001131E+03  0.41527001131E+03  0.00000000000E+00 0. -1.
         -1   -1    0    0    0  501 -0.00000000000E+00 -0.00000000000E+00 -0.30069872205E+02  0.30069872205E+02  0.00000000000E+00 0.  1.
          5    1    1    2  502    0 -0.21721716076E+02 -0.32155276573E+02  0.19671328383E+03  0.20055922017E+03  0.47000000000E+01 0. -1.
         -5    1    1    2    0  502  0.99024411960E+01  0.56164032377E+02  0.44714307985E+02  0.72621733752E+02  0.47000000000E+01 0. -1.
        -11    1    1    2    0    0  0.11398194568E+02  0.34382485886E+02  0.51527173524E+02  0.62985107657E+02  0.00000000000E+00 0. -1.
         11    1    1    2    0    0  0.42108031191E+00 -0.58391241690E+02  0.92245373763E+02  0.10917382193E+03  0.00000000000E+00 0.  1.
<mgrwt>
<rscale>  0 0.11859405E+03</rscale>
<asrwt>0</asrwt>
<pdfrwt beam="1">  1        1 0.63887690E-01 0.12783017E+03</pdfrwt>
<pdfrwt beam="2">  1       -1 0.46261345E-02 0.12783017E+03</pdfrwt>
<totfact> 0.10776989E+04</totfact>
</mgrwt>
</event>
<event>
 6    1  0.6101889E-006  0.1267268E+03  0.7546771E-02  0.1246757E+00
         -2   -1    0    0    0  501 -0.00000000000E+00  0.00000000000E+00  0.34113214889E+02  0.34113214889E+02  0.00000000000E+00 0.  1.
          2   -1    0    0  501    0  0.00000000000E+00 -0.00000000000E+00 -0.61117421026E+03  0.61117421026E+03  0.00000000000E+00 0. -1.
          5    1    1    2  502    0  0.44881072530E+02 -0.30142908606E+02 -0.45437067407E+03  0.45759993997E+03  0.47000000000E+01 0. -1.
         -5    1    1    2    0  502 -0.18147497044E+02  0.36697495466E+02 -0.64638901330E+02  0.76657128746E+02  0.47000000000E+01 0.  1.
        -11    1    1    2    0    0 -0.44456224635E+02 -0.29591866486E+02 -0.92072435630E+01  0.54192322380E+02  0.00000000000E+00 0.  1.
         11    1    1    2    0    0  0.17722649148E+02  0.23037279627E+02 -0.48844176411E+02  0.56838034050E+02  0.00000000000E+00 0. -1.
<mgrwt>
<rscale>  0 0.11780841E+03</rscale>
<asrwt>0</asrwt>
<pdfrwt beam="2">  1        2 0.94026799E-01 0.12672678E+03</pdfrwt>
<pdfrwt beam="1">  1       -2 0.52481871E-02 0.12672678E+03</pdfrwt>
<totfact> 0.85616387E+03</totfact>
</mgrwt>
</event>
<event>
 6    1  0.6101889E-006  0.2558064E+03  0.7546771E-02  0.1112148E+00
          2   -1    0    0  501    0  0.00000000000E+00  0.00000000000E+00  0.13276819411E+04  0.13276819411E+04  0.00000000000E+00 0. -1.
         -2   -1    0    0    0  501 -0.00000000000E+00 -0.00000000000E+00 -0.47669379869E+02  0.47669379869E+02  0.00000000000E+00 0.  1.
          5    1    1    2  502    0  0.90508585461E+02 -0.10179692928E+03  0.63087704628E+03  0.64543191459E+03  0.47000000000E+01 0. -1.
         -5    1    1    2    0  502  0.29959283621E+02 -0.86084641397E+02  0.14315442239E+03  0.16977456467E+03  0.47000000000E+01 0. -1.
        -11    1    1    2    0    0 -0.69180570081E+02  0.32150550492E+02  0.16640844172E+03  0.18306113364E+03  0.00000000000E+00 0. -1.
         11    1    1    2    0    0 -0.51287299001E+02  0.15573102018E+03  0.33957265080E+03  0.37708370802E+03  0.00000000000E+00 0.  1.
<mgrwt>
<rscale>  0 0.25183909E+03</rscale>
<asrwt>0</asrwt>
<pdfrwt beam="1">  1        2 0.20425873E+00 0.25580635E+03</pdfrwt>
<pdfrwt beam="2">  1       -2 0.73337518E-02 0.25580635E+03</pdfrwt>
<totfact> 0.18361029E+03</totfact>
</mgrwt>
</event>
<event>
 6    1  0.6101889E-006  0.3735323E+03  0.7546771E-02  0.1053350E+00
         -2   -1    0    0    0  501 -0.00000000000E+00  0.00000000000E+00  0.18345866720E+03  0.18345866720E+03  0.00000000000E+00 0.  1.
          2   -1    0    0  501    0  0.00000000000E+00 -0.00000000000E+00 -0.19013323296E+03  0.19013323296E+03  0.00000000000E+00 0. -1.
          5    1    1    2  502    0 -0.86587208483E+02  0.11055178261E+03  0.21067892890E+02  0.14207388015E+03  0.47000000000E+01 0. -1.
         -5    1    1    2    0  502 -0.42931368663E+02 -0.32109043498E+02 -0.93845238830E+01  0.54628311142E+02  0.47000000000E+01 0. -1.
        -11    1    1    2    0    0  0.10015213320E+03 -0.90357226348E+01 -0.11502048372E+02  0.10121457991E+03  0.00000000000E+00 0. -1.
         11    1    1    2    0    0  0.29366443944E+02 -0.69407016475E+02 -0.68558863930E+01  0.75675128966E+02  0.00000000000E+00 0.  1.
<mgrwt>
<rscale>  0 0.37353227E+03</rscale>
<asrwt>0</asrwt>
<pdfrwt beam="2">  1        2 0.29251267E-01 0.37353227E+03</pdfrwt>
<pdfrwt beam="1">  1       -2 0.28224410E-01 0.37353227E+03</pdfrwt>
<totfact> 0.20736219E+03</totfact>
</mgrwt>
</event>
<event>
 6    1  0.6101889E-006  0.1546740E+03  0.7546771E-02  0.1202008E+00
         -1   -1    0    0    0  501 -0.00000000000E+00  0.00000000000E+00  0.75688160590E+02  0.75688160590E+02  0.00000000000E+00 0.  1.
          1   -1    0    0  501    0  0.00000000000E+00 -0.00000000000E+00 -0.75774920724E+03  0.75774920724E+03  0.00000000000E+00 0. -1.
          5    1    1    2  502    0  0.69369663036E+02 -0.19181757664E+01 -0.40557296926E+03  0.41149404971E+03  0.47000000000E+01 0. -1.
         -5    1    1    2    0  502 -0.12760519172E+02  0.79134100409E+02 -0.27824454595E+03  0.28959826320E+03  0.47000000000E+01 0.  1.
        -11    1    1    2    0    0 -0.20073214489E+02  0.12525462282E+02 -0.22296140432E+02  0.32510598633E+02  0.00000000000E+00 0. -1.
         11    1    1    2    0    0 -0.36535929375E+02 -0.89741386925E+02  0.24052608998E+02  0.99834456287E+02  0.00000000000E+00 0.  1.
<mgrwt>
<rscale>  0 0.14875799E+03</rscale>
<asrwt>0</asrwt>
<pdfrwt beam="2">  1        1 0.11657680E+00 0.15467397E+03</pdfrwt>
<pdfrwt beam="1">  1       -1 0.11644332E-01 0.15467397E+03</pdfrwt>
<totfact> 0.12016058E+03</totfact>
</mgrwt>
</event>
<event>
 6    1  0.6101889E-006  0.1428269E+03  0.7546771E-02  0.1231100E+00
          3   -1    0    0  501    0  0.00000000000E+00  0.00000000000E+00  0.41361193212E+02  0.41361193212E+02  0.00000000000E+00 0. -1.
         -3   -1    0    0    0  501 -0.00000000000E+00 -0.00000000000E+00 -0.34929666118E+03  0.34929666118E+03  0.00000000000E+00 0.  1.
          5    1    1    2  502    0  0.50304442142E+02  0.40572922376E+01 -0.13898620789E+03  0.14794003685E+03  0.47000000000E+01 0. -1.
         -5    1    1    2    0  502 -0.51903633335E+02 -0.10716950603E+02 -0.27493252692E+01  0.53277471534E+02  0.47000000000E+01 0.  1.
        -11    1    1    2    0    0 -0.55839963189E+00  0.44386556427E+02 -0.48149968430E+02  0.65489675991E+02  0.00000000000E+00 0. -1.
         11    1    1    2    0    0  0.21575908248E+01 -0.37726898062E+02 -0.11804996637E+03  0.12395067001E+03  0.00000000000E+00 0.  1.
<mgrwt>
<rscale>  0 0.12757464E+03</rscale>
<asrwt>0</asrwt>
<pdfrwt beam="1">  1        3 0.63632603E-02 0.14282690E+03</pdfrwt>
<pdfrwt beam="2">  1       -3 0.53737949E-01 0.14282690E+03</pdfrwt>
<totfact> 0.12410347E+03</totfact>
</mgrwt>
</event>
<event>
 6    1  0.6101889E-006  0.2344190E+03  0.7546771E-02  0.1126100E+00
         -2   -1    0    0    0  501 -0.00000000000E+00  0.00000000000E+00  0.73480129191E+02  0.73480129191E+02  0.00000000000E+00 0.  1.
          2   -1    0    0  501    0  0.00000000000E+00 -0.00000000000E+00 -0.70407310943E+03  0.70407310943E+03  0.00000000000E+00 0. -1.
          5    1    1    2  502    0  0.52205757323E+01  0.25792064403E+02 -0.67625035998E+02  0.72716713972E+02  0.47000000000E+01 0. -1.
         -5    1    1    2    0  502 -0.20327749875E+03 -0.15734932046E+02 -0.27241411507E+03  0.34029526837E+03  0.47000000000E+01 0. -1.
        -11    1    1    2    0    0  0.93889579075E+02  0.36596104519E+02 -0.17615772330E+03  0.20294351777E+03  0.00000000000E+00 0. -1.
         11    1    1    2    0    0  0.10416734394E+03 -0.46653236877E+02 -0.11439610587E+03  0.16159773852E+03  0.00000000000E+00 0.  1.
<mgrwt>
<rscale>  0 0.23076897E+03</rscale>
<asrwt>0</asrwt>
<pdfrwt beam="2">  1        2 0.10831894E+00 0.23441901E+03</pdfrwt>
<pdfrwt beam="1">  1       -2 0.11304635E-01 0.23441901E+03</pdfrwt>
<totfact> 0.22591305E+03</totfact>
</mgrwt>
</event>
<event>
 6    1  0.6101889E-006  0.3771486E+03  0.7546771E-02  0.1051993E+00
          1   -1    0    0  501    0  0.00000000000E+00  0.00000000000E+00  0.13025421751E+04  0.13025421751E+04  0.00000000000E+00 0. -1.
         -1   -1    0    0    0  501 -0.00000000000E+00 -0.00000000000E+00 -0.27300669008E+02  0.27300669008E+02  0.00000000000E+00 0.  1.
          5    1    1    2  502    0  0.63142026135E+02 -0.16302446450E+03  0.65431970145E+03  0.67728889936E+03  0.47000000000E+01 0.  1.
         -5    1    1    2    0  502 -0.62509541234E+01  0.20364839839E+02  0.55440502218E+02  0.59578019565E+02  0.47000000000E+01 0.  1.
        -11    1    1    2    0    0 -0.30951255308E+02  0.11455989486E+03  0.52087026378E+03  0.53421697971E+03  0.00000000000E+00 0. -1.
         11    1    1    2    0    0 -0.25939816703E+02  0.28099729803E+02  0.44611038665E+02  0.58758945501E+02  0.00000000000E+00 0.  1.
<mgrwt>
<rscale>  0 0.37714863E+03</rscale>
<asrwt>0</asrwt>
<pdfrwt beam="1">  1        1 0.20039106E+00 0.37714863E+03</pdfrwt>
<pdfrwt beam="2">  1       -1 0.42001039E-02 0.37714863E+03</pdfrwt>
<totfact> 0.22226891E+03</totfact>
</mgrwt>
</event>
<event>
 6    1  0.6101889E-006  0.3034486E+03  0.7546771E-02  0.1083529E+00
          1   -1    0    0  501    0  0.00000000000E+00  0.00000000000E+00  0.70458281093E+03  0.70458281093E+03  0.00000000000E+00 0. -1.
         -1   -1    0    0    0  501 -0.00000000000E+00 -0.00000000000E+00 -0.32672199188E+02  0.32672199188E+02  0.00000000000E+00 0.  1.
          5    1    1    2  502    0 -0.10068332101E+03  0.10832350404E+02  0.49382163499E+03  0.50411939869E+03  0.47000000000E+01 0.  1.
         -5    1    1    2    0  502  0.17365689085E+02  0.35621505469E+01  0.81962265552E+01  0.20087911879E+02  0.47000000000E+01 0.  1.
        -11    1    1    2    0    0  0.45252783520E+02 -0.11748386687E+02  0.16849963479E+03  0.17486556531E+03  0.00000000000E+00 0. -1.
         11    1    1    2    0    0  0.38064848410E+02 -0.26461142646E+01  0.13931154084E+01  0.38182134248E+02  0.00000000000E+00 0.  1.
<mgrwt>
<rscale>  0 0.30344864E+03</rscale>
<asrwt>0</asrwt>
<pdfrwt beam="1">  1        1 0.10839734E+00 0.30344864E+03</pdfrwt>
<pdfrwt beam="2">  1       -1 0.50264927E-02 0.30344864E+03</pdfrwt>
<totfact> 0.48771126E+03</totfact>
</mgrwt>
</event>
<event>
 6    1  0.6101889E-006  0.1495769E+03  0.7546771E-02  0.1209882E+00
         -2   -1    0    0    0  501 -0.00000000000E+00  0.00000000000E+00  0.88954591848E+02  0.88954591848E+02  0.00000000000E+00 0.  1.
          2   -1    0    0  501    0  0.00000000000E+00 -0.00000000000E+00 -0.35613966005E+03  0.35613966005E+03  0.00000000000E+00 0. -1.
          5    1    1    2  502    0  0.31461416231E+02 -0.34367608036E+02 -0.25053345716E+03  0.25487262770E+03  0.47000000000E+01 0.  1.
         -5    1    1    2    0  502  0.50287988995E+02  0.25916369763E+02 -0.32912791641E+02  0.65619219079E+02  0.47000000000E+01 0.  1.
        -11    1    1    2    0    0 -0.44317737782E+02  0.42790318844E+02 -0.16973206105E+02  0.63899632192E+02  0.00000000000E+00 0. -1.
         11    1    1    2    0    0 -0.37431667445E+02 -0.34339080571E+02  0.33234386702E+02  0.60702772932E+02  0.00000000000E+00 0.  1.
<mgrwt>
<rscale>  0 0.14259275E+03</rscale>
<asrwt>0</asrwt>
<pdfrwt beam="2">  1        2 0.54790717E-01 0.14957690E+03</pdfrwt>
<pdfrwt beam="1">  1       -2 0.13685322E-01 0.14957690E+03</pdfrwt>
<totfact> 0.35113792E+03</totfact>
</mgrwt>
</event>
<event>
 6    1  0.6101889E-006  0.1999602E+03  0.7546771E-02  0.1153781E+00
         -2   -1    0    0    0  501 -0.00000000000E+00  0.00000000000E+00  0.10249431299E+03  0.10249431299E+03  0.00000000000E+00 0.  1.
          2   -1    0    0  501    0  0.00000000000E+00 -0.00000000000E+00 -0.36994700297E+03  0.36994700297E+03  0.00000000000E+00 0. -1.
          5    1    1    2  502    0  0.96501445585E+02  0.49993992627E+02 -0.36198231722E+02  0.11464872559E+03  0.47000000000E+01 0. -1.
         -5    1    1    2    0  502  0.51268528145E+02  0.21505355290E+00 -0.14996387059E+03  0.15855522920E+03  0.47000000000E+01 0. -1.
        -11    1    1    2    0    0 -0.21251159770E+02  0.11326921933E+02 -0.49431334347E+02  0.54985159519E+02  0.00000000000E+00 0. -1.
         11    1    1    2    0    0 -0.12651881396E+03 -0.61535968113E+02 -0.31859253330E+02  0.14425220165E+03  0.00000000000E+00 0.  1.
<mgrwt>
<rscale>  0 0.19528344E+03</rscale>
<asrwt>0</asrwt>
<pdfrwt beam="2">  1        2 0.56914923E-01 0.19996018E+03</pdfrwt>
<pdfrwt beam="1">  1       -2 0.15768356E-01 0.19996018E+03</pdfrwt>
<totfact> 0.27030021E+03</totfact>
</mgrwt>
</event>
<event>
 6    1  0.6101889E-006  0.2003256E+03  0.7546771E-02  0.1182409E+00
         -1   -1    0    0    0  501 -0.00000000000E+00  0.00000000000E+00  0.13071431157E+03  0.13071431157E+03  0.00000000000E+00 0.  1.
          1   -1    0    0  501    0  0.00000000000E+00 -0.00000000000E+00 -0.17512812577E+03  0.17512812577E+03  0.00000000000E+00 0. -1.
          5    1    1    2  502    0 -0.31264362962E+02  0.10394270442E+03 -0.15931111348E+02  0.10980635912E+03  0.47000000000E+01 0. -1.
         -5    1    1    2    0  502  0.37060096438E+02 -0.80064542137E+02 -0.47568186636E+02  0.10034243387E+03  0.47000000000E+01 0.  1.
        -11    1    1    2    0    0 -0.28366707410E+02  0.91337946364E+01  0.40537389989E+02  0.50312784467E+02  0.00000000000E+00 0. -1.
         11    1    1    2    0    0  0.22570973933E+02 -0.33011956922E+02 -0.21451906207E+02  0.45380859886E+02  0.00000000000E+00 0.  1.
<mgrwt>
<rscale>  0 0.16569890E+03</rscale>
<asrwt>0</asrwt>
<pdfrwt beam="2">  1        1 0.26942788E-01 0.20032562E+03</pdfrwt>
<pdfrwt beam="1">  1       -1 0.20109894E-01 0.20032562E+03</pdfrwt>
<totfact> 0.34109483E+03</totfact>
</mgrwt>
</event>
<event>
 6    1  0.6101889E-006  0.1265459E+03  0.7546771E-02  0.1266549E+00
          2   -1    0    0  501    0  0.00000000000E+00  0.00000000000E+00  0.10522564262E+04  0.10522564262E+04  0.00000000000E+00 0. -1.
         -2   -1    0    0    0  501 -0.00000000000E+00 -0.00000000000E+00 -0.10501354645E+02  0.10501354645E+02  0.00000000000E+00 0.  1.
          5    1    1    2  502    0 -0.78255693991E+01 -0.54587925657E+02  0.40386805917E+03  0.40764271167E+03  0.47000000000E+01 0.  1.
         -5    1    1    2    0  502  0.23343702100E+02  0.66944448460E+02  0.47004275429E+03  0.47538275996E+03  0.47000000000E+01 0.  1.
        -11    1    1    2    0    0 -0.38969650146E+02 -0.90097716772E+01  0.11680657137E+03  0.12346491296E+03  0.00000000000E+00 0. -1.
         11    1    1    2    0    0  0.23451517445E+02 -0.33467511259E+01  0.51037686695E+02  0.56267396215E+02  0.00000000000E+00 0.  1.
<mgrwt>
<rscale>  0 0.10683321E+03</rscale>
<asrwt>0</asrwt>
<pdfrwt beam="1">  1        2 0.16188552E+00 0.12654594E+03</pdfrwt>
<pdfrwt beam="2">  1       -2 0.16155939E-02 0.12654594E+03</pdfrwt>
<totfact> 0.24437979E+04</totfact>
</mgrwt>
</event>
<event>
 6    1  0.6101889E-006  0.2504276E+03  0.7546771E-02  0.1115790E+00
         -2   -1    0    0    0  501 -0.00000000000E+00  0.00000000000E+00  0.96390260504E+02  0.96390260504E+02  0.00000000000E+00 0.  1.
          2   -1    0    0  501    0  0.00000000000E+00 -0.00000000000E+00 -0.86091421856E+03  0.86091421856E+03  0.00000000000E+00 0. -1.
          5    1    1    2  502    0 -0.17872541078E+02  0.60358918893E+02 -0.38242464646E+03  0.38759944148E+03  0.47000000000E+01 0.  1.
         -5    1    1    2    0  502 -0.66157557554E+02  0.13970609537E+03 -0.26874932685E+03  0.31006919581E+03  0.47000000000E+01 0.  1.
        -11    1    1    2    0    0  0.41096514318E+02 -0.12488903691E+03 -0.21158693618E+02  0.13316863499E+03  0.00000000000E+00 0. -1.
         11    1    1    2    0    0  0.42933584313E+02 -0.75175977358E+02 -0.92191291133E+02  0.12646720679E+03  0.00000000000E+00 0.  1.
<mgrwt>
<rscale>  0 0.24610672E+03</rscale>
<asrwt>0</asrwt>
<pdfrwt beam="2">  1        2 0.13244834E+00 0.25042760E+03</pdfrwt>
<pdfrwt beam="1">  1       -2 0.14829271E-01 0.25042760E+03</pdfrwt>
<totfact> 0.11266119E+03</totfact>
</mgrwt>
</event>
<event>
 6    1  0.6101889E-006  0.2496815E+03  0.7546771E-02  0.1113506E+00
          1   -1    0    0  501    0  0.00000000000E+00  0.00000000000E+00  0.20305585398E+03  0.20305585398E+03  0.00000000000E+00 0. -1.
         -1   -1    0    0    0  501 -0.00000000000E+00 -0.00000000000E+00 -0.76753333087E+02  0.76753333087E+02  0.00000000000E+00 0.  1.
          5    1    1    2  502    0 -0.52067534476E+02 -0.35804412269E+01 -0.20802216565E+02  0.56379694215E+02  0.47000000000E+01 0. -1.
         -5    1    1    2    0  502 -0.80167313607E+01 -0.21769527433E+00  0.10609650407E+03  0.10650292742E+03  0.47000000000E+01 0. -1.
        -11    1    1    2    0    0  0.22505702760E+02  0.44470466012E+02  0.35679822618E+02  0.61295829761E+02  0.00000000000E+00 0. -1.
         11    1    1    2    0    0  0.37578563077E+02 -0.40672329511E+02  0.53284107766E+01  0.55630735679E+02  0.00000000000E+00 0.  1.
<mgrwt>
<rscale>  0 0.24968151E+03</rscale>
<asrwt>0</asrwt>
<pdfrwt beam="1">  1        1 0.31239362E-01 0.24968151E+03</pdfrwt>
<pdfrwt beam="2">  1       -1 0.11808205E-01 0.24968151E+03</pdfrwt>
<totfact> 0.66698525E+03</totfact>
</mgrwt>
</event>
<event>
 6    1  0.6101889E-006  0.1652523E+03  0.7546771E-02  0.1193025E+00
          1   -1    0    0  501    0  0.00000000000E+00  0.00000000000E+00  0.12052955864E+03  0.12052955864E+03  0.00000000000E+00 0. -1.
         -1   -1    0    0    0  501 -0.00000000000E+00 -0.00000000000E+00 -0.27162446933E+03  0.27162446933E+03  0.00000000000E+00 0.  1.
          5    1    1    2  502    0  0.61165970725E+02 -0.15809063448E+02  0.75056136855E+02  0.98217697700E+02  0.47000000000E+01 0. -1.
         -5    1    1    2    0  502  0.30757166736E+02  0.43326715162E+02 -0.44949251750E+02  0.69754804747E+02  0.47000000000E+01 0.  1.
        -11    1    1    2    0    0  0.15972315019E+02 -0.12797344053E+02 -0.14570268285E+02  0.25123287599E+02  0.00000000000E+00 0. -1.
         11    1    1    2    0    0 -0.10789545248E+03 -0.14720307660E+02 -0.16663152751E+03  0.19905823792E+03  0.00000000000E+00 0.  1.
<mgrwt>
<rscale>  0 0.15622550E+03</rscale>
<asrwt>0</asrwt>
<pdfrwt beam="1">  1        1 0.18543009E-01 0.16525234E+03</pdfrwt>
<pdfrwt beam="2">  1       -1 0.41788379E-01 0.16525234E+03</pdfrwt>
<totfact> 0.15848830E+03</totfact>
</mgrwt>
</event>
<event>
 6    1  0.6101889E-006  0.1401120E+03  0.7546771E-02  0.1225375E+00
          1   -1    0    0  501    0  0.00000000000E+00  0.00000000000E+00  0.49820538836E+03  0.49820538836E+03  0.00000000000E+00 0. -1.
         -1   -1    0    0    0  501 -0.00000000000E+00 -0.00000000000E+00 -0.30996000447E+02  0.30996000447E+02  0.00000000000E+00 0.  1.
          5    1    1    2  502    0 -0.20526443415E+01 -0.39641223431E+02  0.77384622677E+02  0.87098276508E+02  0.47000000000E+01 0. -1.
         -5    1    1    2    0  502  0.34997282831E+02  0.93690966606E+02  0.18663960615E+03  0.21179999909E+03  0.47000000000E+01 0. -1.
        -11    1    1    2    0    0 -0.35091120743E+02  0.14458271872E+02  0.52702766512E+02  0.64946208347E+02  0.00000000000E+00 0.  1.
         11    1    1    2    0    0  0.21464822535E+01 -0.68508015048E+02  0.15048239257E+03  0.16535690486E+03  0.00000000000E+00 0. -1.
<mgrwt>
<rscale>  0 0.13141226E+03</rscale>
<asrwt>0</asrwt>
<pdfrwt beam="1">  1        1 0.76646977E-01 0.14011205E+03</pdfrwt>
<pdfrwt beam="2">  1       -1 0.47686158E-02 0.14011205E+03</pdfrwt>
<totfact> 0.82113713E+03</totfact>
</mgrwt>
</event>
<event>
 6    1  0.6101889E-006  0.2056879E+03  0.7546771E-02  0.1149247E+00
         -2   -1    0    0    0  501 -0.00000000000E+00  0.00000000000E+00  0.80483928129E+02  0.80483928129E+02  0.00000000000E+00 0.  1.
          2   -1    0    0  501    0  0.00000000000E+00 -0.00000000000E+00 -0.53201438830E+03  0.53201438830E+03  0.00000000000E+00 0. -1.
          5    1    1    2  502    0  0.13535746713E+03 -0.71639674054E+02 -0.20899428909E+03  0.25914202607E+03  0.47000000000E+01 0.  1.
         -5    1    1    2    0  502 -0.17745503712E+02 -0.41718266313E+02 -0.12564836675E+03  0.13365971238E+03  0.47000000000E+01 0.  1.
        -11    1    1    2    0    0 -0.38443999605E+02  0.64121366050E+01 -0.67155931104E+02  0.77646478890E+02  0.00000000000E+00 0. -1.
         11    1    1    2    0    0 -0.79167963808E+02  0.10694580376E+03 -0.49731873225E+02  0.14205009909E+03  0.00000000000E+00 0.  1.
<mgrwt>
<rscale>  0 0.20058434E+03</rscale>
<asrwt>0</asrwt>
<pdfrwt beam="2">  1        2 0.81848371E-01 0.20568787E+03</pdfrwt>
<pdfrwt beam="1">  1       -2 0.12382142E-01 0.20568787E+03</pdfrwt>
<totfact> 0.26969578E+03</totfact>
</mgrwt>
</event>
<event>
 6    1  0.6101889E-006  0.1319258E+03  0.7546771E-02  0.1237695E+00
          2   -1    0    0  501    0  0.00000000000E+00  0.00000000000E+00  0.13775518395E+04  0.13775518395E+04  0.00000000000E+00 0. -1.
         -2   -1    0    0    0  501 -0.00000000000E+00 -0.00000000000E+00 -0.13113494002E+02  0.13113494002E+02  0.00000000000E+00 0.  1.
          5    1    1    2  502    0  0.47012579418E+02 -0.23696813816E+02  0.18838799007E+03  0.19566258307E+03  0.47000000000E+01 0. -1.
         -5    1    1    2    0  502 -0.30108361504E+02 -0.14936246411E+02  0.90801093215E+03  0.90864489642E+03  0.47000000000E+01 0. -1.
        -11    1    1    2    0    0  0.18508663659E+02  0.84222270219E+00  0.63392455101E+01  0.19582287996E+02  0.00000000000E+00 0.  1.
         11    1    1    2    0    0 -0.35412881572E+02  0.37790837524E+02  0.26170017776E+03  0.26677556602E+03  0.00000000000E+00 0. -1.
<mgrwt>
<rscale>  0 0.12333489E+03</rscale>
<asrwt>0</asrwt>
<pdfrwt beam="1">  1        2 0.21193094E+00 0.13192578E+03</pdfrwt>
<pdfrwt beam="2">  1       -2 0.20174617E-02 0.13192578E+03</pdfrwt>
<totfact> 0.11755180E+04</totfact>
</mgrwt>
</event>
<event>
 6    1  0.6101889E-006  0.1568033E+03  0.7546771E-02  0.1210978E+00
          1   -1    0    0  501    0  0.00000000000E+00  0.00000000000E+00  0.45165240005E+03  0.45165240005E+03  0.00000000000E+00 0. -1.
         -1   -1    0    0    0  501 -0.00000000000E+00 -0.00000000000E+00 -0.38421860823E+02  0.38421860823E+02  0.00000000000E+00 0.  1.
          5    1    1    2  502    0  0.13195285389E+02 -0.46398983424E+02  0.14025610072E+02  0.50455811926E+02  0.47000000000E+01 0. -1.
         -5    1    1    2    0  502 -0.50481721898E+02  0.87016856869E+01  0.26196870504E+03  0.26697156403E+03  0.47000000000E+01 0.  1.
        -11    1    1    2    0    0  0.12801184062E+02  0.64004458853E+02  0.65815553943E+02  0.92693733376E+02  0.00000000000E+00 0.  1.
         11    1    1    2    0    0  0.24485252447E+02 -0.26307161116E+02  0.71420670164E+02  0.79953151533E+02  0.00000000000E+00 0. -1.
<mgrwt>
<rscale>  0 0.14176137E+03</rscale>
<asrwt>0</asrwt>
<pdfrwt beam="1">  1        1 0.69484981E-01 0.15680331E+03</pdfrwt>
<pdfrwt beam="2">  1       -1 0.59110558E-02 0.15680331E+03</pdfrwt>
<totfact> 0.68236139E+03</totfact>
</mgrwt>
</event>
<event>
 6    1  0.6101889E-006  0.1265786E+03  0.7546771E-02  0.1247582E+00
          1   -1    0    0  501    0  0.00000000000E+00  0.00000000000E+00  0.50780782555E+02  0.50780782555E+02  0.00000000000E+00 0. -1.
         -1   -1    0    0    0  501 -0.00000000000E+00 -0.00000000000E+00 -0.38634570619E+03  0.38634570619E+03  0.00000000000E+00 0.  1.
          5    1    1    2  502    0 -0.46686914971E+02 -0.37499393263E+01  0.13926584194E+02  0.49089406411E+02  0.47000000000E+01 0. -1.
         -5    1    1    2    0  502  0.57972467734E+02 -0.12763075513E+02 -0.62948261514E+02  0.86650312979E+02  0.47000000000E+01 0. -1.
        -11    1    1    2    0    0  0.37893540326E+02  0.21135527911E+01 -0.16814320415E+03  0.17237321313E+03  0.00000000000E+00 0.  1.
         11    1    1    2    0    0 -0.49179093090E+02  0.14399462048E+02 -0.11840004217E+03  0.12901355622E+03  0.00000000000E+00 0. -1.
<mgrwt>
<rscale>  0 0.11732163E+03</rscale>
<asrwt>0</asrwt>
<pdfrwt beam="1">  1        1 0.78124282E-02 0.12657862E+03</pdfrwt>
<pdfrwt beam="2">  1       -1 0.59437800E-01 0.12657862E+03</pdfrwt>
<totfact> 0.25615743E+03</totfact>
</mgrwt>
</event>
<event>
 6    1  0.6101889E-006  0.3954880E+03  0.7546771E-02  0.1045353E+00
         -2   -1    0    0    0  501 -0.00000000000E+00  0.00000000000E+00  0.32902050887E+03  0.32902050887E+03  0.00000000000E+00 0.  1.
          2   -1    0    0  501    0  0.00000000000E+00 -0.00000000000E+00 -0.11884576100E+03  0.11884576100E+03  0.00000000000E+00 0. -1.
          5    1    1    2  502    0  0.34100102713E+02 -0.35224513334E+02  0.24257063503E+02  0.54900623625E+02  0.47000000000E+01 0.  1.
         -5    1    1    2    0  502  0.96079022546E+02  0.97454298331E+02 -0.46751324234E+01  0.13701264796E+03  0.47000000000E+01 0.  1.
        -11    1    1    2    0    0 -0.47764512189E+02 -0.73103120526E+02  0.89024439643E+02  0.12470311026E+03  0.00000000000E+00 0. -1.
         11    1    1    2    0    0 -0.82414613070E+02  0.10873335529E+02  0.10156837715E+03  0.13124988803E+03  0.00000000000E+00 0.  1.
<mgrwt>
<rscale>  0 0.39548802E+03</rscale>
<asrwt>0</asrwt>
<pdfrwt beam="2">  1        2 0.18283963E-01 0.39548802E+03</pdfrwt>
<pdfrwt beam="1">  1       -2 0.50618539E-01 0.39548802E+03</pdfrwt>
<totfact> 0.11632004E+03</totfact>
</mgrwt>
</event>
<event>
 6    1  0.6101889E-006  0.3059425E+03  0.7546771E-02  0.1082307E+00
         -4   -1    0    0    0  501 -0.00000000000E+00  0.00000000000E+00  0.73965385845E+03  0.73965385845E+03  0.00000000000E+00 0. -1.
          4   -1    0    0  501    0  0.00000000000E+00 -0.00000000000E+00 -0.31636697239E+02  0.31636697239E+02  0.00000000000E+00 0.  1.
          5    1    1    2  502    0 -0.24902302732E+01  0.34351894017E+02  0.72266655411E+02  0.80192352214E+02  0.47000000000E+01 0.  1.
         -5    1    1    2    0  502 -0.78101992899E+02 -0.10121930446E+03  0.22067214398E+03  0.25507558491E+03  0.47000000000E+01 0.  1.
        -11    1    1    2    0    0  0.25872071194E+02  0.61716492986E+02  0.13587053824E+03  0.15145657046E+03  0.00000000000E+00 0.  1.
         11    1    1    2    0    0  0.54720151979E+02  0.51509174538E+01  0.27920782358E+03  0.28456604810E+03  0.00000000000E+00 0. -1.
<mgrwt>
<rscale>  0 0.30594251E+03</rscale>
<asrwt>0</asrwt>
<pdfrwt beam="2">  1        4 0.48671847E-02 0.30594251E+03</pdfrwt>
<pdfrwt beam="1">  1       -4 0.11379289E+00 0.30594251E+03</pdfrwt>
<totfact> 0.29692954E+02</totfact>
</mgrwt>
</event>
<event>
 6    1  0.6101889E-006  0.1431926E+03  0.7546771E-02  0.1224898E+00
         -1   -1    0    0    0  501 -0.00000000000E+00  0.00000000000E+00  0.46841071420E+02  0.46841071420E+02  0.00000000000E+00 0.  1.
          1   -1    0    0  501    0  0.00000000000E+00 -0.00000000000E+00 -0.86582533132E+03  0.86582533132E+03  0.00000000000E+00 0. -1.
          5    1    1    2  502    0 -0.37986722361E+02  0.18582338364E+02 -0.78017739308E+03  0.78133677057E+03  0.47000000000E+01 0. -1.
         -5    1    1    2    0  502  0.77525773411E+01  0.19589054557E+02 -0.14186247875E+02  0.25829694978E+02  0.47000000000E+01 0.  1.
        -11    1    1    2    0    0  0.53421913856E+02  0.34360671229E+01 -0.42702779259E+01  0.53702352936E+02  0.00000000000E+00 0.  1.
         11    1    1    2    0    0 -0.23187768836E+02 -0.41607460044E+02 -0.20350341019E+02  0.51797584254E+02  0.00000000000E+00 0. -1.
<mgrwt>
<rscale>  0 0.13173867E+03</rscale>
<asrwt>0</asrwt>
<pdfrwt beam="2">  1        1 0.13320389E+00 0.14319256E+03</pdfrwt>
<pdfrwt beam="1">  1       -1 0.72063188E-02 0.14319256E+03</pdfrwt>
<totfact> 0.20354089E+03</totfact>
</mgrwt>
</event>
<event>
 6    1  0.6101889E-006  0.1758904E+03  0.7546771E-02  0.1177995E+00
          2   -1    0    0  501    0  0.00000000000E+00  0.00000000000E+00  0.91480706570E+02  0.91480706570E+02  0.00000000000E+00 0. -1.
         -2   -1    0    0    0  501 -0.00000000000E+00 -0.00000000000E+00 -0.29882800182E+03  0.29882800182E+03  0.00000000000E+00 0.  1.
          5    1    1    2  502    0 -0.45720913831E+02 -0.88682620039E+02 -0.89347411903E+02  0.13401514494E+03  0.47000000000E+01 0.  1.
         -5    1    1    2    0  502 -0.59233579140E+02  0.23142003944E+02 -0.11198301467E+01  0.63777059071E+02  0.47000000000E+01 0.  1.
        -11    1    1    2    0    0  0.10129639833E+02  0.54135079358E+02 -0.26878857516E+02  0.61283679733E+02  0.00000000000E+00 0.  1.
         11    1    1    2    0    0  0.94824853138E+02  0.11405536737E+02 -0.90001195683E+02  0.13123282465E+03  0.00000000000E+00 0. -1.
<mgrwt>
<rscale>  0 0.16985856E+03</rscale>
<asrwt>0</asrwt>
<pdfrwt beam="1">  1        2 0.14073955E-01 0.17589040E+03</pdfrwt>
<pdfrwt beam="2">  1       -2 0.45973539E-01 0.17589040E+03</pdfrwt>
<totfact> 0.18743412E+03</totfact>
</mgrwt>
</event>
<event>
 6    1  0.6101889E-006  0.1409051E+03  0.7546771E-02  0.1222444E+00
         -2   -1    0    0    0  501 -0.00000000000E+00  0.00000000000E+00  0.28868326016E+03  0.28868326016E+03  0.00000000000E+00 0.  1.
          2   -1    0    0  501    0  0.00000000000E+00 -0.00000000000E+00 -0.93778144717E+02  0.93778144717E+02  0.00000000000E+00 0. -1.
          5    1    1    2  502    0 -0.36750349480E+02  0.62301219292E+02  0.28042776397E+02  0.77720765695E+02  0.47000000000E+01 0.  1.
         -5    1    1    2    0  502  0.45271721556E+02  0.21701441660E+01 -0.45273228132E+02  0.64233896689E+02  0.47000000000E+01 0.  1.
        -11    1    1    2    0    0 -0.33328101073E+02 -0.51381507185E+02  0.20134637330E+03  0.21045470686E+03  0.00000000000E+00 0.  1.
         11    1    1    2    0    0  0.24806728997E+02 -0.13089856273E+02  0.10789193881E+02  0.30052035628E+02  0.00000000000E+00 0. -1.
<mgrwt>
<rscale>  0 0.13343631E+03</rscale>
<asrwt>0</asrwt>
<pdfrwt beam="2">  1        2 0.14427407E-01 0.14090507E+03</pdfrwt>
<pdfrwt beam="1">  1       -2 0.44412809E-01 0.14090507E+03</pdfrwt>
<totfact> 0.19276795E+03</totfact>
</mgrwt>
</event>
<event>
 6    1  0.6101889E-006  0.1359258E+03  0.7546771E-02  0.1231347E+00
         -2   -1    0    0    0  501 -0.00000000000E+00  0.00000000000E+00  0.89642600388E+02  0.89642600388E+02  0.00000000000E+00 0. -1.
          2   -1    0    0  501    0  0.00000000000E+00 -0.00000000000E+00 -0.17382721849E+03  0.17382721849E+03  0.00000000000E+00 0.  1.
          5    1    1    2  502    0  0.53315333357E+02 -0.68213024358E+02 -0.47239948818E+02  0.98738261213E+02  0.47000000000E+01 0.  1.
         -5    1    1    2    0  502 -0.36678142922E+01  0.48584596317E+02 -0.34279239275E+02  0.59758447991E+02  0.47000000000E+01 0.  1.
        -11    1    1    2    0    0  0.19556117359E+02  0.29130776287E+02 -0.94253670536E+00  0.35098892129E+02  0.00000000000E+00 0. -1.
         11    1    1    2    0    0 -0.69203636424E+02 -0.95023482461E+01 -0.17228933055E+01  0.69874217547E+02  0.00000000000E+00 0.  1.
<mgrwt>
<rscale>  0 0.12741219E+03</rscale>
<asrwt>0</asrwt>
<pdfrwt beam="2">  1        2 0.26742649E-01 0.13592582E+03</pdfrwt>
<pdfrwt beam="1">  1       -2 0.13791169E-01 0.13592582E+03</pdfrwt>
<totfact> 0.74370727E+03</totfact>
</mgrwt>
</event>
<event>
 6    1  0.6101889E-006  0.1398975E+03  0.7546771E-02  0.1232017E+00
         -2   -1    0    0    0  501 -0.00000000000E+00  0.00000000000E+00  0.17778903058E+02  0.17778903058E+02  0.00000000000E+00 0.  1.
          2   -1    0    0  501    0  0.00000000000E+00 -0.00000000000E+00 -0.91184686793E+03  0.91184686793E+03  0.00000000000E+00 0. -1.
          5    1    1    2  502    0  0.95060160264E+01  0.57551207282E+02 -0.34737877175E+03  0.35227348306E+03  0.47000000000E+01 0. -1.
         -5    1    1    2    0  502 -0.16668429128E+01 -0.79705523141E+02 -0.34939607694E+03  0.35840683220E+03  0.47000000000E+01 0.  1.
        -11    1    1    2    0    0  0.31075668738E+02  0.38873302251E+02 -0.13248928662E+03  0.14152823706E+03  0.00000000000E+00 0. -1.
         11    1    1    2    0    0 -0.38914841852E+02 -0.16718986391E+02 -0.64803829562E+02  0.77417218680E+02  0.00000000000E+00 0.  1.
<mgrwt>
<rscale>  0 0.12697360E+03</rscale>
<asrwt>0</asrwt>
<pdfrwt beam="2">  1        2 0.14028416E+00 0.13989754E+03</pdfrwt>
<pdfrwt beam="1">  1       -2 0.27352154E-02 0.13989754E+03</pdfrwt>
<totfact> 0.13915984E+04</totfact>
</mgrwt>
</event>
<event>
 6    1  0.6101889E-006  0.1350821E+03  0.7546771E-02  0.1231379E+00
         -2   -1    0    0    0  501 -0.00000000000E+00  0.00000000000E+00  0.24278037998E+02  0.24278037998E+02  0.00000000000E+00 0.  1.
          2   -1    0    0  501    0  0.00000000000E+00 -0.00000000000E+00 -0.63626704553E+03  0.63626704553E+03  0.00000000000E+00 0. -1.
          5    1    1    2  502    0  0.25128118904E+02 -0.53990056667E+02 -0.84254789491E+02  0.10328266133E+03  0.47000000000E+01 0. -1.
         -5    1    1    2    0  502 -0.66632546486E+02  0.23994521536E+02 -0.18020069684E+03  0.19367502280E+03  0.47000000000E+01 0. -1.
        -11    1    1    2    0    0  0.51168132949E+02 -0.15682343012E+02 -0.24714261116E+03  0.25287068625E+03  0.00000000000E+00 0. -1.
         11    1    1    2    0    0 -0.96637053670E+01  0.45677878143E+02 -0.10039091004E+03  0.11071671316E+03  0.00000000000E+00 0.  1.
<mgrwt>
<rscale>  0 0.12739098E+03</rscale>
<asrwt>0</asrwt>
<pdfrwt beam="2">  1        2 0.97887237E-01 0.13508206E+03</pdfrwt>
<pdfrwt beam="1">  1       -2 0.37350828E-02 0.13508206E+03</pdfrwt>
<totfact> 0.13637519E+04</totfact>
</mgrwt>
</event>
<event>
 6    1  0.6101889E-006  0.1561286E+03  0.7546771E-02  0.1201157E+00
          2   -1    0    0  501    0  0.00000000000E+00  0.00000000000E+00  0.89433141475E+03  0.89433141475E+03  0.00000000000E+00 0. -1.
         -2   -1    0    0    0  501 -0.00000000000E+00 -0.00000000000E+00 -0.47179299110E+02  0.47179299110E+02  0.00000000000E+00 0.  1.
          5    1    1    2  502    0  0.31886239917E+02  0.25748546240E+02  0.74411406407E+02  0.85081533443E+02  0.47000000000E+01 0. -1.
         -5    1    1    2    0  502  0.54196885923E+02 -0.62313569558E+02  0.70322305228E+03  0.70807134856E+03  0.47000000000E+01 0. -1.
        -11    1    1    2    0    0 -0.29735637751E+02 -0.25193050758E+02  0.48382089149E+02  0.62126681140E+02  0.00000000000E+00 0. -1.
         11    1    1    2    0    0 -0.56347488089E+02  0.61758074077E+02  0.21135567805E+02  0.86231150717E+02  0.00000000000E+00 0.  1.
<mgrwt>
<rscale>  0 0.14944499E+03</rscale>
<asrwt>0</asrwt>
<pdfrwt beam="1">  1        2 0.13758944E+00 0.15612861E+03</pdfrwt>
<pdfrwt beam="2">  1       -2 0.72583544E-02 0.15612861E+03</pdfrwt>
<totfact> 0.33239016E+03</totfact>
</mgrwt>
</event>
<event>
 6    1  0.6101889E-006  0.1606537E+03  0.7546771E-02  0.1194916E+00
         -2   -1    0    0    0  501 -0.00000000000E+00  0.00000000000E+00  0.45262707049E+02  0.45262707049E+02  0.00000000000E+00 0.  1.
          2   -1    0    0  501    0  0.00000000000E+00 -0.00000000000E+00 -0.56267368135E+03  0.56267368135E+03  0.00000000000E+00 0. -1.
          5    1    1    2  502    0 -0.99064853632E+02  0.62363199821E+02 -0.37951354542E+03  0.39718463600E+03  0.47000000000E+01 0.  1.
         -5    1    1    2    0  502  0.17160156140E+02 -0.34133207724E+01 -0.39075278663E+01  0.18533226688E+02  0.47000000000E+01 0.  1.
        -11    1    1    2    0    0  0.90318220618E+02 -0.74227101438E+02 -0.99282895944E+02  0.15337580315E+03  0.00000000000E+00 0.  1.
         11    1    1    2    0    0 -0.84135231256E+01  0.15277222390E+02 -0.34707005072E+02  0.38842722566E+02  0.00000000000E+00 0. -1.
<mgrwt>
<rscale>  0 0.15461338E+03</rscale>
<asrwt>0</asrwt>
<pdfrwt beam="2">  1        2 0.86565182E-01 0.16065373E+03</pdfrwt>
<pdfrwt beam="1">  1       -2 0.69634934E-02 0.16065373E+03</pdfrwt>
<totfact> 0.62036041E+03</totfact>
</mgrwt>
</event>
<event>
 6    1  0.6101889E-006  0.3905664E+03  0.7546771E-02  0.1047096E+00
         -3   -1    0    0    0  501 -0.00000000000E+00  0.00000000000E+00  0.17581406285E+03  0.17581406285E+03  0.00000000000E+00 0.  1.
          3   -1    0    0  501    0  0.00000000000E+00 -0.00000000000E+00 -0.21690826404E+03  0.21690826404E+03  0.00000000000E+00 0. -1.
          5    1    1    2  502    0 -0.10568854679E+02  0.35105809889E+02 -0.83852570996E+02  0.91637668236E+02  0.47000000000E+01 0.  1.
         -5    1    1    2    0  502 -0.11756964387E+03  0.18968725203E+02 -0.15730171863E+02  0.12021631338E+03  0.47000000000E+01 0.  1.
        -11    1    1    2    0    0  0.94252961481E+02 -0.58429125937E+01 -0.45768656546E+01  0.94544741127E+02  0.00000000000E+00 0. -1.
         11    1    1    2    0    0  0.33885537071E+02 -0.48231622498E+02  0.63065407322E+02  0.86323604142E+02  0.00000000000E+00 0.  1.
<mgrwt>
<rscale>  0 0.39056637E+03</rscale>
<asrwt>0</asrwt>
<pdfrwt beam="2">  1        3 0.33370502E-01 0.39056637E+03</pdfrwt>
<pdfrwt beam="1">  1       -3 0.27048317E-01 0.39056637E+03</pdfrwt>
<totfact> 0.29777864E+02</totfact>
</mgrwt>
</event>
<event>
 6    1  0.6101889E-006  0.1289970E+03  0.7546771E-02  0.1242657E+00
         -2   -1    0    0    0  501 -0.00000000000E+00  0.00000000000E+00  0.21933348748E+02  0.21933348748E+02  0.00000000000E+00 0.  1.
          2   -1    0    0  501    0  0.00000000000E+00 -0.00000000000E+00 -0.60333353577E+03  0.60333353577E+03  0.00000000000E+00 0. -1.
          5    1    1    2  502    0 -0.11946125315E+02  0.68524892172E+02 -0.18361905720E+03  0.19640880561E+03  0.47000000000E+01 0.  1.
         -5    1    1    2    0  502 -0.17129914269E+02 -0.55462407507E+02 -0.20093264843E+03  0.20920213147E+03  0.47000000000E+01 0.  1.
        -11    1    1    2    0    0  0.13030722737E+02 -0.49463416620E+02 -0.69872828502E+02  0.86594696614E+02  0.00000000000E+00 0.  1.
         11    1    1    2    0    0  0.16045316847E+02  0.36400931955E+02 -0.12697565289E+03  0.13306125081E+03  0.00000000000E+00 0. -1.
<mgrwt>
<rscale>  0 0.12026706E+03</rscale>
<asrwt>0</asrwt>
<pdfrwt beam="2">  1        2 0.92820546E-01 0.12899697E+03</pdfrwt>
<pdfrwt beam="1">  1       -2 0.33743613E-02 0.12899697E+03</pdfrwt>
<totfact> 0.16781238E+04</totfact>
</mgrwt>
</event>
<event>
 6    1  0.6101889E-006  0.1428452E+03  0.7546771E-02  0.1220088E+00
          4   -1    0    0  501    0  0.00000000000E+00  0.00000000000E+00  0.22300683020E+03  0.22300683020E+03  0.00000000000E+00 0. -1.
         -4   -1    0    0    0  501 -0.00000000000E+00 -0.00000000000E+00 -0.74116970491E+02  0.74116970491E+02  0.00000000000E+00 0.  1.
          5    1    1    2  502    0 -0.40023799226E+02 -0.11965335590E+02 -0.15021171633E+02  0.44640781327E+02  0.47000000000E+01 0.  1.
         -5    1    1    2    0  502  0.41912871648E+02 -0.57155043334E+02  0.96450653964E+02  0.11978399909E+03  0.47000000000E+01 0.  1.
        -11    1    1    2    0    0 -0.25674159717E+02 -0.61223224592E+00 -0.83301062875E+01  0.26998666194E+02  0.00000000000E+00 0.  1.
         11    1    1    2    0    0  0.23785087296E+02  0.69732611170E+02  0.75790483668E+02  0.10570035408E+03  0.00000000000E+00 0. -1.
<mgrwt>
<rscale>  0 0.13509346E+03</rscale>
<asrwt>0</asrwt>
<pdfrwt beam="1">  1        4 0.34308743E-01 0.14284519E+03</pdfrwt>
<pdfrwt beam="2">  1       -4 0.11402611E-01 0.14284519E+03</pdfrwt>
<totfact> 0.83264295E+02</totfact>
</mgrwt>
</event>
<event>
 6    1  0.6101889E-006  0.1145604E+03  0.7546771E-02  0.1261506E+00
          2   -1    0    0  501    0  0.00000000000E+00  0.00000000000E+00  0.23498538892E+03  0.23498538892E+03  0.00000000000E+00 0. -1.
         -2   -1    0    0    0  501 -0.00000000000E+00 -0.00000000000E+00 -0.99459247977E+02  0.99459247977E+02  0.00000000000E+00 0.  1.
          5    1    1    2  502    0  0.15572799884E+02 -0.51923938210E+01  0.19317030182E+03  0.19392351212E+03  0.47000000000E+01 0. -1.
         -5    1    1    2    0  502 -0.14498406815E+02 -0.25278743553E+02 -0.12986029733E+01  0.29546489563E+02  0.47000000000E+01 0.  1.
        -11    1    1    2    0    0  0.25230562744E+01  0.56511269810E+02 -0.96451139834E+01  0.57383949430E+02  0.00000000000E+00 0.  1.
         11    1    1    2    0    0 -0.35974493436E+01 -0.26040132435E+02 -0.46700443925E+02  0.53590685775E+02  0.00000000000E+00 0. -1.
<mgrwt>
<rscale>  0 0.10949581E+03</rscale>
<asrwt>0</asrwt>
<pdfrwt beam="1">  1        2 0.36151598E-01 0.11456043E+03</pdfrwt>
<pdfrwt beam="2">  1       -2 0.15301423E-01 0.11456043E+03</pdfrwt>
<totfact> 0.44876858E+03</totfact>
</mgrwt>
</event>
<event>
 6    1  0.6101889E-006  0.1214801E+03  0.7546771E-02  0.1245552E+00
          1   -1    0    0  501    0  0.00000000000E+00  0.00000000000E+00  0.74788406429E+03  0.74788406429E+03  0.00000000000E+00 0. -1.
         -1   -1    0    0    0  501 -0.00000000000E+00 -0.00000000000E+00 -0.29672377933E+02  0.29672377933E+02  0.00000000000E+00 0.  1.
          5    1    1    2  502    0 -0.23791067481E+02 -0.50031629436E+02  0.35912545857E+03  0.36340385775E+03  0.47000000000E+01 0. -1.
         -5    1    1    2    0  502  0.60344102197E+02  0.16794278448E+02  0.25511465629E+03  0.26273377459E+03  0.47000000000E+01 0.  1.
        -11    1    1    2    0    0 -0.56303250757E+02  0.13118680882E+02  0.10842692538E+03  0.12287617337E+03  0.00000000000E+00 0.  1.
         11    1    1    2    0    0  0.19750216041E+02  0.20118670106E+02 -0.44553538863E+01  0.28542636507E+02  0.00000000000E+00 0. -1.
<mgrwt>
<rscale>  0 0.11852386E+03</rscale>
<asrwt>0</asrwt>
<pdfrwt beam="1">  1        1 0.11505907E+00 0.12148011E+03</pdfrwt>
<pdfrwt beam="2">  1       -1 0.45649818E-02 0.12148011E+03</pdfrwt>
<totfact> 0.49770025E+03</totfact>
</mgrwt>
</event>
<event>
 6    1  0.6101889E-006  0.1383111E+03  0.7546771E-02  0.1228136E+00
          1   -1    0    0  501    0  0.00000000000E+00  0.00000000000E+00  0.40483607235E+03  0.40483607235E+03  0.00000000000E+00 0. -1.
         -1   -1    0    0    0  501 -0.00000000000E+00 -0.00000000000E+00 -0.40837285939E+02  0.40837285939E+02  0.00000000000E+00 0.  1.
          5    1    1    2  502    0  0.14801168217E+02 -0.63531575220E+02  0.17244543635E+03  0.18443116372E+03  0.47000000000E+01 0. -1.
         -5    1    1    2    0  502 -0.62056148067E+02  0.27877019821E+02  0.98891441445E+02  0.12012369016E+03  0.47000000000E+01 0. -1.
        -11    1    1    2    0    0 -0.10582867854E+02 -0.13791053960E+02  0.52029728831E+02  0.54856931591E+02  0.00000000000E+00 0. -1.
         11    1    1    2    0    0  0.57837847705E+02  0.49445609360E+02  0.40632179787E+02  0.86261572826E+02  0.00000000000E+00 0.  1.
<mgrwt>
<rscale>  0 0.12954268E+03</rscale>
<asrwt>0</asrwt>
<pdfrwt beam="1">  1        1 0.62282470E-01 0.13831109E+03</pdfrwt>
<pdfrwt beam="2">  1       -1 0.62826597E-02 0.13831109E+03</pdfrwt>
<totfact> 0.71079408E+03</totfact>
</mgrwt>
</event>
<event>
 6    1  0.6101889E-006  0.1741301E+03  0.7546771E-02  0.1179800E+00
         -1   -1    0    0    0  501 -0.00000000000E+00  0.00000000000E+00  0.19824072609E+02  0.19824072609E+02  0.00000000000E+00 0.  1.
          1   -1    0    0  501    0  0.00000000000E+00 -0.00000000000E+00 -0.20288507288E+04  0.20288507288E+04  0.00000000000E+00 0. -1.
          5    1    1    2  502    0  0.46289041044E+02  0.56944951265E+02 -0.11199324699E+04  0.11223440782E+04  0.47000000000E+01 0.  1.
         -5    1    1    2    0  502  0.73913667806E+02 -0.41284124034E+02 -0.52834270084E+03  0.53510345609E+03  0.47000000000E+01 0.  1.
        -11    1    1    2    0    0 -0.42808369074E+02 -0.29395694950E+02 -0.55450475563E+02  0.75969853130E+02  0.00000000000E+00 0.  1.
         11    1    1    2    0    0 -0.77394339776E+02  0.13734867719E+02 -0.30530100987E+03  0.31525741395E+03  0.00000000000E+00 0. -1.
<mgrwt>
<rscale>  0 0.16814170E+03</rscale>
<asrwt>0</asrwt>
<pdfrwt beam="2">  1        1 0.31213088E+00 0.17413010E+03</pdfrwt>
<pdfrwt beam="1">  1       -1 0.30498574E-02 0.17413010E+03</pdfrwt>
<totfact> 0.11990271E+03</totfact>
</mgrwt>
</event>
<event>
 6    1  0.6101889E-006  0.1259791E+03  0.7546771E-02  0.1248979E+00
         -2   -1    0    0    0  501 -0.00000000000E+00  0.00000000000E+00  0.39940539527E+02  0.39940539527E+02  0.00000000000E+00 0.  1.
          2   -1    0    0  501    0  0.00000000000E+00 -0.00000000000E+00 -0.36813139195E+03  0.36813139195E+03  0.00000000000E+00 0. -1.
          5    1    1    2  502    0 -0.50797845895E+02  0.39371786682E+02 -0.12292092242E+03  0.13878833490E+03  0.47000000000E+01 0.  1.
         -5    1    1    2    0  502  0.37277916111E+02 -0.47631418101E+02 -0.15007789350E+03  0.16187606103E+03  0.47000000000E+01 0.  1.
        -11    1    1    2    0    0 -0.36013413353E+02 -0.43652936611E+01 -0.40175979921E+02  0.54130685315E+02  0.00000000000E+00 0. -1.
         11    1    1    2    0    0  0.49533343136E+02  0.12624925080E+02 -0.15016056588E+02  0.53276850235E+02  0.00000000000E+00 0.  1.
<mgrwt>
<rscale>  0 0.11650341E+03</rscale>
<asrwt>0</asrwt>
<pdfrwt beam="2">  1        2 0.56635600E-01 0.12597907E+03</pdfrwt>
<pdfrwt beam="1">  1       -2 0.61446982E-02 0.12597907E+03</pdfrwt>
<totfact> 0.11726909E+04</totfact>
</mgrwt>
</event>
<event>
 6    1  0.6101889E-006  0.1293132E+03  0.7546771E-02  0.1243786E+00
          1   -1    0    0  501    0  0.00000000000E+00  0.00000000000E+00  0.28303643863E+03  0.28303643863E+03  0.00000000000E+00 0. -1.
         -1   -1    0    0    0  501 -0.00000000000E+00 -0.00000000000E+00 -0.44714166530E+02  0.44714166530E+02  0.00000000000E+00 0.  1.
          5    1    1    2  502    0  0.43554293476E+02 -0.55511580551E+02  0.94480685443E+02  0.11801356692E+03  0.47000000000E+01 0. -1.
         -5    1    1    2    0  502 -0.50536827240E+02  0.27922638144E+02  0.59073505191E+02  0.82737014957E+02  0.47000000000E+01 0.  1.
        -11    1    1    2    0    0  0.41875443976E+02  0.35454575884E+02  0.68335503926E+02  0.87637439808E+02  0.00000000000E+00 0. -1.
         11    1    1    2    0    0 -0.34892910211E+02 -0.78656334777E+01  0.16432577537E+02  0.39362583471E+02  0.00000000000E+00 0.  1.
<mgrwt>
<rscale>  0 0.11958312E+03</rscale>
<asrwt>0</asrwt>
<pdfrwt beam="1">  1        1 0.43544066E-01 0.12931321E+03</pdfrwt>
<pdfrwt beam="2">  1       -1 0.68791027E-02 0.12931321E+03</pdfrwt>
<totfact> 0.96479099E+03</totfact>
</mgrwt>
</event>
<event>
 6    1  0.6101889E-006  0.1261292E+03  0.7546771E-02  0.1248594E+00
          2   -1    0    0  501    0  0.00000000000E+00  0.00000000000E+00  0.99122600831E+02  0.99122600831E+02  0.00000000000E+00 0. -1.
         -2   -1    0    0    0  501 -0.00000000000E+00 -0.00000000000E+00 -0.12433850914E+03  0.12433850914E+03  0.00000000000E+00 0.  1.
          5    1    1    2  502    0 -0.45777538516E+02  0.12692480849E+02 -0.45601043037E+02  0.66016870789E+02  0.47000000000E+01 0.  1.
         -5    1    1    2    0  502  0.29078764153E+02 -0.15006802596E+02  0.50311077371E+02  0.60200275373E+02  0.47000000000E+01 0.  1.
        -11    1    1    2    0    0  0.16022604927E+02  0.43851381039E+02 -0.11364825424E+01  0.46700739611E+02  0.00000000000E+00 0.  1.
         11    1    1    2    0    0  0.67616943593E+00 -0.41537059291E+02 -0.28789460104E+02  0.50543224202E+02  0.00000000000E+00 0. -1.
<mgrwt>
<rscale>  0 0.11672833E+03</rscale>
<asrwt>0</asrwt>
<pdfrwt beam="1">  1        2 0.15249631E-01 0.12612923E+03</pdfrwt>
<pdfrwt beam="2">  1       -2 0.19129001E-01 0.12612923E+03</pdfrwt>
<totfact> 0.81329181E+03</totfact>
</mgrwt>
</event>
<event>
 6    1  0.6101889E-006  0.1394231E+03  0.7546771E-02  0.1224867E+00
         -2   -1    0    0    0  501 -0.00000000000E+00  0.00000000000E+00  0.43216978438E+02  0.43216978438E+02  0.00000000000E+00 0.  1.
          2   -1    0    0  501    0  0.00000000000E+00 -0.00000000000E+00 -0.51468691518E+03  0.51468691518E+03  0.00000000000E+00 0. -1.
          5    1    1    2  502    0 -0.27252351548E+02 -0.60931747023E+02 -0.14609483966E+03  0.16068964072E+03  0.47000000000E+01 0.  1.
         -5    1    1    2    0  502  0.66362657825E+02  0.13081992659E+02 -0.25894867101E+03  0.26767824922E+03  0.47000000000E+01 0.  1.
        -11    1    1    2    0    0 -0.32884251970E+02  0.34378861205E+02 -0.89930673064E+02  0.10173891135E+03  0.00000000000E+00 0. -1.
         11    1    1    2    0    0 -0.62260543069E+01  0.13470893159E+02  0.23504246997E+02  0.27797092323E+02  0.00000000000E+00 0.  1.
<mgrwt>
<rscale>  0 0.13176030E+03</rscale>
<asrwt>0</asrwt>
<pdfrwt beam="2">  1        2 0.79182598E-01 0.13942311E+03</pdfrwt>
<pdfrwt beam="1">  1       -2 0.66487663E-02 0.13942311E+03</pdfrwt>
<totfact> 0.72976472E+03</totfact>
</mgrwt>
</event>
<event>
 6    1  0.6101889E-006  0.1261695E+03  0.7546771E-02  0.1246489E+00
         -2   -1    0    0    0  501 -0.00000000000E+00  0.00000000000E+00  0.15715254009E+02  0.15715254009E+02  0.00000000000E+00 0.  1.
          2   -1    0    0  501    0  0.00000000000E+00 -0.00000000000E+00 -0.25459726714E+04  0.25459726714E+04  0.00000000000E+00 0. -1.
          5    1    1    2  502    0  0.53569040802E+02  0.77884242970E+01 -0.16453926463E+04  0.16462895712E+04  0.47000000000E+01 0.  1.
         -5    1    1    2    0  502 -0.59173680249E+02  0.84371653054E+01 -0.73339974574E+03  0.73584644271E+03  0.47000000000E+01 0.  1.
        -11    1    1    2    0    0  0.39269879393E+02  0.50558501430E+01 -0.24674530137E+02  0.46653161583E+02  0.00000000000E+00 0.  1.
         11    1    1    2    0    0 -0.33665239945E+02 -0.21281439745E+02 -0.12679049521E+03  0.13289874994E+03  0.00000000000E+00 0. -1.
<mgrwt>
<rscale>  0 0.11796686E+03</rscale>
<asrwt>0</asrwt>
<pdfrwt beam="2">  1        2 0.39168786E+00 0.12616951E+03</pdfrwt>
<pdfrwt beam="1">  1       -2 0.24177329E-02 0.12616951E+03</pdfrwt>
<totfact> 0.22443286E+03</totfact>
</mgrwt>
</event>
<event>
 6    1  0.6101889E-006  0.1327696E+03  0.7546771E-02  0.1236027E+00
          1   -1    0    0  501    0  0.00000000000E+00  0.00000000000E+00  0.88432920245E+02  0.88432920245E+02  0.00000000000E+00 0. -1.
         -1   -1    0    0    0  501 -0.00000000000E+00 -0.00000000000E+00 -0.21871292767E+03  0.21871292767E+03  0.00000000000E+00 0.  1.
          5    1    1    2  502    0 -0.39581733417E+02  0.41200926758E+02 -0.40042898801E+02  0.69926774060E+02  0.47000000000E+01 0. -1.
         -5    1    1    2    0  502  0.37657062502E+02  0.35382189473E+01  0.50479753114E+02  0.63252421487E+02  0.47000000000E+01 0. -1.
        -11    1    1    2    0    0 -0.15195431054E+02 -0.67967689624E+02 -0.11888310376E+03  0.13778134967E+03  0.00000000000E+00 0.  1.
         11    1    1    2    0    0  0.17120101969E+02  0.23228543918E+02 -0.21833757985E+02  0.36185302704E+02  0.00000000000E+00 0. -1.
<mgrwt>
<rscale>  0 0.12438897E+03</rscale>
<asrwt>0</asrwt>
<pdfrwt beam="1">  1        1 0.13605065E-01 0.13276961E+03</pdfrwt>
<pdfrwt beam="2">  1       -1 0.33648142E-01 0.13276961E+03</pdfrwt>
<totfact> 0.34155122E+03</totfact>
</mgrwt>
</event>
<event>
 6    1  0.6101889E-006  0.1298650E+03  0.7546771E-02  0.1240514E+00
         -2   -1    0    0    0  501 -0.00000000000E+00  0.00000000000E+00  0.16814434886E+03  0.16814434886E+03  0.00000000000E+00 0.  1.
          2   -1    0    0  501    0  0.00000000000E+00 -0.00000000000E+00 -0.78835440810E+02  0.78835440810E+02  0.00000000000E+00 0. -1.
          5    1    1    2  502    0  0.53179703726E+02  0.32041970919E+02  0.53474880672E+02  0.82075706830E+02  0.47000000000E+01 0. -1.
         -5    1    1    2    0  502 -0.21752412299E+02 -0.47928624042E+02 -0.12119284995E+02  0.54215196321E+02  0.47000000000E+01 0. -1.
        -11    1    1    2    0    0  0.16664584941E+02  0.20184307179E+02  0.55929203193E+02  0.61751035760E+02  0.00000000000E+00 0.  1.
         11    1    1    2    0    0 -0.48091876368E+02 -0.42976540565E+01 -0.79758908161E+01  0.48937850763E+02  0.00000000000E+00 0. -1.
<mgrwt>
<rscale>  0 0.12157961E+03</rscale>
<asrwt>0</asrwt>
<pdfrwt beam="2">  1        2 0.12128529E-01 0.12986503E+03</pdfrwt>
<pdfrwt beam="1">  1       -2 0.25868361E-01 0.12986503E+03</pdfrwt>
<totfact> 0.63679231E+03</totfact>
</mgrwt>
</event>
<event>
 6    1  0.6101889E-006  0.1815080E+03  0.7546771E-02  0.1182324E+00
          2   -1    0    0  501    0  0.00000000000E+00  0.00000000000E+00  0.70303722761E+03  0.70303722761E+03  0.00000000000E+00 0. -1.
         -2   -1    0    0    0  501 -0.00000000000E+00 -0.00000000000E+00 -0.34217489447E+02  0.34217489447E+02  0.00000000000E+00 0.  1.
          5    1    1    2  502    0 -0.31053470093E+02 -0.12551014126E+03  0.30354318438E+03  0.32996616243E+03  0.47000000000E+01 0. -1.
         -5    1    1    2    0  502 -0.28477291486E+01  0.43753051041E+02  0.44986801477E+02  0.62994772353E+02  0.47000000000E+01 0.  1.
        -11    1    1    2    0    0  0.24040495299E+02 -0.10502353998E+02  0.12960052003E+03  0.13222911800E+03  0.00000000000E+00 0. -1.
         11    1    1    2    0    0  0.98607039429E+01  0.92259444221E+02  0.19068923227E+03  0.21206466428E+03  0.00000000000E+00 0.  1.
<mgrwt>
<rscale>  0 0.16577766E+03</rscale>
<asrwt>0</asrwt>
<pdfrwt beam="1">  1        2 0.10815956E+00 0.18150798E+03</pdfrwt>
<pdfrwt beam="2">  1       -2 0.52642297E-02 0.18150798E+03</pdfrwt>
<totfact> 0.73816406E+03</totfact>
</mgrwt>
</event>
<event>
 6    1  0.6101889E-006  0.1476209E+03  0.7546771E-02  0.1209499E+00
          2   -1    0    0  501    0  0.00000000000E+00  0.00000000000E+00  0.11628610035E+04  0.11628610035E+04  0.00000000000E+00 0. -1.
         -2   -1    0    0    0  501 -0.00000000000E+00 -0.00000000000E+00 -0.35984178744E+02  0.35984178744E+02  0.00000000000E+00 0.  1.
          5    1    1    2  502    0 -0.85386521195E+02 -0.60885740990E+02  0.90954042727E+03  0.91557840205E+03  0.47000000000E+01 0. -1.
         -5    1    1    2    0  502 -0.15145080765E+01  0.31865546910E+02  0.11118746973E+03  0.11576895196E+03  0.47000000000E+01 0.  1.
        -11    1    1    2    0    0  0.17719941480E+02 -0.28937893324E+02  0.52482985809E+02  0.62496894287E+02  0.00000000000E+00 0. -1.
         11    1    1    2    0    0  0.69181087791E+02  0.57958087403E+02  0.53665941945E+02  0.10500093394E+03  0.00000000000E+00 0.  1.
<mgrwt>
<rscale>  0 0.14288462E+03</rscale>
<asrwt>0</asrwt>
<pdfrwt beam="1">  1        2 0.17890166E+00 0.14762088E+03</pdfrwt>
<pdfrwt beam="2">  1       -2 0.55360284E-02 0.14762088E+03</pdfrwt>
<totfact> 0.34739111E+03</totfact>
</mgrwt>
</event>
<event>
 6    1  0.6101889E-006  0.1493445E+03  0.7546771E-02  0.1210222E+00
         -3   -1    0    0    0  501 -0.00000000000E+00  0.00000000000E+00  0.51057569090E+02  0.51057569090E+02  0.00000000000E+00 0. -1.
          3   -1    0    0  501    0  0.00000000000E+00 -0.00000000000E+00 -0.14297382923E+04  0.14297382923E+04  0.00000000000E+00 0.  1.
          5    1    1    2  502    0  0.48199739479E+01 -0.45779036983E+02 -0.47785045742E+03  0.48008551533E+03  0.47000000000E+01 0. -1.
         -5    1    1    2    0  502  0.72506874183E+02  0.72222203632E+02 -0.86686503182E+03  0.87289768409E+03  0.47000000000E+01 0. -1.
        -11    1    1    2    0    0 -0.14352132493E+02 -0.22520731393E+02  0.28478520394E+02  0.39040916657E+02  0.00000000000E+00 0. -1.
         11    1    1    2    0    0 -0.62974715638E+02 -0.39224352564E+01 -0.62443754400E+02  0.88771745345E+02  0.00000000000E+00 0.  1.
<mgrwt>
<rscale>  0 0.14233434E+03</rscale>
<asrwt>0</asrwt>
<pdfrwt beam="2">  1        3 0.21995974E+00 0.14934454E+03</pdfrwt>
<pdfrwt beam="1">  1       -3 0.78550105E-02 0.14934454E+03</pdfrwt>
<totfact> 0.32443797E+01</totfact>
</mgrwt>
</event>
<event>
 6    1  0.6101889E-006  0.1269211E+03  0.7546771E-02  0.1247400E+00
         -2   -1    0    0    0  501 -0.00000000000E+00  0.00000000000E+00  0.11073197134E+03  0.11073197134E+03  0.00000000000E+00 0.  1.
          2   -1    0    0  501    0  0.00000000000E+00 -0.00000000000E+00 -0.11142371504E+03  0.11142371504E+03  0.00000000000E+00 0. -1.
          5    1    1    2  502    0 -0.36987553114E+02  0.97322245412E+01 -0.55360010159E+02  0.67450841394E+02  0.47000000000E+01 0.  1.
         -5    1    1    2    0  502  0.33041843660E+02 -0.31402017174E+02  0.39445751588E+02  0.60464100369E+02  0.47000000000E+01 0.  1.
        -11    1    1    2    0    0 -0.19021364254E+02  0.24895593104E+01  0.46896052947E+02  0.50668037121E+02  0.00000000000E+00 0.  1.
         11    1    1    2    0    0  0.22967073707E+02  0.19180233322E+02 -0.31673538067E+02  0.43572707497E+02  0.00000000000E+00 0. -1.
<mgrwt>
<rscale>  0 0.11742886E+03</rscale>
<asrwt>0</asrwt>
<pdfrwt beam="2">  1        2 0.17142110E-01 0.12692111E+03</pdfrwt>
<pdfrwt beam="1">  1       -2 0.17035688E-01 0.12692111E+03</pdfrwt>
<totfact> 0.86206973E+03</totfact>
</mgrwt>
</event>
<event>
 6    1  0.6101889E-006  0.1659163E+03  0.7546771E-02  0.1189013E+00
          1   -1    0    0  501    0  0.00000000000E+00  0.00000000000E+00  0.24191060829E+02  0.24191060829E+02  0.00000000000E+00 0. -1.
         -1   -1    0    0    0  501 -0.00000000000E+00 -0.00000000000E+00 -0.98580826307E+03  0.98580826307E+03  0.00000000000E+00 0.  1.
          5    1    1    2  502    0 -0.53137693441E+02  0.33725723670E+02 -0.46202643979E+03  0.46631701660E+03  0.47000000000E+01 0. -1.
         -5    1    1    2    0  502 -0.35126170082E+00  0.61356370643E+02 -0.82480162174E+02  0.10290672843E+03  0.47000000000E+01 0. -1.
        -11    1    1    2    0    0  0.40816347926E+02 -0.11274862664E+03 -0.36865672266E+03  0.38766739124E+03  0.00000000000E+00 0.  1.
         11    1    1    2    0    0  0.12672607216E+02  0.17666532326E+02 -0.48453877608E+02  0.53108187630E+02  0.00000000000E+00 0. -1.
<mgrwt>
<rscale>  0 0.15971983E+03</rscale>
<asrwt>0</asrwt>
<pdfrwt beam="1">  1        1 0.37217004E-02 0.16591634E+03</pdfrwt>
<pdfrwt beam="2">  1       -1 0.15166286E+00 0.16591634E+03</pdfrwt>
<totfact> 0.91391978E+02</totfact>
</mgrwt>
</event>
<event>
 6    1  0.6101889E-006  0.1297497E+03  0.7546771E-02  0.1241209E+00
          3   -1    0    0  501    0  0.00000000000E+00  0.00000000000E+00  0.13638106272E+03  0.13638106272E+03  0.00000000000E+00 0. -1.
         -3   -1    0    0    0  501 -0.00000000000E+00 -0.00000000000E+00 -0.13337649708E+03  0.13337649708E+03  0.00000000000E+00 0.  1.
          5    1    1    2  502    0  0.26843877488E+02  0.33911654322E+02  0.59776399613E+02  0.73931738841E+02  0.47000000000E+01 0. -1.
         -5    1    1    2    0  502 -0.26416221995E+02 -0.68696332926E+02  0.13167330176E+02  0.74916430280E+02  0.47000000000E+01 0. -1.
        -11    1    1    2    0    0  0.44489681489E+02  0.13596796202E+02 -0.47250209048E+02  0.66308271588E+02  0.00000000000E+00 0.  1.
         11    1    1    2    0    0 -0.44917336981E+02  0.21187882402E+02 -0.22688955104E+02  0.54601119090E+02  0.00000000000E+00 0. -1.
<mgrwt>
<rscale>  0 0.12115198E+03</rscale>
<asrwt>0</asrwt>
<pdfrwt beam="1">  1        3 0.20981702E-01 0.12974972E+03</pdfrwt>
<pdfrwt beam="2">  1       -3 0.20519461E-01 0.12974972E+03</pdfrwt>
<totfact> 0.10113592E+03</totfact>
</mgrwt>
</event>
<event>
 6    1  0.6101889E-006  0.3386202E+03  0.7546771E-02  0.1067385E+00
          2   -1    0    0  501    0  0.00000000000E+00  0.00000000000E+00  0.13072089769E+04  0.13072089769E+04  0.00000000000E+00 0. -1.
         -2   -1    0    0    0  501 -0.00000000000E+00 -0.00000000000E+00 -0.21929094298E+02  0.21929094298E+02  0.00000000000E+00 0.  1.
          5    1    1    2  502    0  0.37109345477E+02 -0.10487485657E+03  0.42481906122E+03  0.43916871911E+03  0.47000000000E+01 0.  1.
         -5    1    1    2    0  502  0.36894715286E+01  0.30103233478E+01  0.52918643619E+03  0.52922872985E+03  0.47000000000E+01 0.  1.
        -11    1    1    2    0    0 -0.33458757854E+02  0.24087829709E+02  0.34201180541E+02  0.53567086608E+02  0.00000000000E+00 0.  1.
         11    1    1    2    0    0 -0.73400591515E+01  0.77776703513E+02  0.29707320469E+03  0.30717353568E+03  0.00000000000E+00 0. -1.
<mgrwt>
<rscale>  0 0.33862019E+03</rscale>
<asrwt>0</asrwt>
<pdfrwt beam="1">  1        2 0.20110901E+00 0.33862019E+03</pdfrwt>
<pdfrwt beam="2">  1       -2 0.33737078E-02 0.33862019E+03</pdfrwt>
<totfact> 0.61965817E+03</totfact>
</mgrwt>
</event>
<event>
 6    1  0.6101889E-006  0.1293391E+03  0.7546771E-02  0.1242450E+00
          2   -1    0    0  501    0  0.00000000000E+00  0.00000000000E+00  0.42095428389E+03  0.42095428389E+03  0.00000000000E+00 0. -1.
         -2   -1    0    0    0  501 -0.00000000000E+00 -0.00000000000E+00 -0.30519414274E+02  0.30519414274E+02  0.00000000000E+00 0.  1.
          5    1    1    2  502    0  0.37042490828E+02  0.96509487885E+01  0.16210840315E+02  0.41835012645E+02  0.47000000000E+01 0. -1.
         -5    1    1    2    0  502 -0.55811089698E+02  0.17750238280E+02  0.21730101449E+03  0.22510390843E+03  0.47000000000E+01 0. -1.
        -11    1    1    2    0    0 -0.14047291479E+02 -0.17340006999E+02 -0.15667767260E+01  0.22370896940E+02  0.00000000000E+00 0.  1.
         11    1    1    2    0    0  0.32815890349E+02 -0.10061180070E+02  0.15848979153E+03  0.16216388015E+03  0.00000000000E+00 0. -1.
<mgrwt>
<rscale>  0 0.12039301E+03</rscale>
<asrwt>0</asrwt>
<pdfrwt beam="1">  1        2 0.64762193E-01 0.12933909E+03</pdfrwt>
<pdfrwt beam="2">  1       -2 0.46952948E-02 0.12933909E+03</pdfrwt>
<totfact> 0.15271774E+04</totfact>
</mgrwt>
</event>
<event>
 6    1  0.6101889E-006  0.1411317E+03  0.7546771E-02  0.1223083E+00
         -1   -1    0    0    0  501 -0.00000000000E+00  0.00000000000E+00  0.38388284763E+03  0.38388284763E+03  0.00000000000E+00 0.  1.
          1   -1    0    0  501    0  0.00000000000E+00 -0.00000000000E+00 -0.45748810337E+02  0.45748810337E+02  0.00000000000E+00 0. -1.
          5    1    1    2  502    0 -0.68559020183E+02  0.47691405631E+02  0.97440448744E+02  0.12841939289E+03  0.47000000000E+01 0. -1.
         -5    1    1    2    0  502  0.32199966310E+01 -0.52406091416E+02  0.24651552193E+02  0.58194121879E+02  0.47000000000E+01 0. -1.
        -11    1    1    2    0    0  0.64236147264E+02  0.21058656278E+02  0.21631811691E+03  0.22663467811E+03  0.00000000000E+00 0.  1.
         11    1    1    2    0    0  0.11028762872E+01 -0.16343970492E+02 -0.27608055670E+00  0.16383465080E+02  0.00000000000E+00 0. -1.
<mgrwt>
<rscale>  0 0.13299168E+03</rscale>
<asrwt>0</asrwt>
<pdfrwt beam="2">  1        1 0.70382788E-02 0.14113167E+03</pdfrwt>
<pdfrwt beam="1">  1       -1 0.59058897E-01 0.14113167E+03</pdfrwt>
<totfact> 0.30006497E+03</totfact>
</mgrwt>
</event>
<event>
 6    1  0.6101889E-006  0.1459457E+03  0.7546771E-02  0.1216350E+00
         -2   -1    0    0    0  501 -0.00000000000E+00  0.00000000000E+00  0.52442236390E+02  0.52442236390E+02  0.00000000000E+00 0.  1.
          2   -1    0    0  501    0  0.00000000000E+00 -0.00000000000E+00 -0.41989406508E+03  0.41989406508E+03  0.00000000000E+00 0. -1.
          5    1    1    2  502    0  0.34395803430E+02  0.26183737813E+02 -0.49490280472E+02  0.65878959317E+02  0.47000000000E+01 0. -1.
         -5    1    1    2    0  502 -0.89889541226E+02  0.24764197746E+02 -0.26121296474E+03  0.27739448094E+03  0.47000000000E+01 0. -1.
        -11    1    1    2    0    0  0.79009970104E+02 -0.36016396958E+02 -0.50726963131E+02  0.10056331843E+03  0.00000000000E+00 0. -1.
         11    1    1    2    0    0 -0.23516232308E+02 -0.14931538602E+02 -0.60216203528E+01  0.28499542780E+02  0.00000000000E+00 0.  1.
<mgrwt>
<rscale>  0 0.13777821E+03</rscale>
<asrwt>0</asrwt>
<pdfrwt beam="2">  1        2 0.64599089E-01 0.14594570E+03</pdfrwt>
<pdfrwt beam="1">  1       -2 0.80680361E-02 0.14594570E+03</pdfrwt>
<totfact> 0.67839068E+03</totfact>
</mgrwt>
</event>
<event>
 6    1  0.6101889E-006  0.1484869E+03  0.7546771E-02  0.1211847E+00
          1   -1    0    0  501    0  0.00000000000E+00  0.00000000000E+00  0.88910704658E+03  0.88910704658E+03  0.00000000000E+00 0. -1.
         -1   -1    0    0    0  501 -0.00000000000E+00 -0.00000000000E+00 -0.23328001890E+02  0.23328001890E+02  0.00000000000E+00 0.  1.
          5    1    1    2  502    0 -0.21787977389E+02  0.46931644099E+02  0.30718171252E+03  0.31154452280E+03  0.47000000000E+01 0.  1.
         -5    1    1    2    0  502 -0.53218561383E+02 -0.75173345203E+02  0.32417078597E+03  0.33703417569E+03  0.47000000000E+01 0.  1.
        -11    1    1    2    0    0 -0.62483016826E+01  0.38041817019E+02  0.62311371893E+02  0.73272970345E+02  0.00000000000E+00 0. -1.
         11    1    1    2    0    0  0.81254840454E+02 -0.98001159150E+01  0.17211517430E+03  0.19058337964E+03  0.00000000000E+00 0.  1.
<mgrwt>
<rscale>  0 0.14110713E+03</rscale>
<asrwt>0</asrwt>
<pdfrwt beam="1">  1        1 0.13678567E+00 0.14848687E+03</pdfrwt>
<pdfrwt beam="2">  1       -1 0.35889241E-02 0.14848687E+03</pdfrwt>
<totfact> 0.54971741E+03</totfact>
</mgrwt>
</event>
<event>
 6    1  0.6101889E-006  0.3075916E+03  0.7546771E-02  0.1081506E+00
         -2   -1    0    0    0  501 -0.00000000000E+00  0.00000000000E+00  0.48127059968E+02  0.48127059968E+02  0.00000000000E+00 0.  1.
          2   -1    0    0  501    0  0.00000000000E+00 -0.00000000000E+00 -0.49147300439E+03  0.49147300439E+03  0.00000000000E+00 0. -1.
          5    1    1    2  502    0  0.17261913364E+01  0.10357609402E+02  0.49948101597E+01  0.12541847455E+02  0.47000000000E+01 0.  1.
         -5    1    1    2    0  502 -0.24270681657E+02 -0.25375449330E+02 -0.42580372072E+03  0.42727494427E+03  0.47000000000E+01 0.  1.
        -11    1    1    2    0    0  0.50068767800E+02 -0.17828799599E+01  0.13037145306E+02  0.51768980361E+02  0.00000000000E+00 0.  1.
         11    1    1    2    0    0 -0.27524277479E+02  0.16800719887E+02 -0.35574179165E+02  0.48014292275E+02  0.00000000000E+00 0. -1.
<mgrwt>
<rscale>  0 0.30759162E+03</rscale>
<asrwt>0</asrwt>
<pdfrwt beam="2">  1        2 0.75611227E-01 0.30759162E+03</pdfrwt>
<pdfrwt beam="1">  1       -2 0.74041635E-02 0.30759162E+03</pdfrwt>
<totfact> 0.67727500E+03</totfact>
</mgrwt>
</event>
<event>
 6    1  0.6101889E-006  0.1498951E+03  0.7546771E-02  0.1210929E+00
          1   -1    0    0  501    0  0.00000000000E+00  0.00000000000E+00  0.83204676146E+03  0.83204676146E+03  0.00000000000E+00 0. -1.
         -1   -1    0    0    0  501 -0.00000000000E+00 -0.00000000000E+00 -0.22164499626E+02  0.22164499626E+02  0.00000000000E+00 0.  1.
          5    1    1    2  502    0 -0.54585318445E+02 -0.83006829745E+02  0.19584221466E+03  0.21964961602E+03  0.47000000000E+01 0. -1.
         -5    1    1    2    0  502 -0.12174115489E+02  0.34159937464E+02  0.20639584807E+03  0.20961022522E+03  0.47000000000E+01 0. -1.
        -11    1    1    2    0    0  0.37263121567E+02  0.72960391420E+02  0.27484719186E+03  0.28679738113E+03  0.00000000000E+00 0. -1.
         11    1    1    2    0    0  0.29496312368E+02 -0.24113499138E+02  0.13279700724E+03  0.13815403873E+03  0.00000000000E+00 0.  1.
<mgrwt>
<rscale>  0 0.14179906E+03</rscale>
<asrwt>0</asrwt>
<pdfrwt beam="1">  1        1 0.12800717E+00 0.14989514E+03</pdfrwt>
<pdfrwt beam="2">  1       -1 0.34099237E-02 0.14989514E+03</pdfrwt>
<totfact> 0.65754125E+03</totfact>
</mgrwt>
</event>
<event>
 6    1  0.6101889E-006  0.1858525E+03  0.7546771E-02  0.1166827E+00
          1   -1    0    0  501    0  0.00000000000E+00  0.00000000000E+00  0.95377613288E+02  0.95377613288E+02  0.00000000000E+00 0. -1.
         -1   -1    0    0    0  501 -0.00000000000E+00 -0.00000000000E+00 -0.42421454613E+03  0.42421454613E+03  0.00000000000E+00 0.  1.
          5    1    1    2  502    0  0.28588647244E+02  0.13062487238E+02 -0.48856392593E+02  0.58283586208E+02  0.47000000000E+01 0. -1.
         -5    1    1    2    0  502 -0.52882350930E+02  0.12230916612E+03  0.21338971835E+01  0.13335186040E+03  0.47000000000E+01 0. -1.
        -11    1    1    2    0    0  0.39188985985E+02 -0.13909974197E+03 -0.27577245814E+03  0.31134380274E+03  0.00000000000E+00 0.  1.
         11    1    1    2    0    0 -0.14895282298E+02  0.37280886187E+01 -0.63419792984E+01  0.16612910068E+02  0.00000000000E+00 0. -1.
<mgrwt>
<rscale>  0 0.18101191E+03</rscale>
<asrwt>0</asrwt>
<pdfrwt beam="1">  1        1 0.14673479E-01 0.18585250E+03</pdfrwt>
<pdfrwt beam="2">  1       -1 0.65263776E-01 0.18585250E+03</pdfrwt>
<totfact> 0.94066793E+02</totfact>
</mgrwt>
</event>
<event>
 6    1  0.6101889E-006  0.1374742E+03  0.7546771E-02  0.1229345E+00
         -2   -1    0    0    0  501 -0.00000000000E+00  0.00000000000E+00  0.89568380982E+02  0.89568380982E+02  0.00000000000E+00 0. -1.
          2   -1    0    0  501    0  0.00000000000E+00 -0.00000000000E+00 -0.16653953855E+03  0.16653953855E+03  0.00000000000E+00 0.  1.
          5    1    1    2  502    0 -0.49519709179E+01 -0.14604739236E+02 -0.75901632029E+02  0.77594897827E+02  0.47000000000E+01 0. -1.
         -5    1    1    2    0  502  0.58215019293E+02  0.34015283065E+02  0.20491714402E+02  0.70625974771E+02  0.47000000000E+01 0. -1.
        -11    1    1    2    0    0  0.10899433183E+02 -0.13596239484E+02  0.23507936819E+02  0.29262236163E+02  0.00000000000E+00 0. -1.
         11    1    1    2    0    0 -0.64162481558E+02 -0.58143043452E+01 -0.45069176756E+02  0.78624810767E+02  0.00000000000E+00 0.  1.
<mgrwt>
<rscale>  0 0.12873470E+03</rscale>
<asrwt>0</asrwt>
<pdfrwt beam="2">  1        2 0.25621467E-01 0.13747425E+03</pdfrwt>
<pdfrwt beam="1">  1       -2 0.13779751E-01 0.13747425E+03</pdfrwt>
<totfact> 0.78119737E+03</totfact>
</mgrwt>
</event>
<event>
 6    1  0.6101889E-006  0.1273133E+03  0.7546771E-02  0.1245917E+00
         -2   -1    0    0    0  501 -0.00000000000E+00  0.00000000000E+00  0.13157504046E+02  0.13157504046E+02  0.00000000000E+00 0.  1.
          2   -1    0    0  501    0  0.00000000000E+00 -0.00000000000E+00 -0.10579205299E+04  0.10579205299E+04  0.00000000000E+00 0. -1.
          5    1    1    2  502    0 -0.21075791260E+02 -0.13109361774E+01 -0.73253602770E+03  0.73285539461E+03  0.47000000000E+01 0.  1.
         -5    1    1    2    0  502  0.17209308779E+02 -0.22541654029E+02 -0.35588310983E+02  0.45748271592E+02  0.47000000000E+01 0.  1.
        -11    1    1    2    0    0  0.73375671653E+01  0.44923929852E+02 -0.26349608293E+03  0.26739892499E+03  0.00000000000E+00 0.  1.
         11    1    1    2    0    0 -0.34710846847E+01 -0.21071339646E+02 -0.13142604249E+02  0.25075442764E+02  0.00000000000E+00 0. -1.
<mgrwt>
<rscale>  0 0.11830679E+03</rscale>
<asrwt>0</asrwt>
<pdfrwt beam="2">  1        2 0.16275699E+00 0.12731327E+03</pdfrwt>
<pdfrwt beam="1">  1       -2 0.20242316E-02 0.12731327E+03</pdfrwt>
<totfact> 0.17514694E+04</totfact>
</mgrwt>
</event>
<event>
 6    1  0.6101889E-006  0.1409529E+03  0.7546771E-02  0.1219728E+00
         -3   -1    0    0    0  501 -0.00000000000E+00  0.00000000000E+00  0.11640077519E+03  0.11640077519E+03  0.00000000000E+00 0.  1.
          3   -1    0    0  501    0  0.00000000000E+00 -0.00000000000E+00 -0.17445186413E+03  0.17445186413E+03  0.00000000000E+00 0. -1.
          5    1    1    2  502    0  0.50354802719E+00  0.51198621775E+02 -0.70759963845E+01  0.51900984163E+02  0.47000000000E+01 0.  1.
         -5    1    1    2    0  502  0.64531777675E+02 -0.47545156647E+02 -0.82411711651E+02  0.11505943016E+03  0.47000000000E+01 0.  1.
        -11    1    1    2    0    0 -0.88901781853E+01  0.43882154232E+02  0.21467482525E+02  0.49654119005E+02  0.00000000000E+00 0. -1.
         11    1    1    2    0    0 -0.56145147517E+02 -0.47535619359E+02  0.99691365693E+01  0.74238105993E+02  0.00000000000E+00 0.  1.
<mgrwt>
<rscale>  0 0.13534860E+03</rscale>
<asrwt>0</asrwt>
<pdfrwt beam="2">  1        3 0.26838748E-01 0.14095294E+03</pdfrwt>
<pdfrwt beam="1">  1       -3 0.17907812E-01 0.14095294E+03</pdfrwt>
<totfact> 0.83590271E+02</totfact>
</mgrwt>
</event>
<event>
 6    1  0.6101889E-006  0.4146647E+03  0.7546771E-02  0.1038817E+00
          1   -1    0    0  501    0  0.00000000000E+00  0.00000000000E+00  0.52129894235E+03  0.52129894235E+03  0.00000000000E+00 0. -1.
         -1   -1    0    0    0  501 -0.00000000000E+00 -0.00000000000E+00 -0.82460757621E+02  0.82460757621E+02  0.00000000000E+00 0.  1.
          5    1    1    2  502    0  0.83077307885E+02  0.71760908803E+02  0.11770695053E+03  0.16102323845E+03  0.47000000000E+01 0.  1.
         -5    1    1    2    0  502  0.19158469826E+01  0.50310174436E+02  0.24788485372E+03  0.25298967335E+03  0.47000000000E+01 0.  1.
        -11    1    1    2    0    0 -0.59687187442E+02 -0.43758231830E+02 -0.75775800277E+01  0.74395987236E+02  0.00000000000E+00 0.  1.
         11    1    1    2    0    0 -0.25305967425E+02 -0.78312851409E+02  0.80823960511E+02  0.11535080093E+03  0.00000000000E+00 0. -1.
<mgrwt>
<rscale>  0 0.41466471E+03</rscale>
<asrwt>0</asrwt>
<pdfrwt beam="1">  1        1 0.80199835E-01 0.41466471E+03</pdfrwt>
<pdfrwt beam="2">  1       -1 0.12686271E-01 0.41466471E+03</pdfrwt>
<totfact> 0.17981929E+03</totfact>
</mgrwt>
</event>
<event>
 6    1  0.6101889E-006  0.1368280E+03  0.7546771E-02  0.1229076E+00
         -2   -1    0    0    0  501 -0.00000000000E+00  0.00000000000E+00  0.97622010640E+02  0.97622010640E+02  0.00000000000E+00 0.  1.
          2   -1    0    0  501    0  0.00000000000E+00 -0.00000000000E+00 -0.16683120786E+03  0.16683120786E+03  0.00000000000E+00 0. -1.
          5    1    1    2  502    0 -0.63845064062E+02 -0.54671638662E+02 -0.10380762917E+02  0.84823525733E+02  0.47000000000E+01 0. -1.
         -5    1    1    2    0  502  0.19480156561E+02  0.21048538386E+02 -0.65450516318E+02  0.71612691292E+02  0.47000000000E+01 0. -1.
        -11    1    1    2    0    0  0.59183989089E-02 -0.15356010254E+02 -0.29096822402E+02  0.32900336774E+02  0.00000000000E+00 0. -1.
         11    1    1    2    0    0  0.44358989102E+02  0.48979110530E+02  0.35718904419E+02  0.75116664698E+02  0.00000000000E+00 0.  1.
<mgrwt>
<rscale>  0 0.12891394E+03</rscale>
<asrwt>0</asrwt>
<pdfrwt beam="2">  1        2 0.25666340E-01 0.13682802E+03</pdfrwt>
<pdfrwt beam="1">  1       -2 0.15018771E-01 0.13682802E+03</pdfrwt>
<totfact> 0.67755342E+03</totfact>
</mgrwt>
</event>
<event>
 6    1  0.6101889E-006  0.1275108E+03  0.7546771E-02  0.1245838E+00
         -1   -1    0    0    0  501 -0.00000000000E+00  0.00000000000E+00  0.31155080866E+02  0.31155080866E+02  0.00000000000E+00 0.  1.
          1   -1    0    0  501    0  0.00000000000E+00 -0.00000000000E+00 -0.40847614921E+03  0.40847614921E+03  0.00000000000E+00 0. -1.
          5    1    1    2  502    0  0.12538931304E+02 -0.46692687323E+02 -0.45106358395E+02  0.66288048812E+02  0.47000000000E+01 0. -1.
         -5    1    1    2    0  502  0.79822408797E+01  0.61449298730E+02 -0.20858792666E+03  0.21764821532E+03  0.47000000000E+01 0. -1.
        -11    1    1    2    0    0 -0.34612649199E+02  0.29530729628E+02 -0.42834713370E+02  0.62489296255E+02  0.00000000000E+00 0.  1.
         11    1    1    2    0    0  0.14091477015E+02 -0.44287341035E+02 -0.80792069922E+02  0.93205669692E+02  0.00000000000E+00 0. -1.
<mgrwt>
<rscale>  0 0.11835393E+03</rscale>
<asrwt>0</asrwt>
<pdfrwt beam="2">  1        1 0.62842479E-01 0.12751083E+03</pdfrwt>
<pdfrwt beam="1">  1       -1 0.47930898E-02 0.12751083E+03</pdfrwt>
<totfact> 0.10441509E+04</totfact>
</mgrwt>
</event>
<event>
 6    1  0.6101889E-006  0.1470912E+03  0.7546771E-02  0.1213732E+00
         -2   -1    0    0    0  501 -0.00000000000E+00  0.00000000000E+00  0.20341172047E+02  0.20341172047E+02  0.00000000000E+00 0.  1.
          2   -1    0    0  501    0  0.00000000000E+00 -0.00000000000E+00 -0.90106726437E+03  0.90106726437E+03  0.00000000000E+00 0. -1.
          5    1    1    2  502    0  0.85395966840E+01 -0.93884472130E+02 -0.35516007229E+03  0.36748875598E+03  0.47000000000E+01 0. -1.
         -5    1    1    2    0  502  0.40255246813E+02  0.33635974316E+02 -0.20754329044E+03  0.21412186033E+03  0.47000000000E+01 0. -1.
        -11    1    1    2    0    0 -0.74854256929E+02  0.52653791063E+02 -0.22513553629E+03  0.24302590643E+03  0.00000000000E+00 0. -1.
         11    1    1    2    0    0  0.26059413433E+02  0.75947067507E+01 -0.92887193296E+02  0.96771913681E+02  0.00000000000E+00 0.  1.
<mgrwt>
<rscale>  0 0.13970069E+03</rscale>
<asrwt>0</asrwt>
<pdfrwt beam="2">  1        2 0.13862572E+00 0.14709125E+03</pdfrwt>
<pdfrwt beam="1">  1       -2 0.31294114E-02 0.14709125E+03</pdfrwt>
<totfact> 0.11632483E+04</totfact>
</mgrwt>
</event>
<event>
 6    1  0.6101889E-006  0.1301160E+03  0.7546771E-02  0.1242788E+00
          1   -1    0    0  501    0  0.00000000000E+00  0.00000000000E+00  0.10788232860E+04  0.10788232860E+04  0.00000000000E+00 0. -1.
         -1   -1    0    0    0  501 -0.00000000000E+00 -0.00000000000E+00 -0.21030252071E+02  0.21030252071E+02  0.00000000000E+00 0.  1.
          5    1    1    2  502    0 -0.25020430370E+02  0.30945464979E+02  0.11228525957E+03  0.11922127854E+03  0.47000000000E+01 0. -1.
         -5    1    1    2    0  502  0.56404304303E+02 -0.13043081691E+02  0.82646288757E+03  0.82850139532E+03  0.47000000000E+01 0. -1.
        -11    1    1    2    0    0  0.21065346679E+02 -0.26182854161E+02  0.18337812791E+02  0.38282712295E+02  0.00000000000E+00 0.  1.
         11    1    1    2    0    0 -0.52449220612E+02  0.82804708733E+01  0.10070707396E+03  0.11384815188E+03  0.00000000000E+00 0. -1.
<mgrwt>
<rscale>  0 0.12018769E+03</rscale>
<asrwt>0</asrwt>
<pdfrwt beam="1">  1        1 0.16597277E+00 0.13011604E+03</pdfrwt>
<pdfrwt beam="2">  1       -1 0.32354242E-02 0.13011604E+03</pdfrwt>
<totfact> 0.46076427E+03</totfact>
</mgrwt>
</event>
<event>
 6    1  0.6101889E-006  0.1275113E+03  0.7546771E-02  0.1238735E+00
         -1   -1    0    0    0  501 -0.00000000000E+00  0.00000000000E+00  0.16754827551E+02  0.16754827551E+02  0.00000000000E+00 0.  1.
          1   -1    0    0  501    0  0.00000000000E+00 -0.00000000000E+00 -0.87051824775E+03  0.87051824775E+03  0.00000000000E+00 0. -1.
          5    1    1    2  502    0 -0.11409206999E+02 -0.34897945994E+02 -0.18425381760E+03  0.18793508437E+03  0.47000000000E+01 0. -1.
         -5    1    1    2    0  502  0.53875673689E+02  0.71848469835E+02 -0.36163407858E+03  0.37264740389E+03  0.47000000000E+01 0.  1.
        -11    1    1    2    0    0 -0.50454792210E+02 -0.43724293543E+02 -0.30902417514E+03  0.31615414076E+03  0.00000000000E+00 0. -1.
         11    1    1    2    0    0  0.79883255200E+01  0.67737697020E+01  0.11486511239E+01  0.10536446270E+02  0.00000000000E+00 0.  1.
<mgrwt>
<rscale>  0 0.12268298E+03</rscale>
<asrwt>0</asrwt>
<pdfrwt beam="2">  1        1 0.13392589E+00 0.12751130E+03</pdfrwt>
<pdfrwt beam="1">  1       -1 0.25776657E-02 0.12751130E+03</pdfrwt>
<totfact> 0.91343260E+03</totfact>
</mgrwt>
</event>
<event>
 6    1  0.6101889E-006  0.1400176E+03  0.7546771E-02  0.1223493E+00
         -4   -1    0    0    0  501 -0.00000000000E+00  0.00000000000E+00  0.10318270745E+03  0.10318270745E+03  0.00000000000E+00 0.  1.
          4   -1    0    0  501    0  0.00000000000E+00 -0.00000000000E+00 -0.16226179086E+03  0.16226179086E+03  0.00000000000E+00 0. -1.
          5    1    1    2  502    0 -0.17211332786E+02 -0.56353144082E+02 -0.74347393232E+02  0.94981744060E+02  0.47000000000E+01 0. -1.
         -5    1    1    2    0  502 -0.41091395459E+02  0.37343601287E+02  0.14049335368E+02  0.57467566175E+02  0.47000000000E+01 0.  1.
        -11    1    1    2    0    0  0.20803500610E+02 -0.30307231154E+02 -0.26304565097E+02  0.45202257054E+02  0.00000000000E+00 0. -1.
         11    1    1    2    0    0  0.37499227635E+02  0.49316773949E+02  0.27523539554E+02  0.67792931014E+02  0.00000000000E+00 0.  1.
<mgrwt>
<rscale>  0 0.13270757E+03</rscale>
<asrwt>0</asrwt>
<pdfrwt beam="2">  1        4 0.24963353E-01 0.14001763E+03</pdfrwt>
<pdfrwt beam="1">  1       -4 0.15874263E-01 0.14001763E+03</pdfrwt>
<totfact> 0.85222460E+02</totfact>
</mgrwt>
</event>
<event>
 6    1  0.6101889E-006  0.1479541E+03  0.7546771E-02  0.1213571E+00
         -3   -1    0    0    0  501 -0.00000000000E+00  0.00000000000E+00  0.24543888167E+03  0.24543888167E+03  0.00000000000E+00 0.  1.
          3   -1    0    0  501    0  0.00000000000E+00 -0.00000000000E+00 -0.82533538595E+02  0.82533538595E+02  0.00000000000E+00 0. -1.
          5    1    1    2  502    0 -0.54549000737E+02  0.44172324582E+02 -0.35787931369E+02  0.78928155762E+02  0.47000000000E+01 0. -1.
         -5    1    1    2    0  502  0.12882633840E+02  0.23127063176E+02  0.67123003184E+02  0.72307751052E+02  0.47000000000E+01 0. -1.
        -11    1    1    2    0    0  0.47947098779E+02 -0.33303044888E+02  0.12956180235E+03  0.14210657166E+03  0.00000000000E+00 0.  1.
         11    1    1    2    0    0 -0.62807318813E+01 -0.33996342871E+02  0.20084689152E+01  0.34629941798E+02  0.00000000000E+00 0. -1.
<mgrwt>
<rscale>  0 0.13982018E+03</rscale>
<asrwt>0</asrwt>
<pdfrwt beam="2">  1        3 0.12697468E-01 0.14795409E+03</pdfrwt>
<pdfrwt beam="1">  1       -3 0.37759828E-01 0.14795409E+03</pdfrwt>
<totfact> 0.80224110E+02</totfact>
</mgrwt>
</event>
<event>
 6    1  0.6101889E-006  0.2069616E+03  0.7546771E-02  0.1148249E+00
          1   -1    0    0  501    0  0.00000000000E+00  0.00000000000E+00  0.11992543421E+04  0.11992543421E+04  0.00000000000E+00 0. -1.
         -1   -1    0    0    0  501 -0.00000000000E+00 -0.00000000000E+00 -0.36728929775E+02  0.36728929775E+02  0.00000000000E+00 0.  1.
          5    1    1    2  502    0 -0.12580208363E+02  0.14855279225E+03  0.45367479979E+03  0.47756581504E+03  0.47000000000E+01 0. -1.
         -5    1    1    2    0  502  0.32897256823E+02  0.15141664262E+02  0.36663221224E+03  0.36844642563E+03  0.47000000000E+01 0. -1.
        -11    1    1    2    0    0  0.27714063022E+01 -0.16174379187E+03  0.31586854756E+03  0.35488262036E+03  0.00000000000E+00 0. -1.
         11    1    1    2    0    0 -0.23088454762E+02 -0.19506646439E+01  0.26349852690E+02  0.35088410802E+02  0.00000000000E+00 0.  1.
<mgrwt>
<rscale>  0 0.20177622E+03</rscale>
<asrwt>0</asrwt>
<pdfrwt beam="1">  1        1 0.18450064E+00 0.20696163E+03</pdfrwt>
<pdfrwt beam="2">  1       -1 0.56506055E-02 0.20696163E+03</pdfrwt>
<totfact> 0.16775343E+03</totfact>
</mgrwt>
</event>
<event>
 6    1  0.6101889E-006  0.1668324E+03  0.7546771E-02  0.1188714E+00
         -1   -1    0    0    0  501 -0.00000000000E+00  0.00000000000E+00  0.21851109107E+03  0.21851109107E+03  0.00000000000E+00 0.  1.
          1   -1    0    0  501    0  0.00000000000E+00 -0.00000000000E+00 -0.10912215675E+03  0.10912215675E+03  0.00000000000E+00 0. -1.
          5    1    1    2  502    0 -0.35813529292E+02 -0.61997581606E+02 -0.16562882309E+02  0.73639174871E+02  0.47000000000E+01 0. -1.
         -5    1    1    2    0  502 -0.70252501954E+02  0.31042459374E+02  0.63236067314E+02  0.99598888167E+02  0.47000000000E+01 0. -1.
        -11    1    1    2    0    0  0.62567162867E+02  0.13172329454E+02  0.81671526633E+02  0.10372269952E+03  0.00000000000E+00 0.  1.
         11    1    1    2    0    0  0.43498868379E+02  0.17782792778E+02 -0.18955777312E+02  0.50672485263E+02  0.00000000000E+00 0. -1.
<mgrwt>
<rscale>  0 0.15998507E+03</rscale>
<asrwt>0</asrwt>
<pdfrwt beam="2">  1        1 0.16788024E-01 0.16683237E+03</pdfrwt>
<pdfrwt beam="1">  1       -1 0.33617091E-01 0.16683237E+03</pdfrwt>
<totfact> 0.26335197E+03</totfact>
</mgrwt>
</event>
<event>
 6    1  0.6101889E-006  0.1509435E+03  0.7546771E-02  0.1208382E+00
         -2   -1    0    0    0  501 -0.00000000000E+00  0.00000000000E+00  0.16895765690E+02  0.16895765690E+02  0.00000000000E+00 0.  1.
          2   -1    0    0  501    0  0.00000000000E+00 -0.00000000000E+00 -0.13404104371E+04  0.13404104371E+04  0.00000000000E+00 0. -1.
          5    1    1    2  502    0  0.45803135121E+02 -0.59888611237E+02 -0.28804078808E+03  0.29778206551E+03  0.47000000000E+01 0. -1.
         -5    1    1    2    0  502 -0.41958134025E+02 -0.24628970213E+02 -0.70195212646E+03  0.70365186636E+03  0.47000000000E+01 0. -1.
        -11    1    1    2    0    0 -0.27268558002E+02  0.43952357767E+01 -0.28719836454E+02  0.39846221390E+02  0.00000000000E+00 0.  1.
         11    1    1    2    0    0  0.23423556907E+02  0.80122345674E+02 -0.30480192041E+03  0.31602604953E+03  0.00000000000E+00 0. -1.
<mgrwt>
<rscale>  0 0.14374087E+03</rscale>
<asrwt>0</asrwt>
<pdfrwt beam="2">  1        2 0.20621700E+00 0.15094353E+03</pdfrwt>
<pdfrwt beam="1">  1       -2 0.25993485E-02 0.15094353E+03</pdfrwt>
<totfact> 0.85532111E+03</totfact>
</mgrwt>
</event>
<event>
 6    1  0.6101889E-006  0.1458126E+03  0.7546771E-02  0.1215889E+00
         -2   -1    0    0    0  501 -0.00000000000E+00  0.00000000000E+00  0.14918046359E+02  0.14918046359E+02  0.00000000000E+00 0.  1.
          2   -1    0    0  501    0  0.00000000000E+00 -0.00000000000E+00 -0.14477955031E+04  0.14477955031E+04  0.00000000000E+00 0. -1.
          5    1    1    2  502    0  0.53239886148E+02  0.28500817658E+02 -0.86381644394E+03  0.86593748095E+03  0.47000000000E+01 0.  1.
         -5    1    1    2    0  502 -0.39440284992E+02  0.45275598866E+02 -0.23878673818E+03  0.24626532900E+03  0.47000000000E+01 0.  1.
        -11    1    1    2    0    0  0.20508504386E+02 -0.54898843506E+02 -0.28356972527E+03  0.28956220551E+03  0.00000000000E+00 0. -1.
         11    1    1    2    0    0 -0.34308105542E+02 -0.18877573017E+02 -0.46704549378E+02  0.60948534039E+02  0.00000000000E+00 0.  1.
<mgrwt>
<rscale>  0 0.13811453E+03</rscale>
<asrwt>0</asrwt>
<pdfrwt beam="2">  1        2 0.22273768E+00 0.14581260E+03</pdfrwt>
<pdfrwt beam="1">  1       -2 0.22950850E-02 0.14581260E+03</pdfrwt>
<totfact> 0.89865220E+03</totfact>
</mgrwt>
</event>
<event>
 6    1  0.7595274E-006  0.2802402E+03  0.7546771E-02  0.1097553E+00
         -1   -1    0    0    0  501 -0.00000000000E+00  0.00000000000E+00  0.50571234895E+02  0.50571234895E+02  0.00000000000E+00 0.  1.
          1   -1    0    0  501    0  0.00000000000E+00 -0.00000000000E+00 -0.14811904937E+04  0.14811904937E+04  0.00000000000E+00 0. -1.
          5    1    1    2  502    0  0.80295490225E+01  0.28059990347E+02 -0.36629773273E+02  0.47070872159E+02  0.47000000000E+01 0. -1.
         -5    1    1    2    0  502  0.24277132057E+03 -0.30963365252E+02 -0.64819231992E+03  0.69287229536E+03  0.47000000000E+01 0. -1.
        -11    1    1    2    0    0 -0.14871970899E+03  0.41443830443E+02 -0.48925971953E+03  0.51304017004E+03  0.00000000000E+00 0. -1.
         11    1    1    2    0    0 -0.10208116061E+03 -0.38540455538E+02 -0.25653744608E+03  0.27877839103E+03  0.00000000000E+00 0.  1.
<mgrwt>
<rscale>  0 0.27661379E+03</rscale>
<asrwt>0</asrwt>
<pdfrwt beam="2">  1        1 0.22787547E+00 0.28024024E+03</pdfrwt>
<pdfrwt beam="1">  1       -1 0.77801895E-02 0.28024024E+03</pdfrwt>
<totfact> 0.66218643E+02</totfact>
</mgrwt>
</event>
<event>
 6    1  0.6101889E-006  0.1789401E+03  0.7546771E-02  0.1174401E+00
          1   -1    0    0  501    0  0.00000000000E+00  0.00000000000E+00  0.21136099241E+03  0.21136099241E+03  0.00000000000E+00 0. -1.
         -1   -1    0    0    0  501 -0.00000000000E+00 -0.00000000000E+00 -0.13942466054E+03  0.13942466054E+03  0.00000000000E+00 0.  1.
          5    1    1    2  502    0  0.67094203414E+02  0.67643120851E+02  0.29952027873E+02  0.99982187934E+02  0.47000000000E+01 0.  1.
         -5    1    1    2    0  502  0.60444036150E+02 -0.56343396370E+02  0.42857915930E+02  0.93203813112E+02  0.47000000000E+01 0.  1.
        -11    1    1    2    0    0 -0.46016179817E+02 -0.73456028441E+01 -0.45031626475E+02  0.64801960380E+02  0.00000000000E+00 0.  1.
         11    1    1    2    0    0 -0.81522059748E+02 -0.39541216371E+01  0.44158014544E+02  0.92797691522E+02  0.00000000000E+00 0. -1.
<mgrwt>
<rscale>  0 0.17334759E+03</rscale>
<asrwt>0</asrwt>
<pdfrwt beam="1">  1        1 0.32517076E-01 0.17894005E+03</pdfrwt>
<pdfrwt beam="2">  1       -1 0.21449948E-01 0.17894005E+03</pdfrwt>
<totfact> 0.24140860E+03</totfact>
</mgrwt>
</event>
<event>
 6    1  0.6101889E-006  0.2719270E+03  0.7546771E-02  0.1100182E+00
          3   -1    0    0  501    0  0.00000000000E+00  0.00000000000E+00  0.21954326651E+03  0.21954326651E+03  0.00000000000E+00 0. -1.
         -3   -1    0    0    0  501 -0.00000000000E+00 -0.00000000000E+00 -0.84202423283E+02  0.84202423283E+02  0.00000000000E+00 0.  1.
          5    1    1    2  502    0 -0.34816350801E+02  0.17752858035E+02  0.49970508237E+02  0.63611979571E+02  0.47000000000E+01 0.  1.
         -5    1    1    2    0  502  0.97296485997E+02  0.32951665231E+02  0.41195527938E+02  0.11077716349E+03  0.47000000000E+01 0.  1.
        -11    1    1    2    0    0  0.46617685136E+01 -0.53687267842E+02  0.25399947126E+02  0.59575264397E+02  0.00000000000E+00 0. -1.
         11    1    1    2    0    0 -0.67141903710E+02  0.29827445764E+01  0.18774859927E+02  0.69781282335E+02  0.00000000000E+00 0.  1.
<mgrwt>
<rscale>  0 0.27192701E+03</rscale>
<asrwt>0</asrwt>
<pdfrwt beam="1">  1        3 0.33775887E-01 0.27192701E+03</pdfrwt>
<pdfrwt beam="2">  1       -3 0.12954219E-01 0.27192701E+03</pdfrwt>
<totfact> 0.10415364E+03</totfact>
</mgrwt>
</event>
<event>
 6    1  0.6101889E-006  0.1443102E+03  0.7546771E-02  0.1221002E+00
          1   -1    0    0  501    0  0.00000000000E+00  0.00000000000E+00  0.20438702492E+04  0.20438702492E+04  0.00000000000E+00 0. -1.
         -1   -1    0    0    0  501 -0.00000000000E+00 -0.00000000000E+00 -0.15202309348E+02  0.15202309348E+02  0.00000000000E+00 0.  1.
          5    1    1    2  502    0 -0.77941641068E+02  0.67365397977E+01  0.81458056244E+03  0.81834214304E+03  0.47000000000E+01 0. -1.
         -5    1    1    2    0  502  0.45163122050E+02  0.43693562575E+02  0.98646094589E+03  0.98847160949E+03  0.47000000000E+01 0.  1.
        -11    1    1    2    0    0 -0.21306834044E+01 -0.17448290283E+02 -0.19749132133E+01  0.17688497046E+02  0.00000000000E+00 0.  1.
         11    1    1    2    0    0  0.34909202422E+02 -0.32981812090E+02  0.22960134469E+03  0.23457030892E+03  0.00000000000E+00 0. -1.
<mgrwt>
<rscale>  0 0.13444762E+03</rscale>
<asrwt>0</asrwt>
<pdfrwt beam="1">  1        1 0.31444136E+00 0.14431016E+03</pdfrwt>
<pdfrwt beam="2">  1       -1 0.23388184E-02 0.14431016E+03</pdfrwt>
<totfact> 0.17306551E+03</totfact>
</mgrwt>
</event>
<event>
 6    1  0.6101889E-006  0.1256641E+03  0.7546771E-02  0.1246339E+00
          3   -1    0    0  501    0  0.00000000000E+00  0.00000000000E+00  0.24213506044E+02  0.24213506044E+02  0.00000000000E+00 0. -1.
         -3   -1    0    0    0  501 -0.00000000000E+00 -0.00000000000E+00 -0.52209090846E+03  0.52209090846E+03  0.00000000000E+00 0.  1.
          5    1    1    2  502    0 -0.40905949312E+02 -0.33913326165E+02 -0.15604585123E+03  0.16491151587E+03  0.47000000000E+01 0.  1.
         -5    1    1    2    0  502  0.51642685941E+02  0.41077888936E+02 -0.94130283947E+02  0.11505198967E+03  0.47000000000E+01 0.  1.
        -11    1    1    2    0    0  0.24005653497E+02  0.34814419261E+02 -0.88779262394E+02  0.98336527392E+02  0.00000000000E+00 0. -1.
         11    1    1    2    0    0 -0.34742390126E+02 -0.41978982032E+02 -0.15892200485E+03  0.16800438157E+03  0.00000000000E+00 0.  1.
<mgrwt>
<rscale>  0 0.11805597E+03</rscale>
<asrwt>0</asrwt>
<pdfrwt beam="1">  1        3 0.37251552E-02 0.12566410E+03</pdfrwt>
<pdfrwt beam="2">  1       -3 0.80321670E-01 0.12566410E+03</pdfrwt>
<totfact> 0.12207723E+03</totfact>
</mgrwt>
</event>
<event>
 6    1  0.6101889E-006  0.1751220E+03  0.7546771E-02  0.1179435E+00
          1   -1    0    0  501    0  0.00000000000E+00  0.00000000000E+00  0.97469449585E+03  0.97469449585E+03  0.00000000000E+00 0. -1.
         -1   -1    0    0    0  501 -0.00000000000E+00 -0.00000000000E+00 -0.28434178945E+02  0.28434178945E+02  0.00000000000E+00 0.  1.
          5    1    1    2  502    0  0.70582918810E+01  0.10805730650E+03  0.25126952315E+03  0.27365062440E+03  0.47000000000E+01 0. -1.
         -5    1    1    2    0  502  0.37932355333E+02  0.60441702350E+01  0.36414090100E+03  0.36619131797E+03  0.47000000000E+01 0. -1.
        -11    1    1    2    0    0 -0.40600577138E+02 -0.60583244067E+01  0.10936585062E+03  0.11681609239E+03  0.00000000000E+00 0.  1.
         11    1    1    2    0    0 -0.43900700757E+01 -0.10804315233E+03  0.22148404213E+03  0.24647064003E+03  0.00000000000E+00 0. -1.
<mgrwt>
<rscale>  0 0.16848685E+03</rscale>
<asrwt>0</asrwt>
<pdfrwt beam="1">  1        1 0.14995297E+00 0.17512202E+03</pdfrwt>
<pdfrwt beam="2">  1       -1 0.43744898E-02 0.17512202E+03</pdfrwt>
<totfact> 0.35544008E+03</totfact>
</mgrwt>
</event>
<event>
 6    1  0.6101889E-006  0.1259891E+03  0.7546771E-02  0.1248362E+00
         -1   -1    0    0    0  501 -0.00000000000E+00  0.00000000000E+00  0.63430819135E+02  0.63430819135E+02  0.00000000000E+00 0.  1.
          1   -1    0    0  501    0  0.00000000000E+00 -0.00000000000E+00 -0.22986168522E+03  0.22986168522E+03  0.00000000000E+00 0. -1.
          5    1    1    2  502    0 -0.58158794242E+02  0.33318571612E+01 -0.90604738264E+02  0.10781862184E+03  0.47000000000E+01 0.  1.
         -5    1    1    2    0  502  0.62727513313E+02 -0.18384555343E+02 -0.63755345772E+02  0.91430667262E+02  0.47000000000E+01 0.  1.
        -11    1    1    2    0    0 -0.29476651929E+02  0.23969721558E+02 -0.40279075553E+02  0.55369887917E+02  0.00000000000E+00 0. -1.
         11    1    1    2    0    0  0.24907932858E+02 -0.89170233766E+01  0.28208293501E+02  0.38673327338E+02  0.00000000000E+00 0.  1.
<mgrwt>
<rscale>  0 0.11686372E+03</rscale>
<asrwt>0</asrwt>
<pdfrwt beam="2">  1        1 0.35363336E-01 0.12598906E+03</pdfrwt>
<pdfrwt beam="1">  1       -1 0.97585875E-02 0.12598906E+03</pdfrwt>
<totfact> 0.73466032E+03</totfact>
</mgrwt>
</event>
<event>
 6    1  0.6101889E-006  0.1759064E+03  0.7546771E-02  0.1176906E+00
          2   -1    0    0  501    0  0.00000000000E+00  0.00000000000E+00  0.46693605779E+03  0.46693605779E+03  0.00000000000E+00 0. -1.
         -2   -1    0    0    0  501 -0.00000000000E+00 -0.00000000000E+00 -0.60523392041E+02  0.60523392041E+02  0.00000000000E+00 0.  1.
          5    1    1    2  502    0  0.34971515374E+02 -0.14015131028E+03  0.17485380620E+03  0.22685092066E+03  0.47000000000E+01 0.  1.
         -5    1    1    2    0  502 -0.11607559475E+02  0.18619587847E+02  0.78060309060E+02  0.81221464769E+02  0.47000000000E+01 0.  1.
        -11    1    1    2    0    0 -0.16973653712E+02  0.10368578084E+03  0.54060279986E+02  0.11815819879E+03  0.00000000000E+00 0.  1.
         11    1    1    2    0    0 -0.63903021875E+01  0.17845941589E+02  0.99438270504E+02  0.10122886562E+03  0.00000000000E+00 0. -1.
<mgrwt>
<rscale>  0 0.17090679E+03</rscale>
<asrwt>0</asrwt>
<pdfrwt beam="1">  1        2 0.71836314E-01 0.17590635E+03</pdfrwt>
<pdfrwt beam="2">  1       -2 0.93112914E-02 0.17590635E+03</pdfrwt>
<totfact> 0.48820463E+03</totfact>
</mgrwt>
</event>
<event>
 6    1  0.6101889E-006  0.1334408E+03  0.7546771E-02  0.1234891E+00
         -2   -1    0    0    0  501 -0.00000000000E+00  0.00000000000E+00  0.13139419227E+02  0.13139419227E+02  0.00000000000E+00 0.  1.
          2   -1    0    0  501    0  0.00000000000E+00 -0.00000000000E+00 -0.10650324158E+04  0.10650324158E+04  0.00000000000E+00 0. -1.
          5    1    1    2  502    0 -0.33377294547E+01  0.31143902214E+02 -0.46309941398E+02  0.56105113451E+02  0.47000000000E+01 0. -1.
         -5    1    1    2    0  502  0.37900582771E+02 -0.62673270746E+02 -0.55510621872E+03  0.55993695815E+03  0.47000000000E+01 0. -1.
        -11    1    1    2    0    0 -0.65480171674E+02  0.17374038390E+02 -0.26242732038E+03  0.27103064140E+03  0.00000000000E+00 0.  1.
         11    1    1    2    0    0  0.30917318358E+02  0.14155330142E+02 -0.18804951608E+03  0.19109912204E+03  0.00000000000E+00 0. -1.
<mgrwt>
<rscale>  0 0.12511409E+03</rscale>
<asrwt>0</asrwt>
<pdfrwt beam="2">  1        2 0.16385118E+00 0.13344076E+03</pdfrwt>
<pdfrwt beam="1">  1       -2 0.20214486E-02 0.13344076E+03</pdfrwt>
<totfact> 0.17440444E+04</totfact>
</mgrwt>
</event>
<event>
 6    1  0.6101889E-006  0.2743769E+03  0.7546771E-02  0.1098800E+00
         -1   -1    0    0    0  501 -0.00000000000E+00  0.00000000000E+00  0.64828237662E+02  0.64828237662E+02  0.00000000000E+00 0.  1.
          1   -1    0    0  501    0  0.00000000000E+00 -0.00000000000E+00 -0.29031599374E+03  0.29031599374E+03  0.00000000000E+00 0. -1.
          5    1    1    2  502    0 -0.80587024339E+01 -0.28405690811E+01 -0.15205929434E+03  0.15237168540E+03  0.47000000000E+01 0. -1.
         -5    1    1    2    0  502 -0.65845679172E+02  0.20426216657E+02 -0.16959317661E+02  0.71151895604E+02  0.47000000000E+01 0. -1.
        -11    1    1    2    0    0  0.21013397860E+02 -0.49281876404E+02 -0.10217003341E+02  0.54540383101E+02  0.00000000000E+00 0. -1.
         11    1    1    2    0    0  0.52890983746E+02  0.31696228828E+02 -0.46252140740E+02  0.77080267297E+02  0.00000000000E+00 0.  1.
<mgrwt>
<rscale>  0 0.27437692E+03</rscale>
<asrwt>0</asrwt>
<pdfrwt beam="2">  1        1 0.44663998E-01 0.27437692E+03</pdfrwt>
<pdfrwt beam="1">  1       -1 0.99735752E-02 0.27437692E+03</pdfrwt>
<totfact> 0.55531878E+03</totfact>
</mgrwt>
</event>
<event>
 6    1  0.6101889E-006  0.3305586E+03  0.7546771E-02  0.1070890E+00
          2   -1    0    0  501    0  0.00000000000E+00  0.00000000000E+00  0.14419210405E+03  0.14419210405E+03  0.00000000000E+00 0. -1.
         -2   -1    0    0    0  501 -0.00000000000E+00 -0.00000000000E+00 -0.18945035707E+03  0.18945035707E+03  0.00000000000E+00 0.  1.
          5    1    1    2  502    0 -0.10924298127E+03  0.22687802033E+01  0.75355775039E+02  0.13281475502E+03  0.47000000000E+01 0. -1.
         -5    1    1    2    0  502  0.36638374434E+01 -0.17642217575E+02 -0.25586799300E+02  0.31645629149E+02  0.47000000000E+01 0.  1.
        -11    1    1    2    0    0  0.18564777639E+02 -0.34313056061E+02 -0.18946273802E+02  0.43370474704E+02  0.00000000000E+00 0.  1.
         11    1    1    2    0    0  0.87014366186E+02  0.49686493432E+02 -0.76080954952E+02  0.12581160224E+03  0.00000000000E+00 0. -1.
<mgrwt>
<rscale>  0 0.33055859E+03</rscale>
<asrwt>0</asrwt>
<pdfrwt beam="1">  1        2 0.22183401E-01 0.33055859E+03</pdfrwt>
<pdfrwt beam="2">  1       -2 0.29146208E-01 0.33055859E+03</pdfrwt>
<totfact> 0.26640154E+03</totfact>
</mgrwt>
</event>
<event>
 6    1  0.6101889E-006  0.1372638E+03  0.7546771E-02  0.1234558E+00
         -1   -1    0    0    0  501 -0.00000000000E+00  0.00000000000E+00  0.23409090682E+02  0.23409090682E+02  0.00000000000E+00 0.  1.
          1   -1    0    0  501    0  0.00000000000E+00 -0.00000000000E+00 -0.21509086256E+04  0.21509086256E+04  0.00000000000E+00 0. -1.
          5    1    1    2  502    0  0.25322058663E+02  0.57604415911E+02 -0.18705948009E+04  0.18716587495E+04  0.47000000000E+01 0. -1.
         -5    1    1    2    0  502 -0.16023885293E+02 -0.30678567885E+02 -0.17020664751E+03  0.17375365402E+03  0.47000000000E+01 0.  1.
        -11    1    1    2    0    0  0.38975142419E+01 -0.59380637048E+02 -0.46069752201E+02  0.75257376657E+02  0.00000000000E+00 0.  1.
         11    1    1    2    0    0 -0.13195687611E+02  0.32454789022E+02 -0.40628334338E+02  0.53647936149E+02  0.00000000000E+00 0. -1.
<mgrwt>
<rscale>  0 0.12532777E+03</rscale>
<asrwt>0</asrwt>
<pdfrwt beam="2">  1        1 0.33090904E+00 0.13726379E+03</pdfrwt>
<pdfrwt beam="1">  1       -1 0.36013983E-02 0.13726379E+03</pdfrwt>
<totfact> 0.78925748E+02</totfact>
</mgrwt>
</event>
<event>
 6    1  0.6101889E-006  0.1310113E+03  0.7546771E-02  0.1239778E+00
         -1   -1    0    0    0  501 -0.00000000000E+00  0.00000000000E+00  0.20369709630E+02  0.20369709630E+02  0.00000000000E+00 0.  1.
          1   -1    0    0  501    0  0.00000000000E+00 -0.00000000000E+00 -0.65047139928E+03  0.65047139928E+03  0.00000000000E+00 0. -1.
          5    1    1    2  502    0 -0.99072469064E+01 -0.33041646559E+02 -0.36315192437E+03  0.36481682269E+03  0.47000000000E+01 0. -1.
         -5    1    1    2    0  502  0.34157574128E+02  0.22080611620E+01 -0.19569869405E+02  0.39707495425E+02  0.47000000000E+01 0. -1.
        -11    1    1    2    0    0 -0.51570076333E+02  0.13304237117E+02 -0.21074397811E+03  0.21736950063E+03  0.00000000000E+00 0. -1.
         11    1    1    2    0    0  0.27319749111E+02  0.17529348280E+02 -0.36635917767E+02  0.48947290152E+02  0.00000000000E+00 0.  1.
<mgrwt>
<rscale>  0 0.12203473E+03</rscale>
<asrwt>0</asrwt>
<pdfrwt beam="2">  1        1 0.10007253E+00 0.13101127E+03</pdfrwt>
<pdfrwt beam="1">  1       -1 0.31338012E-02 0.13101127E+03</pdfrwt>
<totfact> 0.10573640E+04</totfact>
</mgrwt>
</event>
<event>
 6    1  0.6101889E-006  0.1503830E+03  0.7546771E-02  0.1209123E+00
         -1   -1    0    0    0  501 -0.00000000000E+00  0.00000000000E+00  0.10016913840E+03  0.10016913840E+03  0.00000000000E+00 0.  1.
          1   -1    0    0  501    0  0.00000000000E+00 -0.00000000000E+00 -0.22834045980E+03  0.22834045980E+03  0.00000000000E+00 0. -1.
          5    1    1    2  502    0  0.20211396452E+02  0.63170060505E+02 -0.11994101309E+03  0.13713822848E+03  0.47000000000E+01 0.  1.
         -5    1    1    2    0  502  0.56827325042E+02 -0.30664818895E+02 -0.18672838370E+02  0.67382793665E+02  0.47000000000E+01 0.  1.
        -11    1    1    2    0    0 -0.56731926308E+02 -0.10568741867E+02  0.48648723090E+02  0.75477864474E+02  0.00000000000E+00 0.  1.
         11    1    1    2    0    0 -0.20306795186E+02 -0.21936499743E+02 -0.38206193027E+02  0.48510711573E+02  0.00000000000E+00 0. -1.
<mgrwt>
<rscale>  0 0.14317198E+03</rscale>
<asrwt>0</asrwt>
<pdfrwt beam="2">  1        1 0.35129302E-01 0.15038301E+03</pdfrwt>
<pdfrwt beam="1">  1       -1 0.15410637E-01 0.15038301E+03</pdfrwt>
<totfact> 0.36935383E+03</totfact>
</mgrwt>
</event>
<event>
 6    1  0.6101889E-006  0.1649317E+03  0.7546771E-02  0.1189601E+00
          2   -1    0    0  501    0  0.00000000000E+00  0.00000000000E+00  0.29516259405E+03  0.29516259405E+03  0.00000000000E+00 0. -1.
         -2   -1    0    0    0  501 -0.00000000000E+00 -0.00000000000E+00 -0.91889099109E+02  0.91889099109E+02  0.00000000000E+00 0.  1.
          5    1    1    2  502    0  0.11439312497E+03 -0.56436864968E+02  0.10255542850E+03  0.16373946587E+03  0.47000000000E+01 0.  1.
         -5    1    1    2    0  502 -0.13087506125E+02  0.20175418506E+02  0.73619847765E+02  0.77590607121E+02  0.47000000000E+01 0.  1.
        -11    1    1    2    0    0 -0.34771805735E+01  0.11038229226E+02 -0.28248120202E+02  0.30526866595E+02  0.00000000000E+00 0.  1.
         11    1    1    2    0    0 -0.97828438275E+02  0.25223217237E+02  0.55346338876E+02  0.11519475357E+03  0.00000000000E+00 0. -1.
<mgrwt>
<rscale>  0 0.15920205E+03</rscale>
<asrwt>0</asrwt>
<pdfrwt beam="1">  1        2 0.45409629E-01 0.16493173E+03</pdfrwt>
<pdfrwt beam="2">  1       -2 0.14136785E-01 0.16493173E+03</pdfrwt>
<totfact> 0.40876705E+03</totfact>
</mgrwt>
</event>
<event>
 6    1  0.6101889E-006  0.1336732E+03  0.7546771E-02  0.1234068E+00
          1   -1    0    0  501    0  0.00000000000E+00  0.00000000000E+00  0.57816371842E+02  0.57816371842E+02  0.00000000000E+00 0. -1.
         -1   -1    0    0    0  501 -0.00000000000E+00 -0.00000000000E+00 -0.24518864086E+03  0.24518864086E+03  0.00000000000E+00 0.  1.
          5    1    1    2  502    0  0.42051509029E+02  0.16755952391E+02 -0.97838060253E+02  0.10790489973E+03  0.47000000000E+01 0.  1.
         -5    1    1    2    0  502 -0.51000509709E+02  0.29765565337E+02 -0.25971326650E+01  0.59294822442E+02  0.47000000000E+01 0.  1.
        -11    1    1    2    0    0 -0.17631765219E+02 -0.15904579398E+02 -0.91935892081E+02  0.94952846420E+02  0.00000000000E+00 0.  1.
         11    1    1    2    0    0  0.26580765899E+02 -0.30616938329E+02  0.49988159808E+01  0.40852444109E+02  0.00000000000E+00 0. -1.
<mgrwt>
<rscale>  0 0.12564259E+03</rscale>
<asrwt>0</asrwt>
<pdfrwt beam="1">  1        1 0.88948266E-02 0.13367318E+03</pdfrwt>
<pdfrwt beam="2">  1       -1 0.37721329E-01 0.13367318E+03</pdfrwt>
<totfact> 0.49147745E+03</totfact>
</mgrwt>
</event>
<event>
 6    1  0.6101889E-006  0.1279341E+03  0.7546771E-02  0.1248038E+00
          1   -1    0    0  501    0  0.00000000000E+00  0.00000000000E+00  0.58341715960E+03  0.58341715960E+03  0.00000000000E+00 0. -1.
         -1   -1    0    0    0  501 -0.00000000000E+00 -0.00000000000E+00 -0.20343568543E+02  0.20343568543E+02  0.00000000000E+00 0.  1.
          5    1    1    2  502    0 -0.50776202032E+02  0.17637462078E+02  0.10970066052E+03  0.12225231155E+03  0.47000000000E+01 0. -1.
         -5    1    1    2    0  502  0.54582169951E+02 -0.44600992353E+02  0.23674461679E+03  0.24705984169E+03  0.47000000000E+01 0. -1.
        -11    1    1    2    0    0 -0.35368022322E+02  0.81089890788E+01  0.39880635933E+02  0.53917694955E+02  0.00000000000E+00 0.  1.
         11    1    1    2    0    0  0.31562054404E+02  0.18854541196E+02  0.17674767782E+03  0.18053087995E+03  0.00000000000E+00 0. -1.
<mgrwt>
<rscale>  0 0.11705375E+03</rscale>
<asrwt>0</asrwt>
<pdfrwt beam="1">  1        1 0.89756473E-01 0.12793411E+03</pdfrwt>
<pdfrwt beam="2">  1       -1 0.31297802E-02 0.12793411E+03</pdfrwt>
<totfact> 0.12274047E+04</totfact>
</mgrwt>
</event>
<event>
 6    1  0.6101889E-006  0.1360252E+03  0.7546771E-02  0.1233773E+00
          2   -1    0    0  501    0  0.00000000000E+00  0.00000000000E+00  0.33995398349E+03  0.33995398349E+03  0.00000000000E+00 0. -1.
         -2   -1    0    0    0  501 -0.00000000000E+00 -0.00000000000E+00 -0.41048058869E+02  0.41048058869E+02  0.00000000000E+00 0.  1.
          5    1    1    2  502    0 -0.72497451249E+02 -0.21507336926E+02  0.13280049621E+03  0.15289377938E+03  0.47000000000E+01 0. -1.
         -5    1    1    2    0  502  0.23574122918E+02  0.43647776149E+02  0.26013655291E+02  0.56210923278E+02  0.47000000000E+01 0. -1.
        -11    1    1    2    0    0  0.37579452672E+01  0.23054773339E+02  0.72006024833E+01  0.24443678169E+02  0.00000000000E+00 0.  1.
         11    1    1    2    0    0  0.45165383064E+02 -0.45195212562E+02  0.13289117064E+03  0.14745366153E+03  0.00000000000E+00 0. -1.
<mgrwt>
<rscale>  0 0.12583305E+03</rscale>
<asrwt>0</asrwt>
<pdfrwt beam="1">  1        2 0.52300611E-01 0.13602515E+03</pdfrwt>
<pdfrwt beam="2">  1       -2 0.63150862E-02 0.13602515E+03</pdfrwt>
<totfact> 0.12316693E+04</totfact>
</mgrwt>
</event>
<event>
 6    1  0.6101889E-006  0.1263357E+03  0.7546771E-02  0.1249470E+00
         -1   -1    0    0    0  501 -0.00000000000E+00  0.00000000000E+00  0.23623622123E+03  0.23623622123E+03  0.00000000000E+00 0.  1.
          1   -1    0    0  501    0  0.00000000000E+00 -0.00000000000E+00 -0.60101875657E+02  0.60101875657E+02  0.00000000000E+00 0. -1.
          5    1    1    2  502    0  0.42535841421E+02 -0.70890942958E+01  0.53936277436E+02  0.69215352972E+02  0.47000000000E+01 0.  1.
         -5    1    1    2    0  502 -0.60852966926E+02  0.64959307232E+01 -0.14621160282E+02  0.63096347182E+02  0.47000000000E+01 0.  1.
        -11    1    1    2    0    0  0.38692491524E+02  0.10977152478E+02  0.19865991370E+02  0.44858270029E+02  0.00000000000E+00 0. -1.
         11    1    1    2    0    0 -0.20375366019E+02 -0.10383988906E+02  0.11695323705E+03  0.11916812670E+03  0.00000000000E+00 0.  1.
<mgrwt>
<rscale>  0 0.11621788E+03</rscale>
<asrwt>0</asrwt>
<pdfrwt beam="2">  1        1 0.92464426E-02 0.12633569E+03</pdfrwt>
<pdfrwt beam="1">  1       -1 0.36344033E-01 0.12633569E+03</pdfrwt>
<totfact> 0.49585119E+03</totfact>
</mgrwt>
</event>
<event>
 6    1  0.6101889E-006  0.2204320E+03  0.7546771E-02  0.1137124E+00
         -1   -1    0    0    0  501 -0.00000000000E+00  0.00000000000E+00  0.25067300968E+03  0.25067300968E+03  0.00000000000E+00 0.  1.
          1   -1    0    0  501    0  0.00000000000E+00 -0.00000000000E+00 -0.31801463996E+03  0.31801463996E+03  0.00000000000E+00 0. -1.
          5    1    1    2  502    0  0.14985212346E+03  0.52706030072E+02 -0.12072664521E+03  0.19957604409E+03  0.47000000000E+01 0.  1.
         -5    1    1    2    0  502 -0.20126056816E+00  0.50099894395E+02 -0.10227712187E+03  0.11398569902E+03  0.47000000000E+01 0.  1.
        -11    1    1    2    0    0 -0.72903800236E+02 -0.93575248115E+02  0.62533704570E+02  0.13409606764E+03  0.00000000000E+00 0.  1.
         11    1    1    2    0    0 -0.76747062653E+02 -0.92306763516E+01  0.93128432235E+02  0.12102983889E+03  0.00000000000E+00 0. -1.
<mgrwt>
<rscale>  0 0.21570807E+03</rscale>
<asrwt>0</asrwt>
<pdfrwt beam="2">  1        1 0.48925329E-01 0.22043205E+03</pdfrwt>
<pdfrwt beam="1">  1       -1 0.38565078E-01 0.22043205E+03</pdfrwt>
<totfact> 0.53916707E+02</totfact>
</mgrwt>
</event>
<event>
 6    1  0.6101889E-006  0.2712691E+03  0.7546771E-02  0.1102638E+00
         -2   -1    0    0    0  501 -0.00000000000E+00  0.00000000000E+00  0.21554903834E+03  0.21554903834E+03  0.00000000000E+00 0.  1.
          2   -1    0    0  501    0  0.00000000000E+00 -0.00000000000E+00 -0.32403295687E+03  0.32403295687E+03  0.00000000000E+00 0. -1.
          5    1    1    2  502    0 -0.13455730285E+03 -0.18741943654E+02 -0.19053956390E+02  0.13726642509E+03  0.47000000000E+01 0.  1.
         -5    1    1    2    0  502 -0.63602080568E+02 -0.11798443936E+03 -0.44960221887E+02  0.14145339917E+03  0.47000000000E+01 0.  1.
        -11    1    1    2    0    0  0.71516074287E+02  0.76736812065E+02  0.19710046644E+02  0.10673131287E+03  0.00000000000E+00 0. -1.
         11    1    1    2    0    0  0.12664330913E+03  0.59989570948E+02 -0.64179786897E+02  0.15413085810E+03  0.00000000000E+00 0.  1.
<mgrwt>
<rscale>  0 0.26764062E+03</rscale>
<asrwt>0</asrwt>
<pdfrwt beam="2">  1        2 0.49851224E-01 0.27126910E+03</pdfrwt>
<pdfrwt beam="1">  1       -2 0.33161391E-01 0.27126910E+03</pdfrwt>
<totfact> 0.85607204E+02</totfact>
</mgrwt>
</event>
<event>
 6    1  0.6101889E-006  0.1409728E+03  0.7546771E-02  0.1223275E+00
          2   -1    0    0  501    0  0.00000000000E+00  0.00000000000E+00  0.26586800670E+03  0.26586800670E+03  0.00000000000E+00 0.  1.
         -2   -1    0    0    0  501 -0.00000000000E+00 -0.00000000000E+00 -0.59822967382E+02  0.59822967382E+02  0.00000000000E+00 0. -1.
          5    1    1    2  502    0 -0.24520075829E+02 -0.41034563659E+02  0.39670213191E+02  0.62296752306E+02  0.47000000000E+01 0. -1.
         -5    1    1    2    0  502  0.88425753528E+02  0.28155024204E+02  0.72392336804E+02  0.11779032092E+03  0.47000000000E+01 0. -1.
        -11    1    1    2    0    0 -0.77111825113E+02 -0.10642190506E+02  0.88882309573E+02  0.11815055965E+03  0.00000000000E+00 0.  1.
         11    1    1    2    0    0  0.13206147414E+02  0.23521729960E+02  0.51001797545E+01  0.27453341206E+02  0.00000000000E+00 0. -1.
<mgrwt>
<rscale>  0 0.13285811E+03</rscale>
<asrwt>0</asrwt>
<pdfrwt beam="1">  1        2 0.40902770E-01 0.14097283E+03</pdfrwt>
<pdfrwt beam="2">  1       -2 0.92035336E-02 0.14097283E+03</pdfrwt>
<totfact> 0.89723010E+03</totfact>
</mgrwt>
</event>
<event>
 6    1  0.6101889E-006  0.1321649E+03  0.7546771E-02  0.1238933E+00
          1   -1    0    0  501    0  0.00000000000E+00  0.00000000000E+00  0.15631589391E+03  0.15631589391E+03  0.00000000000E+00 0.  1.
         -1   -1    0    0    0  501 -0.00000000000E+00 -0.00000000000E+00 -0.87326222451E+02  0.87326222451E+02  0.00000000000E+00 0. -1.
          5    1    1    2  502    0  0.67019721447E+02 -0.50437987346E+02  0.59712664811E+02  0.10306952008E+03  0.47000000000E+01 0. -1.
         -5    1    1    2    0  502 -0.28812320254E+02  0.30883859602E+02  0.13485055674E+01  0.42519066895E+02  0.47000000000E+01 0. -1.
        -11    1    1    2    0    0 -0.61178093760E+02  0.19342655976E+02  0.25589394149E+02  0.69077598317E+02  0.00000000000E+00 0.  1.
         11    1    1    2    0    0  0.22970692567E+02  0.21147176785E+00 -0.17660893071E+02  0.28975931070E+02  0.00000000000E+00 0. -1.
<mgrwt>
<rscale>  0 0.12255948E+03</rscale>
<asrwt>0</asrwt>
<pdfrwt beam="1">  1        1 0.24048599E-01 0.13216494E+03</pdfrwt>
<pdfrwt beam="2">  1       -1 0.13434803E-01 0.13216494E+03</pdfrwt>
<totfact> 0.72882826E+03</totfact>
</mgrwt>
</event>
<event>
 6    1  0.6101889E-006  0.1463671E+03  0.7546771E-02  0.1214642E+00
         -1   -1    0    0    0  501 -0.00000000000E+00  0.00000000000E+00  0.30057357363E+02  0.30057357363E+02  0.00000000000E+00 0.  1.
          1   -1    0    0  501    0  0.00000000000E+00 -0.00000000000E+00 -0.79565916383E+03  0.79565916383E+03  0.00000000000E+00 0. -1.
          5    1    1    2  502    0  0.30654859744E+02  0.22329661277E+02 -0.29847748466E+03  0.30091399610E+03  0.47000000000E+01 0.  1.
         -5    1    1    2    0  502 -0.15096421738E+02 -0.96877645977E+02 -0.32416776876E+03  0.33870342860E+03  0.47000000000E+01 0.  1.
        -11    1    1    2    0    0  0.12984984908E+02  0.48766076776E+01  0.89846755710E+01  0.16526207387E+02  0.00000000000E+00 0.  1.
         11    1    1    2    0    0 -0.28543422914E+02  0.69671377022E+02 -0.15194122862E+03  0.16957288911E+03  0.00000000000E+00 0. -1.
<mgrwt>
<rscale>  0 0.13902873E+03</rscale>
<asrwt>0</asrwt>
<pdfrwt beam="2">  1        1 0.12240912E+00 0.14636714E+03</pdfrwt>
<pdfrwt beam="1">  1       -1 0.46242081E-02 0.14636714E+03</pdfrwt>
<totfact> 0.44915989E+03</totfact>
</mgrwt>
</event>
<event>
 6    1  0.6101889E-006  0.2192567E+03  0.7546771E-02  0.1137705E+00
         -4   -1    0    0    0  501 -0.00000000000E+00  0.00000000000E+00  0.11471850391E+03  0.11471850391E+03  0.00000000000E+00 0.  1.
          4   -1    0    0  501    0  0.00000000000E+00 -0.00000000000E+00 -0.50169621663E+03  0.50169621663E+03  0.00000000000E+00 0. -1.
          5    1    1    2  502    0 -0.91654320933E+02 -0.73969876065E+01 -0.13913333251E+03  0.16683945632E+03  0.47000000000E+01 0.  1.
         -5    1    1    2    0  502 -0.52246244323E+02  0.11574314419E+03 -0.20711515686E+03  0.24299161235E+03  0.47000000000E+01 0.  1.
        -11    1    1    2    0    0  0.36329359365E+02  0.37212998150E+01  0.17744464744E+02  0.40602173012E+02  0.00000000000E+00 0.  1.
         11    1    1    2    0    0  0.10757120589E+03 -0.11206745640E+03 -0.58473688104E+02  0.16598147885E+03  0.00000000000E+00 0. -1.
<mgrwt>
<rscale>  0 0.21494945E+03</rscale>
<asrwt>0</asrwt>
<pdfrwt beam="2">  1        4 0.77184035E-01 0.21925667E+03</pdfrwt>
<pdfrwt beam="1">  1       -4 0.17649000E-01 0.21925667E+03</pdfrwt>
<totfact> 0.78145852E+01</totfact>
</mgrwt>
</event>
<event>
 6    1  0.8473382E-006  0.2339879E+03  0.7546771E-02  0.1126937E+00
         -1   -1    0    0    0  501 -0.00000000000E+00  0.00000000000E+00  0.29602580849E+02  0.29602580849E+02  0.00000000000E+00 0.  1.
          1   -1    0    0  501    0  0.00000000000E+00 -0.00000000000E+00 -0.18214590943E+04  0.18214590943E+04  0.00000000000E+00 0. -1.
          5    1    1    2  502    0 -0.27469981134E+02  0.54236866888E+02 -0.30680134104E+03  0.31280247834E+03  0.47000000000E+01 0.  1.
         -5    1    1    2    0  502  0.12830870474E+03  0.11592963778E+03 -0.84328148519E+03  0.86084177286E+03  0.47000000000E+01 0.  1.
        -11    1    1    2    0    0 -0.83011908548E+02 -0.13435308637E+03 -0.59626294015E+03  0.61682349385E+03  0.00000000000E+00 0.  1.
         11    1    1    2    0    0 -0.17826815058E+02 -0.35813418291E+02 -0.45510747060E+02  0.60593930082E+02  0.00000000000E+00 0. -1.
<mgrwt>
<rscale>  0 0.22957858E+03</rscale>
<asrwt>0</asrwt>
<pdfrwt beam="2">  1        1 0.28022445E+00 0.23398787E+03</pdfrwt>
<pdfrwt beam="1">  1       -1 0.45542436E-02 0.23398787E+03</pdfrwt>
<totfact> 0.89534644E+02</totfact>
</mgrwt>
</event>
<event>
 6    1  0.6101889E-006  0.1508359E+03  0.7546771E-02  0.1209152E+00
          2   -1    0    0  501    0  0.00000000000E+00  0.00000000000E+00  0.11737064594E+04  0.11737064594E+04  0.00000000000E+00 0. -1.
         -2   -1    0    0    0  501 -0.00000000000E+00 -0.00000000000E+00 -0.16557833970E+02  0.16557833970E+02  0.00000000000E+00 0.  1.
          5    1    1    2  502    0  0.18870615329E+02  0.12673050751E+02  0.32731940996E+02  0.40127002126E+02  0.47000000000E+01 0. -1.
         -5    1    1    2    0  502 -0.10324534309E+03 -0.15792020124E+02  0.72191034523E+03  0.72944199586E+03  0.47000000000E+01 0. -1.
        -11    1    1    2    0    0  0.82253827232E+02  0.35109922125E+02  0.31705853665E+03  0.32943059115E+03  0.00000000000E+00 0. -1.
         11    1    1    2    0    0  0.21209005304E+01 -0.31990952752E+02  0.85447802534E+02  0.91264704212E+02  0.00000000000E+00 0.  1.
<mgrwt>
<rscale>  0 0.14315046E+03</rscale>
<asrwt>0</asrwt>
<pdfrwt beam="1">  1        2 0.18057016E+00 0.15083588E+03</pdfrwt>
<pdfrwt beam="2">  1       -2 0.25473600E-02 0.15083588E+03</pdfrwt>
<totfact> 0.10871898E+04</totfact>
</mgrwt>
</event>
<event>
 6    1  0.6101889E-006  0.1543826E+03  0.7546771E-02  0.1203804E+00
         -3   -1    0    0    0  501 -0.00000000000E+00  0.00000000000E+00  0.17455236648E+03  0.17455236648E+03  0.00000000000E+00 0.  1.
          3   -1    0    0  501    0  0.00000000000E+00 -0.00000000000E+00 -0.16204728173E+03  0.16204728173E+03  0.00000000000E+00 0. -1.
          5    1    1    2  502    0  0.23317396079E+02 -0.17612461847E+02 -0.90985404877E+02  0.95678282138E+02  0.47000000000E+01 0. -1.
         -5    1    1    2    0  502  0.60347895667E+02  0.52379963263E+02  0.64974876550E+01  0.80310873539E+02  0.47000000000E+01 0. -1.
        -11    1    1    2    0    0 -0.48027897510E+02 -0.49427908763E+02  0.10056047002E+03  0.12191064447E+03  0.00000000000E+00 0.  1.
         11    1    1    2    0    0 -0.35637394236E+02  0.14660407348E+02 -0.35674680609E+01  0.38699848060E+02  0.00000000000E+00 0. -1.
<mgrwt>
<rscale>  0 0.14732102E+03</rscale>
<asrwt>0</asrwt>
<pdfrwt beam="2">  1        3 0.24930351E-01 0.15438256E+03</pdfrwt>
<pdfrwt beam="1">  1       -3 0.26854210E-01 0.15438256E+03</pdfrwt>
<totfact> 0.47016861E+02</totfact>
</mgrwt>
</event>
<event>
 6    1  0.6101889E-006  0.1281205E+03  0.7546771E-02  0.1245260E+00
         -2   -1    0    0    0  501 -0.00000000000E+00  0.00000000000E+00  0.43126109028E+02  0.43126109028E+02  0.00000000000E+00 0.  1.
          2   -1    0    0  501    0  0.00000000000E+00 -0.00000000000E+00 -0.29050573127E+03  0.29050573127E+03  0.00000000000E+00 0. -1.
          5    1    1    2  502    0  0.20899776240E+02 -0.30835306321E+02 -0.52643936932E+01  0.37913330159E+02  0.47000000000E+01 0. -1.
         -5    1    1    2    0  502 -0.21346657589E+02  0.58938977327E+02 -0.15504416176E+03  0.16730291371E+03  0.47000000000E+01 0. -1.
        -11    1    1    2    0    0  0.40139351951E+02 -0.29890892684E+02 -0.28358925345E+02  0.57522705841E+02  0.00000000000E+00 0. -1.
         11    1    1    2    0    0 -0.39692470602E+02  0.17872216778E+01 -0.58712141445E+02  0.70892890594E+02  0.00000000000E+00 0.  1.
<mgrwt>
<rscale>  0 0.11869813E+03</rscale>
<asrwt>0</asrwt>
<pdfrwt beam="2">  1        2 0.44693189E-01 0.12812054E+03</pdfrwt>
<pdfrwt beam="1">  1       -2 0.66347861E-02 0.12812054E+03</pdfrwt>
<totfact> 0.13428179E+04</totfact>
</mgrwt>
</event>
<event>
 6    1  0.6101889E-006  0.1443126E+03  0.7546771E-02  0.1217575E+00
         -2   -1    0    0    0  501 -0.00000000000E+00  0.00000000000E+00  0.83544699749E+02  0.83544699749E+02  0.00000000000E+00 0.  1.
          2   -1    0    0  501    0  0.00000000000E+00 -0.00000000000E+00 -0.20483090749E+03  0.20483090749E+03  0.00000000000E+00 0. -1.
          5    1    1    2  502    0 -0.73856055278E+01 -0.19945198596E+02  0.19990138216E+02  0.29564399908E+02  0.47000000000E+01 0.  1.
         -5    1    1    2    0  502  0.13942682149E+02  0.91777479812E+02 -0.95671392046E+02  0.13338894048E+03  0.47000000000E+01 0.  1.
        -11    1    1    2    0    0  0.26991987033E+02  0.63429151752E+01 -0.26242060410E+02  0.38176506800E+02  0.00000000000E+00 0. -1.
         11    1    1    2    0    0 -0.33549063654E+02 -0.78175196391E+02 -0.19362893505E+02  0.87245760056E+02  0.00000000000E+00 0.  1.
<mgrwt>
<rscale>  0 0.13689058E+03</rscale>
<asrwt>0</asrwt>
<pdfrwt beam="2">  1        2 0.31512447E-01 0.14431264E+03</pdfrwt>
<pdfrwt beam="1">  1       -2 0.12853031E-01 0.14431264E+03</pdfrwt>
<totfact> 0.69997002E+03</totfact>
</mgrwt>
</event>
<event>
 6    1  0.6101889E-006  0.2586928E+03  0.7546771E-02  0.1107931E+00
          4   -1    0    0  501    0  0.00000000000E+00  0.00000000000E+00  0.18122953826E+03  0.18122953826E+03  0.00000000000E+00 0. -1.
         -4   -1    0    0    0  501 -0.00000000000E+00 -0.00000000000E+00 -0.92316602540E+02  0.92316602540E+02  0.00000000000E+00 0.  1.
          5    1    1    2  502    0 -0.13060813656E+02  0.35169576268E+01 -0.34548196371E+02  0.37398151249E+02  0.47000000000E+01 0.  1.
         -5    1    1    2    0  502 -0.41619380205E+02  0.25555041988E+02  0.11173765618E+03  0.12203535057E+03  0.47000000000E+01 0.  1.
        -11    1    1    2    0    0 -0.97705647872E+01 -0.36059769832E+02 -0.19515601825E+02  0.42150084830E+02  0.00000000000E+00 0.  1.
         11    1    1    2    0    0  0.64450758648E+02  0.69877702170E+01  0.31239077742E+02  0.71962554159E+02  0.00000000000E+00 0. -1.
<mgrwt>
<rscale>  0 0.25869283E+03</rscale>
<asrwt>0</asrwt>
<pdfrwt beam="1">  1        4 0.27881468E-01 0.25869283E+03</pdfrwt>
<pdfrwt beam="2">  1       -4 0.14202554E-01 0.25869283E+03</pdfrwt>
<totfact> 0.94227199E+02</totfact>
</mgrwt>
</event>
<event>
 6    1  0.6101889E-006  0.1292302E+03  0.7546771E-02  0.1241686E+00
          1   -1    0    0  501    0  0.00000000000E+00  0.00000000000E+00  0.40383926924E+03  0.40383926924E+03  0.00000000000E+00 0. -1.
         -1   -1    0    0    0  501 -0.00000000000E+00 -0.00000000000E+00 -0.32926856216E+02  0.32926856216E+02  0.00000000000E+00 0.  1.
          5    1    1    2  502    0  0.54348870585E+02  0.44849791242E+02  0.15757462783E+03  0.17267645133E+03  0.47000000000E+01 0. -1.
         -5    1    1    2    0  502 -0.22917787401E+02 -0.35462178028E+02  0.20031497681E+02  0.46969585363E+02  0.47000000000E+01 0. -1.
        -11    1    1    2    0    0 -0.10867636092E+02 -0.51146589123E+02  0.99745886452E+02  0.11262025110E+03  0.00000000000E+00 0.  1.
         11    1    1    2    0    0 -0.20563447092E+02  0.41758975909E+02  0.93560401063E+02  0.10449983767E+03  0.00000000000E+00 0. -1.
<mgrwt>
<rscale>  0 0.12085956E+03</rscale>
<asrwt>0</asrwt>
<pdfrwt beam="1">  1        1 0.62129115E-01 0.12923020E+03</pdfrwt>
<pdfrwt beam="2">  1       -1 0.50656705E-02 0.12923020E+03</pdfrwt>
<totfact> 0.97720406E+03</totfact>
</mgrwt>
</event>
<event>
 6    1  0.6101889E-006  0.1279672E+03  0.7546771E-02  0.1244208E+00
         -1   -1    0    0    0  501 -0.00000000000E+00  0.00000000000E+00  0.66933259031E+02  0.66933259031E+02  0.00000000000E+00 0.  1.
          1   -1    0    0  501    0  0.00000000000E+00 -0.00000000000E+00 -0.21680166019E+03  0.21680166019E+03  0.00000000000E+00 0. -1.
          5    1    1    2  502    0  0.45210305931E+02  0.52495030661E+01 -0.11641888655E+02  0.47213902786E+02  0.47000000000E+01 0. -1.
         -5    1    1    2    0  502 -0.55734735646E+02 -0.30543501605E+02 -0.12305812074E+03  0.13858086927E+03  0.47000000000E+01 0. -1.
        -11    1    1    2    0    0  0.40961844720E+02 -0.17019750918E+02 -0.32822029300E+01  0.44478281220E+02  0.00000000000E+00 0.  1.
         11    1    1    2    0    0 -0.30437415006E+02  0.42313749457E+02 -0.11886188836E+02  0.53461865945E+02  0.00000000000E+00 0. -1.
<mgrwt>
<rscale>  0 0.11932905E+03</rscale>
<asrwt>0</asrwt>
<pdfrwt beam="2">  1        1 0.33354101E-01 0.12796720E+03</pdfrwt>
<pdfrwt beam="1">  1       -1 0.10297425E-01 0.12796720E+03</pdfrwt>
<totfact> 0.72847243E+03</totfact>
</mgrwt>
</event>
<event>
 6    1  0.6101889E-006  0.2100600E+03  0.7546771E-02  0.1145094E+00
          1   -1    0    0  501    0  0.00000000000E+00  0.00000000000E+00  0.98232376071E+03  0.98232376071E+03  0.00000000000E+00 0. -1.
         -1   -1    0    0    0  501 -0.00000000000E+00 -0.00000000000E+00 -0.45158766514E+02  0.45158766514E+02  0.00000000000E+00 0.  1.
          5    1    1    2  502    0 -0.10606665039E+03 -0.80744548274E+02  0.56571912988E+03  0.58123148599E+03  0.47000000000E+01 0. -1.
         -5    1    1    2    0  502  0.40533779619E+01 -0.53757540832E+02  0.71182738270E+02  0.89416862486E+02  0.47000000000E+01 0. -1.
        -11    1    1    2    0    0 -0.15702251582E+02  0.26090617260E+02  0.70875886900E+02  0.77140601227E+02  0.00000000000E+00 0.  1.
         11    1    1    2    0    0  0.11771552401E+03  0.10841147185E+03  0.22938723915E+03  0.27969357752E+03  0.00000000000E+00 0. -1.
<mgrwt>
<rscale>  0 0.20560590E+03</rscale>
<asrwt>0</asrwt>
<pdfrwt beam="1">  1        1 0.15112672E+00 0.21006003E+03</pdfrwt>
<pdfrwt beam="2">  1       -1 0.69475033E-02 0.21006003E+03</pdfrwt>
<totfact> 0.17597660E+03</totfact>
</mgrwt>
</event>
<event>
 6    1  0.6101889E-006  0.1405944E+03  0.7546771E-02  0.1222720E+00
          4   -1    0    0  501    0  0.00000000000E+00  0.00000000000E+00  0.29655250708E+03  0.29655250708E+03  0.00000000000E+00 0. -1.
         -4   -1    0    0    0  501 -0.00000000000E+00 -0.00000000000E+00 -0.58372345901E+02  0.58372345901E+02  0.00000000000E+00 0.  1.
          5    1    1    2  502    0 -0.69770841964E+01  0.86340954686E+02  0.63346468338E+02  0.10741650344E+03  0.47000000000E+01 0.  1.
         -5    1    1    2    0  502  0.23439277307E+02 -0.24125319507E+02  0.11369639619E+03  0.11866082449E+03  0.47000000000E+01 0.  1.
        -11    1    1    2    0    0  0.22617942793E+02 -0.27592153983E+02  0.67401280951E+02  0.76261595652E+02  0.00000000000E+00 0. -1.
         11    1    1    2    0    0 -0.39080135903E+02 -0.34623481196E+02 -0.62639842937E+01  0.52585929407E+02  0.00000000000E+00 0.  1.
<mgrwt>
<rscale>  0 0.13324399E+03</rscale>
<asrwt>0</asrwt>
<pdfrwt beam="1">  1        4 0.45623462E-01 0.14059439E+03</pdfrwt>
<pdfrwt beam="2">  1       -4 0.89803611E-02 0.14059439E+03</pdfrwt>
<totfact> 0.70910998E+02</totfact>
</mgrwt>
</event>
<event>
 6    1  0.6101889E-006  0.1393097E+03  0.7546771E-02  0.1225739E+00
         -4   -1    0    0    0  501 -0.00000000000E+00  0.00000000000E+00  0.37393782621E+03  0.37393782621E+03  0.00000000000E+00 0.  1.
          4   -1    0    0  501    0  0.00000000000E+00 -0.00000000000E+00 -0.50239436248E+02  0.50239436248E+02  0.00000000000E+00 0. -1.
          5    1    1    2  502    0  0.19480566711E+02 -0.66876812398E+02  0.24203354393E+01  0.69856628458E+02  0.47000000000E+01 0.  1.
         -5    1    1    2    0  502  0.28131612029E+02  0.27950231519E+02  0.86878813952E+02  0.95617055754E+02  0.47000000000E+01 0.  1.
        -11    1    1    2    0    0 -0.60064863096E+02  0.45522335253E+02  0.23259065326E+03  0.24449638600E+03  0.00000000000E+00 0.  1.
         11    1    1    2    0    0  0.12452684356E+02 -0.65957543739E+01  0.18085873163E+01  0.14207192246E+02  0.00000000000E+00 0. -1.
<mgrwt>
<rscale>  0 0.13116373E+03</rscale>
<asrwt>0</asrwt>
<pdfrwt beam="2">  1        4 0.77291443E-02 0.13930973E+03</pdfrwt>
<pdfrwt beam="1">  1       -4 0.57528895E-01 0.13930973E+03</pdfrwt>
<totfact> 0.56515513E+02</totfact>
</mgrwt>
</event>
<event>
 6    1  0.6101889E-006  0.1258510E+03  0.7546771E-02  0.1247573E+00
         -1   -1    0    0    0  501 -0.00000000000E+00  0.00000000000E+00  0.96742157023E+02  0.96742157023E+02  0.00000000000E+00 0.  1.
          1   -1    0    0  501    0  0.00000000000E+00 -0.00000000000E+00 -0.13344369626E+03  0.13344369626E+03  0.00000000000E+00 0. -1.
          5    1    1    2  502    0 -0.52668555700E+01  0.54406157978E+02 -0.37567968135E+02  0.66492195206E+02  0.47000000000E+01 0.  1.
         -5    1    1    2    0  502  0.14741612030E+02 -0.65489483281E+02 -0.99176526577E+01  0.68019389735E+02  0.47000000000E+01 0.  1.
        -11    1    1    2    0    0 -0.35290915561E+02  0.24024468154E+02 -0.25169331186E+02  0.49559247608E+02  0.00000000000E+00 0. -1.
         11    1    1    2    0    0  0.25816159100E+02 -0.12941142851E+02  0.35953412744E+02  0.46115020730E+02  0.00000000000E+00 0.  1.
<mgrwt>
<rscale>  0 0.11732680E+03</rscale>
<asrwt>0</asrwt>
<pdfrwt beam="2">  1        1 0.20529799E-01 0.12585103E+03</pdfrwt>
<pdfrwt beam="1">  1       -1 0.14883409E-01 0.12585103E+03</pdfrwt>
<totfact> 0.75577664E+03</totfact>
</mgrwt>
</event>
<event>
 6    1  0.6227555E-006  0.2845647E+03  0.7546771E-02  0.1095217E+00
          2   -1    0    0  501    0  0.00000000000E+00  0.00000000000E+00  0.22079217658E+03  0.22079217658E+03  0.00000000000E+00 0. -1.
         -2   -1    0    0    0  501 -0.00000000000E+00 -0.00000000000E+00 -0.42287186801E+03  0.42287186801E+03  0.00000000000E+00 0.  1.
          5    1    1    2  502    0  0.29741386581E+02 -0.14794931787E+03 -0.41762870977E+02  0.15665177345E+03  0.47000000000E+01 0.  1.
         -5    1    1    2    0  502  0.45984081425E+02 -0.96218172684E+02  0.73663729909E+02  0.12969544172E+03  0.47000000000E+01 0.  1.
        -11    1    1    2    0    0  0.18988710007E+01  0.13163968610E+03 -0.13479809789E+03  0.18842276895E+03  0.00000000000E+00 0.  1.
         11    1    1    2    0    0 -0.77624339006E+02  0.11252780446E+03 -0.99182452473E+02  0.16889406047E+03  0.00000000000E+00 0. -1.
<mgrwt>
<rscale>  0 0.28086515E+03</rscale>
<asrwt>0</asrwt>
<pdfrwt beam="1">  1        2 0.33968028E-01 0.28456469E+03</pdfrwt>
<pdfrwt beam="2">  1       -2 0.65057210E-01 0.28456469E+03</pdfrwt>
<totfact> 0.34257119E+02</totfact>
</mgrwt>
</event>
<event>
 6    1  0.6101889E-006  0.1444731E+03  0.7546771E-02  0.1218737E+00
         -1   -1    0    0    0  501 -0.00000000000E+00  0.00000000000E+00  0.48879097437E+02  0.48879097437E+02  0.00000000000E+00 0.  1.
          1   -1    0    0  501    0  0.00000000000E+00 -0.00000000000E+00 -0.42600780101E+03  0.42600780101E+03  0.00000000000E+00 0. -1.
          5    1    1    2  502    0  0.45121956459E+02  0.61845668082E+02 -0.24150697042E+03  0.25339412853E+03  0.47000000000E+01 0. -1.
         -5    1    1    2    0  502  0.26338384681E+02 -0.49977605219E+02 -0.70703467636E+02  0.90623075796E+02  0.47000000000E+01 0. -1.
        -11    1    1    2    0    0 -0.29011714250E+02 -0.45768332476E+02 -0.13001307020E+02  0.55726598726E+02  0.00000000000E+00 0.  1.
         11    1    1    2    0    0 -0.42448626891E+02  0.33900269614E+02 -0.51916958499E+02  0.75143095389E+02  0.00000000000E+00 0. -1.
<mgrwt>
<rscale>  0 0.13605564E+03</rscale>
<asrwt>0</asrwt>
<pdfrwt beam="2">  1        1 0.65539658E-01 0.14447311E+03</pdfrwt>
<pdfrwt beam="1">  1       -1 0.75198616E-02 0.14447311E+03</pdfrwt>
<totfact> 0.51013257E+03</totfact>
</mgrwt>
</event>
<event>
 6    1  0.6101889E-006  0.1596049E+03  0.7546771E-02  0.1197225E+00
          2   -1    0    0  501    0  0.00000000000E+00  0.00000000000E+00  0.31965976562E+02  0.31965976562E+02  0.00000000000E+00 0. -1.
         -2   -1    0    0    0  501 -0.00000000000E+00 -0.00000000000E+00 -0.67550017765E+03  0.67550017765E+03  0.00000000000E+00 0.  1.
          5    1    1    2  502    0 -0.63514828176E+02 -0.11221181549E+03 -0.26183024364E+03  0.29189517197E+03  0.47000000000E+01 0. -1.
         -5    1    1    2    0  502  0.18865855191E+02  0.23575763879E+02 -0.64863787789E+02  0.71701730111E+02  0.47000000000E+01 0. -1.
        -11    1    1    2    0    0  0.26471745078E+02  0.10537346710E+03 -0.26634648719E+03  0.28765391027E+03  0.00000000000E+00 0.  1.
         11    1    1    2    0    0  0.18177227906E+02 -0.16737415490E+02 -0.50493682468E+02  0.56215341864E+02  0.00000000000E+00 0. -1.
<mgrwt>
<rscale>  0 0.15267392E+03</rscale>
<asrwt>0</asrwt>
<pdfrwt beam="1">  1        2 0.49178428E-02 0.15960488E+03</pdfrwt>
<pdfrwt beam="2">  1       -2 0.10392310E+00 0.15960488E+03</pdfrwt>
<totfact> 0.12287506E+03</totfact>
</mgrwt>
</event>
<event>
 6    1  0.6101889E-006  0.1641874E+03  0.7546771E-02  0.1190918E+00
          2   -1    0    0  501    0  0.00000000000E+00  0.00000000000E+00  0.31807607901E+03  0.31807607901E+03  0.00000000000E+00 0. -1.
         -2   -1    0    0    0  501 -0.00000000000E+00 -0.00000000000E+00 -0.83375141138E+02  0.83375141138E+02  0.00000000000E+00 0.  1.
          5    1    1    2  502    0 -0.39171976184E+01 -0.56033687670E+02  0.78080363213E+02  0.96300320407E+02  0.47000000000E+01 0.  1.
         -5    1    1    2    0  502 -0.10071448514E+03  0.36398087133E+02  0.11707517823E+03  0.15873536348E+03  0.47000000000E+01 0.  1.
        -11    1    1    2    0    0 -0.10746640865E+02  0.20253622301E+02 -0.36462841871E+01  0.23216263579E+02  0.00000000000E+00 0.  1.
         11    1    1    2    0    0  0.11537832362E+03 -0.61802176437E+00  0.43191680619E+02  0.12319927268E+03  0.00000000000E+00 0. -1.
<mgrwt>
<rscale>  0 0.15804826E+03</rscale>
<asrwt>0</asrwt>
<pdfrwt beam="1">  1        2 0.48934781E-01 0.16418744E+03</pdfrwt>
<pdfrwt beam="2">  1       -2 0.12826945E-01 0.16418744E+03</pdfrwt>
<totfact> 0.44186257E+03</totfact>
</mgrwt>
</event>
<event>
 6    1  0.6101889E-006  0.3171585E+03  0.7546771E-02  0.1106112E+00
         -2   -1    0    0    0  501 -0.00000000000E+00  0.00000000000E+00  0.20203275328E+03  0.20203275328E+03  0.00000000000E+00 0.  1.
          2   -1    0    0  501    0  0.00000000000E+00 -0.00000000000E+00 -0.27864811059E+03  0.27864811059E+03  0.00000000000E+00 0. -1.
          5    1    1    2  502    0  0.76481308461E+01  0.56637005660E+02 -0.14420246046E+03  0.15518596560E+03  0.47000000000E+01 0. -1.
         -5    1    1    2    0  502 -0.50724672690E+02 -0.16298147734E+03  0.45969825115E+02  0.17683684343E+03  0.47000000000E+01 0.  1.
        -11    1    1    2    0    0  0.36498557947E+02 -0.84067911278E-01  0.20828431976E+02  0.42023509827E+02  0.00000000000E+00 0.  1.
         11    1    1    2    0    0  0.65779838975E+01  0.10642853959E+03  0.78884605862E+00  0.10663454501E+03  0.00000000000E+00 0. -1.
<mgrwt>
<rscale>  0 0.26172433E+03</rscale>
<asrwt>0</asrwt>
<pdfrwt beam="2">  1        2 0.42868940E-01 0.31715847E+03</pdfrwt>
<pdfrwt beam="1">  1       -2 0.31081962E-01 0.31715847E+03</pdfrwt>
<totfact> 0.11382430E+03</totfact>
</mgrwt>
</event>
<event>
 6    1  0.6101889E-006  0.1324300E+03  0.7546771E-02  0.1235663E+00
          2   -1    0    0  501    0  0.00000000000E+00  0.00000000000E+00  0.96316297870E+02  0.96316297870E+02  0.00000000000E+00 0. -1.
         -2   -1    0    0    0  501 -0.00000000000E+00 -0.00000000000E+00 -0.18870542040E+03  0.18870542040E+03  0.00000000000E+00 0.  1.
          5    1    1    2  502    0 -0.73401897015E+02  0.43311578593E+02  0.19613527346E+02  0.87581457972E+02  0.47000000000E+01 0. -1.
         -5    1    1    2    0  502  0.30667623399E+02 -0.33963088444E+02 -0.18295420475E+01  0.46037286255E+02  0.47000000000E+01 0. -1.
        -11    1    1    2    0    0  0.65439821221E+02 -0.26441677481E+02 -0.97299459634E+02  0.12020281758E+03  0.00000000000E+00 0.  1.
         11    1    1    2    0    0 -0.22705547604E+02  0.17093187332E+02 -0.12873648191E+02  0.31200156457E+02  0.00000000000E+00 0. -1.
<mgrwt>
<rscale>  0 0.12462093E+03</rscale>
<asrwt>0</asrwt>
<pdfrwt beam="1">  1        2 0.14817892E-01 0.13242998E+03</pdfrwt>
<pdfrwt beam="2">  1       -2 0.29031603E-01 0.13242998E+03</pdfrwt>
<totfact> 0.41002186E+03</totfact>
</mgrwt>
</event>
<event>
 6    1  0.6101889E-006  0.1271633E+03  0.7546771E-02  0.1244842E+00
          2   -1    0    0  501    0  0.00000000000E+00  0.00000000000E+00  0.76196284641E+03  0.76196284641E+03  0.00000000000E+00 0. -1.
         -2   -1    0    0    0  501 -0.00000000000E+00 -0.00000000000E+00 -0.19678771581E+02  0.19678771581E+02  0.00000000000E+00 0.  1.
          5    1    1    2  502    0 -0.94127868564E+01  0.43401833980E+02  0.43939650049E+03  0.44166015712E+03  0.47000000000E+01 0.  1.
         -5    1    1    2    0  502 -0.10776970978E+02 -0.55017845214E+02  0.12811504446E+03  0.13992376858E+03  0.47000000000E+01 0.  1.
        -11    1    1    2    0    0 -0.31108927329E+02  0.11082061193E+02  0.12227422048E+03  0.12665528980E+03  0.00000000000E+00 0.  1.
         11    1    1    2    0    0  0.51298685163E+02  0.53395004107E+00  0.52498309404E+02  0.73402402497E+02  0.00000000000E+00 0. -1.
<mgrwt>
<rscale>  0 0.11894849E+03</rscale>
<asrwt>0</asrwt>
<pdfrwt beam="1">  1        2 0.11722503E+00 0.12716332E+03</pdfrwt>
<pdfrwt beam="2">  1       -2 0.30275039E-02 0.12716332E+03</pdfrwt>
<totfact> 0.14947572E+04</totfact>
</mgrwt>
</event>
<event>
 6    1  0.6101889E-006  0.1277885E+03  0.7546771E-02  0.1241006E+00
         -2   -1    0    0    0  501 -0.00000000000E+00  0.00000000000E+00  0.14918760834E+02  0.14918760834E+02  0.00000000000E+00 0.  1.
          2   -1    0    0  501    0  0.00000000000E+00 -0.00000000000E+00 -0.11560774075E+04  0.11560774075E+04  0.00000000000E+00 0. -1.
          5    1    1    2  502    0  0.39850347789E+02 -0.98682348581E+01 -0.36916619789E+03  0.37147167314E+03  0.47000000000E+01 0. -1.
         -5    1    1    2    0  502 -0.66601307255E+02  0.51978004519E+02 -0.52321234703E+03  0.53001009157E+03  0.47000000000E+01 0.  1.
        -11    1    1    2    0    0  0.10568475997E+02 -0.70333433336E+02 -0.16909967516E+03  0.18344804351E+03  0.00000000000E+00 0.  1.
         11    1    1    2    0    0  0.16182483469E+02  0.28223663675E+02 -0.79680426599E+02  0.86066360127E+02  0.00000000000E+00 0. -1.
<mgrwt>
<rscale>  0 0.12127663E+03</rscale>
<asrwt>0</asrwt>
<pdfrwt beam="2">  1        2 0.17785801E+00 0.12778852E+03</pdfrwt>
<pdfrwt beam="1">  1       -2 0.22951947E-02 0.12778852E+03</pdfrwt>
<totfact> 0.12834026E+04</totfact>
</mgrwt>
</event>
<event>
 6    1  0.6101889E-006  0.1301740E+03  0.7546771E-02  0.1241518E+00
          1   -1    0    0  501    0  0.00000000000E+00  0.00000000000E+00  0.27358066831E+03  0.27358066831E+03  0.00000000000E+00 0. -1.
         -1   -1    0    0    0  501 -0.00000000000E+00 -0.00000000000E+00 -0.47185035813E+02  0.47185035813E+02  0.00000000000E+00 0.  1.
          5    1    1    2  502    0  0.51191290168E+02  0.25027279715E+01  0.20796046042E+02  0.55510155534E+02  0.47000000000E+01 0.  1.
         -5    1    1    2    0  502 -0.55144642560E+02 -0.38638691793E+02  0.10976355236E+03  0.12885653857E+03  0.47000000000E+01 0.  1.
        -11    1    1    2    0    0 -0.23759639346E+02  0.55172897979E+02  0.43396701047E+02  0.74106968600E+02  0.00000000000E+00 0.  1.
         11    1    1    2    0    0  0.27712991738E+02 -0.19036934158E+02  0.52439333047E+02  0.62292041415E+02  0.00000000000E+00 0. -1.
<mgrwt>
<rscale>  0 0.12096239E+03</rscale>
<asrwt>0</asrwt>
<pdfrwt beam="1">  1        1 0.42089333E-01 0.13017400E+03</pdfrwt>
<pdfrwt beam="2">  1       -1 0.72592365E-02 0.13017400E+03</pdfrwt>
<totfact> 0.92868479E+03</totfact>
</mgrwt>
</event>
<event>
 6    1  0.6101889E-006  0.1344019E+03  0.7546771E-02  0.1237711E+00
          1   -1    0    0  501    0  0.00000000000E+00  0.00000000000E+00  0.72354985842E+03  0.72354985842E+03  0.00000000000E+00 0. -1.
         -1   -1    0    0    0  501 -0.00000000000E+00 -0.00000000000E+00 -0.16896034163E+03  0.16896034163E+03  0.00000000000E+00 0.  1.
          5    1    1    2  502    0  0.11531313235E+02  0.26744402553E+02  0.68234920370E+03  0.68298664705E+03  0.47000000000E+01 0. -1.
         -5    1    1    2    0  502 -0.23413752931E+02 -0.89886409936E+01  0.20879317441E+02  0.32970219745E+02  0.47000000000E+01 0.  1.
        -11    1    1    2    0    0 -0.61211367793E+01  0.35947545737E+02 -0.40630281438E+02  0.54594085117E+02  0.00000000000E+00 0. -1.
         11    1    1    2    0    0  0.18003576475E+02 -0.53703307296E+02 -0.10800872291E+03  0.12195924814E+03  0.00000000000E+00 0.  1.
<mgrwt>
<rscale>  0 0.12332471E+03</rscale>
<asrwt>0</asrwt>
<pdfrwt beam="1">  1        1 0.11131536E+00 0.13440194E+03</pdfrwt>
<pdfrwt beam="2">  1       -1 0.25993899E-01 0.13440194E+03</pdfrwt>
<totfact> 0.35859352E+02</totfact>
</mgrwt>
</event>
<event>
 6    1  0.6101889E-006  0.2810495E+03  0.7546771E-02  0.1096859E+00
         -1   -1    0    0    0  501 -0.00000000000E+00  0.00000000000E+00  0.18067675376E+03  0.18067675376E+03  0.00000000000E+00 0.  1.
          1   -1    0    0  501    0  0.00000000000E+00 -0.00000000000E+00 -0.67582539713E+03  0.67582539713E+03  0.00000000000E+00 0. -1.
          5    1    1    2  502    0  0.61345237626E+02  0.14839184361E+03 -0.20057279922E+03  0.25697259623E+03  0.47000000000E+01 0. -1.
         -5    1    1    2    0  502  0.77601653055E+02  0.61497149113E+02 -0.31498578701E+03  0.33021516005E+03  0.47000000000E+01 0. -1.
        -11    1    1    2    0    0 -0.50065613799E+02 -0.11364615571E+03 -0.31954601172E+02  0.12823069418E+03  0.00000000000E+00 0. -1.
         11    1    1    2    0    0 -0.88881276882E+02 -0.96242837009E+02  0.52364544037E+02  0.14108370043E+03  0.00000000000E+00 0.  1.
<mgrwt>
<rscale>  0 0.27786848E+03</rscale>
<asrwt>0</asrwt>
<pdfrwt beam="2">  1        1 0.10397314E+00 0.28104947E+03</pdfrwt>
<pdfrwt beam="1">  1       -1 0.27796424E-01 0.28104947E+03</pdfrwt>
<totfact> 0.34771013E+02</totfact>
</mgrwt>
</event>
<event>
 6    1  0.6101889E-006  0.1748623E+03  0.7546771E-02  0.1179221E+00
          1   -1    0    0  501    0  0.00000000000E+00  0.00000000000E+00  0.69989964790E+03  0.69989964790E+03  0.00000000000E+00 0. -1.
         -1   -1    0    0    0  501 -0.00000000000E+00 -0.00000000000E+00 -0.57252495940E+02  0.57252495940E+02  0.00000000000E+00 0.  1.
          5    1    1    2  502    0  0.61178203105E+02  0.12394558941E+02  0.13117556552E+03  0.14534619574E+03  0.47000000000E+01 0.  1.
         -5    1    1    2    0  502  0.21833246600E+02 -0.10217600771E+03  0.42442843607E+03  0.43712494158E+03  0.47000000000E+01 0.  1.
        -11    1    1    2    0    0 -0.89965732672E+02  0.35739748872E+02  0.59491922100E+02  0.11362416776E+03  0.00000000000E+00 0.  1.
         11    1    1    2    0    0  0.69542829664E+01  0.54041699895E+02  0.27551228263E+02  0.61056838749E+02  0.00000000000E+00 0. -1.
<mgrwt>
<rscale>  0 0.16868989E+03</rscale>
<asrwt>0</asrwt>
<pdfrwt beam="1">  1        1 0.10767686E+00 0.17486229E+03</pdfrwt>
<pdfrwt beam="2">  1       -1 0.88080768E-02 0.17486229E+03</pdfrwt>
<totfact> 0.20745778E+03</totfact>
</mgrwt>
</event>
<event>
 6    1  0.6101889E-006  0.3868186E+03  0.7546771E-02  0.1048442E+00
          1   -1    0    0  501    0  0.00000000000E+00  0.00000000000E+00  0.11039612386E+04  0.11039612386E+04  0.00000000000E+00 0. -1.
         -1   -1    0    0    0  501 -0.00000000000E+00 -0.00000000000E+00 -0.33884479712E+02  0.33884479712E+02  0.00000000000E+00 0.  1.
          5    1    1    2  502    0  0.13509253998E+02 -0.28951134029E+02  0.22277531374E+03  0.22510352844E+03  0.47000000000E+01 0.  1.
         -5    1    1    2    0  502  0.14386753151E+03  0.23119635565E+02  0.26448788941E+03  0.30200714862E+03  0.47000000000E+01 0.  1.
        -11    1    1    2    0    0 -0.82134332519E+02  0.12152190685E+02  0.15056044653E+03  0.17193653590E+03  0.00000000000E+00 0.  1.
         11    1    1    2    0    0 -0.75242452988E+02 -0.63206922211E+01  0.43225310916E+03  0.43879850531E+03  0.00000000000E+00 0. -1.
<mgrwt>
<rscale>  0 0.38681857E+03</rscale>
<asrwt>0</asrwt>
<pdfrwt beam="1">  1        1 0.16984016E+00 0.38681857E+03</pdfrwt>
<pdfrwt beam="2">  1       -1 0.52129977E-02 0.38681857E+03</pdfrwt>
<totfact> 0.22176969E+03</totfact>
</mgrwt>
</event>
<event>
 6    1  0.6101889E-006  0.1623838E+03  0.7546771E-02  0.1193345E+00
         -2   -1    0    0    0  501 -0.00000000000E+00  0.00000000000E+00  0.11752983910E+03  0.11752983910E+03  0.00000000000E+00 0.  1.
          2   -1    0    0  501    0  0.00000000000E+00 -0.00000000000E+00 -0.19227679468E+03  0.19227679468E+03  0.00000000000E+00 0. -1.
          5    1    1    2  502    0  0.48128738100E+02 -0.61889946837E+02 -0.70759201582E+02  0.10571516239E+03  0.47000000000E+01 0.  1.
         -5    1    1    2    0  502  0.45850474103E+02  0.18123354543E+02  0.34891923794E+02  0.60582656771E+02  0.47000000000E+01 0.  1.
        -11    1    1    2    0    0 -0.54617218626E+02  0.63361296637E+02 -0.50906298702E+02  0.97924183579E+02  0.00000000000E+00 0. -1.
         11    1    1    2    0    0 -0.39361993577E+02 -0.19594704343E+02  0.12026620911E+02  0.45584631041E+02  0.00000000000E+00 0.  1.
<mgrwt>
<rscale>  0 0.15595105E+03</rscale>
<asrwt>0</asrwt>
<pdfrwt beam="2">  1        2 0.29581045E-01 0.16238381E+03</pdfrwt>
<pdfrwt beam="1">  1       -2 0.18081514E-01 0.16238381E+03</pdfrwt>
<totfact> 0.43114672E+03</totfact>
</mgrwt>
</event>
<event>
 6    1  0.6101889E-006  0.1754040E+03  0.7546771E-02  0.1178231E+00
         -2   -1    0    0    0  501 -0.00000000000E+00  0.00000000000E+00  0.35140913200E+02  0.35140913200E+02  0.00000000000E+00 0.  1.
          2   -1    0    0  501    0  0.00000000000E+00 -0.00000000000E+00 -0.76930050560E+03  0.76930050560E+03  0.00000000000E+00 0. -1.
          5    1    1    2  502    0  0.66946527827E+02 -0.10888298398E+03 -0.36292543163E+03  0.38480423687E+03  0.47000000000E+01 0.  1.
         -5    1    1    2    0  502  0.22376205488E+02  0.24269359117E+02 -0.27528937451E+02  0.43239203984E+02  0.47000000000E+01 0.  1.
        -11    1    1    2    0    0 -0.51332075727E+02  0.96195762084E+02 -0.20595873436E+03  0.23303992555E+03  0.00000000000E+00 0.  1.
         11    1    1    2    0    0 -0.37990657588E+02 -0.11582137222E+02 -0.13774648895E+03  0.14335805239E+03  0.00000000000E+00 0. -1.
<mgrwt>
<rscale>  0 0.16963304E+03</rscale>
<asrwt>0</asrwt>
<pdfrwt beam="2">  1        2 0.11835392E+00 0.17540403E+03</pdfrwt>
<pdfrwt beam="1">  1       -2 0.54062944E-02 0.17540403E+03</pdfrwt>
<totfact> 0.63414017E+03</totfact>
</mgrwt>
</event>
<event>
 6    1  0.6101889E-006  0.1313651E+03  0.7546771E-02  0.1236140E+00
         -2   -1    0    0    0  501 -0.00000000000E+00  0.00000000000E+00  0.39345259036E+02  0.39345259036E+02  0.00000000000E+00 0.  1.
          2   -1    0    0  501    0  0.00000000000E+00 -0.00000000000E+00 -0.41470268234E+03  0.41470268234E+03  0.00000000000E+00 0. -1.
          5    1    1    2  502    0 -0.74837450686E+02  0.29665317511E+01 -0.20803057554E+03  0.22115210760E+03  0.47000000000E+01 0.  1.
         -5    1    1    2    0  502  0.41369812014E+02 -0.31651377108E+02 -0.82262326060E+02  0.97480517580E+02  0.47000000000E+01 0.  1.
        -11    1    1    2    0    0 -0.25769747205E+02 -0.14565574177E+02 -0.12165001370E+02  0.32003485442E+02  0.00000000000E+00 0.  1.
         11    1    1    2    0    0  0.59237385877E+02  0.43250419533E+02 -0.72899520334E+02  0.10341183076E+03  0.00000000000E+00 0. -1.
<mgrwt>
<rscale>  0 0.12431737E+03</rscale>
<asrwt>0</asrwt>
<pdfrwt beam="2">  1        2 0.63800414E-01 0.13136507E+03</pdfrwt>
<pdfrwt beam="1">  1       -2 0.60531166E-02 0.13136507E+03</pdfrwt>
<totfact> 0.10601447E+04</totfact>
</mgrwt>
</event>
<event>
 6    1  0.6101889E-006  0.1312711E+03  0.7546771E-02  0.1238505E+00
          2   -1    0    0  501    0  0.00000000000E+00  0.00000000000E+00  0.45009162861E+03  0.45009162861E+03  0.00000000000E+00 0. -1.
         -2   -1    0    0    0  501 -0.00000000000E+00 -0.00000000000E+00 -0.34505758860E+02  0.34505758860E+02  0.00000000000E+00 0.  1.
          5    1    1    2  502    0 -0.75306259176E+02 -0.36437625491E+02  0.24550458877E+03  0.25940957255E+03  0.47000000000E+01 0. -1.
         -5    1    1    2    0  502  0.39545405205E+02  0.18398883231E+02  0.74232645905E+02  0.86226061577E+02  0.47000000000E+01 0. -1.
        -11    1    1    2    0    0  0.17269981122E+02  0.50209273429E+02  0.24361889109E+02  0.58418533250E+02  0.00000000000E+00 0.  1.
         11    1    1    2    0    0  0.18490872850E+02 -0.32170531168E+02  0.71486745968E+02  0.80543220097E+02  0.00000000000E+00 0. -1.
<mgrwt>
<rscale>  0 0.12282665E+03</rscale>
<asrwt>0</asrwt>
<pdfrwt beam="1">  1        2 0.69244862E-01 0.13127106E+03</pdfrwt>
<pdfrwt beam="2">  1       -2 0.53085786E-02 0.13127106E+03</pdfrwt>
<totfact> 0.11835036E+04</totfact>
</mgrwt>
</event>
<event>
 6    1  0.6101889E-006  0.1326420E+03  0.7546771E-02  0.1235534E+00
         -2   -1    0    0    0  501 -0.00000000000E+00  0.00000000000E+00  0.38237773751E+02  0.38237773751E+02  0.00000000000E+00 0.  1.
          2   -1    0    0  501    0  0.00000000000E+00 -0.00000000000E+00 -0.36725698549E+03  0.36725698549E+03  0.00000000000E+00 0. -1.
          5    1    1    2  502    0 -0.27847937760E+02 -0.33778826595E+02 -0.21547387930E+03  0.21992635000E+03  0.47000000000E+01 0.  1.
         -5    1    1    2    0  502 -0.91879977709E+01  0.93501470023E+01  0.14992412435E+02  0.20462330821E+02  0.47000000000E+01 0.  1.
        -11    1    1    2    0    0 -0.14326045104E+02 -0.15171285775E+02  0.29659973069E+00  0.20868431944E+02  0.00000000000E+00 0.  1.
         11    1    1    2    0    0  0.51361980634E+02  0.39599965368E+02 -0.12883434461E+03  0.14423764648E+03  0.00000000000E+00 0. -1.
<mgrwt>
<rscale>  0 0.12470290E+03</rscale>
<asrwt>0</asrwt>
<pdfrwt beam="2">  1        2 0.56501076E-01 0.13264200E+03</pdfrwt>
<pdfrwt beam="1">  1       -2 0.58827343E-02 0.13264200E+03</pdfrwt>
<totfact> 0.12610401E+04</totfact>
</mgrwt>
</event>
<event>
 6    1  0.6101889E-006  0.1398673E+03  0.7546771E-02  0.1220534E+00
          3   -1    0    0  501    0  0.00000000000E+00  0.00000000000E+00  0.33757814230E+03  0.33757814230E+03  0.00000000000E+00 0. -1.
         -3   -1    0    0    0  501 -0.00000000000E+00 -0.00000000000E+00 -0.50255800666E+02  0.50255800666E+02  0.00000000000E+00 0.  1.
          5    1    1    2  502    0 -0.54965910396E+02 -0.53085541059E+02  0.70583584393E+02  0.10413192767E+03  0.47000000000E+01 0.  1.
         -5    1    1    2    0  502  0.60620488643E+02 -0.94131360193E+01  0.87184829047E+02  0.10670864627E+03  0.47000000000E+01 0.  1.
        -11    1    1    2    0    0 -0.28612488890E+02  0.52809956264E+02  0.18017433346E+02  0.62707207763E+02  0.00000000000E+00 0.  1.
         11    1    1    2    0    0  0.22957910643E+02  0.96887208151E+01  0.11153649485E+03  0.11428616126E+03  0.00000000000E+00 0. -1.
<mgrwt>
<rscale>  0 0.13477734E+03</rscale>
<asrwt>0</asrwt>
<pdfrwt beam="1">  1        3 0.51935097E-01 0.13986735E+03</pdfrwt>
<pdfrwt beam="2">  1       -3 0.77316619E-02 0.13986735E+03</pdfrwt>
<totfact> 0.96810782E+02</totfact>
</mgrwt>
</event>
<event>
 6    1  0.6101889E-006  0.2045726E+03  0.7546771E-02  0.1149999E+00
          2   -1    0    0  501    0  0.00000000000E+00  0.00000000000E+00  0.11213704071E+04  0.11213704071E+04  0.00000000000E+00 0. -1.
         -2   -1    0    0    0  501 -0.00000000000E+00 -0.00000000000E+00 -0.39774080911E+02  0.39774080911E+02  0.00000000000E+00 0.  1.
          5    1    1    2  502    0 -0.11896522089E+03  0.27889252276E+02  0.50373898668E+03  0.51836820010E+03  0.47000000000E+01 0.  1.
         -5    1    1    2    0  502 -0.52099698489E+00  0.81424583852E+02  0.28101754394E+03  0.29261439523E+03  0.47000000000E+01 0.  1.
        -11    1    1    2    0    0  0.86214709203E+02 -0.71865584160E+02  0.11164055610E+03  0.15830746045E+03  0.00000000000E+00 0.  1.
         11    1    1    2    0    0  0.33271508670E+02 -0.37448251967E+02  0.18519923947E+03  0.19185443223E+03  0.00000000000E+00 0. -1.
<mgrwt>
<rscale>  0 0.19969271E+03</rscale>
<asrwt>0</asrwt>
<pdfrwt beam="1">  1        2 0.17251850E+00 0.20457262E+03</pdfrwt>
<pdfrwt beam="2">  1       -2 0.61190902E-02 0.20457262E+03</pdfrwt>
<totfact> 0.31694751E+03</totfact>
</mgrwt>
</event>
<event>
 6    1  0.6101889E-006  0.1317626E+03  0.7546771E-02  0.1237433E+00
          1   -1    0    0  501    0  0.00000000000E+00  0.00000000000E+00  0.13166713376E+04  0.13166713376E+04  0.00000000000E+00 0. -1.
         -1   -1    0    0    0  501 -0.00000000000E+00 -0.00000000000E+00 -0.12275783761E+02  0.12275783761E+02  0.00000000000E+00 0.  1.
          5    1    1    2  502    0 -0.43256232759E+02 -0.53919016952E+02  0.39996712719E+03  0.40592382894E+03  0.47000000000E+01 0. -1.
         -5    1    1    2    0  502  0.55546112038E+02  0.14113470033E+02  0.58450298016E+03  0.58732476912E+03  0.47000000000E+01 0. -1.
        -11    1    1    2    0    0  0.10885871297E+02 -0.97631496391E+01  0.41261068183E+01  0.15193618471E+02  0.00000000000E+00 0.  1.
         11    1    1    2    0    0 -0.23175750577E+02  0.49568696558E+02  0.31579933965E+03  0.32050490482E+03  0.00000000000E+00 0. -1.
<mgrwt>
<rscale>  0 0.12349960E+03</rscale>
<asrwt>0</asrwt>
<pdfrwt beam="1">  1        1 0.20256471E+00 0.13176261E+03</pdfrwt>
<pdfrwt beam="2">  1       -1 0.18885832E-02 0.13176261E+03</pdfrwt>
<totfact> 0.69090612E+03</totfact>
</mgrwt>
</event>
<event>
 6    1  0.6101889E-006  0.1270283E+03  0.7546771E-02  0.1245950E+00
         -2   -1    0    0    0  501 -0.00000000000E+00  0.00000000000E+00  0.25041749745E+02  0.25041749745E+02  0.00000000000E+00 0.  1.
          2   -1    0    0  501    0  0.00000000000E+00 -0.00000000000E+00 -0.77607090966E+03  0.77607090966E+03  0.00000000000E+00 0. -1.
          5    1    1    2  502    0  0.45629292636E+02 -0.21313275429E+02 -0.11403708054E+03  0.12475108735E+03  0.47000000000E+01 0. -1.
         -5    1    1    2    0  502 -0.41106069003E+02 -0.85121645941E+00 -0.53512404127E+03  0.53672177432E+03  0.47000000000E+01 0. -1.
        -11    1    1    2    0    0  0.10966857494E+02 -0.31856840991E+02 -0.16705367357E+02  0.37605845021E+02  0.00000000000E+00 0.  1.
         11    1    1    2    0    0 -0.15490081127E+02  0.54021332880E+02 -0.85162670746E+02  0.10203395272E+03  0.00000000000E+00 0. -1.
<mgrwt>
<rscale>  0 0.11828717E+03</rscale>
<asrwt>0</asrwt>
<pdfrwt beam="2">  1        2 0.11939554E+00 0.12702828E+03</pdfrwt>
<pdfrwt beam="1">  1       -2 0.38525763E-02 0.12702828E+03</pdfrwt>
<totfact> 0.10244656E+04</totfact>
</mgrwt>
</event>
<event>
 6    1  0.6101889E-006  0.1647967E+03  0.7546771E-02  0.1190336E+00
          1   -1    0    0  501    0  0.00000000000E+00  0.00000000000E+00  0.93880591265E+03  0.93880591265E+03  0.00000000000E+00 0. -1.
         -1   -1    0    0    0  501 -0.00000000000E+00 -0.00000000000E+00 -0.27899002116E+02  0.27899002116E+02  0.00000000000E+00 0.  1.
          5    1    1    2  502    0 -0.13558042334E+02  0.11504852316E+02  0.15997933498E+02  0.24376341295E+02  0.47000000000E+01 0.  1.
         -5    1    1    2    0  502  0.94738526512E+02 -0.81837266063E+02  0.62789467564E+03  0.64027067730E+03  0.47000000000E+01 0.  1.
        -11    1    1    2    0    0  0.14340066776E+02  0.21968371424E+02  0.20491221952E+02  0.33288692303E+02  0.00000000000E+00 0.  1.
         11    1    1    2    0    0 -0.95520550954E+02  0.48364042323E+02  0.24652307944E+03  0.26876920386E+03  0.00000000000E+00 0. -1.
<mgrwt>
<rscale>  0 0.15855629E+03</rscale>
<asrwt>0</asrwt>
<pdfrwt beam="1">  1        1 0.14443165E+00 0.16479675E+03</pdfrwt>
<pdfrwt beam="2">  1       -1 0.42921549E-02 0.16479675E+03</pdfrwt>
<totfact> 0.38837046E+03</totfact>
</mgrwt>
</event>
<event>
 6    1  0.6101889E-006  0.1296734E+03  0.7546771E-02  0.1241486E+00
         -1   -1    0    0    0  501 -0.00000000000E+00  0.00000000000E+00  0.63276929050E+03  0.63276929050E+03  0.00000000000E+00 0.  1.
          1   -1    0    0  501    0  0.00000000000E+00 -0.00000000000E+00 -0.20561680464E+02  0.20561680464E+02  0.00000000000E+00 0. -1.
          5    1    1    2  502    0  0.19472800058E+02 -0.21132472519E+02  0.63906476293E+01  0.29811100516E+02  0.47000000000E+01 0.  1.
         -5    1    1    2    0  502  0.14847102513E+02  0.17591805310E+02  0.32803035219E+03  0.32887065850E+03  0.47000000000E+01 0.  1.
        -11    1    1    2    0    0 -0.37397656710E+02 -0.26957144701E+02  0.24677883945E+03  0.25104793960E+03  0.00000000000E+00 0.  1.
         11    1    1    2    0    0  0.30777541389E+01  0.30497811911E+02  0.31007770764E+02  0.43601272339E+02  0.00000000000E+00 0. -1.
<mgrwt>
<rscale>  0 0.12098170E+03</rscale>
<asrwt>0</asrwt>
<pdfrwt beam="2">  1        1 0.31633359E-02 0.12967343E+03</pdfrwt>
<pdfrwt beam="1">  1       -1 0.97349107E-01 0.12967343E+03</pdfrwt>
<totfact> 0.32468222E+03</totfact>
</mgrwt>
</event>
<event>
 6    1  0.6101889E-006  0.1265983E+03  0.7546771E-02  0.1246273E+00
         -2   -1    0    0    0  501 -0.00000000000E+00  0.00000000000E+00  0.23770235013E+02  0.23770235013E+02  0.00000000000E+00 0.  1.
          2   -1    0    0  501    0  0.00000000000E+00 -0.00000000000E+00 -0.52091054865E+03  0.52091054865E+03  0.00000000000E+00 0. -1.
          5    1    1    2  502    0  0.28168337952E+02  0.25765508935E+02 -0.23999568996E+03  0.24305830147E+03  0.47000000000E+01 0. -1.
         -5    1    1    2    0  502 -0.19694914505E+02 -0.43967281966E+02 -0.35170396031E+02  0.59833588375E+02  0.47000000000E+01 0. -1.
        -11    1    1    2    0    0 -0.22062830160E+02  0.45088644346E+02 -0.65936793249E+02  0.82869868032E+02  0.00000000000E+00 0.  1.
         11    1    1    2    0    0  0.13589406713E+02 -0.26886871315E+02 -0.15603743440E+03  0.15891902579E+03  0.00000000000E+00 0. -1.
<mgrwt>
<rscale>  0 0.11809492E+03</rscale>
<asrwt>0</asrwt>
<pdfrwt beam="2">  1        2 0.80140086E-01 0.12659827E+03</pdfrwt>
<pdfrwt beam="1">  1       -2 0.36569592E-02 0.12659827E+03</pdfrwt>
<totfact> 0.17536921E+04</totfact>
</mgrwt>
</event>
<event>
 6    1  0.6101889E-006  0.1615048E+03  0.7546771E-02  0.1194372E+00
          1   -1    0    0  501    0  0.00000000000E+00  0.00000000000E+00  0.31569725206E+03  0.31569725206E+03  0.00000000000E+00 0. -1.
         -1   -1    0    0    0  501 -0.00000000000E+00 -0.00000000000E+00 -0.70742341994E+02  0.70742341994E+02  0.00000000000E+00 0.  1.
          5    1    1    2  502    0  0.17538852303E+02  0.51057159768E+02  0.58446512200E+02  0.79702758372E+02  0.47000000000E+01 0. -1.
         -5    1    1    2    0  502  0.83944293624E+02 -0.63671268406E+02  0.68996211997E+02  0.12602873530E+03  0.47000000000E+01 0. -1.
        -11    1    1    2    0    0 -0.19871816163E+02  0.15692547614E+02 -0.11665567865E+02  0.27878855820E+02  0.00000000000E+00 0.  1.
         11    1    1    2    0    0 -0.81611329764E+02 -0.30784389762E+01  0.12917775374E+03  0.15282924456E+03  0.00000000000E+00 0. -1.
<mgrwt>
<rscale>  0 0.15507520E+03</rscale>
<asrwt>0</asrwt>
<pdfrwt beam="1">  1        1 0.48568807E-01 0.16150480E+03</pdfrwt>
<pdfrwt beam="2">  1       -1 0.10883437E-01 0.16150480E+03</pdfrwt>
<totfact> 0.42593200E+03</totfact>
</mgrwt>
</event>
<event>
 6    1  0.6101889E-006  0.5063815E+03  0.7546771E-02  0.1012127E+00
          1   -1    0    0  501    0  0.00000000000E+00  0.00000000000E+00  0.89769478695E+02  0.89769478695E+02  0.00000000000E+00 0. -1.
         -1   -1    0    0    0  501 -0.00000000000E+00 -0.00000000000E+00 -0.71411306749E+03  0.71411306749E+03  0.00000000000E+00 0.  1.
          5    1    1    2  502    0 -0.14443246723E+03  0.44868209491E+02 -0.10537952144E+03  0.18439313260E+03  0.47000000000E+01 0.  1.
         -5    1    1    2    0  502 -0.24116932996E+02 -0.20317635307E+02  0.26163383642E+02  0.41243731708E+02  0.47000000000E+01 0.  1.
        -11    1    1    2    0    0  0.11990206349E+03  0.19543760140E+02 -0.41612829348E+03  0.43349881202E+03  0.00000000000E+00 0.  1.
         11    1    1    2    0    0  0.48647336736E+02 -0.44094334324E+02 -0.12899915752E+03  0.14474686985E+03  0.00000000000E+00 0. -1.
<mgrwt>
<rscale>  0 0.50638151E+03</rscale>
<asrwt>0</asrwt>
<pdfrwt beam="1">  1        1 0.13810690E-01 0.50638151E+03</pdfrwt>
<pdfrwt beam="2">  1       -1 0.10986354E+00 0.50638151E+03</pdfrwt>
<totfact> 0.33633171E+02</totfact>
</mgrwt>
</event>
<event>
 6    1  0.6101889E-006  0.2813902E+03  0.7546771E-02  0.1094932E+00
          1   -1    0    0  501    0  0.00000000000E+00  0.00000000000E+00  0.24932942717E+03  0.24932942717E+03  0.00000000000E+00 0. -1.
         -1   -1    0    0    0  501 -0.00000000000E+00 -0.00000000000E+00 -0.79393375427E+02  0.79393375427E+02  0.00000000000E+00 0.  1.
          5    1    1    2  502    0 -0.60652667710E+02 -0.96978258321E+02  0.69682438073E+02  0.13401962865E+03  0.47000000000E+01 0. -1.
         -5    1    1    2    0  502  0.18879111004E+01  0.33102295027E+02  0.47176918321E+02  0.57853934755E+02  0.47000000000E+01 0. -1.
        -11    1    1    2    0    0 -0.48948612822E+01  0.53848602393E+02  0.47833248251E+02  0.72191767431E+02  0.00000000000E+00 0. -1.
         11    1    1    2    0    0  0.63659617892E+02  0.10027360902E+02  0.52434470950E+01  0.64657471759E+02  0.00000000000E+00 0.  1.
<mgrwt>
<rscale>  0 0.28139015E+03</rscale>
<asrwt>0</asrwt>
<pdfrwt beam="1">  1        1 0.38358373E-01 0.28139015E+03</pdfrwt>
<pdfrwt beam="2">  1       -1 0.12214366E-01 0.28139015E+03</pdfrwt>
<totfact> 0.49093877E+03</totfact>
</mgrwt>
</event>
<event>
 6    1  0.6101889E-006  0.1770442E+03  0.7546771E-02  0.1176420E+00
         -2   -1    0    0    0  501 -0.00000000000E+00  0.00000000000E+00  0.12892322444E+03  0.12892322444E+03  0.00000000000E+00 0.  1.
          2   -1    0    0  501    0  0.00000000000E+00 -0.00000000000E+00 -0.22043623899E+03  0.22043623899E+03  0.00000000000E+00 0. -1.
          5    1    1    2  502    0 -0.83462063239E+02 -0.57684838029E+02 -0.87583280941E+02  0.13411330150E+03  0.47000000000E+01 0.  1.
         -5    1    1    2    0  502  0.24265754688E+02 -0.52837921515E+02  0.99996051926E+01  0.59184076445E+02  0.47000000000E+01 0.  1.
        -11    1    1    2    0    0  0.34931818582E+02  0.10058199419E+02  0.26602361731E+02  0.45045365741E+02  0.00000000000E+00 0.  1.
         11    1    1    2    0    0  0.24264489969E+02  0.10046456012E+03 -0.40531700534E+02  0.11101671974E+03  0.00000000000E+00 0. -1.
<mgrwt>
<rscale>  0 0.17137656E+03</rscale>
<asrwt>0</asrwt>
<pdfrwt beam="2">  1        2 0.33913268E-01 0.17704420E+03</pdfrwt>
<pdfrwt beam="1">  1       -2 0.19834342E-01 0.17704420E+03</pdfrwt>
<totfact> 0.31926433E+03</totfact>
</mgrwt>
</event>
<event>
 6    1  0.6101889E-006  0.1263292E+03  0.7546771E-02  0.1248708E+00
          1   -1    0    0  501    0  0.00000000000E+00  0.00000000000E+00  0.47597015391E+03  0.47597015391E+03  0.00000000000E+00 0. -1.
         -1   -1    0    0    0  501 -0.00000000000E+00 -0.00000000000E+00 -0.28483270622E+02  0.28483270622E+02  0.00000000000E+00 0.  1.
          5    1    1    2  502    0 -0.40946033165E+02 -0.19721285049E+02  0.43004501297E+02  0.62745389056E+02  0.47000000000E+01 0.  1.
         -5    1    1    2    0  502  0.41104492656E+02  0.12281007177E+01  0.29888068656E+03  0.30173306472E+03  0.47000000000E+01 0.  1.
        -11    1    1    2    0    0  0.44806214824E+02  0.10641913698E+02  0.57398470941E+02  0.73589616662E+02  0.00000000000E+00 0.  1.
         11    1    1    2    0    0 -0.44964674315E+02  0.78512706334E+01  0.48203224491E+02  0.66385354094E+02  0.00000000000E+00 0. -1.
<mgrwt>
<rscale>  0 0.11666182E+03</rscale>
<asrwt>0</asrwt>
<pdfrwt beam="1">  1        1 0.73226172E-01 0.12632918E+03</pdfrwt>
<pdfrwt beam="2">  1       -1 0.43820420E-02 0.12632918E+03</pdfrwt>
<totfact> 0.97991013E+03</totfact>
</mgrwt>
</event>
<event>
 6    1  0.6101889E-006  0.2703343E+03  0.7546771E-02  0.1103247E+00
         -3   -1    0    0    0  501 -0.00000000000E+00  0.00000000000E+00  0.12071529190E+04  0.12071529190E+04  0.00000000000E+00 0.  1.
          3   -1    0    0  501    0  0.00000000000E+00 -0.00000000000E+00 -0.60549955486E+02  0.60549955486E+02  0.00000000000E+00 0. -1.
          5    1    1    2  502    0 -0.34650503869E+02  0.18856524054E+03  0.25201725601E+03  0.31668958727E+03  0.47000000000E+01 0. -1.
         -5    1    1    2    0  502  0.43267147530E+02  0.50978000290E+02  0.18960846272E+03  0.20110758738E+03  0.47000000000E+01 0. -1.
        -11    1    1    2    0    0 -0.31615580461E+02 -0.27324723681E+02  0.13208145047E+03  0.13853409332E+03  0.00000000000E+00 0.  1.
         11    1    1    2    0    0  0.22998936800E+02 -0.21221851715E+03  0.57289579436E+03  0.61137160656E+03  0.00000000000E+00 0. -1.
<mgrwt>
<rscale>  0 0.26659044E+03</rscale>
<asrwt>0</asrwt>
<pdfrwt beam="2">  1        3 0.93153787E-02 0.27033431E+03</pdfrwt>
<pdfrwt beam="1">  1       -3 0.18571582E+00 0.27033431E+03</pdfrwt>
<totfact> 0.40477858E+01</totfact>
</mgrwt>
</event>
<event>
 6    1  0.6101889E-006  0.1342489E+03  0.7546771E-02  0.1232237E+00
         -1   -1    0    0    0  501 -0.00000000000E+00  0.00000000000E+00  0.23360204592E+02  0.23360204592E+02  0.00000000000E+00 0.  1.
          1   -1    0    0  501    0  0.00000000000E+00 -0.00000000000E+00 -0.91044121449E+03  0.91044121449E+03  0.00000000000E+00 0. -1.
          5    1    1    2  502    0  0.13022159240E+02  0.28406218297E+02 -0.63041734052E+02  0.70518367122E+02  0.47000000000E+01 0.  1.
         -5    1    1    2    0  502 -0.47439320214E+02 -0.63159524182E+02 -0.67622138189E+03  0.68083556159E+03  0.47000000000E+01 0.  1.
        -11    1    1    2    0    0 -0.24125115368E+02  0.28655045935E+02 -0.21747069649E+02  0.43313599335E+02  0.00000000000E+00 0.  1.
         11    1    1    2    0    0  0.58542276342E+02  0.60982599494E+01 -0.12607082430E+03  0.13913389103E+03  0.00000000000E+00 0. -1.
<mgrwt>
<rscale>  0 0.12682997E+03</rscale>
<asrwt>0</asrwt>
<pdfrwt beam="2">  1        1 0.14006788E+00 0.13424892E+03</pdfrwt>
<pdfrwt beam="1">  1       -1 0.35938777E-02 0.13424892E+03</pdfrwt>
<totfact> 0.52597694E+03</totfact>
</mgrwt>
</event>
<event>
 6    1  0.6101889E-006  0.1860665E+03  0.7546771E-02  0.1167114E+00
         -2   -1    0    0    0  501 -0.00000000000E+00  0.00000000000E+00  0.13075748183E+03  0.13075748183E+03  0.00000000000E+00 0.  1.
          2   -1    0    0  501    0  0.00000000000E+00 -0.00000000000E+00 -0.24830809834E+03  0.24830809834E+03  0.00000000000E+00 0. -1.
          5    1    1    2  502    0 -0.82305521801E+01 -0.88112911765E+02  0.43572979744E+02  0.98753844344E+02  0.47000000000E+01 0.  1.
         -5    1    1    2    0  502 -0.47307315514E+02 -0.38018360066E+02 -0.64170089044E+02  0.88449240422E+02  0.47000000000E+01 0.  1.
        -11    1    1    2    0    0 -0.20964849711E+02  0.35314703869E+02 -0.43907217704E+01  0.41302925688E+02  0.00000000000E+00 0.  1.
         11    1    1    2    0    0  0.76502717405E+02  0.90816567963E+02 -0.92562785434E+02  0.15055956972E+03  0.00000000000E+00 0. -1.
<mgrwt>
<rscale>  0 0.18071420E+03</rscale>
<asrwt>0</asrwt>
<pdfrwt beam="2">  1        2 0.38201246E-01 0.18606653E+03</pdfrwt>
<pdfrwt beam="1">  1       -2 0.20116536E-01 0.18606653E+03</pdfrwt>
<totfact> 0.27467681E+03</totfact>
</mgrwt>
</event>
<event>
 6    1  0.6101889E-006  0.1485254E+03  0.7546771E-02  0.1215828E+00
         -1   -1    0    0    0  501 -0.00000000000E+00  0.00000000000E+00  0.94399658904E+02  0.94399658904E+02  0.00000000000E+00 0.  1.
          1   -1    0    0  501    0  0.00000000000E+00 -0.00000000000E+00 -0.18085248239E+03  0.18085248239E+03  0.00000000000E+00 0. -1.
          5    1    1    2  502    0  0.72193688493E+02 -0.34616927267E+01 -0.66767113575E+02  0.98508118599E+02  0.47000000000E+01 0.  1.
         -5    1    1    2    0  502 -0.22073671417E+02 -0.59171321392E+02  0.23779005327E+01  0.63373785243E+02  0.47000000000E+01 0.  1.
        -11    1    1    2    0    0 -0.35060239999E+02  0.38348285486E+02  0.25502472430E+02  0.57880804492E+02  0.00000000000E+00 0.  1.
         11    1    1    2    0    0 -0.15059777076E+02  0.24284728633E+02 -0.47566082877E+02  0.55489432963E+02  0.00000000000E+00 0. -1.
<mgrwt>
<rscale>  0 0.13815898E+03</rscale>
<asrwt>0</asrwt>
<pdfrwt beam="2">  1        1 0.27823459E-01 0.14852535E+03</pdfrwt>
<pdfrwt beam="1">  1       -1 0.14523024E-01 0.14852535E+03</pdfrwt>
<totfact> 0.54170703E+03</totfact>
</mgrwt>
</event>
<event>
 6    1  0.6101889E-006  0.4069362E+03  0.7546771E-02  0.1041404E+00
         -2   -1    0    0    0  501 -0.00000000000E+00  0.00000000000E+00  0.11759649585E+03  0.11759649585E+03  0.00000000000E+00 0.  1.
          2   -1    0    0  501    0  0.00000000000E+00 -0.00000000000E+00 -0.35204509034E+03  0.35204509034E+03  0.00000000000E+00 0. -1.
          5    1    1    2  502    0 -0.15706752728E+03 -0.55742594040E+02 -0.84358131198E+02  0.18685777804E+03  0.47000000000E+01 0. -1.
         -5    1    1    2    0  502 -0.13028044061E+02  0.36894011289E+02 -0.51606263443E+02  0.64932229498E+02  0.47000000000E+01 0. -1.
        -11    1    1    2    0    0  0.11117798686E+03  0.19126396894E+02 -0.11028524851E+03  0.15776311311E+03  0.00000000000E+00 0. -1.
         11    1    1    2    0    0  0.58917584478E+02 -0.27781414398E+00  0.11801048654E+02  0.60088465539E+02  0.00000000000E+00 0.  1.
<mgrwt>
<rscale>  0 0.40693621E+03</rscale>
<asrwt>0</asrwt>
<pdfrwt beam="2">  1        2 0.54160783E-01 0.40693621E+03</pdfrwt>
<pdfrwt beam="1">  1       -2 0.18091769E-01 0.40693621E+03</pdfrwt>
<totfact> 0.23073050E+03</totfact>
</mgrwt>
</event>
<event>
 6    1  0.6101889E-006  0.1272867E+03  0.7546771E-02  0.1246044E+00
         -2   -1    0    0    0  501 -0.00000000000E+00  0.00000000000E+00  0.10909204674E+02  0.10909204674E+02  0.00000000000E+00 0. -1.
          2   -1    0    0  501    0  0.00000000000E+00 -0.00000000000E+00 -0.17189313642E+04  0.17189313642E+04  0.00000000000E+00 0.  1.
          5    1    1    2  502    0  0.46259742211E+02 -0.22824826771E+02 -0.88736041539E+03  0.88887093173E+03  0.47000000000E+01 0.  1.
         -5    1    1    2    0  502 -0.66544039644E+02  0.99597837821E+01 -0.55167937081E+03  0.55578730166E+03  0.47000000000E+01 0.  1.
        -11    1    1    2    0    0  0.48986809233E+02  0.19014207934E+02 -0.23246333965E+03  0.23832845374E+03  0.00000000000E+00 0.  1.
         11    1    1    2    0    0 -0.28702511801E+02 -0.61491649458E+01 -0.36519033628E+02  0.46853881700E+02  0.00000000000E+00 0. -1.
<mgrwt>
<rscale>  0 0.11823101E+03</rscale>
<asrwt>0</asrwt>
<pdfrwt beam="2">  1        2 0.26445080E+00 0.12728670E+03</pdfrwt>
<pdfrwt beam="1">  1       -2 0.16783403E-02 0.12728670E+03</pdfrwt>
<totfact> 0.10194299E+04</totfact>
</mgrwt>
</event>
<event>
 6    1  0.6101889E-006  0.2361637E+03  0.7546771E-02  0.1122375E+00
          1   -1    0    0  501    0  0.00000000000E+00  0.00000000000E+00  0.64851256238E+03  0.64851256238E+03  0.00000000000E+00 0. -1.
         -1   -1    0    0    0  501 -0.00000000000E+00 -0.00000000000E+00 -0.21500465302E+02  0.21500465302E+02  0.00000000000E+00 0.  1.
          5    1    1    2  502    0 -0.34162259456E+02  0.47402830947E+02  0.40627737321E+03  0.41048444834E+03  0.47000000000E+01 0.  1.
         -5    1    1    2    0  502  0.10386511282E+02 -0.52321360704E+01 -0.42950713139E+01  0.13258676482E+02  0.47000000000E+01 0.  1.
        -11    1    1    2    0    0 -0.31264785091E+02 -0.20494397701E+01  0.84020060552E+02  0.89671944137E+02  0.00000000000E+00 0. -1.
         11    1    1    2    0    0  0.55040533265E+02 -0.40121255107E+02  0.14100973463E+03  0.15659795872E+03  0.00000000000E+00 0.  1.
<mgrwt>
<rscale>  0 0.23616369E+03</rscale>
<asrwt>0</asrwt>
<pdfrwt beam="1">  1        1 0.99771149E-01 0.23616369E+03</pdfrwt>
<pdfrwt beam="2">  1       -1 0.33077644E-02 0.23616369E+03</pdfrwt>
<totfact> 0.10166531E+04</totfact>
</mgrwt>
</event>
<event>
 6    1  0.6101889E-006  0.1251356E+03  0.7546771E-02  0.1249786E+00
          2   -1    0    0  501    0  0.00000000000E+00  0.00000000000E+00  0.32042918796E+03  0.32042918796E+03  0.00000000000E+00 0. -1.
         -2   -1    0    0    0  501 -0.00000000000E+00 -0.00000000000E+00 -0.45490220304E+02  0.45490220304E+02  0.00000000000E+00 0.  1.
          5    1    1    2  502    0 -0.51574302621E+02 -0.38574677577E+02  0.11309557285E+03  0.13023291841E+03  0.47000000000E+01 0. -1.
         -5    1    1    2    0  502  0.50432860150E+02  0.32858429882E+02  0.11961856872E+03  0.13399194670E+03  0.47000000000E+01 0. -1.
        -11    1    1    2    0    0  0.29617341065E+02 -0.29640882740E+02  0.35427718698E+01  0.42051397764E+02  0.00000000000E+00 0.  1.
         11    1    1    2    0    0 -0.28475898594E+02  0.35357130435E+02  0.38682054222E+02  0.59643145391E+02  0.00000000000E+00 0. -1.
<mgrwt>
<rscale>  0 0.11603458E+03</rscale>
<asrwt>0</asrwt>
<pdfrwt beam="1">  1        2 0.49296797E-01 0.12513556E+03</pdfrwt>
<pdfrwt beam="2">  1       -2 0.69984956E-02 0.12513556E+03</pdfrwt>
<totfact> 0.11138272E+04</totfact>
</mgrwt>
</event>
<event>
 6    1  0.6101889E-006  0.1272998E+03  0.7546771E-02  0.1245204E+00
          3   -1    0    0  501    0  0.00000000000E+00  0.00000000000E+00  0.75232407522E+02  0.75232407522E+02  0.00000000000E+00 0. -1.
         -3   -1    0    0    0  501 -0.00000000000E+00 -0.00000000000E+00 -0.18038419906E+03  0.18038419906E+03  0.00000000000E+00 0.  1.
          5    1    1    2  502    0 -0.41329168661E+02 -0.49152127405E+02 -0.16132688034E+02  0.66380610375E+02  0.47000000000E+01 0. -1.
         -5    1    1    2    0  502  0.13448325278E+02  0.61013449660E+02 -0.76192077553E+01  0.63116090016E+02  0.47000000000E+01 0.  1.
        -11    1    1    2    0    0  0.39570355642E+02 -0.45527040251E+02 -0.45702397297E+02  0.75678488082E+02  0.00000000000E+00 0.  1.
         11    1    1    2    0    0 -0.11689512260E+02  0.33665717996E+02 -0.35697498454E+02  0.50441418110E+02  0.00000000000E+00 0. -1.
<mgrwt>
<rscale>  0 0.11873151E+03</rscale>
<asrwt>0</asrwt>
<pdfrwt beam="1">  1        3 0.11574217E-01 0.12729981E+03</pdfrwt>
<pdfrwt beam="2">  1       -3 0.27751415E-01 0.12729981E+03</pdfrwt>
<totfact> 0.16270646E+03</totfact>
</mgrwt>
</event>
<event>
 6    1  0.6101889E-006  0.2420737E+03  0.7546771E-02  0.1118419E+00
         -3   -1    0    0    0  501 -0.00000000000E+00  0.00000000000E+00  0.12783823175E+03  0.12783823175E+03  0.00000000000E+00 0.  1.
          3   -1    0    0  501    0  0.00000000000E+00 -0.00000000000E+00 -0.11459736232E+03  0.11459736232E+03  0.00000000000E+00 0. -1.
          5    1    1    2  502    0 -0.45167983683E+00 -0.14279552340E+02  0.65712723347E+02  0.67411880550E+02  0.47000000000E+01 0.  1.
         -5    1    1    2    0  502  0.16379522871E+02  0.59380419389E+02 -0.33447944941E+02  0.70250822038E+02  0.47000000000E+01 0.  1.
        -11    1    1    2    0    0 -0.43302460503E+02 -0.38125335222E+02  0.15908380909E+02  0.59847479934E+02  0.00000000000E+00 0.  1.
         11    1    1    2    0    0  0.27374617469E+02 -0.69755318275E+01 -0.34932289890E+02  0.44925411548E+02  0.00000000000E+00 0. -1.
<mgrwt>
<rscale>  0 0.24207374E+03</rscale>
<asrwt>0</asrwt>
<pdfrwt beam="2">  1        3 0.17630363E-01 0.24207374E+03</pdfrwt>
<pdfrwt beam="1">  1       -3 0.19667420E-01 0.24207374E+03</pdfrwt>
<totfact> 0.16250416E+03</totfact>
</mgrwt>
</event>
<event>
 6    1  0.6101889E-006  0.4124180E+03  0.7546771E-02  0.1039563E+00
          1   -1    0    0  501    0  0.00000000000E+00  0.00000000000E+00  0.41351224469E+03  0.41351224469E+03  0.00000000000E+00 0. -1.
         -1   -1    0    0    0  501 -0.00000000000E+00 -0.00000000000E+00 -0.10283167845E+03  0.10283167845E+03  0.00000000000E+00 0.  1.
          5    1    1    2  502    0 -0.15615117779E+02 -0.24638634259E+02  0.46034901101E+02  0.54700971845E+02  0.47000000000E+01 0.  1.
         -5    1    1    2    0  502  0.15362799939E+03  0.30807843984E+02  0.25080311418E+03  0.29576169044E+03  0.47000000000E+01 0.  1.
        -11    1    1    2    0    0 -0.39075022428E+02 -0.44361683313E+02  0.81365034027E+01  0.59674274287E+02  0.00000000000E+00 0.  1.
         11    1    1    2    0    0 -0.98937859180E+02  0.38192473588E+02  0.57060475553E+01  0.10620698657E+03  0.00000000000E+00 0. -1.
<mgrwt>
<rscale>  0 0.41241803E+03</rscale>
<asrwt>0</asrwt>
<pdfrwt beam="1">  1        1 0.63617268E-01 0.41241803E+03</pdfrwt>
<pdfrwt beam="2">  1       -1 0.15820258E-01 0.41241803E+03</pdfrwt>
<totfact> 0.17200780E+03</totfact>
</mgrwt>
</event>
<event>
 6    1  0.6101889E-006  0.1262042E+03  0.7546771E-02  0.1246422E+00
         -2   -1    0    0    0  501 -0.00000000000E+00  0.00000000000E+00  0.74573979663E+02  0.74573979663E+02  0.00000000000E+00 0.  1.
          2   -1    0    0  501    0  0.00000000000E+00 -0.00000000000E+00 -0.19312387330E+03  0.19312387330E+03  0.00000000000E+00 0. -1.
          5    1    1    2  502    0 -0.26472577108E+02 -0.52306982583E+02 -0.11072418667E+03  0.12537445226E+03  0.47000000000E+01 0.  1.
         -5    1    1    2    0  502  0.11270151175E+02  0.43872869932E+02 -0.49276258393E+01  0.45806293454E+02  0.47000000000E+01 0.  1.
        -11    1    1    2    0    0  0.62501376440E+01 -0.21823615787E+02 -0.41109697929E+02  0.46961065686E+02  0.00000000000E+00 0. -1.
         11    1    1    2    0    0  0.89522882895E+01  0.30257728438E+02  0.38211616807E+02  0.49556041557E+02  0.00000000000E+00 0.  1.
<mgrwt>
<rscale>  0 0.11800693E+03</rscale>
<asrwt>0</asrwt>
<pdfrwt beam="2">  1        2 0.29711365E-01 0.12620422E+03</pdfrwt>
<pdfrwt beam="1">  1       -2 0.11472920E-01 0.12620422E+03</pdfrwt>
<totfact> 0.88586294E+03</totfact>
</mgrwt>
</event>
<event>
 6    1  0.6101889E-006  0.1532248E+03  0.7546771E-02  0.1205452E+00
         -2   -1    0    0    0  501 -0.00000000000E+00  0.00000000000E+00  0.73015008105E+02  0.73015008105E+02  0.00000000000E+00 0.  1.
          2   -1    0    0  501    0  0.00000000000E+00 -0.00000000000E+00 -0.32388536416E+03  0.32388536416E+03  0.00000000000E+00 0. -1.
          5    1    1    2  502    0 -0.72171302511E+02 -0.87152210876E+01 -0.76848670724E+02  0.10588890488E+03  0.47000000000E+01 0. -1.
         -5    1    1    2    0  502  0.13606353447E+02  0.75216348910E+02 -0.14090551497E+03  0.16037171242E+03  0.47000000000E+01 0. -1.
        -11    1    1    2    0    0 -0.95779941384E+01 -0.13771566322E+02  0.22516521102E+02  0.28078243058E+02  0.00000000000E+00 0.  1.
         11    1    1    2    0    0  0.68142943202E+02 -0.52729561501E+02 -0.55632691466E+02  0.10256151190E+03  0.00000000000E+00 0. -1.
<mgrwt>
<rscale>  0 0.14601924E+03</rscale>
<asrwt>0</asrwt>
<pdfrwt beam="2">  1        2 0.49828518E-01 0.15322477E+03</pdfrwt>
<pdfrwt beam="1">  1       -2 0.11233078E-01 0.15322477E+03</pdfrwt>
<totfact> 0.53416434E+03</totfact>
</mgrwt>
</event>
<event>
 6    1  0.6101889E-006  0.1290640E+03  0.7546771E-02  0.1241262E+00
         -1   -1    0    0    0  501 -0.00000000000E+00  0.00000000000E+00  0.28842875580E+02  0.28842875580E+02  0.00000000000E+00 0.  1.
          1   -1    0    0  501    0  0.00000000000E+00 -0.00000000000E+00 -0.45573303791E+03  0.45573303791E+03  0.00000000000E+00 0. -1.
          5    1    1    2  502    0 -0.59218206747E+02 -0.16477932773E+02 -0.19375836496E+03  0.20332907384E+03  0.47000000000E+01 0. -1.
         -5    1    1    2    0  502  0.33383619094E+02  0.35616365605E+02 -0.38376183634E+02  0.62272088395E+02  0.47000000000E+01 0. -1.
        -11    1    1    2    0    0  0.17632231012E+02 -0.47221310623E+02 -0.17855307994E+03  0.18553153399E+03  0.00000000000E+00 0. -1.
         11    1    1    2    0    0  0.82023566404E+01  0.28082877791E+02 -0.16202533794E+02  0.33443217262E+02  0.00000000000E+00 0.  1.
<mgrwt>
<rscale>  0 0.12111933E+03</rscale>
<asrwt>0</asrwt>
<pdfrwt beam="2">  1        1 0.70112770E-01 0.12906405E+03</pdfrwt>
<pdfrwt beam="1">  1       -1 0.44373658E-02 0.12906405E+03</pdfrwt>
<totfact> 0.10188175E+04</totfact>
</mgrwt>
</event>
<event>
 6    1  0.6101889E-006  0.1276267E+03  0.7546771E-02  0.1249020E+00
          1   -1    0    0  501    0  0.00000000000E+00  0.00000000000E+00  0.28990530197E+03  0.28990530197E+03  0.00000000000E+00 0. -1.
         -1   -1    0    0    0  501 -0.00000000000E+00 -0.00000000000E+00 -0.40380147331E+02  0.40380147331E+02  0.00000000000E+00 0.  1.
          5    1    1    2  502    0  0.47207685532E+02 -0.19736172792E+02  0.81583914458E+02  0.96416322208E+02  0.47000000000E+01 0. -1.
         -5    1    1    2    0  502 -0.72505811398E+02  0.14728377417E+02  0.72981635603E+02  0.10403089408E+03  0.47000000000E+01 0. -1.
        -11    1    1    2    0    0  0.31532367286E+02 -0.35545444264E+02  0.50548455751E+02  0.69375176926E+02  0.00000000000E+00 0.  1.
         11    1    1    2    0    0 -0.62342414203E+01  0.40553239639E+02  0.44411148825E+02  0.60463056086E+02  0.00000000000E+00 0. -1.
<mgrwt>
<rscale>  0 0.11647967E+03</rscale>
<asrwt>0</asrwt>
<pdfrwt beam="1">  1        1 0.44600814E-01 0.12762671E+03</pdfrwt>
<pdfrwt beam="2">  1       -1 0.62123305E-02 0.12762671E+03</pdfrwt>
<totfact> 0.10895000E+04</totfact>
</mgrwt>
</event>
<event>
 6    1  0.6101889E-006  0.1351666E+03  0.7546771E-02  0.1232374E+00
          1   -1    0    0  501    0  0.00000000000E+00  0.00000000000E+00  0.72303791570E+02  0.72303791570E+02  0.00000000000E+00 0. -1.
         -1   -1    0    0    0  501 -0.00000000000E+00 -0.00000000000E+00 -0.19923767757E+03  0.19923767757E+03  0.00000000000E+00 0.  1.
          5    1    1    2  502    0 -0.49995686974E+02 -0.26381554180E+02 -0.61484217116E+01  0.57056535178E+02  0.47000000000E+01 0.  1.
         -5    1    1    2    0  502  0.21067700834E+02  0.68910885726E+02 -0.57689630235E+02  0.92426952923E+02  0.47000000000E+01 0.  1.
        -11    1    1    2    0    0 -0.27558199029E+02 -0.80721652044E+01  0.25788315754E+01  0.28831658938E+02  0.00000000000E+00 0. -1.
         11    1    1    2    0    0  0.56486185169E+02 -0.34457166342E+02 -0.65674665631E+02  0.93226322104E+02  0.00000000000E+00 0.  1.
<mgrwt>
<rscale>  0 0.12674048E+03</rscale>
<asrwt>0</asrwt>
<pdfrwt beam="1">  1        1 0.11123660E-01 0.13516662E+03</pdfrwt>
<pdfrwt beam="2">  1       -1 0.30651951E-01 0.13516662E+03</pdfrwt>
<totfact> 0.52129860E+03</totfact>
</mgrwt>
</event>
<event>
 6    1  0.6101889E-006  0.2513555E+03  0.7546771E-02  0.1114078E+00
         -2   -1    0    0    0  501 -0.00000000000E+00  0.00000000000E+00  0.74397776889E+03  0.74397776889E+03  0.00000000000E+00 0.  1.
          2   -1    0    0  501    0  0.00000000000E+00 -0.00000000000E+00 -0.20299562994E+03  0.20299562994E+03  0.00000000000E+00 0. -1.
          5    1    1    2  502    0 -0.69503707130E+02  0.18685359104E+03 -0.98720380653E+02  0.22251479354E+03  0.47000000000E+01 0. -1.
         -5    1    1    2    0  502  0.30992616469E+02  0.32799696088E+02  0.52164635732E+01  0.45669068649E+02  0.47000000000E+01 0.  1.
        -11    1    1    2    0    0  0.22674918938E+02 -0.19733801072E+01  0.52340960116E+02  0.57075583954E+02  0.00000000000E+00 0. -1.
         11    1    1    2    0    0  0.15836171723E+02 -0.21767990702E+03  0.58214509592E+03  0.62171395268E+03  0.00000000000E+00 0.  1.
<mgrwt>
<rscale>  0 0.24878005E+03</rscale>
<asrwt>0</asrwt>
<pdfrwt beam="2">  1        2 0.31230097E-01 0.25135553E+03</pdfrwt>
<pdfrwt beam="1">  1       -2 0.11445812E+00 0.25135553E+03</pdfrwt>
<totfact> 0.10531856E+02</totfact>
</mgrwt>
</event>
<event>
 6    1  0.6101889E-006  0.1542675E+03  0.7546771E-02  0.1211656E+00
         -2   -1    0    0    0  501 -0.00000000000E+00  0.00000000000E+00  0.19843936093E+02  0.19843936093E+02  0.00000000000E+00 0.  1.
          2   -1    0    0  501    0  0.00000000000E+00 -0.00000000000E+00 -0.92473675305E+03  0.92473675305E+03  0.00000000000E+00 0. -1.
          5    1    1    2  502    0 -0.70344932897E+01  0.52427114849E+02 -0.17452990128E+03  0.18243043307E+03  0.47000000000E+01 0. -1.
         -5    1    1    2    0  502 -0.59010954075E+01 -0.98782633422E+02 -0.46602008420E+03  0.47643429817E+03  0.47000000000E+01 0.  1.
        -11    1    1    2    0    0 -0.16302905780E+02 -0.24125857879E+02 -0.46177272072E+02  0.54591045156E+02  0.00000000000E+00 0.  1.
         11    1    1    2    0    0  0.29238494477E+02  0.70481376452E+02 -0.21816555940E+03  0.23112491276E+03  0.00000000000E+00 0. -1.
<mgrwt>
<rscale>  0 0.14125063E+03</rscale>
<asrwt>0</asrwt>
<pdfrwt beam="2">  1        2 0.14226718E+00 0.15426746E+03</pdfrwt>
<pdfrwt beam="1">  1       -2 0.30529134E-02 0.15426746E+03</pdfrwt>
<totfact> 0.11691625E+04</totfact>
</mgrwt>
</event>
<event>
 6    1  0.6101889E-006  0.3620753E+03  0.7546771E-02  0.1057765E+00
         -2   -1    0    0    0  501 -0.00000000000E+00  0.00000000000E+00  0.32528686926E+02  0.32528686926E+02  0.00000000000E+00 0.  1.
          2   -1    0    0  501    0  0.00000000000E+00 -0.00000000000E+00 -0.10075610731E+04  0.10075610731E+04  0.00000000000E+00 0. -1.
          5    1    1    2  502    0 -0.15277737347E+03  0.52045260927E+02 -0.57493774994E+03  0.59718099546E+03  0.47000000000E+01 0.  1.
         -5    1    1    2    0  502  0.21826074460E+02 -0.95273395970E+00 -0.39233240055E+02  0.45151105785E+02  0.47000000000E+01 0.  1.
        -11    1    1    2    0    0  0.25148145311E+02 -0.52741881237E+02 -0.16655061105E+03  0.17650280816E+03  0.00000000000E+00 0.  1.
         11    1    1    2    0    0  0.10580315370E+03  0.16493542695E+01 -0.19431078510E+03  0.22125485059E+03  0.00000000000E+00 0. -1.
<mgrwt>
<rscale>  0 0.36207534E+03</rscale>
<asrwt>0</asrwt>
<pdfrwt beam="2">  1        2 0.15500939E+00 0.36207534E+03</pdfrwt>
<pdfrwt beam="1">  1       -2 0.50044135E-02 0.36207534E+03</pdfrwt>
<totfact> 0.51011719E+03</totfact>
</mgrwt>
</event>
<event>
 6    1  0.6101889E-006  0.1742064E+03  0.7546771E-02  0.1179955E+00
         -2   -1    0    0    0  501 -0.00000000000E+00  0.00000000000E+00  0.13448627917E+03  0.13448627917E+03  0.00000000000E+00 0.  1.
          2   -1    0    0  501    0  0.00000000000E+00 -0.00000000000E+00 -0.20058035218E+03  0.20058035218E+03  0.00000000000E+00 0. -1.
          5    1    1    2  502    0  0.24772969203E+02 -0.79563549595E+02  0.15189699782E+02  0.84834399902E+02  0.47000000000E+01 0.  1.
         -5    1    1    2    0  502  0.64739330837E+02 -0.23552870033E+01 -0.75318596257E+02  0.99457072530E+02  0.47000000000E+01 0.  1.
        -11    1    1    2    0    0  0.16418570061E+02  0.26260274849E+02 -0.23068427090E+01  0.31056287629E+02  0.00000000000E+00 0.  1.
         11    1    1    2    0    0 -0.10593087010E+03  0.55658561750E+02 -0.36583338259E+01  0.11971887129E+03  0.00000000000E+00 0. -1.
<mgrwt>
<rscale>  0 0.16799465E+03</rscale>
<asrwt>0</asrwt>
<pdfrwt beam="2">  1        2 0.30858516E-01 0.17420638E+03</pdfrwt>
<pdfrwt beam="1">  1       -2 0.20690197E-01 0.17420638E+03</pdfrwt>
<totfact> 0.32888045E+03</totfact>
</mgrwt>
</event>
<event>
 6    1  0.6101889E-006  0.1283309E+03  0.7546771E-02  0.1245455E+00
          1   -1    0    0  501    0  0.00000000000E+00  0.00000000000E+00  0.20487879212E+03  0.20487879212E+03  0.00000000000E+00 0. -1.
         -1   -1    0    0    0  501 -0.00000000000E+00 -0.00000000000E+00 -0.62673471789E+02  0.62673471789E+02  0.00000000000E+00 0.  1.
          5    1    1    2  502    0  0.39231868706E+02 -0.32255172942E+02  0.92119731701E+02  0.10529800887E+03  0.47000000000E+01 0.  1.
         -5    1    1    2    0  502 -0.22609806502E+02  0.56082777563E+02  0.16566356152E+02  0.62873010468E+02  0.47000000000E+01 0.  1.
        -11    1    1    2    0    0  0.19610429833E+02 -0.46687653245E+02  0.16137501075E+02  0.53148140746E+02  0.00000000000E+00 0.  1.
         11    1    1    2    0    0 -0.36232492038E+02  0.22860048625E+02  0.17381731400E+02  0.46233103820E+02  0.00000000000E+00 0. -1.
<mgrwt>
<rscale>  0 0.11858198E+03</rscale>
<asrwt>0</asrwt>
<pdfrwt beam="1">  1        1 0.31519814E-01 0.12833092E+03</pdfrwt>
<pdfrwt beam="2">  1       -1 0.96420727E-02 0.12833092E+03</pdfrwt>
<totfact> 0.86385333E+03</totfact>
</mgrwt>
</event>
<event>
 6    1  0.6101889E-006  0.1761407E+03  0.7546771E-02  0.1177587E+00
          2   -1    0    0  501    0  0.00000000000E+00  0.00000000000E+00  0.48158300678E+03  0.48158300678E+03  0.00000000000E+00 0. -1.
         -2   -1    0    0    0  501 -0.00000000000E+00 -0.00000000000E+00 -0.56709725638E+02  0.56709725638E+02  0.00000000000E+00 0.  1.
          5    1    1    2  502    0 -0.25480723945E+02 -0.34643551715E+02  0.62879268803E+01  0.43715797975E+02  0.47000000000E+01 0.  1.
         -5    1    1    2    0  502  0.43474699900E+02 -0.88138427077E+02  0.23726413239E+03  0.25685558272E+03  0.47000000000E+01 0.  1.
        -11    1    1    2    0    0 -0.13594460352E+02  0.80091950293E+02  0.17679625577E+03  0.19456733001E+03  0.00000000000E+00 0.  1.
         11    1    1    2    0    0 -0.43995156031E+01  0.42690028499E+02  0.45249660999E+01  0.43154021702E+02  0.00000000000E+00 0. -1.
<mgrwt>
<rscale>  0 0.17024999E+03</rscale>
<asrwt>0</asrwt>
<pdfrwt beam="1">  1        2 0.74089691E-01 0.17614071E+03</pdfrwt>
<pdfrwt beam="2">  1       -2 0.87245735E-02 0.17614071E+03</pdfrwt>
<totfact> 0.52263346E+03</totfact>
</mgrwt>
</event>
<event>
 6    1  0.6101889E-006  0.1690059E+03  0.7546771E-02  0.1185273E+00
         -1   -1    0    0    0  501 -0.00000000000E+00  0.00000000000E+00  0.25301204349E+02  0.25301204349E+02  0.00000000000E+00 0.  1.
          1   -1    0    0  501    0  0.00000000000E+00 -0.00000000000E+00 -0.11426661524E+04  0.11426661524E+04  0.00000000000E+00 0. -1.
          5    1    1    2  502    0  0.56884804259E+02 -0.20953553338E+02 -0.15888579226E+03  0.17012265379E+03  0.47000000000E+01 0.  1.
         -5    1    1    2    0  502  0.39975703733E+02  0.80583836912E+02 -0.65159012704E+03  0.65778689202E+03  0.47000000000E+01 0.  1.
        -11    1    1    2    0    0 -0.42362795391E+02 -0.68184975773E+02 -0.11393951720E+03  0.13937722531E+03  0.00000000000E+00 0.  1.
         11    1    1    2    0    0 -0.54497712602E+02  0.85546921982E+01 -0.19294951155E+03  0.20068058562E+03  0.00000000000E+00 0. -1.
<mgrwt>
<rscale>  0 0.16307080E+03</rscale>
<asrwt>0</asrwt>
<pdfrwt beam="2">  1        1 0.17579481E+00 0.16900592E+03</pdfrwt>
<pdfrwt beam="1">  1       -1 0.38924925E-02 0.16900592E+03</pdfrwt>
<totfact> 0.31917660E+03</totfact>
</mgrwt>
</event>
<event>
 6    1  0.6101889E-006  0.1281612E+03  0.7546771E-02  0.1244669E+00
         -1   -1    0    0    0  501 -0.00000000000E+00  0.00000000000E+00  0.21581653752E+02  0.21581653752E+02  0.00000000000E+00 0.  1.
          1   -1    0    0  501    0  0.00000000000E+00 -0.00000000000E+00 -0.98856747959E+03  0.98856747959E+03  0.00000000000E+00 0. -1.
          5    1    1    2  502    0  0.62124784225E+02  0.46333159168E+01 -0.63013304434E+03  0.63322247276E+03  0.47000000000E+01 0. -1.
         -5    1    1    2    0  502 -0.45827682390E+02 -0.27752224629E+02 -0.21783031297E+03  0.22437133884E+03  0.47000000000E+01 0. -1.
        -11    1    1    2    0    0 -0.35782857261E+02 -0.22413191919E+02 -0.76049478914E+02  0.86984408309E+02  0.00000000000E+00 0. -1.
         11    1    1    2    0    0  0.19485755426E+02  0.45532100631E+02 -0.42972989608E+02  0.65570913432E+02  0.00000000000E+00 0.  1.
<mgrwt>
<rscale>  0 0.11905235E+03</rscale>
<asrwt>0</asrwt>
<pdfrwt beam="2">  1        1 0.15208732E+00 0.12816119E+03</pdfrwt>
<pdfrwt beam="1">  1       -1 0.33202540E-02 0.12816119E+03</pdfrwt>
<totfact> 0.51508280E+03</totfact>
</mgrwt>
</event>
<event>
 6    1  0.6101889E-006  0.1289815E+03  0.7546771E-02  0.1242801E+00
          1   -1    0    0  501    0  0.00000000000E+00  0.00000000000E+00  0.49995384350E+03  0.49995384350E+03  0.00000000000E+00 0. -1.
         -1   -1    0    0    0  501 -0.00000000000E+00 -0.00000000000E+00 -0.33516143554E+02  0.33516143554E+02  0.00000000000E+00 0.  1.
          5    1    1    2  502    0  0.53346451502E+02  0.29247845147E+02  0.93020589764E+02  0.11124837281E+03  0.47000000000E+01 0. -1.
         -5    1    1    2    0  502 -0.39657211237E+02 -0.55196294163E+00  0.29397145887E+03  0.29667205412E+03  0.47000000000E+01 0. -1.
        -11    1    1    2    0    0 -0.21025703338E+02 -0.18438657844E+02  0.98670864019E+02  0.10255731914E+03  0.00000000000E+00 0. -1.
         11    1    1    2    0    0  0.73364630726E+01 -0.10257224361E+02 -0.19225212699E+02  0.22992240981E+02  0.00000000000E+00 0.  1.
<mgrwt>
<rscale>  0 0.12017960E+03</rscale>
<asrwt>0</asrwt>
<pdfrwt beam="1">  1        1 0.76915971E-01 0.12898151E+03</pdfrwt>
<pdfrwt beam="2">  1       -1 0.51563301E-02 0.12898151E+03</pdfrwt>
<totfact> 0.72437861E+03</totfact>
</mgrwt>
</event>
<event>
 6    1  0.6101889E-006  0.1632320E+03  0.7546771E-02  0.1191866E+00
          1   -1    0    0  501    0  0.00000000000E+00  0.00000000000E+00  0.60001948093E+02  0.60001948093E+02  0.00000000000E+00 0. -1.
         -1   -1    0    0    0  501 -0.00000000000E+00 -0.00000000000E+00 -0.40787544008E+03  0.40787544008E+03  0.00000000000E+00 0.  1.
          5    1    1    2  502    0  0.96887950184E+02 -0.86851899986E+02 -0.20176968065E+03  0.24013250811E+03  0.47000000000E+01 0.  1.
         -5    1    1    2    0  502 -0.31968592736E+02  0.43591098802E+01 -0.40444616759E+02  0.51950455102E+02  0.47000000000E+01 0.  1.
        -11    1    1    2    0    0 -0.77319601630E+02  0.86372425560E+02 -0.64558238778E+02  0.13268866902E+03  0.00000000000E+00 0. -1.
         11    1    1    2    0    0  0.12400244182E+02 -0.38796354540E+01 -0.41100955806E+02  0.43105755940E+02  0.00000000000E+00 0.  1.
<mgrwt>
<rscale>  0 0.15722511E+03</rscale>
<asrwt>0</asrwt>
<pdfrwt beam="1">  1        1 0.92310688E-02 0.16323202E+03</pdfrwt>
<pdfrwt beam="2">  1       -1 0.62750068E-01 0.16323202E+03</pdfrwt>
<totfact> 0.18681211E+03</totfact>
</mgrwt>
</event>
<event>
 6    1  0.6101889E-006  0.2811648E+03  0.7546771E-02  0.1095054E+00
         -2   -1    0    0    0  501 -0.00000000000E+00  0.00000000000E+00  0.28701681299E+02  0.28701681299E+02  0.00000000000E+00 0.  1.
          2   -1    0    0  501    0  0.00000000000E+00 -0.00000000000E+00 -0.68858018771E+03  0.68858018771E+03  0.00000000000E+00 0. -1.
          5    1    1    2  502    0  0.10893228999E+02 -0.75041168837E+01 -0.51639670902E+03  0.51658748078E+03  0.47000000000E+01 0. -1.
         -5    1    1    2    0  502  0.22446505716E+02 -0.28001574575E+02 -0.33090361671E+02  0.49040756856E+02  0.47000000000E+01 0. -1.
        -11    1    1    2    0    0 -0.58656600459E+01  0.30503810029E+02 -0.11855687976E+03  0.12255864773E+03  0.00000000000E+00 0. -1.
         11    1    1    2    0    0 -0.27474074669E+02  0.50018814293E+01  0.81654440471E+01  0.29094983644E+02  0.00000000000E+00 0.  1.
<mgrwt>
<rscale>  0 0.28116479E+03</rscale>
<asrwt>0</asrwt>
<pdfrwt beam="2">  1        2 0.10593541E+00 0.28116479E+03</pdfrwt>
<pdfrwt beam="1">  1       -2 0.44156435E-02 0.28116479E+03</pdfrwt>
<totfact> 0.10095329E+04</totfact>
</mgrwt>
</event>
<event>
 6    1  0.6101889E-006  0.3160443E+03  0.7546771E-02  0.1077484E+00
         -1   -1    0    0    0  501 -0.00000000000E+00  0.00000000000E+00  0.51820301037E+03  0.51820301037E+03  0.00000000000E+00 0.  1.
          1   -1    0    0  501    0  0.00000000000E+00 -0.00000000000E+00 -0.48187665317E+02  0.48187665317E+02  0.00000000000E+00 0. -1.
          5    1    1    2  502    0 -0.61929684734E+02  0.97989605753E+02  0.13286507944E+03  0.17638726718E+03  0.47000000000E+01 0. -1.
         -5    1    1    2    0  502  0.78974611708E+01 -0.23728003163E+02 -0.33927464556E+01  0.25670776295E+02  0.47000000000E+01 0. -1.
        -11    1    1    2    0    0  0.12930515996E+02 -0.59451347775E+02  0.81900476396E+02  0.10202621737E+03  0.00000000000E+00 0. -1.
         11    1    1    2    0    0  0.41101707567E+02 -0.14810254815E+02  0.25864253567E+03  0.26230641485E+03  0.00000000000E+00 0.  1.
<mgrwt>
<rscale>  0 0.31604426E+03</rscale>
<asrwt>0</asrwt>
<pdfrwt beam="2">  1        1 0.74134874E-02 0.31604426E+03</pdfrwt>
<pdfrwt beam="1">  1       -1 0.79723536E-01 0.31604426E+03</pdfrwt>
<totfact> 0.15889121E+03</totfact>
</mgrwt>
</event>
<event>
 6    1  0.6101889E-006  0.1599854E+03  0.7546771E-02  0.1196675E+00
          1   -1    0    0  501    0  0.00000000000E+00  0.00000000000E+00  0.22680350810E+03  0.22680350810E+03  0.00000000000E+00 0. -1.
         -1   -1    0    0    0  501 -0.00000000000E+00 -0.00000000000E+00 -0.97932391986E+02  0.97932391986E+02  0.00000000000E+00 0.  1.
          5    1    1    2  502    0 -0.72778527321E+02 -0.81271066345E+01  0.59373489823E+02  0.94393141674E+02  0.47000000000E+01 0.  1.
         -5    1    1    2    0  502  0.95555436348E+01 -0.69136469648E+02 -0.15188457258E+02  0.71581695170E+02  0.47000000000E+01 0.  1.
        -11    1    1    2    0    0  0.30337533778E+02  0.78367204709E+02  0.92468969628E+02  0.12494916996E+03  0.00000000000E+00 0. -1.
         11    1    1    2    0    0  0.32885449908E+02 -0.11036284261E+01 -0.77828860815E+01  0.33811893279E+02  0.00000000000E+00 0.  1.
<mgrwt>
<rscale>  0 0.15313336E+03</rscale>
<asrwt>0</asrwt>
<pdfrwt beam="1">  1        1 0.34892847E-01 0.15998540E+03</pdfrwt>
<pdfrwt beam="2">  1       -1 0.15066522E-01 0.15998540E+03</pdfrwt>
<totfact> 0.38715658E+03</totfact>
</mgrwt>
</event>
<event>
 6    1  0.6101889E-006  0.1318365E+03  0.7546771E-02  0.1237927E+00
          1   -1    0    0  501    0  0.00000000000E+00  0.00000000000E+00  0.93294741591E+02  0.93294741591E+02  0.00000000000E+00 0. -1.
         -1   -1    0    0    0  501 -0.00000000000E+00 -0.00000000000E+00 -0.14465470629E+03  0.14465470629E+03  0.00000000000E+00 0.  1.
          5    1    1    2  502    0  0.18884703674E+02  0.46516171294E+02 -0.28743657534E+01  0.50504833463E+02  0.47000000000E+01 0. -1.
         -5    1    1    2    0  502  0.63922902209E+01 -0.79922838315E+02 -0.26394182862E+02  0.84541494826E+02  0.47000000000E+01 0. -1.
        -11    1    1    2    0    0 -0.39264809314E+02 -0.64661161197E+01 -0.40530362976E+02  0.56800054852E+02  0.00000000000E+00 0.  1.
         11    1    1    2    0    0  0.13987815419E+02  0.39872783141E+02  0.18438946895E+02  0.46103064737E+02  0.00000000000E+00 0. -1.
<mgrwt>
<rscale>  0 0.12318914E+03</rscale>
<asrwt>0</asrwt>
<pdfrwt beam="1">  1        1 0.14353037E-01 0.13183650E+03</pdfrwt>
<pdfrwt beam="2">  1       -1 0.22254570E-01 0.13183650E+03</pdfrwt>
<totfact> 0.63271384E+03</totfact>
</mgrwt>
</event>
<event>
 6    1  0.6101889E-006  0.1307096E+03  0.7546771E-02  0.1243895E+00
         -1   -1    0    0    0  501 -0.00000000000E+00  0.00000000000E+00  0.11797369182E+03  0.11797369182E+03  0.00000000000E+00 0.  1.
          1   -1    0    0  501    0  0.00000000000E+00 -0.00000000000E+00 -0.10458084189E+03  0.10458084189E+03  0.00000000000E+00 0. -1.
          5    1    1    2  502    0  0.14544710936E+02 -0.46115653593E+02  0.21357856001E+02  0.53070237756E+02  0.47000000000E+01 0.  1.
         -5    1    1    2    0  502  0.10238607861E+02  0.75184975443E+02 -0.16240041032E+02  0.77739555928E+02  0.47000000000E+01 0.  1.
        -11    1    1    2    0    0 -0.27656942249E+02 -0.11598999619E+02  0.43199173605E+02  0.52589084864E+02  0.00000000000E+00 0.  1.
         11    1    1    2    0    0  0.28736234516E+01 -0.17470322231E+02 -0.34924138645E+02  0.39155655156E+02  0.00000000000E+00 0. -1.
<mgrwt>
<rscale>  0 0.11951779E+03</rscale>
<asrwt>0</asrwt>
<pdfrwt beam="2">  1        1 0.16089360E-01 0.13070964E+03</pdfrwt>
<pdfrwt beam="1">  1       -1 0.18149799E-01 0.13070964E+03</pdfrwt>
<totfact> 0.75680103E+03</totfact>
</mgrwt>
</event>
<event>
 6    1  0.6101889E-006  0.2748700E+03  0.7546771E-02  0.1098524E+00
          3   -1    0    0  501    0  0.00000000000E+00  0.00000000000E+00  0.24822075618E+03  0.24822075618E+03  0.00000000000E+00 0. -1.
         -3   -1    0    0    0  501 -0.00000000000E+00 -0.00000000000E+00 -0.76095098732E+02  0.76095098732E+02  0.00000000000E+00 0.  1.
          5    1    1    2  502    0  0.19905492725E+02 -0.26521225787E+02  0.35535071940E+02  0.48830680885E+02  0.47000000000E+01 0.  1.
         -5    1    1    2    0  502 -0.49177055129E+02  0.10412054154E+03  0.74630088717E+02  0.13729970890E+03  0.47000000000E+01 0.  1.
        -11    1    1    2    0    0 -0.93690779348E+01 -0.53748459144E+02  0.73305959994E+02  0.91380743334E+02  0.00000000000E+00 0. -1.
         11    1    1    2    0    0  0.38640640339E+02 -0.23850856610E+02 -0.11345463204E+02  0.46804721793E+02  0.00000000000E+00 0.  1.
<mgrwt>
<rscale>  0 0.27487003E+03</rscale>
<asrwt>0</asrwt>
<pdfrwt beam="1">  1        3 0.38187808E-01 0.27487003E+03</pdfrwt>
<pdfrwt beam="2">  1       -3 0.11706938E-01 0.27487003E+03</pdfrwt>
<totfact> 0.97880885E+02</totfact>
</mgrwt>
</event>
<event>
 6    1  0.6101889E-006  0.1237112E+03  0.7546771E-02  0.1249491E+00
          2   -1    0    0  501    0  0.00000000000E+00  0.00000000000E+00  0.13907631503E+04  0.13907631503E+04  0.00000000000E+00 0. -1.
         -2   -1    0    0    0  501 -0.00000000000E+00 -0.00000000000E+00 -0.12871977535E+02  0.12871977535E+02  0.00000000000E+00 0.  1.
          5    1    1    2  502    0 -0.52184522593E+02  0.28653529012E+02  0.64161073427E+03  0.64438394879E+03  0.47000000000E+01 0. -1.
         -5    1    1    2    0  502  0.62518760450E+02  0.18402123159E+00  0.50268414303E+03  0.50657878649E+03  0.47000000000E+01 0.  1.
        -11    1    1    2    0    0 -0.46911945047E+02 -0.30399265191E+02  0.17369761513E+03  0.18247111391E+03  0.00000000000E+00 0. -1.
         11    1    1    2    0    0  0.36577707190E+02  0.15617149470E+01  0.59898680352E+02  0.70201278655E+02  0.00000000000E+00 0.  1.
<mgrwt>
<rscale>  0 0.11620569E+03</rscale>
<asrwt>0</asrwt>
<pdfrwt beam="1">  1        2 0.21396344E+00 0.12371116E+03</pdfrwt>
<pdfrwt beam="2">  1       -2 0.19803053E-02 0.12371116E+03</pdfrwt>
<totfact> 0.11844623E+04</totfact>
</mgrwt>
</event>
<event>
 6    1  0.6101889E-006  0.1152973E+03  0.7546771E-02  0.1261752E+00
         -1   -1    0    0    0  501 -0.00000000000E+00  0.00000000000E+00  0.12044699424E+03  0.12044699424E+03  0.00000000000E+00 0.  1.
          1   -1    0    0  501    0  0.00000000000E+00 -0.00000000000E+00 -0.39169977597E+03  0.39169977597E+03  0.00000000000E+00 0. -1.
          5    1    1    2  502    0  0.47099709668E+02 -0.39754550428E+02 -0.23074164911E+03  0.23887780467E+03  0.47000000000E+01 0. -1.
         -5    1    1    2    0  502 -0.50719101801E+02  0.87559805097E+01 -0.13249975295E+03  0.14222295530E+03  0.47000000000E+01 0.  1.
        -11    1    1    2    0    0  0.27134362689E+02  0.43045675135E+02  0.20548535598E+02  0.54876644409E+02  0.00000000000E+00 0. -1.
         11    1    1    2    0    0 -0.23514970556E+02 -0.12047105217E+02  0.71440084735E+02  0.76169365832E+02  0.00000000000E+00 0.  1.
<mgrwt>
<rscale>  0 0.10936387E+03</rscale>
<asrwt>0</asrwt>
<pdfrwt beam="2">  1        1 0.60261504E-01 0.11529732E+03</pdfrwt>
<pdfrwt beam="1">  1       -1 0.18530307E-01 0.11529732E+03</pdfrwt>
<totfact> 0.13994006E+03</totfact>
</mgrwt>
</event>
<event>
 6    1  0.6101889E-006  0.2790780E+03  0.7546771E-02  0.1096194E+00
          2   -1    0    0  501    0  0.00000000000E+00  0.00000000000E+00  0.12755360464E+03  0.12755360464E+03  0.00000000000E+00 0. -1.
         -2   -1    0    0    0  501 -0.00000000000E+00 -0.00000000000E+00 -0.15265058489E+03  0.15265058489E+03  0.00000000000E+00 0.  1.
          5    1    1    2  502    0 -0.52035150000E+02 -0.75264318688E+02  0.53005603641E+02  0.10584922541E+03  0.47000000000E+01 0. -1.
         -5    1    1    2    0  502  0.89053717386E+01  0.44895943455E+01 -0.43071991152E+02  0.44460640177E+02  0.47000000000E+01 0. -1.
        -11    1    1    2    0    0  0.24306391150E+02 -0.77521814587E+01  0.19793590416E+02  0.32290605285E+02  0.00000000000E+00 0. -1.
         11    1    1    2    0    0  0.18823387111E+02  0.78526905802E+02 -0.54824183157E+02  0.97603718658E+02  0.00000000000E+00 0.  1.
<mgrwt>
<rscale>  0 0.27907800E+03</rscale>
<asrwt>0</asrwt>
<pdfrwt beam="1">  1        2 0.19623632E-01 0.27907800E+03</pdfrwt>
<pdfrwt beam="2">  1       -2 0.23484705E-01 0.27907800E+03</pdfrwt>
<totfact> 0.44830239E+03</totfact>
</mgrwt>
</event>
<event>
 6    1  0.6101889E-006  0.1613459E+03  0.7546771E-02  0.1195830E+00
         -1   -1    0    0    0  501 -0.00000000000E+00  0.00000000000E+00  0.21481083934E+03  0.21481083934E+03  0.00000000000E+00 0.  1.
          1   -1    0    0  501    0  0.00000000000E+00 -0.00000000000E+00 -0.20690766928E+03  0.20690766928E+03  0.00000000000E+00 0. -1.
          5    1    1    2  502    0 -0.21490626160E+02  0.89888136544E+00  0.20078283477E+02  0.29797356726E+02  0.47000000000E+01 0. -1.
         -5    1    1    2    0  502 -0.56504741620E+02 -0.66671292546E+02 -0.16641277216E+03  0.18802432772E+03  0.47000000000E+01 0. -1.
        -11    1    1    2    0    0  0.23316808047E+02  0.93285296853E+00  0.10121509591E+03  0.10387030081E+03  0.00000000000E+00 0.  1.
         11    1    1    2    0    0  0.54678559733E+02  0.64839558212E+02  0.53022562843E+02  0.10002652335E+03  0.00000000000E+00 0. -1.
<mgrwt>
<rscale>  0 0.15384174E+03</rscale>
<asrwt>0</asrwt>
<pdfrwt beam="2">  1        1 0.31831949E-01 0.16134591E+03</pdfrwt>
<pdfrwt beam="1">  1       -1 0.33047821E-01 0.16134591E+03</pdfrwt>
<totfact> 0.12033402E+03</totfact>
</mgrwt>
</event>
<event>
 6    1  0.6101889E-006  0.3034679E+03  0.7546771E-02  0.1083520E+00
          3   -1    0    0  501    0  0.00000000000E+00  0.00000000000E+00  0.19604357147E+03  0.19604357147E+03  0.00000000000E+00 0. -1.
         -3   -1    0    0    0  501 -0.00000000000E+00 -0.00000000000E+00 -0.11743913536E+03  0.11743913536E+03  0.00000000000E+00 0.  1.
          5    1    1    2  502    0  0.99213295088E+02  0.81917855944E+02  0.53617206844E+02  0.13946579478E+03  0.47000000000E+01 0.  1.
         -5    1    1    2    0  502 -0.22760173005E+02 -0.88272432990E+01 -0.14639955321E+02  0.28850719077E+02  0.47000000000E+01 0.  1.
        -11    1    1    2    0    0 -0.50592398804E+02 -0.28026741665E+02 -0.24345984764E+02  0.62752020200E+02  0.00000000000E+00 0.  1.
         11    1    1    2    0    0 -0.25860723280E+02 -0.45063870980E+02  0.63973169357E+02  0.82414172773E+02  0.00000000000E+00 0. -1.
<mgrwt>
<rscale>  0 0.30346787E+03</rscale>
<asrwt>0</asrwt>
<pdfrwt beam="1">  1        3 0.30160549E-01 0.30346787E+03</pdfrwt>
<pdfrwt beam="2">  1       -3 0.18067559E-01 0.30346787E+03</pdfrwt>
<totfact> 0.73241693E+02</totfact>
</mgrwt>
</event>
<event>
 6    1  0.6101889E-006  0.1443774E+03  0.7546771E-02  0.1217627E+00
          2   -1    0    0  501    0  0.00000000000E+00  0.00000000000E+00  0.48626126793E+03  0.48626126793E+03  0.00000000000E+00 0. -1.
         -2   -1    0    0    0  501 -0.00000000000E+00 -0.00000000000E+00 -0.35415468665E+02  0.35415468665E+02  0.00000000000E+00 0.  1.
          5    1    1    2  502    0 -0.27590786994E+02  0.18661938758E+02  0.21200797390E+02  0.39762838117E+02  0.47000000000E+01 0. -1.
         -5    1    1    2    0  502  0.99838706393E+02 -0.18929432464E+02  0.20003745008E+03  0.22441738378E+03  0.47000000000E+01 0. -1.
        -11    1    1    2    0    0 -0.26402149271E+01 -0.26740110871E+02  0.13145714971E+03  0.13417520812E+03  0.00000000000E+00 0. -1.
         11    1    1    2    0    0 -0.69607704472E+02  0.27007604577E+02  0.98150402088E+02  0.12332130658E+03  0.00000000000E+00 0.  1.
<mgrwt>
<rscale>  0 0.13685357E+03</rscale>
<asrwt>0</asrwt>
<pdfrwt beam="1">  1        2 0.74809421E-01 0.14437738E+03</pdfrwt>
<pdfrwt beam="2">  1       -2 0.54485340E-02 0.14437738E+03</pdfrwt>
<totfact> 0.10533392E+04</totfact>
</mgrwt>
</event>
<event>
 6    1  0.6101889E-006  0.1178264E+03  0.7546771E-02  0.1258866E+00
         -2   -1    0    0    0  501 -0.00000000000E+00  0.00000000000E+00  0.31423906729E+03  0.31423906729E+03  0.00000000000E+00 0.  1.
          2   -1    0    0  501    0  0.00000000000E+00 -0.00000000000E+00 -0.43386893152E+03  0.43386893152E+03  0.00000000000E+00 0. -1.
          5    1    1    2  502    0 -0.48797731080E+02  0.21322255656E+02 -0.31627742894E+03  0.32076371242E+03  0.47000000000E+01 0. -1.
         -5    1    1    2    0  502  0.48063986082E+02 -0.14814550754E+02 -0.10246470512E+03  0.11423976307E+03  0.47000000000E+01 0.  1.
        -11    1    1    2    0    0  0.25576413366E+02 -0.37636578012E+02  0.97498346186E+02  0.10759457437E+03  0.00000000000E+00 0.  1.
         11    1    1    2    0    0 -0.24842668368E+02  0.31128873110E+02  0.20161392364E+03  0.20550994896E+03  0.00000000000E+00 0. -1.
<mgrwt>
<rscale>  0 0.11092538E+03</rscale>
<asrwt>0</asrwt>
<pdfrwt beam="2">  1        2 0.66749066E-01 0.11782635E+03</pdfrwt>
<pdfrwt beam="1">  1       -2 0.48344472E-01 0.11782635E+03</pdfrwt>
<totfact> 0.30497367E+02</totfact>
</mgrwt>
</event>
<event>
 6    1  0.6101889E-006  0.4101603E+03  0.7546771E-02  0.1040317E+00
          2   -1    0    0  501    0  0.00000000000E+00  0.00000000000E+00  0.10096844363E+04  0.10096844363E+04  0.00000000000E+00 0. -1.
         -2   -1    0    0    0  501 -0.00000000000E+00 -0.00000000000E+00 -0.41654474041E+02  0.41654474041E+02  0.00000000000E+00 0.  1.
          5    1    1    2  502    0  0.24204029788E+02  0.98217933890E+02  0.80740781956E+03  0.81373341745E+03  0.47000000000E+01 0. -1.
         -5    1    1    2    0  502  0.26072822503E+02  0.67539673401E+01  0.28690446078E+02  0.39631298796E+02  0.47000000000E+01 0. -1.
        -11    1    1    2    0    0 -0.61901561088E+02 -0.33608207320E+02  0.90363560673E+02  0.11457263182E+03  0.00000000000E+00 0. -1.
         11    1    1    2    0    0  0.11624708797E+02 -0.71363693910E+02  0.41568135948E+02  0.83401562271E+02  0.00000000000E+00 0.  1.
<mgrwt>
<rscale>  0 0.41016033E+03</rscale>
<asrwt>0</asrwt>
<pdfrwt beam="1">  1        2 0.15533605E+00 0.41016033E+03</pdfrwt>
<pdfrwt beam="2">  1       -2 0.64083814E-02 0.41016033E+03</pdfrwt>
<totfact> 0.34754784E+03</totfact>
</mgrwt>
</event>
<event>
 6    1  0.6101889E-006  0.3209070E+03  0.7546771E-02  0.1075233E+00
          1   -1    0    0  501    0  0.00000000000E+00  0.00000000000E+00  0.11563168050E+04  0.11563168050E+04  0.00000000000E+00 0. -1.
         -1   -1    0    0    0  501 -0.00000000000E+00 -0.00000000000E+00 -0.22264938440E+02  0.22264938440E+02  0.00000000000E+00 0.  1.
          5    1    1    2  502    0  0.36401092102E+01  0.16938112470E+02  0.78899571018E+03  0.78919989276E+03  0.47000000000E+01 0.  1.
         -5    1    1    2    0  502  0.45638933799E+02  0.37352849433E+02  0.15463288639E+03  0.16556438987E+03  0.47000000000E+01 0.  1.
        -11    1    1    2    0    0 -0.65757294534E+02 -0.20162035953E+02  0.72412283796E+02  0.99870257448E+02  0.00000000000E+00 0.  1.
         11    1    1    2    0    0  0.16478251525E+02 -0.34128925949E+02  0.11801098620E+03  0.12394720337E+03  0.00000000000E+00 0. -1.
<mgrwt>
<rscale>  0 0.32090698E+03</rscale>
<asrwt>0</asrwt>
<pdfrwt beam="1">  1        1 0.17789485E+00 0.32090698E+03</pdfrwt>
<pdfrwt beam="2">  1       -1 0.34253760E-02 0.32090698E+03</pdfrwt>
<totfact> 0.38176563E+03</totfact>
</mgrwt>
</event>
<event>
 6    1  0.6101889E-006  0.1294061E+03  0.7546771E-02  0.1242510E+00
         -4   -1    0    0    0  501 -0.00000000000E+00  0.00000000000E+00  0.59580459051E+03  0.59580459051E+03  0.00000000000E+00 0.  1.
          4   -1    0    0  501    0  0.00000000000E+00 -0.00000000000E+00 -0.21530325984E+02  0.21530325984E+02  0.00000000000E+00 0. -1.
          5    1    1    2  502    0  0.14203629123E+02 -0.43569491227E+02  0.16725217287E+03  0.17348032447E+03  0.47000000000E+01 0.  1.
         -5    1    1    2    0  502 -0.36451976303E+02  0.68590920435E+02  0.14587636190E+03  0.16533440024E+03  0.47000000000E+01 0.  1.
        -11    1    1    2    0    0 -0.22163620607E+02 -0.40921819282E+02  0.94675115750E+02  0.10549501843E+03  0.00000000000E+00 0. -1.
         11    1    1    2    0    0  0.44411967788E+02  0.15900390074E+02  0.16647061400E+03  0.17302517335E+03  0.00000000000E+00 0.  1.
<mgrwt>
<rscale>  0 0.12035679E+03</rscale>
<asrwt>0</asrwt>
<pdfrwt beam="2">  1        4 0.33123583E-02 0.12940610E+03</pdfrwt>
<pdfrwt beam="1">  1       -4 0.91662232E-01 0.12940610E+03</pdfrwt>
<totfact> 0.79179951E+02</totfact>
</mgrwt>
</event>
<event>
 6    1  0.6101889E-006  0.1744406E+03  0.7546771E-02  0.1178971E+00
         -2   -1    0    0    0  501 -0.00000000000E+00  0.00000000000E+00  0.83480674899E+02  0.83480674899E+02  0.00000000000E+00 0.  1.
          2   -1    0    0  501    0  0.00000000000E+00 -0.00000000000E+00 -0.37204165428E+03  0.37204165428E+03  0.00000000000E+00 0. -1.
          5    1    1    2  502    0  0.77158926760E+02 -0.89978331041E+02 -0.10760707438E+03  0.16015920982E+03  0.47000000000E+01 0.  1.
         -5    1    1    2    0  502 -0.28488938875E+02 -0.21540408710E+02 -0.12815000604E+03  0.13311695194E+03  0.47000000000E+01 0.  1.
        -11    1    1    2    0    0 -0.32410015910E+02  0.77334284639E+01  0.15699102772E+02  0.36833094833E+02  0.00000000000E+00 0.  1.
         11    1    1    2    0    0 -0.16259971975E+02  0.10378531129E+03 -0.68503001737E+02  0.12541307258E+03  0.00000000000E+00 0. -1.
<mgrwt>
<rscale>  0 0.16892782E+03</rscale>
<asrwt>0</asrwt>
<pdfrwt beam="2">  1        2 0.57237178E-01 0.17444055E+03</pdfrwt>
<pdfrwt beam="1">  1       -2 0.12843181E-01 0.17444055E+03</pdfrwt>
<totfact> 0.37392778E+03</totfact>
</mgrwt>
</event>
<event>
 6    1  0.6101889E-006  0.3355381E+03  0.7546771E-02  0.1068712E+00
          3   -1    0    0  501    0  0.00000000000E+00  0.00000000000E+00  0.10541620625E+03  0.10541620625E+03  0.00000000000E+00 0. -1.
         -3   -1    0    0    0  501 -0.00000000000E+00 -0.00000000000E+00 -0.26700314939E+03  0.26700314939E+03  0.00000000000E+00 0.  1.
          5    1    1    2  502    0  0.17745049640E+02 -0.11713101922E+02 -0.30037640646E+02  0.37100315348E+02  0.47000000000E+01 0.  1.
         -5    1    1    2    0  502 -0.63315359928E+02  0.54815386335E+02  0.67554412511E+02  0.10769981445E+03  0.47000000000E+01 0.  1.
        -11    1    1    2    0    0  0.54541574739E+02  0.83045913497E+01 -0.76015436742E+02  0.93926014690E+02  0.00000000000E+00 0.  1.
         11    1    1    2    0    0 -0.89712644512E+01 -0.51406875763E+02 -0.12308827827E+03  0.13369321115E+03  0.00000000000E+00 0. -1.
<mgrwt>
<rscale>  0 0.33553813E+03</rscale>
<asrwt>0</asrwt>
<pdfrwt beam="1">  1        3 0.16217878E-01 0.33553813E+03</pdfrwt>
<pdfrwt beam="2">  1       -3 0.41077407E-01 0.33553813E+03</pdfrwt>
<totfact> 0.49414128E+02</totfact>
</mgrwt>
</event>
<event>
 6    1  0.6101889E-006  0.2954537E+03  0.7546771E-02  0.1089105E+00
          2   -1    0    0  501    0  0.00000000000E+00  0.00000000000E+00  0.10148738876E+04  0.10148738876E+04  0.00000000000E+00 0. -1.
         -2   -1    0    0    0  501 -0.00000000000E+00 -0.00000000000E+00 -0.93473906352E+02  0.93473906352E+02  0.00000000000E+00 0.  1.
          5    1    1    2  502    0 -0.65054024269E+01  0.22177053289E+02  0.48479954983E+02  0.53912317595E+02  0.47000000000E+01 0.  1.
         -5    1    1    2    0  502 -0.23802758924E+03 -0.13113345075E+03  0.61015383794E+03  0.66795427320E+03  0.47000000000E+01 0.  1.
        -11    1    1    2    0    0  0.15466613937E+03  0.23204661529E+02  0.11924130504E+03  0.19666865488E+03  0.00000000000E+00 0. -1.
         11    1    1    2    0    0  0.89866852299E+02  0.85751735931E+02  0.14352488328E+03  0.18981254826E+03  0.00000000000E+00 0.  1.
<mgrwt>
<rscale>  0 0.29239583E+03</rscale>
<asrwt>0</asrwt>
<pdfrwt beam="1">  1        2 0.15613444E+00 0.29545372E+03</pdfrwt>
<pdfrwt beam="2">  1       -2 0.14380602E-01 0.29545372E+03</pdfrwt>
<totfact> 0.94499288E+02</totfact>
</mgrwt>
</event>
<event>
 6    1  0.6101889E-006  0.1260689E+03  0.7546771E-02  0.1248076E+00
         -2   -1    0    0    0  501 -0.00000000000E+00  0.00000000000E+00  0.34788528243E+02  0.34788528243E+02  0.00000000000E+00 0. -1.
          2   -1    0    0  501    0  0.00000000000E+00 -0.00000000000E+00 -0.38085091235E+03  0.38085091235E+03  0.00000000000E+00 0.  1.
          5    1    1    2  502    0  0.56961824947E+02  0.36491529872E+01 -0.11659760752E+03  0.12990403341E+03  0.47000000000E+01 0.  1.
         -5    1    1    2    0  502 -0.66501166444E+02 -0.16983286768E+02 -0.14118662699E+03  0.15705601170E+03  0.47000000000E+01 0.  1.
        -11    1    1    2    0    0 -0.33874528987E+02 -0.15926012321E+02 -0.55392485056E+02  0.66853937680E+02  0.00000000000E+00 0.  1.
         11    1    1    2    0    0  0.43413870484E+02  0.29260146101E+02 -0.32885664537E+02  0.61825457801E+02  0.00000000000E+00 0. -1.
<mgrwt>
<rscale>  0 0.11703130E+03</rscale>
<asrwt>0</asrwt>
<pdfrwt beam="2">  1        2 0.58592448E-01 0.12606885E+03</pdfrwt>
<pdfrwt beam="1">  1       -2 0.53520813E-02 0.12606885E+03</pdfrwt>
<totfact> 0.13934127E+04</totfact>
</mgrwt>
</event>
<event>
 6    1  0.6101889E-006  0.1287397E+03  0.7546771E-02  0.1243581E+00
         -1   -1    0    0    0  501 -0.00000000000E+00  0.00000000000E+00  0.36331955512E+02  0.36331955512E+02  0.00000000000E+00 0.  1.
          1   -1    0    0  501    0  0.00000000000E+00 -0.00000000000E+00 -0.35368940384E+03  0.35368940384E+03  0.00000000000E+00 0. -1.
          5    1    1    2  502    0  0.69144108553E+02 -0.31737077263E+02 -0.10260254411E+03  0.12781831589E+03  0.47000000000E+01 0. -1.
         -5    1    1    2    0  502 -0.49864629445E+02  0.76628593234E+01 -0.10252114023E+03  0.11435853653E+03  0.47000000000E+01 0. -1.
        -11    1    1    2    0    0 -0.29635381812E+02 -0.22146369392E+02 -0.15451992770E+02  0.40093411091E+02  0.00000000000E+00 0.  1.
         11    1    1    2    0    0  0.10355902704E+02  0.46220587331E+02 -0.96781771222E+02  0.10775109584E+03  0.00000000000E+00 0. -1.
<mgrwt>
<rscale>  0 0.11970710E+03</rscale>
<asrwt>0</asrwt>
<pdfrwt beam="2">  1        1 0.54413751E-01 0.12873967E+03</pdfrwt>
<pdfrwt beam="1">  1       -1 0.55895319E-02 0.12873967E+03</pdfrwt>
<totfact> 0.99698875E+03</totfact>
</mgrwt>
</event>
<event>
 6    1  0.6101889E-006  0.2446374E+03  0.7546771E-02  0.1116742E+00
          2   -1    0    0  501    0  0.00000000000E+00  0.00000000000E+00  0.33458529267E+02  0.33458529267E+02  0.00000000000E+00 0. -1.
         -2   -1    0    0    0  501 -0.00000000000E+00 -0.00000000000E+00 -0.44717623937E+03  0.44717623937E+03  0.00000000000E+00 0.  1.
          5    1    1    2  502    0  0.10394426790E+02 -0.77930654819E+00  0.20510723847E+02  0.23482572681E+02  0.47000000000E+01 0.  1.
         -5    1    1    2    0  502  0.28503983308E+02 -0.19419825653E+02 -0.18249470433E+03  0.18578485891E+03  0.47000000000E+01 0.  1.
        -11    1    1    2    0    0 -0.39003707262E+02 -0.14003260395E+02 -0.22264161055E+03  0.22646559834E+03  0.00000000000E+00 0.  1.
         11    1    1    2    0    0  0.10529716327E+00  0.34202392596E+02 -0.29092119066E+02  0.44901738703E+02  0.00000000000E+00 0. -1.
<mgrwt>
<rscale>  0 0.24463736E+03</rscale>
<asrwt>0</asrwt>
<pdfrwt beam="1">  1        2 0.51474660E-02 0.24463736E+03</pdfrwt>
<pdfrwt beam="2">  1       -2 0.68796345E-01 0.24463736E+03</pdfrwt>
<totfact> 0.29685123E+03</totfact>
</mgrwt>
</event>
<event>
 6    1  0.6101889E-006  0.1342742E+03  0.7546771E-02  0.1232739E+00
          1   -1    0    0  501    0  0.00000000000E+00  0.00000000000E+00  0.22807268017E+03  0.22807268017E+03  0.00000000000E+00 0. -1.
         -1   -1    0    0    0  501 -0.00000000000E+00 -0.00000000000E+00 -0.63572689762E+02  0.63572689762E+02  0.00000000000E+00 0.  1.
          5    1    1    2  502    0 -0.28072958283E+02  0.56368607963E+02  0.10122275509E+02  0.63953587952E+02  0.47000000000E+01 0.  1.
         -5    1    1    2    0  502 -0.19649313336E+02 -0.44947963501E+02  0.93366175399E+02  0.10557342301E+03  0.47000000000E+01 0.  1.
        -11    1    1    2    0    0 -0.22034949176E+02 -0.25172990594E+02  0.11098148789E+02  0.35247515476E+02  0.00000000000E+00 0. -1.
         11    1    1    2    0    0  0.69757220795E+02  0.13752346133E+02  0.49913390713E+02  0.86870843496E+02  0.00000000000E+00 0.  1.
<mgrwt>
<rscale>  0 0.12650289E+03</rscale>
<asrwt>0</asrwt>
<pdfrwt beam="1">  1        1 0.35088104E-01 0.13427415E+03</pdfrwt>
<pdfrwt beam="2">  1       -1 0.97804139E-02 0.13427415E+03</pdfrwt>
<totfact> 0.74263907E+03</totfact>
</mgrwt>
</event>
<event>
 6    1  0.6101889E-006  0.1253380E+03  0.7546771E-02  0.1250071E+00
          1   -1    0    0  501    0  0.00000000000E+00  0.00000000000E+00  0.60966376295E+03  0.60966376295E+03  0.00000000000E+00 0. -1.
         -1   -1    0    0    0  501 -0.00000000000E+00 -0.00000000000E+00 -0.19298401174E+02  0.19298401174E+02  0.00000000000E+00 0.  1.
          5    1    1    2  502    0  0.17719998472E+01 -0.65618260908E+02  0.15029873023E+03  0.16407527071E+03  0.47000000000E+01 0.  1.
         -5    1    1    2    0  502 -0.44055172933E+01  0.56812139589E+02  0.19794764118E+03  0.20603976906E+03  0.47000000000E+01 0.  1.
        -11    1    1    2    0    0  0.43685749789E+02 -0.22619585562E+01  0.79267629754E+02  0.90536834040E+02  0.00000000000E+00 0. -1.
         11    1    1    2    0    0 -0.41052232343E+02  0.11068079876E+02  0.16285136061E+03  0.16831029031E+03  0.00000000000E+00 0.  1.
<mgrwt>
<rscale>  0 0.11586946E+03</rscale>
<asrwt>0</asrwt>
<pdfrwt beam="1">  1        1 0.93794410E-01 0.12533797E+03</pdfrwt>
<pdfrwt beam="2">  1       -1 0.29689853E-02 0.12533797E+03</pdfrwt>
<totfact> 0.12465824E+04</totfact>
</mgrwt>
</event>
<event>
 6    1  0.6101889E-006  0.1252912E+03  0.7546771E-02  0.1249974E+00
         -1   -1    0    0    0  501 -0.00000000000E+00  0.00000000000E+00  0.28400215566E+03  0.28400215566E+03  0.00000000000E+00 0.  1.
          1   -1    0    0  501    0  0.00000000000E+00 -0.00000000000E+00 -0.62167362803E+02  0.62167362803E+02  0.00000000000E+00 0. -1.
          5    1    1    2  502    0 -0.38401908914E+02 -0.53159060986E+02  0.21124480820E+02  0.69057411356E+02  0.47000000000E+01 0.  1.
         -5    1    1    2    0  502  0.37355274647E+02  0.44569662924E+02  0.21902786866E+01  0.58384576027E+02  0.47000000000E+01 0.  1.
        -11    1    1    2    0    0 -0.91350450320E+01 -0.39435170209E+02  0.11414406193E+03  0.12110924230E+03  0.00000000000E+00 0. -1.
         11    1    1    2    0    0  0.10181679299E+02  0.48024568272E+02  0.84375971418E+02  0.97618288777E+02  0.00000000000E+00 0.  1.
<mgrwt>
<rscale>  0 0.11592542E+03</rscale>
<asrwt>0</asrwt>
<pdfrwt beam="2">  1        1 0.95642098E-02 0.12529119E+03</pdfrwt>
<pdfrwt beam="1">  1       -1 0.43692639E-01 0.12529119E+03</pdfrwt>
<totfact> 0.34340092E+03</totfact>
</mgrwt>
</event>
<event>
 6    1  0.6101889E-006  0.2159605E+03  0.7546771E-02  0.1140109E+00
          1   -1    0    0  501    0  0.00000000000E+00  0.00000000000E+00  0.47200046098E+03  0.47200046098E+03  0.00000000000E+00 0. -1.
         -1   -1    0    0    0  501 -0.00000000000E+00 -0.00000000000E+00 -0.96079213935E+02  0.96079213935E+02  0.00000000000E+00 0.  1.
          5    1    1    2  502    0 -0.17751447561E+02  0.36266257193E+01  0.42249088532E+02  0.46209758562E+02  0.47000000000E+01 0. -1.
         -5    1    1    2    0  502  0.18250972656E+03 -0.65830765122E+02  0.21363364575E+03  0.28862590757E+03  0.47000000000E+01 0. -1.
        -11    1    1    2    0    0 -0.18374638191E+02  0.14836559717E+02 -0.15460558923E+02  0.28227286712E+02  0.00000000000E+00 0.  1.
         11    1    1    2    0    0 -0.14638364080E+03  0.47367579685E+02  0.13549907168E+03  0.20501672207E+03  0.00000000000E+00 0. -1.
<mgrwt>
<rscale>  0 0.21185050E+03</rscale>
<asrwt>0</asrwt>
<pdfrwt beam="1">  1        1 0.72615454E-01 0.21596053E+03</pdfrwt>
<pdfrwt beam="2">  1       -1 0.14781418E-01 0.21596053E+03</pdfrwt>
<totfact> 0.15978870E+03</totfact>
</mgrwt>
</event>
<event>
 6    1  0.6101889E-006  0.2877084E+03  0.7546771E-02  0.1091552E+00
          2   -1    0    0  501    0  0.00000000000E+00  0.00000000000E+00  0.41879564600E+03  0.41879564600E+03  0.00000000000E+00 0. -1.
         -2   -1    0    0    0  501 -0.00000000000E+00 -0.00000000000E+00 -0.49413189581E+02  0.49413189581E+02  0.00000000000E+00 0.  1.
          5    1    1    2  502    0  0.42725885109E+02 -0.63014170463E+02  0.41368198053E+02  0.86773871342E+02  0.47000000000E+01 0. -1.
         -5    1    1    2    0  502  0.11394028639E+02 -0.97589911010E+01  0.19463496768E+03  0.19526884656E+03  0.47000000000E+01 0. -1.
        -11    1    1    2    0    0 -0.72974844939E+02  0.22795915992E+02  0.79528510081E+02  0.11031666101E+03  0.00000000000E+00 0.  1.
         11    1    1    2    0    0  0.18854931191E+02  0.49977245571E+02  0.53850780613E+02  0.75849456674E+02  0.00000000000E+00 0. -1.
<mgrwt>
<rscale>  0 0.28770838E+03</rscale>
<asrwt>0</asrwt>
<pdfrwt beam="1">  1        2 0.64430097E-01 0.28770838E+03</pdfrwt>
<pdfrwt beam="2">  1       -2 0.76020294E-02 0.28770838E+03</pdfrwt>
<totfact> 0.77423324E+03</totfact>
</mgrwt>
</event>
<event>
 6    1  0.6101889E-006  0.1782616E+03  0.7546771E-02  0.1175182E+00
         -2   -1    0    0    0  501 -0.00000000000E+00  0.00000000000E+00  0.84913873734E+02  0.84913873734E+02  0.00000000000E+00 0.  1.
          2   -1    0    0  501    0  0.00000000000E+00 -0.00000000000E+00 -0.33174552429E+03  0.33174552429E+03  0.00000000000E+00 0. -1.
          5    1    1    2  502    0 -0.83020858751E+02  0.49719144226E+02 -0.51073574540E+01  0.97018716702E+02  0.47000000000E+01 0.  1.
         -5    1    1    2    0  502 -0.29998595286E+02  0.83879556497E+01 -0.11181243929E+03  0.11616533518E+03  0.47000000000E+01 0.  1.
        -11    1    1    2    0    0  0.10174402241E+03 -0.58476704904E+02 -0.14378448190E+03  0.18559458060E+03  0.00000000000E+00 0. -1.
         11    1    1    2    0    0  0.11275431627E+02  0.36960502771E+00  0.13872628086E+02  0.17880765539E+02  0.00000000000E+00 0.  1.
<mgrwt>
<rscale>  0 0.17258171E+03</rscale>
<asrwt>0</asrwt>
<pdfrwt beam="2">  1        2 0.51037773E-01 0.17826161E+03</pdfrwt>
<pdfrwt beam="1">  1       -2 0.13063673E-01 0.17826161E+03</pdfrwt>
<totfact> 0.41173804E+03</totfact>
</mgrwt>
</event>
<event>
 6    1  0.6101889E-006  0.2281279E+03  0.7546771E-02  0.1132508E+00
         -4   -1    0    0    0  501 -0.00000000000E+00  0.00000000000E+00  0.44242356237E+03  0.44242356237E+03  0.00000000000E+00 0.  1.
          4   -1    0    0  501    0  0.00000000000E+00 -0.00000000000E+00 -0.10645381419E+03  0.10645381419E+03  0.00000000000E+00 0. -1.
          5    1    1    2  502    0  0.14182018449E+03  0.25941977273E+02  0.16288417751E+03  0.21757595501E+03  0.47000000000E+01 0.  1.
         -5    1    1    2    0  502  0.36833834568E+02  0.41149191730E+02 -0.10974466778E+02  0.56502356324E+02  0.47000000000E+01 0.  1.
        -11    1    1    2    0    0 -0.51817336328E+02  0.93048786816E+01  0.71570911966E+02  0.88848255757E+02  0.00000000000E+00 0.  1.
         11    1    1    2    0    0 -0.12683668273E+03 -0.76396047685E+02  0.11248912548E+03  0.18595080946E+03  0.00000000000E+00 0. -1.
<mgrwt>
<rscale>  0 0.22185440E+03</rscale>
<asrwt>0</asrwt>
<pdfrwt beam="2">  1        4 0.16377510E-01 0.22812795E+03</pdfrwt>
<pdfrwt beam="1">  1       -4 0.68065162E-01 0.22812795E+03</pdfrwt>
<totfact> 0.11828811E+02</totfact>
</mgrwt>
</event>
<event>
 6    1  0.6101889E-006  0.1285781E+03  0.7546771E-02  0.1243904E+00
          4   -1    0    0  501    0  0.00000000000E+00  0.00000000000E+00  0.10107967966E+03  0.10107967966E+03  0.00000000000E+00 0. -1.
         -4   -1    0    0    0  501 -0.00000000000E+00 -0.00000000000E+00 -0.13360214269E+03  0.13360214269E+03  0.00000000000E+00 0.  1.
          5    1    1    2  502    0 -0.71267384336E+02  0.31902811028E+01 -0.18966542154E+02  0.73966463244E+02  0.47000000000E+01 0.  1.
         -5    1    1    2    0  502  0.44458412729E+02  0.10562132491E+02  0.30473345619E+02  0.55125528554E+02  0.47000000000E+01 0.  1.
        -11    1    1    2    0    0  0.41099728389E+02  0.22038014823E+02 -0.47906465753E+02  0.66857245172E+02  0.00000000000E+00 0.  1.
         11    1    1    2    0    0 -0.14290756783E+02 -0.35790428417E+02  0.38771992586E+01  0.38732585375E+02  0.00000000000E+00 0. -1.
<mgrwt>
<rscale>  0 0.11951201E+03</rscale>
<asrwt>0</asrwt>
<pdfrwt beam="1">  1        4 0.15550720E-01 0.12857813E+03</pdfrwt>
<pdfrwt beam="2">  1       -4 0.20554176E-01 0.12857813E+03</pdfrwt>
<totfact> 0.12371878E+03</totfact>
</mgrwt>
</event>
<event>
 6    1  0.6101889E-006  0.1436748E+03  0.7546771E-02  0.1219090E+00
         -1   -1    0    0    0  501 -0.00000000000E+00  0.00000000000E+00  0.93941512728E+02  0.93941512728E+02  0.00000000000E+00 0.  1.
          1   -1    0    0  501    0  0.00000000000E+00 -0.00000000000E+00 -0.18144653449E+03  0.18144653449E+03  0.00000000000E+00 0. -1.
          5    1    1    2  502    0  0.15860195015E+02 -0.37018095256E+02  0.25773451170E+02  0.48044208262E+02  0.47000000000E+01 0.  1.
         -5    1    1    2    0  502 -0.54238452086E+02 -0.22514590568E+02 -0.94169795817E+02  0.11107995732E+03  0.47000000000E+01 0.  1.
        -11    1    1    2    0    0 -0.22443869974E+02  0.44701526949E+02 -0.19424591342E+02  0.53658816236E+02  0.00000000000E+00 0.  1.
         11    1    1    2    0    0  0.60822127045E+02  0.14831158875E+02  0.31591423210E+00  0.62605065399E+02  0.00000000000E+00 0. -1.
<mgrwt>
<rscale>  0 0.13580319E+03</rscale>
<asrwt>0</asrwt>
<pdfrwt beam="2">  1        1 0.27914851E-01 0.14367477E+03</pdfrwt>
<pdfrwt beam="1">  1       -1 0.14452541E-01 0.14367477E+03</pdfrwt>
<totfact> 0.54251329E+03</totfact>
</mgrwt>
</event>
<event>
 6    1  0.6101889E-006  0.1270760E+03  0.7546771E-02  0.1247316E+00
         -2   -1    0    0    0  501 -0.00000000000E+00  0.00000000000E+00  0.19757904923E+03  0.19757904923E+03  0.00000000000E+00 0.  1.
          2   -1    0    0  501    0  0.00000000000E+00 -0.00000000000E+00 -0.65160517200E+02  0.65160517200E+02  0.00000000000E+00 0. -1.
          5    1    1    2  502    0 -0.29955084247E+02 -0.32194527894E+02  0.54805915014E+02  0.70424236020E+02  0.47000000000E+01 0. -1.
         -5    1    1    2    0  502  0.52631759696E+02  0.34376276878E+02 -0.10997521367E+02  0.63991140144E+02  0.47000000000E+01 0. -1.
        -11    1    1    2    0    0 -0.22126218837E+02 -0.33771901568E+02  0.87891142881E+02  0.96721062300E+02  0.00000000000E+00 0.  1.
         11    1    1    2    0    0 -0.55045661181E+00  0.31590152584E+02  0.71899550255E+00  0.31603127967E+02  0.00000000000E+00 0. -1.
<mgrwt>
<rscale>  0 0.11747807E+03</rscale>
<asrwt>0</asrwt>
<pdfrwt beam="2">  1        2 0.10024695E-01 0.12707603E+03</pdfrwt>
<pdfrwt beam="1">  1       -2 0.30396777E-01 0.12707603E+03</pdfrwt>
<totfact> 0.60128787E+03</totfact>
</mgrwt>
</event>
<event>
 6    1  0.6101889E-006  0.2507144E+03  0.7546771E-02  0.1143135E+00
          1   -1    0    0  501    0  0.00000000000E+00  0.00000000000E+00  0.10689086381E+04  0.10689086381E+04  0.00000000000E+00 0. -1.
         -1   -1    0    0    0  501 -0.00000000000E+00 -0.00000000000E+00 -0.36071377286E+02  0.36071377286E+02  0.00000000000E+00 0.  1.
          5    1    1    2  502    0  0.93954386860E+02  0.12065281055E+03  0.70328398588E+03  0.71973257693E+03  0.47000000000E+01 0. -1.
         -5    1    1    2    0  502 -0.42245282249E+02 -0.67272741893E+02  0.15240077714E+03  0.17192548545E+03  0.47000000000E+01 0.  1.
        -11    1    1    2    0    0 -0.11178312688E+02 -0.68503208902E+02  0.73959653154E+02  0.10142817458E+03  0.00000000000E+00 0.  1.
         11    1    1    2    0    0 -0.40530791922E+02  0.15123140246E+02  0.10319284465E+03  0.11189377843E+03  0.00000000000E+00 0. -1.
<mgrwt>
<rscale>  0 0.20803012E+03</rscale>
<asrwt>0</asrwt>
<pdfrwt beam="1">  1        1 0.16444746E+00 0.25071435E+03</pdfrwt>
<pdfrwt beam="2">  1       -1 0.55494435E-02 0.25071435E+03</pdfrwt>
<totfact> 0.21354652E+03</totfact>
</mgrwt>
</event>
<event>
 6    1  0.6101889E-006  0.1273832E+03  0.7546771E-02  0.1244496E+00
          1   -1    0    0  501    0  0.00000000000E+00  0.00000000000E+00  0.88651123949E+03  0.88651123949E+03  0.00000000000E+00 0. -1.
         -1   -1    0    0    0  501 -0.00000000000E+00 -0.00000000000E+00 -0.18344955856E+02  0.18344955856E+02  0.00000000000E+00 0.  1.
          5    1    1    2  502    0  0.42892641002E+02  0.22099211746E+02  0.45283760205E+03  0.45542522728E+03  0.47000000000E+01 0.  1.
         -5    1    1    2    0  502 -0.65108511140E+02 -0.11491814381E+02  0.23794706417E+03  0.24700622536E+03  0.47000000000E+01 0.  1.
        -11    1    1    2    0    0  0.53236633707E+02  0.16736966638E+02  0.11048788740E+03  0.12378141413E+03  0.00000000000E+00 0.  1.
         11    1    1    2    0    0 -0.31020763568E+02 -0.27344364003E+02  0.66893730018E+02  0.78643328584E+02  0.00000000000E+00 0. -1.
<mgrwt>
<rscale>  0 0.11915591E+03</rscale>
<asrwt>0</asrwt>
<pdfrwt beam="1">  1        1 0.13638631E+00 0.12738324E+03</pdfrwt>
<pdfrwt beam="2">  1       -1 0.28223016E-02 0.12738324E+03</pdfrwt>
<totfact> 0.77832294E+03</totfact>
</mgrwt>
</event>
<event>
 6    1  0.6101889E-006  0.1530052E+03  0.7546771E-02  0.1205909E+00
          2   -1    0    0  501    0  0.00000000000E+00  0.00000000000E+00  0.17729277576E+04  0.17729277576E+04  0.00000000000E+00 0. -1.
         -2   -1    0    0    0  501 -0.00000000000E+00 -0.00000000000E+00 -0.12788496856E+02  0.12788496856E+02  0.00000000000E+00 0.  1.
          5    1    1    2  502    0  0.10797587850E+03 -0.25736969197E+02  0.11700429326E+04  0.11753058054E+04  0.47000000000E+01 0. -1.
         -5    1    1    2    0  502 -0.19780667656E+02  0.22661112679E+02  0.12097005610E+03  0.12474231565E+03  0.47000000000E+01 0. -1.
        -11    1    1    2    0    0 -0.15436958988E+02 -0.15993142814E+02  0.18825175013E+02  0.29128466045E+02  0.00000000000E+00 0.  1.
         11    1    1    2    0    0 -0.72758251851E+02  0.19068999332E+02  0.45030109697E+03  0.45653966737E+03  0.00000000000E+00 0. -1.
<mgrwt>
<rscale>  0 0.14566035E+03</rscale>
<asrwt>0</asrwt>
<pdfrwt beam="1">  1        2 0.27275792E+00 0.15300516E+03</pdfrwt>
<pdfrwt beam="2">  1       -2 0.19674625E-02 0.15300516E+03</pdfrwt>
<totfact> 0.76440050E+03</totfact>
</mgrwt>
</event>
<event>
 6    1  0.6101889E-006  0.1255673E+03  0.7546771E-02  0.1250926E+00
          2   -1    0    0  501    0  0.00000000000E+00  0.00000000000E+00  0.48750784238E+03  0.48750784238E+03  0.00000000000E+00 0. -1.
         -2   -1    0    0    0  501 -0.00000000000E+00 -0.00000000000E+00 -0.24879773517E+02  0.24879773517E+02  0.00000000000E+00 0.  1.
          5    1    1    2  502    0  0.35823223534E+02  0.30913999295E+02  0.23878499170E+03  0.24347349128E+03  0.47000000000E+01 0. -1.
         -5    1    1    2    0  502 -0.45178132569E+02 -0.38286262125E+02  0.84072302555E+02  0.10294242851E+03  0.47000000000E+01 0. -1.
        -11    1    1    2    0    0 -0.22154333804E+02 -0.13034726585E+02  0.51508201053E+01  0.26215444898E+02  0.00000000000E+00 0.  1.
         11    1    1    2    0    0  0.31509242839E+02  0.20406989415E+02  0.13461995450E+03  0.13975625121E+03  0.00000000000E+00 0. -1.
<mgrwt>
<rscale>  0 0.11537629E+03</rscale>
<asrwt>0</asrwt>
<pdfrwt beam="1">  1        2 0.75001199E-01 0.12556734E+03</pdfrwt>
<pdfrwt beam="2">  1       -2 0.38276579E-02 0.12556734E+03</pdfrwt>
<totfact> 0.17615752E+04</totfact>
</mgrwt>
</event>
<event>
 6    1  0.6101889E-006  0.3311470E+03  0.7546771E-02  0.1070630E+00
         -1   -1    0    0    0  501 -0.00000000000E+00  0.00000000000E+00  0.27262468048E+03  0.27262468048E+03  0.00000000000E+00 0.  1.
          1   -1    0    0  501    0  0.00000000000E+00 -0.00000000000E+00 -0.10055798063E+03  0.10055798063E+03  0.00000000000E+00 0. -1.
          5    1    1    2  502    0  0.37833003099E+02  0.12971579759E+03  0.67679908532E+02  0.15119584745E+03  0.47000000000E+01 0.  1.
         -5    1    1    2    0  502 -0.34451260339E+02 -0.65130323330E+01  0.45642179554E+02  0.57746060330E+02  0.47000000000E+01 0.  1.
        -11    1    1    2    0    0 -0.33023800611E+02 -0.63941367689E+02 -0.52042965033E+01  0.72153687438E+02  0.00000000000E+00 0. -1.
         11    1    1    2    0    0  0.29642057851E+02 -0.59261397568E+02  0.63948908270E+02  0.92087065890E+02  0.00000000000E+00 0.  1.
<mgrwt>
<rscale>  0 0.33114702E+03</rscale>
<asrwt>0</asrwt>
<pdfrwt beam="2">  1        1 0.15470459E-01 0.33114702E+03</pdfrwt>
<pdfrwt beam="1">  1       -1 0.41942258E-01 0.33114702E+03</pdfrwt>
<totfact> 0.20328369E+03</totfact>
</mgrwt>
</event>
<event>
 6    1  0.6101889E-006  0.1291637E+03  0.7546771E-02  0.1242130E+00
          2   -1    0    0  501    0  0.00000000000E+00  0.00000000000E+00  0.20846296311E+03  0.20846296311E+03  0.00000000000E+00 0. -1.
         -2   -1    0    0    0  501 -0.00000000000E+00 -0.00000000000E+00 -0.86285933603E+02  0.86285933603E+02  0.00000000000E+00 0.  1.
          5    1    1    2  502    0  0.21679699053E+02 -0.36411458782E+02  0.17147664742E+02  0.45955805811E+02  0.47000000000E+01 0. -1.
         -5    1    1    2    0  502 -0.39149801017E+02  0.63857430467E+02  0.12766140175E+03  0.14808781801E+03  0.47000000000E+01 0. -1.
        -11    1    1    2    0    0 -0.20046228436E+02  0.21990869302E+00 -0.44805600811E+02  0.49086062160E+02  0.00000000000E+00 0.  1.
         11    1    1    2    0    0  0.37516330400E+02 -0.27665880378E+02  0.22173563820E+02  0.51619210729E+02  0.00000000000E+00 0. -1.
<mgrwt>
<rscale>  0 0.12058824E+03</rscale>
<asrwt>0</asrwt>
<pdfrwt beam="1">  1        2 0.32071225E-01 0.12916370E+03</pdfrwt>
<pdfrwt beam="2">  1       -2 0.13274759E-01 0.12916370E+03</pdfrwt>
<totfact> 0.64718095E+03</totfact>
</mgrwt>
</event>
<event>
 6    1  0.6101889E-006  0.1324007E+03  0.7546771E-02  0.1238682E+00
         -2   -1    0    0    0  501 -0.00000000000E+00  0.00000000000E+00  0.31504944186E+03  0.31504944186E+03  0.00000000000E+00 0.  1.
          2   -1    0    0  501    0  0.00000000000E+00 -0.00000000000E+00 -0.49393249524E+02  0.49393249524E+02  0.00000000000E+00 0. -1.
          5    1    1    2  502    0 -0.31814303820E+02  0.27243611901E+02  0.71938275194E+01  0.42757519471E+02  0.47000000000E+01 0.  1.
         -5    1    1    2    0  502  0.70814423883E+02 -0.46776637313E+02  0.72940026408E+02  0.11200479401E+03  0.47000000000E+01 0.  1.
        -11    1    1    2    0    0  0.68296612470E+01  0.30653402265E+02  0.19217729874E+02  0.36818425885E+02  0.00000000000E+00 0. -1.
         11    1    1    2    0    0 -0.45829781309E+02 -0.11120376852E+02  0.16630460853E+03  0.17286195202E+03  0.00000000000E+00 0.  1.
<mgrwt>
<rscale>  0 0.12271647E+03</rscale>
<asrwt>0</asrwt>
<pdfrwt beam="2">  1        2 0.75989616E-02 0.13240068E+03</pdfrwt>
<pdfrwt beam="1">  1       -2 0.48469144E-01 0.13240068E+03</pdfrwt>
<totfact> 0.35428086E+03</totfact>
</mgrwt>
</event>
<event>
 6    1  0.6101889E-006  0.1265852E+03  0.7546771E-02  0.1236799E+00
         -1   -1    0    0    0  501 -0.00000000000E+00  0.00000000000E+00  0.45344624062E+02  0.45344624062E+02  0.00000000000E+00 0.  1.
          1   -1    0    0  501    0  0.00000000000E+00 -0.00000000000E+00 -0.94854304171E+03  0.94854304171E+03  0.00000000000E+00 0. -1.
          5    1    1    2  502    0  0.81955200881E+01  0.59498444321E+02 -0.58286316265E+03  0.58596824812E+03  0.47000000000E+01 0. -1.
         -5    1    1    2    0  502 -0.26758741330E+02 -0.52166318942E+02 -0.27817591294E+03  0.28432601641E+03  0.47000000000E+01 0. -1.
        -11    1    1    2    0    0  0.29267928659E+02 -0.18808243755E+02  0.32315382320E+02  0.47483108739E+02  0.00000000000E+00 0.  1.
         11    1    1    2    0    0 -0.10704707416E+02  0.11476118376E+02 -0.74474724370E+02  0.76110292496E+02  0.00000000000E+00 0. -1.
<mgrwt>
<rscale>  0 0.12389980E+03</rscale>
<asrwt>0</asrwt>
<pdfrwt beam="2">  1        1 0.14592969E+00 0.12658522E+03</pdfrwt>
<pdfrwt beam="1">  1       -1 0.69760966E-02 0.12658522E+03</pdfrwt>
<totfact> 0.18431408E+03</totfact>
</mgrwt>
</event>
<event>
 6    1  0.6101889E-006  0.1470822E+03  0.7546771E-02  0.1228714E+00
         -1   -1    0    0    0  501 -0.00000000000E+00  0.00000000000E+00  0.76731601402E+02  0.76731601402E+02  0.00000000000E+00 0.  1.
          1   -1    0    0  501    0  0.00000000000E+00 -0.00000000000E+00 -0.37515388263E+03  0.37515388263E+03  0.00000000000E+00 0. -1.
          5    1    1    2  502    0  0.16012074390E+02 -0.31312287076E+02 -0.30240616700E+03  0.30448058343E+03  0.47000000000E+01 0. -1.
         -5    1    1    2    0  502 -0.34103320611E+02  0.34457707077E+02 -0.25673183124E+02  0.55059716539E+02  0.47000000000E+01 0.  1.
        -11    1    1    2    0    0 -0.27883258969E+02  0.99570535937E+01  0.33107897016E+02  0.44415671692E+02  0.00000000000E+00 0.  1.
         11    1    1    2    0    0  0.45974505191E+02 -0.13102473594E+02 -0.34508281286E+01  0.47929512376E+02  0.00000000000E+00 0. -1.
<mgrwt>
<rscale>  0 0.12915588E+03</rscale>
<asrwt>0</asrwt>
<pdfrwt beam="2">  1        1 0.57715984E-01 0.14708218E+03</pdfrwt>
<pdfrwt beam="1">  1       -1 0.11804861E-01 0.14708218E+03</pdfrwt>
<totfact> 0.30148424E+03</totfact>
</mgrwt>
</event>
<event>
 6    1  0.6101889E-006  0.1600913E+03  0.7546771E-02  0.1196782E+00
          2   -1    0    0  501    0  0.00000000000E+00  0.00000000000E+00  0.29820163714E+03  0.29820163714E+03  0.00000000000E+00 0. -1.
         -2   -1    0    0    0  501 -0.00000000000E+00 -0.00000000000E+00 -0.72792973694E+02  0.72792973694E+02  0.00000000000E+00 0.  1.
          5    1    1    2  502    0 -0.19865885365E+02 -0.28784979210E+02 -0.17848804370E+02  0.39546153377E+02  0.47000000000E+01 0.  1.
         -5    1    1    2    0  502  0.15565560410E+02 -0.71144986123E+02  0.15476299424E+03  0.17110689673E+03  0.47000000000E+01 0.  1.
        -11    1    1    2    0    0 -0.24801193918E+02  0.30320109068E+02 -0.57776077719E+01  0.39595315193E+02  0.00000000000E+00 0.  1.
         11    1    1    2    0    0  0.29101518872E+02  0.69609856265E+02  0.94272081344E+02  0.12074624554E+03  0.00000000000E+00 0. -1.
<mgrwt>
<rscale>  0 0.15304390E+03</rscale>
<asrwt>0</asrwt>
<pdfrwt beam="1">  1        2 0.45877174E-01 0.16009126E+03</pdfrwt>
<pdfrwt beam="2">  1       -2 0.11198919E-01 0.16009126E+03</pdfrwt>
<totfact> 0.58760080E+03</totfact>
</mgrwt>
</event>
<event>
 6    1  0.6101889E-006  0.1336369E+03  0.7546771E-02  0.1239321E+00
         -2   -1    0    0    0  501 -0.00000000000E+00  0.00000000000E+00  0.12522908029E+02  0.12522908029E+02  0.00000000000E+00 0.  1.
          2   -1    0    0  501    0  0.00000000000E+00 -0.00000000000E+00 -0.11426860481E+04  0.11426860481E+04  0.00000000000E+00 0. -1.
          5    1    1    2  502    0 -0.23146763679E+02 -0.69886583753E+02 -0.53078767598E+03  0.53588949816E+03  0.47000000000E+01 0.  1.
         -5    1    1    2    0  502 -0.21323390067E+02  0.53876527855E+02 -0.30051457337E+03  0.30608571680E+03  0.47000000000E+01 0.  1.
        -11    1    1    2    0    0  0.41587369959E+02  0.42497413207E+02 -0.13924046597E+03  0.15140491020E+03  0.00000000000E+00 0.  1.
         11    1    1    2    0    0  0.28827837864E+01 -0.26487357309E+02 -0.15962042478E+03  0.16182883101E+03  0.00000000000E+00 0. -1.
<mgrwt>
<rscale>  0 0.12231792E+03</rscale>
<asrwt>0</asrwt>
<pdfrwt beam="2">  1        2 0.17579788E+00 0.13363694E+03</pdfrwt>
<pdfrwt beam="1">  1       -2 0.19266010E-02 0.13363694E+03</pdfrwt>
<totfact> 0.16885560E+04</totfact>
</mgrwt>
</event>
<event>
 6    1  0.6101889E-006  0.3445178E+03  0.7546771E-02  0.1064888E+00
         -1   -1    0    0    0  501 -0.00000000000E+00  0.00000000000E+00  0.18421677120E+02  0.18421677120E+02  0.00000000000E+00 0.  1.
          1   -1    0    0  501    0  0.00000000000E+00 -0.00000000000E+00 -0.16107727139E+04  0.16107727139E+04  0.00000000000E+00 0. -1.
          5    1    1    2  502    0  0.13362673152E+03 -0.29696561469E+02 -0.95166906308E+03  0.96147495275E+03  0.47000000000E+01 0.  1.
         -5    1    1    2    0  502 -0.17846418161E+02  0.27766778773E+02 -0.21402309179E+03  0.21660439161E+03  0.47000000000E+01 0.  1.
        -11    1    1    2    0    0 -0.41583849196E+02 -0.35939563582E+02 -0.24760958190E+03  0.25363630220E+03  0.00000000000E+00 0.  1.
         11    1    1    2    0    0 -0.74196464167E+02  0.37869346278E+02 -0.17904930005E+03  0.19747874450E+03  0.00000000000E+00 0. -1.
<mgrwt>
<rscale>  0 0.34451784E+03</rscale>
<asrwt>0</asrwt>
<pdfrwt beam="2">  1        1 0.24781113E+00 0.34451784E+03</pdfrwt>
<pdfrwt beam="1">  1       -1 0.28341049E-02 0.34451784E+03</pdfrwt>
<totfact> 0.24803245E+03</totfact>
</mgrwt>
</event>
<event>
 6    1  0.6101889E-006  0.2938956E+03  0.7546771E-02  0.1089906E+00
          2   -1    0    0  501    0  0.00000000000E+00  0.00000000000E+00  0.14819919937E+04  0.14819919937E+04  0.00000000000E+00 0. -1.
         -2   -1    0    0    0  501 -0.00000000000E+00 -0.00000000000E+00 -0.63804247316E+02  0.63804247316E+02  0.00000000000E+00 0.  1.
          5    1    1    2  502    0 -0.65142518443E+02 -0.52107028902E+01  0.24656363450E+03  0.25512039313E+03  0.47000000000E+01 0.  1.
         -5    1    1    2    0  502 -0.95088029795E+02 -0.20709049934E+03  0.74698027153E+03  0.78098004096E+03  0.47000000000E+01 0.  1.
        -11    1    1    2    0    0  0.28168443580E+02  0.70344591494E+02  0.59783290394E+02  0.96518726558E+02  0.00000000000E+00 0.  1.
         11    1    1    2    0    0  0.13206210466E+03  0.14195661074E+03  0.36486054994E+03  0.41317708035E+03  0.00000000000E+00 0. -1.
<mgrwt>
<rscale>  0 0.29084958E+03</rscale>
<asrwt>0</asrwt>
<pdfrwt beam="1">  1        2 0.22799874E+00 0.29389559E+03</pdfrwt>
<pdfrwt beam="2">  1       -2 0.98160392E-02 0.29389559E+03</pdfrwt>
<totfact> 0.95374628E+02</totfact>
</mgrwt>
</event>
<event>
 6    1  0.6101889E-006  0.1536608E+03  0.7546771E-02  0.1204416E+00
         -4   -1    0    0    0  501 -0.00000000000E+00  0.00000000000E+00  0.55698512698E+03  0.55698512698E+03  0.00000000000E+00 0.  1.
          4   -1    0    0  501    0  0.00000000000E+00 -0.00000000000E+00 -0.40371689446E+02  0.40371689446E+02  0.00000000000E+00 0. -1.
          5    1    1    2  502    0  0.29750304702E+02  0.43366481282E+02  0.79771953530E+02  0.95662881509E+02  0.47000000000E+01 0. -1.
         -5    1    1    2    0  502 -0.89668059835E+02  0.22926449925E+02  0.30107555228E+03  0.31501517620E+03  0.47000000000E+01 0. -1.
        -11    1    1    2    0    0  0.14330599993E+02 -0.39696735939E+02  0.12981804500E+01  0.42224189902E+02  0.00000000000E+00 0. -1.
         11    1    1    2    0    0  0.45587155140E+02 -0.26596195268E+02  0.13446775127E+03  0.14445456881E+03  0.00000000000E+00 0.  1.
<mgrwt>
<rscale>  0 0.14683603E+03</rscale>
<asrwt>0</asrwt>
<pdfrwt beam="2">  1        4 0.62110295E-02 0.15366081E+03</pdfrwt>
<pdfrwt beam="1">  1       -4 0.85690014E-01 0.15366081E+03</pdfrwt>
<totfact> 0.34816546E+02</totfact>
</mgrwt>
</event>
<event>
 6    1  0.6101889E-006  0.1450690E+03  0.7546771E-02  0.1217414E+00
          2   -1    0    0  501    0  0.00000000000E+00  0.00000000000E+00  0.44769690750E+02  0.44769690750E+02  0.00000000000E+00 0. -1.
         -2   -1    0    0    0  501 -0.00000000000E+00 -0.00000000000E+00 -0.38912918511E+03  0.38912918511E+03  0.00000000000E+00 0.  1.
          5    1    1    2  502    0  0.62481676119E+01 -0.10259151081E+03 -0.13001172175E+03  0.16579865947E+03  0.47000000000E+01 0. -1.
         -5    1    1    2    0  502 -0.23887548277E+02  0.31104584960E+02 -0.26278468226E+02  0.47442154889E+02  0.47000000000E+01 0. -1.
        -11    1    1    2    0    0 -0.21023907427E+02  0.22804820424E+00 -0.94688112716E+02  0.96994305912E+02  0.00000000000E+00 0.  1.
         11    1    1    2    0    0  0.38663288092E+02  0.71258877647E+02 -0.93381191671E+02  0.12366375559E+03  0.00000000000E+00 0. -1.
<mgrwt>
<rscale>  0 0.13700730E+03</rscale>
<asrwt>0</asrwt>
<pdfrwt beam="1">  1        2 0.68876445E-02 0.14506902E+03</pdfrwt>
<pdfrwt beam="2">  1       -2 0.59866031E-01 0.14506902E+03</pdfrwt>
<totfact> 0.26404716E+03</totfact>
</mgrwt>
</event>
<event>
 6    1  0.6101889E-006  0.1624274E+03  0.7546771E-02  0.1191737E+00
         -1   -1    0    0    0  501 -0.00000000000E+00  0.00000000000E+00  0.12991091905E+03  0.12991091905E+03  0.00000000000E+00 0.  1.
          1   -1    0    0  501    0  0.00000000000E+00 -0.00000000000E+00 -0.17956821929E+03  0.17956821929E+03  0.00000000000E+00 0. -1.
          5    1    1    2  502    0  0.10466432329E+02  0.22673443116E+02 -0.29923145239E+02  0.39257048404E+02  0.47000000000E+01 0. -1.
         -5    1    1    2    0  502 -0.10141035436E+03 -0.72534258247E+02  0.60474183050E+01  0.12491573103E+03  0.47000000000E+01 0. -1.
        -11    1    1    2    0    0 -0.18267001839E+02 -0.59883490286E+01 -0.98901331074E+01  0.21618473886E+02  0.00000000000E+00 0. -1.
         11    1    1    2    0    0  0.10921092387E+03  0.55849164160E+02 -0.15891440205E+02  0.12368788502E+03  0.00000000000E+00 0.  1.
<mgrwt>
<rscale>  0 0.15733635E+03</rscale>
<asrwt>0</asrwt>
<pdfrwt beam="2">  1        1 0.27625880E-01 0.16242737E+03</pdfrwt>
<pdfrwt beam="1">  1       -1 0.19986295E-01 0.16242737E+03</pdfrwt>
<totfact> 0.33069785E+03</totfact>
</mgrwt>
</event>
<event>
 6    1  0.6101889E-006  0.1300065E+03  0.7546771E-02  0.1241261E+00
         -1   -1    0    0    0  501 -0.00000000000E+00  0.00000000000E+00  0.15384423288E+02  0.15384423288E+02  0.00000000000E+00 0.  1.
          1   -1    0    0  501    0  0.00000000000E+00 -0.00000000000E+00 -0.84439097729E+03  0.84439097729E+03  0.00000000000E+00 0. -1.
          5    1    1    2  502    0 -0.39348251999E+02  0.55012339030E+02 -0.13635478942E+03  0.15228053381E+03  0.47000000000E+01 0. -1.
         -5    1    1    2    0  502  0.19977557519E+02 -0.24980025321E+02 -0.33879187605E+03  0.34033091212E+03  0.47000000000E+01 0. -1.
        -11    1    1    2    0    0 -0.20743202149E+02 -0.48673666028E+02 -0.16917376142E+03  0.17725452816E+03  0.00000000000E+00 0.  1.
         11    1    1    2    0    0  0.40113896629E+02  0.18641352318E+02 -0.18468612712E+03  0.18990942649E+03  0.00000000000E+00 0. -1.
<mgrwt>
<rscale>  0 0.12111989E+03</rscale>
<asrwt>0</asrwt>
<pdfrwt beam="2">  1        1 0.12990631E+00 0.13000647E+03</pdfrwt>
<pdfrwt beam="1">  1       -1 0.23668343E-02 0.13000647E+03</pdfrwt>
<totfact> 0.10848420E+04</totfact>
</mgrwt>
</event>
<event>
 6    1  0.6101889E-006  0.1398804E+03  0.7546771E-02  0.1225378E+00
         -1   -1    0    0    0  501 -0.00000000000E+00  0.00000000000E+00  0.28370193711E+03  0.28370193711E+03  0.00000000000E+00 0.  1.
          1   -1    0    0  501    0  0.00000000000E+00 -0.00000000000E+00 -0.54922298145E+02  0.54922298145E+02  0.00000000000E+00 0. -1.
          5    1    1    2  502    0  0.58420991708E+02 -0.73099027220E+02  0.95965295733E+02  0.13411900700E+03  0.47000000000E+01 0.  1.
         -5    1    1    2    0  502 -0.36040709916E+01  0.42505947880E+02  0.18961237393E+02  0.46918689841E+02  0.47000000000E+01 0.  1.
        -11    1    1    2    0    0 -0.56590339443E+02  0.44044363244E+02  0.12217828084E+03  0.14166829130E+03  0.00000000000E+00 0.  1.
         11    1    1    2    0    0  0.17734187269E+01 -0.13451283904E+02 -0.83251749965E+01  0.15918247119E+02  0.00000000000E+00 0. -1.
<mgrwt>
<rscale>  0 0.13141006E+03</rscale>
<asrwt>0</asrwt>
<pdfrwt beam="2">  1        1 0.84495845E-02 0.13988045E+03</pdfrwt>
<pdfrwt beam="1">  1       -1 0.43646451E-01 0.13988045E+03</pdfrwt>
<totfact> 0.40847236E+03</totfact>
</mgrwt>
</event>
<event>
 6    1  0.6101889E-006  0.1251162E+03  0.7546771E-02  0.1273618E+00
         -2   -1    0    0    0  501 -0.00000000000E+00  0.00000000000E+00  0.34158973486E+02  0.34158973486E+02  0.00000000000E+00 0.  1.
          2   -1    0    0  501    0  0.00000000000E+00 -0.00000000000E+00 -0.25093546755E+03  0.25093546755E+03  0.00000000000E+00 0. -1.
          5    1    1    2  502    0 -0.29310194044E+02  0.43756606240E+02 -0.18588719421E+02  0.56047823814E+02  0.47000000000E+01 0.  1.
         -5    1    1    2    0  502  0.34706098599E+02 -0.43999608088E+02 -0.10898770466E+03  0.12264130038E+03  0.47000000000E+01 0.  1.
        -11    1    1    2    0    0  0.59895324102E+01  0.26784102791E+02 -0.30797352678E+02  0.41252146524E+02  0.00000000000E+00 0.  1.
         11    1    1    2    0    0 -0.11385436965E+02 -0.26541100942E+02 -0.58402717306E+02  0.65153170321E+02  0.00000000000E+00 0. -1.
<mgrwt>
<rscale>  0 0.10324412E+03</rscale>
<asrwt>0</asrwt>
<pdfrwt beam="2">  1        2 0.38605456E-01 0.12511618E+03</pdfrwt>
<pdfrwt beam="1">  1       -2 0.52552267E-02 0.12511618E+03</pdfrwt>
<totfact> 0.22259311E+04</totfact>
</mgrwt>
</event>
<event>
 6    1  0.6101889E-006  0.1384917E+03  0.7546771E-02  0.1227347E+00
         -2   -1    0    0    0  501 -0.00000000000E+00  0.00000000000E+00  0.52506316753E+02  0.52506316753E+02  0.00000000000E+00 0.  1.
          2   -1    0    0  501    0  0.00000000000E+00 -0.00000000000E+00 -0.32661171783E+03  0.32661171783E+03  0.00000000000E+00 0. -1.
          5    1    1    2  502    0 -0.86991345109E+02  0.37596582291E+02 -0.12603621878E+03  0.15775999356E+03  0.47000000000E+01 0. -1.
         -5    1    1    2    0  502  0.27931546678E+02 -0.29444011891E+02 -0.90237554997E+02  0.99055678625E+02  0.47000000000E+01 0. -1.
        -11    1    1    2    0    0  0.62399440481E+02  0.22016439428E+02 -0.63171985284E+02  0.91482859062E+02  0.00000000000E+00 0. -1.
         11    1    1    2    0    0 -0.33396420501E+01 -0.30169009828E+02  0.53403579747E+01  0.30819503343E+02  0.00000000000E+00 0.  1.
<mgrwt>
<rscale>  0 0.13007311E+03</rscale>
<asrwt>0</asrwt>
<pdfrwt beam="2">  1        2 0.50247956E-01 0.13849168E+03</pdfrwt>
<pdfrwt beam="1">  1       -2 0.80778950E-02 0.13849168E+03</pdfrwt>
<totfact> 0.88225591E+03</totfact>
</mgrwt>
</event>
<event>
 6    1  0.6101889E-006  0.1605397E+03  0.7546771E-02  0.1195544E+00
          1   -1    0    0  501    0  0.00000000000E+00  0.00000000000E+00  0.79232318926E+02  0.79232318926E+02  0.00000000000E+00 0. -1.
         -1   -1    0    0    0  501 -0.00000000000E+00 -0.00000000000E+00 -0.28205555949E+03  0.28205555949E+03  0.00000000000E+00 0.  1.
          5    1    1    2  502    0  0.78961781529E+02  0.62106710633E+02 -0.91583061164E+01  0.10098599417E+03  0.47000000000E+01 0.  1.
         -5    1    1    2    0  502  0.12237710289E+02 -0.19308117879E+02 -0.78564185332E+02  0.81957221684E+02  0.47000000000E+01 0.  1.
        -11    1    1    2    0    0 -0.74728485886E+02 -0.61193391533E+02 -0.11908875564E+03  0.15333332804E+03  0.00000000000E+00 0.  1.
         11    1    1    2    0    0 -0.16471005932E+02  0.18394798779E+02  0.39880065167E+01  0.25011334521E+02  0.00000000000E+00 0. -1.
<mgrwt>
<rscale>  0 0.15408311E+03</rscale>
<asrwt>0</asrwt>
<pdfrwt beam="1">  1        1 0.12189588E-01 0.16053967E+03</pdfrwt>
<pdfrwt beam="2">  1       -1 0.43393163E-01 0.16053967E+03</pdfrwt>
<totfact> 0.25552358E+03</totfact>
</mgrwt>
</event>
<event>
 6    1  0.6101889E-006  0.1738842E+03  0.7546771E-02  0.1180050E+00
         -2   -1    0    0    0  501 -0.00000000000E+00  0.00000000000E+00  0.14255880249E+02  0.14255880249E+02  0.00000000000E+00 0.  1.
          2   -1    0    0  501    0  0.00000000000E+00 -0.00000000000E+00 -0.18910102787E+04  0.18910102787E+04  0.00000000000E+00 0. -1.
          5    1    1    2  502    0 -0.13188643484E+03 -0.39014768051E+02 -0.81392880907E+03  0.82548069635E+03  0.47000000000E+01 0. -1.
         -5    1    1    2    0  502  0.26076041106E+02 -0.19406807972E+02 -0.32344975586E+03  0.32511293220E+03  0.47000000000E+01 0. -1.
        -11    1    1    2    0    0  0.46021018511E+01 -0.19481958806E+02 -0.56149793879E+02  0.59611453707E+02  0.00000000000E+00 0. -1.
         11    1    1    2    0    0  0.10120829188E+03  0.77903534830E+02 -0.68322603960E+03  0.69506107665E+03  0.00000000000E+00 0.  1.
<mgrwt>
<rscale>  0 0.16790564E+03</rscale>
<asrwt>0</asrwt>
<pdfrwt beam="2">  1        2 0.29092458E+00 0.17388415E+03</pdfrwt>
<pdfrwt beam="1">  1       -2 0.21932129E-02 0.17388415E+03</pdfrwt>
<totfact> 0.56863256E+03</totfact>
</mgrwt>
</event>
<event>
 6    1  0.6101889E-006  0.1378620E+03  0.7546771E-02  0.1228030E+00
          2   -1    0    0  501    0  0.00000000000E+00  0.00000000000E+00  0.10648606574E+04  0.10648606574E+04  0.00000000000E+00 0. -1.
         -2   -1    0    0    0  501 -0.00000000000E+00 -0.00000000000E+00 -0.14821407658E+02  0.14821407658E+02  0.00000000000E+00 0.  1.
          5    1    1    2  502    0  0.16876130539E+02  0.10503774031E+02  0.18695879841E+02  0.27690413032E+02  0.47000000000E+01 0.  1.
         -5    1    1    2    0  502 -0.61470095337E+02 -0.47819015747E+02  0.68123387625E+03  0.68568718454E+03  0.47000000000E+01 0.  1.
        -11    1    1    2    0    0  0.67076261068E+02  0.14121301940E+02  0.29079449936E+03  0.29876424958E+03  0.00000000000E+00 0. -1.
         11    1    1    2    0    0 -0.22482296270E+02  0.23193939776E+02  0.59314994294E+02  0.67540217915E+02  0.00000000000E+00 0.  1.
<mgrwt>
<rscale>  0 0.12961387E+03</rscale>
<asrwt>0</asrwt>
<pdfrwt beam="1">  1        2 0.16382466E+00 0.13786201E+03</pdfrwt>
<pdfrwt beam="2">  1       -2 0.22802174E-02 0.13786201E+03</pdfrwt>
<totfact> 0.14671659E+04</totfact>
</mgrwt>
</event>
<event>
 6    1  0.6101889E-006  0.2274712E+03  0.7546771E-02  0.1161117E+00
          2   -1    0    0  501    0  0.00000000000E+00  0.00000000000E+00  0.10744833019E+04  0.10744833019E+04  0.00000000000E+00 0. -1.
         -2   -1    0    0    0  501 -0.00000000000E+00 -0.00000000000E+00 -0.27422994086E+02  0.27422994086E+02  0.00000000000E+00 0.  1.
          5    1    1    2  502    0  0.60273700328E+02 -0.97728178927E+02  0.72217164265E+03  0.73125760670E+03  0.47000000000E+01 0. -1.
         -5    1    1    2    0  502 -0.55623143419E+02  0.47711180237E+02  0.11647640274E+03  0.13769216825E+03  0.47000000000E+01 0.  1.
        -11    1    1    2    0    0 -0.30677930004E+02  0.65473521274E+02  0.16374625870E+03  0.17899931457E+03  0.00000000000E+00 0. -1.
         11    1    1    2    0    0  0.26027373095E+02 -0.15456522583E+02  0.44666003717E+02  0.53957206457E+02  0.00000000000E+00 0.  1.
<mgrwt>
<rscale>  0 0.18708494E+03</rscale>
<asrwt>0</asrwt>
<pdfrwt beam="1">  1        2 0.16530509E+00 0.22747125E+03</pdfrwt>
<pdfrwt beam="2">  1       -2 0.42189230E-02 0.22747125E+03</pdfrwt>
<totfact> 0.59554020E+03</totfact>
</mgrwt>
</event>
<event>
 6    1  0.6101889E-006  0.3477928E+03  0.7546771E-02  0.1064582E+00
         -2   -1    0    0    0  501 -0.00000000000E+00  0.00000000000E+00  0.25706188021E+03  0.25706188021E+03  0.00000000000E+00 0. -1.
          2   -1    0    0  501    0  0.00000000000E+00 -0.00000000000E+00 -0.63163284036E+03  0.63163284036E+03  0.00000000000E+00 0.  1.
          5    1    1    2  502    0  0.60603532516E+02 -0.53430018978E+02 -0.10219602150E+03  0.13035977866E+03  0.47000000000E+01 0. -1.
         -5    1    1    2    0  502 -0.70891433114E+01 -0.26668159412E+03 -0.32068285451E+03  0.41716772619E+03  0.47000000000E+01 0. -1.
        -11    1    1    2    0    0  0.74885445911E+01  0.10136517688E+02 -0.14344049487E+02  0.19093953143E+02  0.00000000000E+00 0. -1.
         11    1    1    2    0    0 -0.61002933796E+02  0.30997509541E+03  0.62651965349E+02  0.32207326258E+03  0.00000000000E+00 0.  1.
<mgrwt>
<rscale>  0 0.34524927E+03</rscale>
<asrwt>0</asrwt>
<pdfrwt beam="2">  1        2 0.97174282E-01 0.34779279E+03</pdfrwt>
<pdfrwt beam="1">  1       -2 0.39547982E-01 0.34779279E+03</pdfrwt>
<totfact> 0.28980019E+02</totfact>
</mgrwt>
</event>
<event>
 6    1  0.6101889E-006  0.3506974E+03  0.7546771E-02  0.1062329E+00
          1   -1    0    0  501    0  0.00000000000E+00  0.00000000000E+00  0.15889978863E+04  0.15889978863E+04  0.00000000000E+00 0. -1.
         -1   -1    0    0    0  501 -0.00000000000E+00 -0.00000000000E+00 -0.19350032975E+02  0.19350032975E+02  0.00000000000E+00 0.  1.
          5    1    1    2  502    0  0.78439765011E+02 -0.12896770162E+03  0.88353902403E+03  0.89635303413E+03  0.47000000000E+01 0.  1.
         -5    1    1    2    0  502 -0.23642894792E+02  0.50890761581E+01  0.57315827164E+02  0.62386530708E+02  0.47000000000E+01 0.  1.
        -11    1    1    2    0    0  0.18997150503E+02  0.54773555204E+02  0.30274063374E+03  0.30824166720E+03  0.00000000000E+00 0. -1.
         11    1    1    2    0    0 -0.73794020722E+02  0.69105070260E+02  0.32605236834E+03  0.34136668720E+03  0.00000000000E+00 0.  1.
<mgrwt>
<rscale>  0 0.35069737E+03</rscale>
<asrwt>0</asrwt>
<pdfrwt beam="1">  1        1 0.24446111E+00 0.35069737E+03</pdfrwt>
<pdfrwt beam="2">  1       -1 0.29769294E-02 0.35069737E+03</pdfrwt>
<totfact> 0.23831866E+03</totfact>
</mgrwt>
</event>
<event>
 6    1  0.6101889E-006  0.3870398E+03  0.7546771E-02  0.1048362E+00
          2   -1    0    0  501    0  0.00000000000E+00  0.00000000000E+00  0.45212136844E+03  0.45212136844E+03  0.00000000000E+00 0. -1.
         -2   -1    0    0    0  501 -0.00000000000E+00 -0.00000000000E+00 -0.82831635320E+02  0.82831635320E+02  0.00000000000E+00 0.  1.
          5    1    1    2  502    0  0.15981444744E+02 -0.89134306630E+01 -0.60228525083E+01  0.19829790080E+02  0.47000000000E+01 0.  1.
         -5    1    1    2    0  502 -0.35063998928E+02 -0.13119183285E+03  0.30254489994E+03  0.33165688220E+03  0.47000000000E+01 0.  1.
        -11    1    1    2    0    0 -0.16791085896E+02  0.12519282670E+03  0.39576219457E+02  0.13236865781E+03  0.00000000000E+00 0.  1.
         11    1    1    2    0    0  0.35873640080E+02  0.14912436815E+02  0.33191466229E+02  0.51097673673E+02  0.00000000000E+00 0. -1.
<mgrwt>
<rscale>  0 0.38703980E+03</rscale>
<asrwt>0</asrwt>
<pdfrwt beam="1">  1        2 0.69557132E-01 0.38703980E+03</pdfrwt>
<pdfrwt beam="2">  1       -2 0.12743329E-01 0.38703980E+03</pdfrwt>
<totfact> 0.31413974E+03</totfact>
</mgrwt>
</event>
<event>
 6    1  0.6101889E-006  0.1735042E+03  0.7546771E-02  0.1181265E+00
         -3   -1    0    0    0  501 -0.00000000000E+00  0.00000000000E+00  0.67638681996E+02  0.67638681996E+02  0.00000000000E+00 0.  1.
          3   -1    0    0  501    0  0.00000000000E+00 -0.00000000000E+00 -0.39200848983E+03  0.39200848983E+03  0.00000000000E+00 0. -1.
          5    1    1    2  502    0 -0.52004943046E+02 -0.43940251914E+02 -0.32875117024E+02  0.75750400387E+02  0.47000000000E+01 0. -1.
         -5    1    1    2    0  502 -0.68124901893E+02  0.50898072201E+02 -0.17801536694E+03  0.19734025661E+03  0.47000000000E+01 0. -1.
        -11    1    1    2    0    0  0.10032045877E+03 -0.40558753848E+02 -0.74234525633E+02  0.13122489001E+03  0.00000000000E+00 0.  1.
         11    1    1    2    0    0  0.19809386167E+02  0.33600933561E+02 -0.39244798230E+02  0.55331624814E+02  0.00000000000E+00 0. -1.
<mgrwt>
<rscale>  0 0.16676384E+03</rscale>
<asrwt>0</asrwt>
<pdfrwt beam="2">  1        3 0.60308999E-01 0.17350421E+03</pdfrwt>
<pdfrwt beam="1">  1       -3 0.10405951E-01 0.17350421E+03</pdfrwt>
<totfact> 0.45144683E+02</totfact>
</mgrwt>
</event>
<event>
 6    1  0.6101889E-006  0.1269620E+03  0.7546771E-02  0.1237251E+00
         -1   -1    0    0    0  501 -0.00000000000E+00  0.00000000000E+00  0.62438166890E+02  0.62438166890E+02  0.00000000000E+00 0.  1.
          1   -1    0    0  501    0  0.00000000000E+00 -0.00000000000E+00 -0.30410816260E+03  0.30410816260E+03  0.00000000000E+00 0. -1.
          5    1    1    2  502    0 -0.48370098152E+02  0.34419733611E+02 -0.15285727387E+03  0.16404822655E+03  0.47000000000E+01 0.  1.
         -5    1    1    2    0  502  0.31851558413E+02 -0.49239020815E+02 -0.61651297243E+02  0.85217224761E+02  0.47000000000E+01 0.  1.
        -11    1    1    2    0    0  0.24883287285E+02 -0.28800416483E+02  0.27421857700E+02  0.46910555906E+02  0.00000000000E+00 0.  1.
         11    1    1    2    0    0 -0.83647475461E+01  0.43619703687E+02 -0.54583282290E+02  0.70370322273E+02  0.00000000000E+00 0. -1.
<mgrwt>
<rscale>  0 0.12361447E+03</rscale>
<asrwt>0</asrwt>
<pdfrwt beam="2">  1        1 0.46785871E-01 0.12696196E+03</pdfrwt>
<pdfrwt beam="1">  1       -1 0.96058719E-02 0.12696196E+03</pdfrwt>
<totfact> 0.53302677E+03</totfact>
</mgrwt>
</event>
<event>
 6    1  0.6101889E-006  0.2551581E+03  0.7546771E-02  0.1112401E+00
          1   -1    0    0  501    0  0.00000000000E+00  0.00000000000E+00  0.29651891830E+03  0.29651891830E+03  0.00000000000E+00 0. -1.
         -1   -1    0    0    0  501 -0.00000000000E+00 -0.00000000000E+00 -0.22565309657E+03  0.22565309657E+03  0.00000000000E+00 0.  1.
          5    1    1    2  502    0 -0.11041623923E+03 -0.12243173558E+03  0.10388019307E+03  0.19492167729E+03  0.47000000000E+01 0. -1.
         -5    1    1    2    0  502 -0.82153232332E+02  0.11085525596E+02  0.71224203752E+01  0.83335834623E+02  0.47000000000E+01 0. -1.
        -11    1    1    2    0    0  0.87298463327E+02  0.21782327830E+02  0.21609023547E+02  0.92533460994E+02  0.00000000000E+00 0.  1.
         11    1    1    2    0    0  0.10527100824E+03  0.89563882156E+02 -0.61745815271E+02  0.15138104196E+03  0.00000000000E+00 0. -1.
<mgrwt>
<rscale>  0 0.25143528E+03</rscale>
<asrwt>0</asrwt>
<pdfrwt beam="1">  1        1 0.45618295E-01 0.25515811E+03</pdfrwt>
<pdfrwt beam="2">  1       -1 0.34715861E-01 0.25515811E+03</pdfrwt>
<totfact> 0.70765993E+02</totfact>
</mgrwt>
</event>
<event>
 6    1  0.6101889E-006  0.1296428E+03  0.7546771E-02  0.1241153E+00
         -3   -1    0    0    0  501 -0.00000000000E+00  0.00000000000E+00  0.49403610000E+03  0.49403610000E+03  0.00000000000E+00 0.  1.
          3   -1    0    0  501    0  0.00000000000E+00 -0.00000000000E+00 -0.27932062721E+02  0.27932062721E+02  0.00000000000E+00 0. -1.
          5    1    1    2  502    0 -0.77066441513E+02  0.11939125823E+02  0.11948049494E+03  0.14275663839E+03  0.47000000000E+01 0. -1.
         -5    1    1    2    0  502  0.45045030190E+02 -0.24466689225E+02  0.83579944635E+02  0.98159924468E+02  0.47000000000E+01 0. -1.
        -11    1    1    2    0    0  0.57123935268E+02  0.29069629358E+02  0.13382967148E+03  0.14838655027E+03  0.00000000000E+00 0. -1.
         11    1    1    2    0    0 -0.25102523945E+02 -0.16542065957E+02  0.12921392622E+03  0.13266504960E+03  0.00000000000E+00 0.  1.
<mgrwt>
<rscale>  0 0.12118637E+03</rscale>
<asrwt>0</asrwt>
<pdfrwt beam="2">  1        3 0.42972408E-02 0.12964277E+03</pdfrwt>
<pdfrwt beam="1">  1       -3 0.76005547E-01 0.12964277E+03</pdfrwt>
<totfact> 0.11059550E+03</totfact>
</mgrwt>
</event>
<event>
 6    1  0.6101889E-006  0.2236635E+03  0.7546771E-02  0.1131181E+00
          2   -1    0    0  501    0  0.00000000000E+00  0.00000000000E+00  0.26603375960E+03  0.26603375960E+03  0.00000000000E+00 0. -1.
         -2   -1    0    0    0  501 -0.00000000000E+00 -0.00000000000E+00 -0.47010335251E+02  0.47010335251E+02  0.00000000000E+00 0.  1.
          5    1    1    2  502    0 -0.18923262648E+01  0.86042055400E+01 -0.25672390019E+02  0.27545868310E+02  0.47000000000E+01 0. -1.
         -5    1    1    2    0  502  0.17802074562E+02 -0.28434557545E+02  0.13898635212E+03  0.14305500339E+03  0.47000000000E+01 0. -1.
        -11    1    1    2    0    0 -0.10156195560E+02  0.53941469226E+02  0.87654185277E+02  0.10342188650E+03  0.00000000000E+00 0.  1.
         11    1    1    2    0    0 -0.57535527367E+01 -0.34111117221E+02  0.18055276973E+02  0.39021336647E+02  0.00000000000E+00 0. -1.
<mgrwt>
<rscale>  0 0.22366346E+03</rscale>
<asrwt>0</asrwt>
<pdfrwt beam="1">  1        2 0.40928270E-01 0.22366346E+03</pdfrwt>
<pdfrwt beam="2">  1       -2 0.72323594E-02 0.22366346E+03</pdfrwt>
<totfact> 0.13483931E+04</totfact>
</mgrwt>
</event>
<event>
 6    1  0.6101889E-006  0.2430041E+03  0.7546771E-02  0.1117808E+00
         -1   -1    0    0    0  501 -0.00000000000E+00  0.00000000000E+00  0.75172282183E+02  0.75172282183E+02  0.00000000000E+00 0. -1.
          1   -1    0    0  501    0  0.00000000000E+00 -0.00000000000E+00 -0.19638547842E+03  0.19638547842E+03  0.00000000000E+00 0.  1.
          5    1    1    2  502    0 -0.20951927639E+02 -0.15765545185E+01  0.35883851774E+02  0.41847456482E+02  0.47000000000E+01 0. -1.
         -5    1    1    2    0  502  0.30564042173E+02  0.50439892832E+02 -0.80514792602E+02  0.99915290574E+02  0.47000000000E+01 0. -1.
        -11    1    1    2    0    0  0.20313265179E+02 -0.27055627468E+02 -0.85291097338E+02  0.91756236872E+02  0.00000000000E+00 0.  1.
         11    1    1    2    0    0 -0.29925379713E+02 -0.21807710846E+02  0.87088419277E+01  0.38038776676E+02  0.00000000000E+00 0. -1.
<mgrwt>
<rscale>  0 0.24300407E+03</rscale>
<asrwt>0</asrwt>
<pdfrwt beam="2">  1        1 0.30213150E-01 0.24300407E+03</pdfrwt>
<pdfrwt beam="1">  1       -1 0.11564967E-01 0.24300407E+03</pdfrwt>
<totfact> 0.71769543E+03</totfact>
</mgrwt>
</event>
<event>
 6    1  0.6101889E-006  0.1275578E+03  0.7546771E-02  0.1245847E+00
         -2   -1    0    0    0  501 -0.00000000000E+00  0.00000000000E+00  0.14273521141E+02  0.14273521141E+02  0.00000000000E+00 0. -1.
          2   -1    0    0  501    0  0.00000000000E+00 -0.00000000000E+00 -0.20616339454E+04  0.20616339454E+04  0.00000000000E+00 0.  1.
          5    1    1    2  502    0 -0.19752280383E+01 -0.18621735210E+02 -0.46199530409E+02  0.50071520429E+02  0.47000000000E+01 0.  1.
         -5    1    1    2    0  502 -0.14000791743E+02  0.38364678022E+02 -0.18287745659E+04  0.18292365548E+04  0.47000000000E+01 0.  1.
        -11    1    1    2    0    0  0.17249860201E+02  0.31313582870E+02 -0.11170270431E+03  0.11728423721E+03  0.00000000000E+00 0.  1.
         11    1    1    2    0    0 -0.12738404196E+01 -0.51056525682E+02 -0.60683623632E+02  0.79315154045E+02  0.00000000000E+00 0. -1.
<mgrwt>
<rscale>  0 0.11834844E+03</rscale>
<asrwt>0</asrwt>
<pdfrwt beam="2">  1        2 0.31717445E+00 0.12755775E+03</pdfrwt>
<pdfrwt beam="1">  1       -2 0.21959263E-02 0.12755775E+03</pdfrwt>
<totfact> 0.46198306E+03</totfact>
</mgrwt>
</event>
<event>
 6    1  0.6101889E-006  0.1281251E+03  0.7546771E-02  0.1244806E+00
          1   -1    0    0  501    0  0.00000000000E+00  0.00000000000E+00  0.34348389416E+03  0.34348389416E+03  0.00000000000E+00 0. -1.
         -1   -1    0    0    0  501 -0.00000000000E+00 -0.00000000000E+00 -0.40038085686E+02  0.40038085686E+02  0.00000000000E+00 0.  1.
          5    1    1    2  502    0 -0.18982396440E+02 -0.18539848528E+01  0.24450441363E+03  0.24529220721E+03  0.47000000000E+01 0. -1.
         -5    1    1    2    0  502 -0.90953509368E+01 -0.98615735842E+00 -0.14626350722E+02  0.17880661354E+02  0.47000000000E+01 0. -1.
        -11    1    1    2    0    0  0.41530834441E+02 -0.15685325337E+02  0.84138128272E+02  0.95131825744E+02  0.00000000000E+00 0. -1.
         11    1    1    2    0    0 -0.13453087064E+02  0.18525467548E+02 -0.10570382703E+02  0.25217285538E+02  0.00000000000E+00 0.  1.
<mgrwt>
<rscale>  0 0.11896978E+03</rscale>
<asrwt>0</asrwt>
<pdfrwt beam="1">  1        1 0.52843674E-01 0.12812508E+03</pdfrwt>
<pdfrwt beam="2">  1       -1 0.61597057E-02 0.12812508E+03</pdfrwt>
<totfact> 0.89469370E+03</totfact>
</mgrwt>
</event>
<event>
 6    1  0.6101889E-006  0.1398090E+03  0.7546771E-02  0.1224789E+00
          2   -1    0    0  501    0  0.00000000000E+00  0.00000000000E+00  0.61842833139E+03  0.61842833139E+03  0.00000000000E+00 0. -1.
         -2   -1    0    0    0  501 -0.00000000000E+00 -0.00000000000E+00 -0.26462577309E+02  0.26462577309E+02  0.00000000000E+00 0.  1.
          5    1    1    2  502    0 -0.10413453134E+02  0.57490479015E+02  0.20862583794E+03  0.21670354275E+03  0.47000000000E+01 0.  1.
         -5    1    1    2    0  502  0.69494660245E+02 -0.36716313437E+02  0.18707597190E+03  0.20297069921E+03  0.47000000000E+01 0.  1.
        -11    1    1    2    0    0 -0.22413478763E+02 -0.29921050945E+02  0.18039607499E+03  0.18422914316E+03  0.00000000000E+00 0. -1.
         11    1    1    2    0    0 -0.36667728348E+02  0.91468853659E+01  0.15867869246E+02  0.40987523571E+02  0.00000000000E+00 0.  1.
<mgrwt>
<rscale>  0 0.13181342E+03</rscale>
<asrwt>0</asrwt>
<pdfrwt beam="1">  1        2 0.95142810E-01 0.13980897E+03</pdfrwt>
<pdfrwt beam="2">  1       -2 0.40711662E-02 0.13980897E+03</pdfrwt>
<totfact> 0.12429377E+04</totfact>
</mgrwt>
</event>
<event>
 6    1  0.6101889E-006  0.2681250E+03  0.7546771E-02  0.1112689E+00
          4   -1    0    0  501    0  0.00000000000E+00  0.00000000000E+00  0.85654788108E+03  0.85654788108E+03  0.00000000000E+00 0. -1.
         -4   -1    0    0    0  501 -0.00000000000E+00 -0.00000000000E+00 -0.69899438839E+02  0.69899438839E+02  0.00000000000E+00 0.  1.
          5    1    1    2  502    0  0.15801618611E+03 -0.86675403536E+02  0.55160644458E+03  0.58032189374E+03  0.47000000000E+01 0. -1.
         -5    1    1    2    0  502 -0.16094853826E+02 -0.32827703293E+02  0.46125832167E+01  0.37149271152E+02  0.47000000000E+01 0.  1.
        -11    1    1    2    0    0  0.11729752958E+02  0.11776323617E+01  0.10907656807E+02  0.16060849898E+02  0.00000000000E+00 0. -1.
         11    1    1    2    0    0 -0.15365108524E+03  0.11832547447E+03  0.21952175764E+03  0.29291530513E+03  0.00000000000E+00 0.  1.
<mgrwt>
<rscale>  0 0.25097674E+03</rscale>
<asrwt>0</asrwt>
<pdfrwt beam="1">  1        4 0.13177659E+00 0.26812503E+03</pdfrwt>
<pdfrwt beam="2">  1       -4 0.10753760E-01 0.26812503E+03</pdfrwt>
<totfact> 0.54197045E+01</totfact>
</mgrwt>
</event>
<event>
 6    1  0.6101889E-006  0.1267153E+03  0.7546771E-02  0.1247526E+00
         -1   -1    0    0    0  501 -0.00000000000E+00  0.00000000000E+00  0.76934830240E+02  0.76934830240E+02  0.00000000000E+00 0.  1.
          1   -1    0    0  501    0  0.00000000000E+00 -0.00000000000E+00 -0.20906806223E+03  0.20906806223E+03  0.00000000000E+00 0. -1.
          5    1    1    2  502    0 -0.40238915250E+01 -0.60564011313E+02 -0.12285586884E+03  0.13711252925E+03  0.47000000000E+01 0.  1.
         -5    1    1    2    0  502 -0.12975086162E+02  0.48626519836E+02 -0.21389474610E+02  0.54886163251E+02  0.47000000000E+01 0.  1.
        -11    1    1    2    0    0  0.21825026185E+02 -0.33265931252E+02  0.24704203357E+02  0.46832164306E+02  0.00000000000E+00 0.  1.
         11    1    1    2    0    0 -0.48260484982E+01  0.45203422728E+02 -0.12592091901E+02  0.47172035666E+02  0.00000000000E+00 0. -1.
<mgrwt>
<rscale>  0 0.11735455E+03</rscale>
<asrwt>0</asrwt>
<pdfrwt beam="2">  1        1 0.32164318E-01 0.12671535E+03</pdfrwt>
<pdfrwt beam="1">  1       -1 0.11836128E-01 0.12671535E+03</pdfrwt>
<totfact> 0.61511423E+03</totfact>
</mgrwt>
</event>
<event>
 6    1  0.6101889E-006  0.1800565E+03  0.7546771E-02  0.1173310E+00
         -2   -1    0    0    0  501 -0.00000000000E+00  0.00000000000E+00  0.27803693767E+02  0.27803693767E+02  0.00000000000E+00 0.  1.
          2   -1    0    0  501    0  0.00000000000E+00 -0.00000000000E+00 -0.11343197674E+04  0.11343197674E+04  0.00000000000E+00 0. -1.
          5    1    1    2  502    0 -0.51915602659E+02 -0.40032563543E+02 -0.63853708752E+03  0.64191084901E+03  0.47000000000E+01 0.  1.
         -5    1    1    2    0  502 -0.28978856539E+02 -0.61212364686E+02 -0.12166763549E+03  0.13932634798E+03  0.47000000000E+01 0.  1.
        -11    1    1    2    0    0  0.26278151066E+02  0.38995848834E+02 -0.34651508047E+02  0.58411852048E+02  0.00000000000E+00 0.  1.
         11    1    1    2    0    0  0.54616308132E+02  0.62249079396E+02 -0.31165984263E+03  0.32247441217E+03  0.00000000000E+00 0. -1.
<mgrwt>
<rscale>  0 0.17442481E+03</rscale>
<asrwt>0</asrwt>
<pdfrwt beam="2">  1        2 0.17451069E+00 0.18005648E+03</pdfrwt>
<pdfrwt beam="1">  1       -2 0.42774924E-02 0.18005648E+03</pdfrwt>
<totfact> 0.53460075E+03</totfact>
</mgrwt>
</event>
<event>
 6    1  0.6101889E-006  0.1344232E+03  0.7546771E-02  0.1233827E+00
         -2   -1    0    0    0  501 -0.00000000000E+00  0.00000000000E+00  0.21687054399E+02  0.21687054399E+02  0.00000000000E+00 0. -1.
          2   -1    0    0  501    0  0.00000000000E+00 -0.00000000000E+00 -0.66011008223E+03  0.66011008223E+03  0.00000000000E+00 0.  1.
          5    1    1    2  502    0  0.60036204513E+02 -0.13926749904E+02 -0.22608744755E+03  0.23438413802E+03  0.47000000000E+01 0.  1.
         -5    1    1    2    0  502 -0.38823630341E+02  0.58580520767E+02 -0.17563370993E+03  0.18923065753E+03  0.47000000000E+01 0.  1.
        -11    1    1    2    0    0  0.33854030159E+02 -0.27050993853E+02 -0.77259301505E+02  0.88582454783E+02  0.00000000000E+00 0.  1.
         11    1    1    2    0    0 -0.55066604330E+02 -0.17602777009E+02 -0.15944256884E+03  0.16959988629E+03  0.00000000000E+00 0. -1.
<mgrwt>
<rscale>  0 0.12579813E+03</rscale>
<asrwt>0</asrwt>
<pdfrwt beam="2">  1        2 0.10155538E+00 0.13442324E+03</pdfrwt>
<pdfrwt beam="1">  1       -2 0.33364704E-02 0.13442324E+03</pdfrwt>
<totfact> 0.15434539E+04</totfact>
</mgrwt>
</event>
<event>
 6    1  0.6101889E-006  0.1484345E+03  0.7546771E-02  0.1222004E+00
          2   -1    0    0  501    0  0.00000000000E+00  0.00000000000E+00  0.18420477408E+04  0.18420477408E+04  0.00000000000E+00 0. -1.
         -2   -1    0    0    0  501 -0.00000000000E+00 -0.00000000000E+00 -0.28959074910E+02  0.28959074910E+02  0.00000000000E+00 0.  1.
          5    1    1    2  502    0  0.12571685934E+02  0.77704309000E+02  0.13828501522E+04  0.13850966177E+04  0.47000000000E+01 0. -1.
         -5    1    1    2    0  502  0.77980615417E+00 -0.54198685593E+02  0.36334067325E+03  0.36739167173E+03  0.47000000000E+01 0.  1.
        -11    1    1    2    0    0  0.30212110911E+01  0.15127744158E+02  0.74322999172E+02  0.75907078496E+02  0.00000000000E+00 0. -1.
         11    1    1    2    0    0 -0.16372703179E+02 -0.38633367565E+02 -0.74251587457E+01  0.42611447772E+02  0.00000000000E+00 0.  1.
<mgrwt>
<rscale>  0 0.13374349E+03</rscale>
<asrwt>0</asrwt>
<pdfrwt beam="1">  1        2 0.28339187E+00 0.14843452E+03</pdfrwt>
<pdfrwt beam="2">  1       -2 0.44552437E-02 0.14843452E+03</pdfrwt>
<totfact> 0.21111298E+03</totfact>
</mgrwt>
</event>
<event>
 6    1  0.6101889E-006  0.1570412E+03  0.7546771E-02  0.1200104E+00
          1   -1    0    0  501    0  0.00000000000E+00  0.00000000000E+00  0.83821381836E+02  0.83821381836E+02  0.00000000000E+00 0. -1.
         -1   -1    0    0    0  501 -0.00000000000E+00 -0.00000000000E+00 -0.26467839876E+03  0.26467839876E+03  0.00000000000E+00 0.  1.
          5    1    1    2  502    0 -0.88681790662E+02 -0.63928344905E+02 -0.19085222834E+02  0.11107488018E+03  0.47000000000E+01 0.  1.
         -5    1    1    2    0  502  0.38221409836E+02 -0.16631142838E+02 -0.36218407066E+02  0.55419618299E+02  0.47000000000E+01 0.  1.
        -11    1    1    2    0    0 -0.25036257121E+02  0.12337993763E+02 -0.41560812720E+02  0.50063373984E+02  0.00000000000E+00 0. -1.
         11    1    1    2    0    0  0.75496637947E+02  0.68221493980E+02 -0.83992574300E+02  0.13194190812E+03  0.00000000000E+00 0.  1.
<mgrwt>
<rscale>  0 0.15030068E+03</rscale>
<asrwt>0</asrwt>
<pdfrwt beam="1">  1        1 0.12895597E-01 0.15704116E+03</pdfrwt>
<pdfrwt beam="2">  1       -1 0.40719753E-01 0.15704116E+03</pdfrwt>
<totfact> 0.26537619E+03</totfact>
</mgrwt>
</event>
<event>
 6    1  0.6101889E-006  0.1830700E+03  0.7546771E-02  0.1170152E+00
          2   -1    0    0  501    0  0.00000000000E+00  0.00000000000E+00  0.30063695213E+04  0.30063695213E+04  0.00000000000E+00 0. -1.
         -2   -1    0    0    0  501 -0.00000000000E+00 -0.00000000000E+00 -0.15119640820E+02  0.15119640820E+02  0.00000000000E+00 0.  1.
          5    1    1    2  502    0  0.78143951556E+02 -0.60036033288E+02  0.14742824556E+04  0.14775796599E+04  0.47000000000E+01 0.  1.
         -5    1    1    2    0  502  0.55596471042E+02  0.61471894934E+02  0.96661077860E+03  0.97016918564E+03  0.47000000000E+01 0.  1.
        -11    1    1    2    0    0 -0.36659797242E+02 -0.14389496344E+02  0.48793587051E+02  0.62704166338E+02  0.00000000000E+00 0.  1.
         11    1    1    2    0    0 -0.97080625356E+02  0.12953634697E+02  0.50156305921E+03  0.51103615023E+03  0.00000000000E+00 0. -1.
<mgrwt>
<rscale>  0 0.17759366E+03</rscale>
<asrwt>0</asrwt>
<pdfrwt beam="1">  1        2 0.46251791E+00 0.18307001E+03</pdfrwt>
<pdfrwt beam="2">  1       -2 0.23261010E-02 0.18307001E+03</pdfrwt>
<totfact> 0.12988120E+03</totfact>
</mgrwt>
</event>
<event>
 6    1  0.6101889E-006  0.2363125E+03  0.7546771E-02  0.1124942E+00
          2   -1    0    0  501    0  0.00000000000E+00  0.00000000000E+00  0.29758349581E+03  0.29758349581E+03  0.00000000000E+00 0. -1.
         -2   -1    0    0    0  501 -0.00000000000E+00 -0.00000000000E+00 -0.21712833253E+03  0.21712833253E+03  0.00000000000E+00 0.  1.
          5    1    1    2  502    0 -0.13816277838E+03  0.13132241653E+03  0.17390438937E+03  0.25806851233E+03  0.47000000000E+01 0. -1.
         -5    1    1    2    0  502 -0.10799906851E+02  0.29463044730E+01 -0.20389130159E+02  0.23730261833E+02  0.47000000000E+01 0. -1.
        -11    1    1    2    0    0  0.21646113052E+02 -0.67376340793E+02 -0.51415231041E+02  0.87473718864E+02  0.00000000000E+00 0.  1.
         11    1    1    2    0    0  0.12731657217E+03 -0.66892380214E+02 -0.21644864887E+02  0.14543933532E+03  0.00000000000E+00 0. -1.
<mgrwt>
<rscale>  0 0.23242914E+03</rscale>
<asrwt>0</asrwt>
<pdfrwt beam="1">  1        2 0.45782076E-01 0.23631254E+03</pdfrwt>
<pdfrwt beam="2">  1       -2 0.33404359E-01 0.23631254E+03</pdfrwt>
<totfact> 0.92477263E+02</totfact>
</mgrwt>
</event>
<event>
 6    1  0.6101889E-006  0.1332367E+03  0.7546771E-02  0.1235348E+00
          3   -1    0    0  501    0  0.00000000000E+00  0.00000000000E+00  0.36804093793E+03  0.36804093793E+03  0.00000000000E+00 0. -1.
         -3   -1    0    0    0  501 -0.00000000000E+00 -0.00000000000E+00 -0.81117641764E+02  0.81117641764E+02  0.00000000000E+00 0.  1.
          5    1    1    2  502    0 -0.35798666185E+02  0.34443779466E+02  0.76726507656E+02  0.91525763705E+02  0.47000000000E+01 0.  1.
         -5    1    1    2    0  502  0.76244648926E+02 -0.11309692887E+02  0.23889217247E+03  0.25106317076E+03  0.47000000000E+01 0.  1.
        -11    1    1    2    0    0 -0.23551228763E+02 -0.46634530900E+02  0.14822277205E+02  0.54305982636E+02  0.00000000000E+00 0. -1.
         11    1    1    2    0    0 -0.16894753978E+02  0.23500444321E+02 -0.43517661162E+02  0.52263662599E+02  0.00000000000E+00 0.  1.
<mgrwt>
<rscale>  0 0.12482179E+03</rscale>
<asrwt>0</asrwt>
<pdfrwt beam="1">  1        3 0.56621682E-01 0.13323673E+03</pdfrwt>
<pdfrwt beam="2">  1       -3 0.12479637E-01 0.13323673E+03</pdfrwt>
<totfact> 0.36617294E+02</totfact>
</mgrwt>
</event>
<event>
 6    1  0.6101889E-006  0.1437107E+03  0.7546771E-02  0.1218588E+00
         -1   -1    0    0    0  501 -0.00000000000E+00  0.00000000000E+00  0.36635005167E+02  0.36635005167E+02  0.00000000000E+00 0.  1.
          1   -1    0    0  501    0  0.00000000000E+00 -0.00000000000E+00 -0.78245703115E+03  0.78245703115E+03  0.00000000000E+00 0. -1.
          5    1    1    2  502    0  0.39073862169E+01 -0.72167286490E+02 -0.64020770492E+03  0.64429137845E+03  0.47000000000E+01 0. -1.
         -5    1    1    2    0  502 -0.22675272796E+02  0.37917221102E+01 -0.18417372252E+02  0.29830098116E+02  0.47000000000E+01 0. -1.
        -11    1    1    2    0    0  0.44556371902E+02  0.76703488269E+02 -0.67581927170E+02  0.11151686989E+03  0.00000000000E+00 0.  1.
         11    1    1    2    0    0 -0.25788485323E+02 -0.83279238899E+01 -0.19615021645E+02  0.33453689867E+02  0.00000000000E+00 0. -1.
<mgrwt>
<rscale>  0 0.13616273E+03</rscale>
<asrwt>0</asrwt>
<pdfrwt beam="2">  1        1 0.12037799E+00 0.14371073E+03</pdfrwt>
<pdfrwt beam="1">  1       -1 0.56361553E-02 0.14371073E+03</pdfrwt>
<totfact> 0.34321275E+03</totfact>
</mgrwt>
</event>
<event>
 6    1  0.6101889E-006  0.2532441E+03  0.7546771E-02  0.1111272E+00
         -1   -1    0    0    0  501 -0.00000000000E+00  0.00000000000E+00  0.39110748627E+02  0.39110748627E+02  0.00000000000E+00 0.  1.
          1   -1    0    0  501    0  0.00000000000E+00 -0.00000000000E+00 -0.40994217082E+03  0.40994217082E+03  0.00000000000E+00 0. -1.
          5    1    1    2  502    0 -0.31631235792E+02  0.61887401461E+02 -0.61955391166E+02  0.93226316198E+02  0.47000000000E+01 0. -1.
         -5    1    1    2    0  502 -0.20478606568E+01 -0.18950930343E+02 -0.21098022269E+03  0.21189166066E+03  0.47000000000E+01 0. -1.
        -11    1    1    2    0    0  0.44693565918E+02  0.16532382866E+01 -0.11642033471E+02  0.46214553710E+02  0.00000000000E+00 0.  1.
         11    1    1    2    0    0 -0.11014469470E+02 -0.44589709405E+02 -0.86253774870E+02  0.97720388875E+02  0.00000000000E+00 0. -1.
<mgrwt>
<rscale>  0 0.25324411E+03</rscale>
<asrwt>0</asrwt>
<pdfrwt beam="2">  1        1 0.63068029E-01 0.25324411E+03</pdfrwt>
<pdfrwt beam="1">  1       -1 0.60170380E-02 0.25324411E+03</pdfrwt>
<totfact> 0.77273567E+03</totfact>
</mgrwt>
</event>
<event>
 6    1  0.6101889E-006  0.1485574E+03  0.7546771E-02  0.1215203E+00
          1   -1    0    0  501    0  0.00000000000E+00  0.00000000000E+00  0.31244003906E+03  0.31244003906E+03  0.00000000000E+00 0. -1.
         -1   -1    0    0    0  501 -0.00000000000E+00 -0.00000000000E+00 -0.54601173968E+02  0.54601173968E+02  0.00000000000E+00 0.  1.
          5    1    1    2  502    0 -0.53786019113E+02  0.31040563361E+02  0.43164925210E+02  0.75774357102E+02  0.47000000000E+01 0. -1.
         -5    1    1    2    0  502  0.13559782328E+02 -0.82708736000E+02  0.99676462238E+02  0.13031534764E+03  0.47000000000E+01 0.  1.
        -11    1    1    2    0    0 -0.11557522237E+02  0.16490356240E+02  0.92127520882E+02  0.94302641920E+02  0.00000000000E+00 0. -1.
         11    1    1    2    0    0  0.51783759021E+02  0.35177816399E+02  0.22869956760E+02  0.66648866361E+02  0.00000000000E+00 0.  1.
<mgrwt>
<rscale>  0 0.13861646E+03</rscale>
<asrwt>0</asrwt>
<pdfrwt beam="1">  1        1 0.48067697E-01 0.14855741E+03</pdfrwt>
<pdfrwt beam="2">  1       -1 0.84001808E-02 0.14855741E+03</pdfrwt>
<totfact> 0.63790260E+03</totfact>
</mgrwt>
</event>
<event>
 6    1  0.6101889E-006  0.1678803E+03  0.7546771E-02  0.1186148E+00
          1   -1    0    0  501    0  0.00000000000E+00  0.00000000000E+00  0.77969018311E+03  0.77969018311E+03  0.00000000000E+00 0. -1.
         -1   -1    0    0    0  501 -0.00000000000E+00 -0.00000000000E+00 -0.31896911624E+02  0.31896911624E+02  0.00000000000E+00 0.  1.
          5    1    1    2  502    0 -0.32710622750E+02 -0.34572112254E+02  0.19498525642E+03  0.20076492723E+03  0.47000000000E+01 0.  1.
         -5    1    1    2    0  502 -0.61860786752E+02  0.94698073956E+02  0.23553970633E+03  0.26133412599E+03  0.47000000000E+01 0.  1.
        -11    1    1    2    0    0  0.10126188124E+03 -0.47964573578E+02  0.31631650751E+03  0.33557518060E+03  0.00000000000E+00 0. -1.
         11    1    1    2    0    0 -0.66904717390E+01 -0.12161388124E+02  0.95180122686E+00  0.13912860912E+02  0.00000000000E+00 0.  1.
<mgrwt>
<rscale>  0 0.16227848E+03</rscale>
<asrwt>0</asrwt>
<pdfrwt beam="1">  1        1 0.11995232E+00 0.16788029E+03</pdfrwt>
<pdfrwt beam="2">  1       -1 0.49072178E-02 0.16788029E+03</pdfrwt>
<totfact> 0.42628496E+03</totfact>
</mgrwt>
</event>
<event>
 6    1  0.6101889E-006  0.2849037E+03  0.7546771E-02  0.1093040E+00
         -2   -1    0    0    0  501 -0.00000000000E+00  0.00000000000E+00  0.31601127656E+02  0.31601127656E+02  0.00000000000E+00 0.  1.
          2   -1    0    0  501    0  0.00000000000E+00 -0.00000000000E+00 -0.64214556332E+03  0.64214556332E+03  0.00000000000E+00 0. -1.
          5    1    1    2  502    0  0.10266139235E+03 -0.34900782278E+02 -0.25891702710E+03  0.28074462240E+03  0.47000000000E+01 0. -1.
         -5    1    1    2    0  502 -0.10791443886E+02  0.44969711582E+02 -0.92596742946E+02  0.10360973422E+03  0.47000000000E+01 0. -1.
        -11    1    1    2    0    0 -0.35138159375E+02 -0.48463466245E+02 -0.13563049143E+03  0.14825325632E+03  0.00000000000E+00 0.  1.
         11    1    1    2    0    0 -0.56731789085E+02  0.38394536942E+02 -0.12340017418E+03  0.14113907803E+03  0.00000000000E+00 0. -1.
<mgrwt>
<rscale>  0 0.28490366E+03</rscale>
<asrwt>0</asrwt>
<pdfrwt beam="2">  1        2 0.98791623E-01 0.28490366E+03</pdfrwt>
<pdfrwt beam="1">  1       -2 0.48617121E-02 0.28490366E+03</pdfrwt>
<totfact> 0.94894360E+03</totfact>
</mgrwt>
</event>
<event>
 6    1  0.1250401E-005  0.2654010E+03  0.7546771E-02  0.1106141E+00
          1   -1    0    0  501    0  0.00000000000E+00  0.00000000000E+00  0.10515473466E+03  0.10515473466E+03  0.00000000000E+00 0. -1.
         -1   -1    0    0    0  501 -0.00000000000E+00 -0.00000000000E+00 -0.64583765907E+03  0.64583765907E+03  0.00000000000E+00 0.  1.
          5    1    1    2  502    0  0.40090594571E+02 -0.23370406662E+02 -0.12778636316E+03  0.13603262951E+03  0.47000000000E+01 0. -1.
         -5    1    1    2    0  502  0.17834301617E+03 -0.60888570306E+02 -0.98236713406E+02  0.21257043838E+03  0.47000000000E+01 0. -1.
        -11    1    1    2    0    0 -0.85026885519E+02  0.58707566611E+02 -0.19799284475E+03  0.22333229997E+03  0.00000000000E+00 0.  1.
         11    1    1    2    0    0 -0.13340672522E+03  0.25551410356E+02 -0.11666700309E+03  0.17905702588E+03  0.00000000000E+00 0. -1.
<mgrwt>
<rscale>  0 0.26167587E+03</rscale>
<asrwt>0</asrwt>
<pdfrwt beam="1">  1        1 0.16177651E-01 0.26540096E+03</pdfrwt>
<pdfrwt beam="2">  1       -1 0.99359641E-01 0.26540096E+03</pdfrwt>
<totfact> 0.34582669E+02</totfact>
</mgrwt>
</event>
<event>
 6    1  0.6101889E-006  0.1395100E+03  0.7546771E-02  0.1232936E+00
          4   -1    0    0  501    0  0.00000000000E+00  0.00000000000E+00  0.16617326341E+03  0.16617326341E+03  0.00000000000E+00 0. -1.
         -4   -1    0    0    0  501 -0.00000000000E+00 -0.00000000000E+00 -0.83701709993E+02  0.83701709993E+02  0.00000000000E+00 0.  1.
          5    1    1    2  502    0 -0.40574851950E+02 -0.44031615610E+02  0.71631575158E+01  0.60485557033E+02  0.47000000000E+01 0. -1.
         -5    1    1    2    0  502  0.57182662062E+02  0.45043463698E+02  0.59499498648E+02  0.94133154636E+02  0.47000000000E+01 0.  1.
        -11    1    1    2    0    0 -0.88389532291E+01  0.32958027470E+02 -0.24474371172E+02  0.41992303023E+02  0.00000000000E+00 0.  1.
         11    1    1    2    0    0 -0.77688568832E+01 -0.33969875558E+02  0.40283268430E+02  0.53263958716E+02  0.00000000000E+00 0. -1.
<mgrwt>
<rscale>  0 0.12637499E+03</rscale>
<asrwt>0</asrwt>
<pdfrwt beam="1">  1        4 0.25565117E-01 0.13950999E+03</pdfrwt>
<pdfrwt beam="2">  1       -4 0.12877186E-01 0.13950999E+03</pdfrwt>
<totfact> 0.11726189E+03</totfact>
</mgrwt>
</event>
<event>
 6    1  0.6101889E-006  0.1394331E+03  0.7546771E-02  0.1225711E+00
          2   -1    0    0  501    0  0.00000000000E+00  0.00000000000E+00  0.13131579594E+04  0.13131579594E+04  0.00000000000E+00 0. -1.
         -2   -1    0    0    0  501 -0.00000000000E+00 -0.00000000000E+00 -0.15885535997E+02  0.15885535997E+02  0.00000000000E+00 0.  1.
          5    1    1    2  502    0  0.37536167608E+01  0.35601276420E+02  0.80868050869E+03  0.80948613061E+03  0.47000000000E+01 0. -1.
         -5    1    1    2    0  502 -0.61855121179E+02 -0.14049967375E+02  0.23454930331E+03  0.24302041742E+03  0.47000000000E+01 0. -1.
        -11    1    1    2    0    0 -0.20647447757E+02 -0.22435676064E+02  0.69977913749E+02  0.76332071058E+02  0.00000000000E+00 0. -1.
         11    1    1    2    0    0  0.78748952176E+02  0.88436701942E+00  0.18406469765E+03  0.20020487630E+03  0.00000000000E+00 0.  1.
<mgrwt>
<rscale>  0 0.13118295E+03</rscale>
<asrwt>0</asrwt>
<pdfrwt beam="1">  1        2 0.20202422E+00 0.13943311E+03</pdfrwt>
<pdfrwt beam="2">  1       -2 0.24439296E-02 0.13943311E+03</pdfrwt>
<totfact> 0.96493639E+03</totfact>
</mgrwt>
</event>
<event>
 6    1  0.6101889E-006  0.1441980E+03  0.7546771E-02  0.1218048E+00
         -2   -1    0    0    0  501 -0.00000000000E+00  0.00000000000E+00  0.38674737439E+02  0.38674737439E+02  0.00000000000E+00 0.  1.
          2   -1    0    0  501    0  0.00000000000E+00 -0.00000000000E+00 -0.46084080573E+03  0.46084080573E+03  0.00000000000E+00 0. -1.
          5    1    1    2  502    0 -0.87191510527E+02 -0.51973460990E+02 -0.25558026361E+03  0.27503992674E+03  0.47000000000E+01 0.  1.
         -5    1    1    2    0  502  0.33746806393E+02  0.38928883639E+01 -0.33157393725E+02  0.47702246071E+02  0.47000000000E+01 0.  1.
        -11    1    1    2    0    0 -0.11437263585E+02  0.36022960829E+02 -0.13961782363E+02  0.40291389551E+02  0.00000000000E+00 0.  1.
         11    1    1    2    0    0  0.64881967719E+02  0.12057611798E+02 -0.11946662859E+03  0.13648198081E+03  0.00000000000E+00 0. -1.
<mgrwt>
<rscale>  0 0.13655021E+03</rscale>
<asrwt>0</asrwt>
<pdfrwt beam="2">  1        2 0.70898585E-01 0.14419804E+03</pdfrwt>
<pdfrwt beam="1">  1       -2 0.59499597E-02 0.14419804E+03</pdfrwt>
<totfact> 0.97745872E+03</totfact>
</mgrwt>
</event>
<event>
 6    1  0.6101889E-006  0.1305453E+03  0.7546771E-02  0.1241339E+00
          2   -1    0    0  501    0  0.00000000000E+00  0.00000000000E+00  0.10616526291E+04  0.10616526291E+04  0.00000000000E+00 0. -1.
         -2   -1    0    0    0  501 -0.00000000000E+00 -0.00000000000E+00 -0.18831084611E+02  0.18831084611E+02  0.00000000000E+00 0.  1.
          5    1    1    2  502    0 -0.24222707145E+02  0.75152871288E+02  0.57784113167E+03  0.58322993498E+03  0.47000000000E+01 0.  1.
         -5    1    1    2    0  502  0.33046858954E+02 -0.38548882279E+02  0.31338257217E+03  0.31750407517E+03  0.47000000000E+01 0.  1.
        -11    1    1    2    0    0 -0.39596296745E+02 -0.36588360098E+00  0.10880299885E+03  0.11578468442E+03  0.00000000000E+00 0. -1.
         11    1    1    2    0    0  0.30772144935E+02 -0.36238105408E+02  0.42794841754E+02  0.63965019098E+02  0.00000000000E+00 0.  1.
<mgrwt>
<rscale>  0 0.12107228E+03</rscale>
<asrwt>0</asrwt>
<pdfrwt beam="1">  1        2 0.16333113E+00 0.13054527E+03</pdfrwt>
<pdfrwt beam="2">  1       -2 0.28970908E-02 0.13054527E+03</pdfrwt>
<totfact> 0.10349866E+04</totfact>
</mgrwt>
</event>
<event>
 6    1  0.6101889E-006  0.1684793E+03  0.7546771E-02  0.1186251E+00
         -2   -1    0    0    0  501 -0.00000000000E+00  0.00000000000E+00  0.14298541978E+03  0.14298541978E+03  0.00000000000E+00 0. -1.
          2   -1    0    0  501    0  0.00000000000E+00 -0.00000000000E+00 -0.17153805492E+03  0.17153805492E+03  0.00000000000E+00 0.  1.
          5    1    1    2  502    0  0.50228203525E+02 -0.68037240465E+01  0.38698164643E+02  0.63943733368E+02  0.47000000000E+01 0. -1.
         -5    1    1    2    0  502  0.53049289692E+01 -0.91568137953E+02 -0.50834965729E+02  0.10497213869E+03  0.47000000000E+01 0. -1.
        -11    1    1    2    0    0  0.76784955968E+01  0.38314014725E+02  0.27691629779E+02  0.47893103666E+02  0.00000000000E+00 0. -1.
         11    1    1    2    0    0 -0.63211628091E+02  0.60057847275E+02 -0.44107463838E+02  0.97714498983E+02  0.00000000000E+00 0.  1.
<mgrwt>
<rscale>  0 0.16218529E+03</rscale>
<asrwt>0</asrwt>
<pdfrwt beam="2">  1        2 0.26390470E-01 0.16847929E+03</pdfrwt>
<pdfrwt beam="1">  1       -2 0.21997757E-01 0.16847929E+03</pdfrwt>
<totfact> 0.35084204E+03</totfact>
</mgrwt>
</event>
<event>
 6    1  0.6101889E-006  0.1290738E+03  0.7546771E-02  0.1243115E+00
          3   -1    0    0  501    0  0.00000000000E+00  0.00000000000E+00  0.93427529081E+02  0.93427529081E+02  0.00000000000E+00 0. -1.
         -3   -1    0    0    0  501 -0.00000000000E+00 -0.00000000000E+00 -0.16410733297E+03  0.16410733297E+03  0.00000000000E+00 0.  1.
          5    1    1    2  502    0 -0.42248174881E+02 -0.63516250604E+02 -0.92702977059E+01  0.76988640663E+02  0.47000000000E+01 0. -1.
         -5    1    1    2    0  502  0.34822518225E+02  0.32302815107E+02  0.22480772762E+02  0.52759404691E+02  0.47000000000E+01 0. -1.
        -11    1    1    2    0    0 -0.12856814317E+02  0.52513652963E+02 -0.20346968794E+02  0.57766604201E+02  0.00000000000E+00 0. -1.
         11    1    1    2    0    0  0.20282470973E+02 -0.21300217466E+02 -0.63543310150E+02  0.70020212494E+02  0.00000000000E+00 0.  1.
<mgrwt>
<rscale>  0 0.11998902E+03</rscale>
<asrwt>0</asrwt>
<pdfrwt beam="1">  1        3 0.14373466E-01 0.12907377E+03</pdfrwt>
<pdfrwt beam="2">  1       -3 0.25247282E-01 0.12907377E+03</pdfrwt>
<totfact> 0.13445233E+03</totfact>
</mgrwt>
</event>
<event>
 6    1  0.6101889E-006  0.1901325E+03  0.7546771E-02  0.1187802E+00
         -2   -1    0    0    0  501 -0.00000000000E+00  0.00000000000E+00  0.25194773055E+03  0.25194773055E+03  0.00000000000E+00 0.  1.
          2   -1    0    0  501    0  0.00000000000E+00 -0.00000000000E+00 -0.10321147088E+03  0.10321147088E+03  0.00000000000E+00 0. -1.
          5    1    1    2  502    0  0.57018984231E+02  0.32255856907E+01 -0.70863128673E+02  0.91133100304E+02  0.47000000000E+01 0. -1.
         -5    1    1    2    0  502 -0.43565100863E+02 -0.20634615500E+02  0.87139308402E+02  0.99694806478E+02  0.47000000000E+01 0.  1.
        -11    1    1    2    0    0 -0.31613780743E+02 -0.14706469464E+02  0.97641983764E+01  0.36208437509E+02  0.00000000000E+00 0.  1.
         11    1    1    2    0    0  0.18159897375E+02  0.32115499273E+02  0.12269588157E+03  0.12812285713E+03  0.00000000000E+00 0. -1.
<mgrwt>
<rscale>  0 0.16079537E+03</rscale>
<asrwt>0</asrwt>
<pdfrwt beam="2">  1        2 0.15878688E-01 0.19013252E+03</pdfrwt>
<pdfrwt beam="1">  1       -2 0.38761189E-01 0.19013252E+03</pdfrwt>
<totfact> 0.22643874E+03</totfact>
</mgrwt>
</event>
<event>
 6    1  0.6101889E-006  0.1382721E+03  0.7546771E-02  0.1227200E+00
          2   -1    0    0  501    0  0.00000000000E+00  0.00000000000E+00  0.12321129551E+03  0.12321129551E+03  0.00000000000E+00 0. -1.
         -2   -1    0    0    0  501 -0.00000000000E+00 -0.00000000000E+00 -0.15647892911E+03  0.15647892911E+03  0.00000000000E+00 0.  1.
          5    1    1    2  502    0  0.94433678747E+02 -0.14411142374E+02  0.33058783204E+02  0.10119473234E+03  0.47000000000E+01 0.  1.
         -5    1    1    2    0  502 -0.35878748832E+02  0.22461147673E+02  0.12393706649E+02  0.44356304366E+02  0.47000000000E+01 0.  1.
        -11    1    1    2    0    0 -0.66023243641E+02 -0.35731928029E+02 -0.73372363023E+02  0.10497305863E+03  0.00000000000E+00 0. -1.
         11    1    1    2    0    0  0.74683137269E+01  0.27681922730E+02 -0.53477604317E+01  0.29166129287E+02  0.00000000000E+00 0.  1.
<mgrwt>
<rscale>  0 0.13017270E+03</rscale>
<asrwt>0</asrwt>
<pdfrwt beam="1">  1        2 0.18955584E-01 0.13827211E+03</pdfrwt>
<pdfrwt beam="2">  1       -2 0.24073681E-01 0.13827211E+03</pdfrwt>
<totfact> 0.43019844E+03</totfact>
</mgrwt>
</event>
<event>
 6    1  0.6101889E-006  0.1679042E+03  0.7546771E-02  0.1186805E+00
         -1   -1    0    0    0  501 -0.00000000000E+00  0.00000000000E+00  0.14726195362E+03  0.14726195362E+03  0.00000000000E+00 0.  1.
          1   -1    0    0  501    0  0.00000000000E+00 -0.00000000000E+00 -0.18150991761E+03  0.18150991761E+03  0.00000000000E+00 0. -1.
          5    1    1    2  502    0  0.29354442635E+02  0.85963509563E+02  0.13861031183E+02  0.92008839055E+02  0.47000000000E+01 0.  1.
         -5    1    1    2    0  502 -0.25484208769E+02  0.26069958981E+02 -0.80760377312E+02  0.88732272604E+02  0.47000000000E+01 0.  1.
        -11    1    1    2    0    0 -0.32718510648E+02 -0.96831175908E+02  0.46192209713E+00  0.10221052264E+03  0.00000000000E+00 0. -1.
         11    1    1    2    0    0  0.28848276782E+02 -0.15202292637E+02  0.32189460041E+02  0.45820236931E+02  0.00000000000E+00 0.  1.
<mgrwt>
<rscale>  0 0.16168757E+03</rscale>
<asrwt>0</asrwt>
<pdfrwt beam="2">  1        1 0.27924603E-01 0.16790422E+03</pdfrwt>
<pdfrwt beam="1">  1       -1 0.22655685E-01 0.16790422E+03</pdfrwt>
<totfact> 0.26656499E+03</totfact>
</mgrwt>
</event>
<event>
 6    1  0.6101889E-006  0.1686172E+03  0.7546771E-02  0.1185626E+00
         -1   -1    0    0    0  501 -0.00000000000E+00  0.00000000000E+00  0.37029683558E+02  0.37029683558E+02  0.00000000000E+00 0.  1.
          1   -1    0    0  501    0  0.00000000000E+00 -0.00000000000E+00 -0.70432108788E+03  0.70432108788E+03  0.00000000000E+00 0. -1.
          5    1    1    2  502    0 -0.19749003365E+02 -0.41258544277E+02 -0.92519800879E+02  0.10331647577E+03  0.47000000000E+01 0. -1.
         -5    1    1    2    0  502  0.12032637386E+03 -0.10618482859E+02 -0.34548381352E+03  0.36602232695E+03  0.47000000000E+01 0. -1.
        -11    1    1    2    0    0 -0.60209903594E+02  0.53610180886E+02 -0.67166233803E+02  0.10493134398E+03  0.00000000000E+00 0.  1.
         11    1    1    2    0    0 -0.40367466900E+02 -0.17331537501E+01 -0.16212155612E+03  0.16708062474E+03  0.00000000000E+00 0. -1.
<mgrwt>
<rscale>  0 0.16275065E+03</rscale>
<asrwt>0</asrwt>
<pdfrwt beam="2">  1        1 0.10835709E+00 0.16861716E+03</pdfrwt>
<pdfrwt beam="1">  1       -1 0.56968743E-02 0.16861716E+03</pdfrwt>
<totfact> 0.39643585E+03</totfact>
</mgrwt>
</event>
<event>
 6    1  0.6101889E-006  0.1155668E+03  0.7546771E-02  0.1261551E+00
          1   -1    0    0  501    0  0.00000000000E+00  0.00000000000E+00  0.12079429481E+04  0.12079429481E+04  0.00000000000E+00 0. -1.
         -1   -1    0    0    0  501 -0.00000000000E+00 -0.00000000000E+00 -0.14731849131E+03  0.14731849131E+03  0.00000000000E+00 0.  1.
          5    1    1    2  502    0 -0.21252818234E+02  0.46404205735E+02  0.95962494700E+03  0.96099279992E+03  0.47000000000E+01 0. -1.
         -5    1    1    2    0  502  0.14401574257E+02 -0.41697773770E+02  0.23054207318E+03  0.23477190459E+03  0.47000000000E+01 0.  1.
        -11    1    1    2    0    0  0.26957443311E+02  0.35061430054E+02 -0.88401412042E+02  0.98847444471E+02  0.00000000000E+00 0.  1.
         11    1    1    2    0    0 -0.20106199335E+02 -0.39767862019E+02 -0.41141151321E+02  0.60649290460E+02  0.00000000000E+00 0. -1.
<mgrwt>
<rscale>  0 0.10947165E+03</rscale>
<asrwt>0</asrwt>
<pdfrwt beam="1">  1        1 0.18583737E+00 0.11556683E+03</pdfrwt>
<pdfrwt beam="2">  1       -1 0.22664384E-01 0.11556683E+03</pdfrwt>
<totfact> 0.19512960E+02</totfact>
</mgrwt>
</event>
<event>
 6    1  0.6101889E-006  0.1349098E+03  0.7546771E-02  0.1233050E+00
          1   -1    0    0  501    0  0.00000000000E+00  0.00000000000E+00  0.64436004688E+03  0.64436004688E+03  0.00000000000E+00 0. -1.
         -1   -1    0    0    0  501 -0.00000000000E+00 -0.00000000000E+00 -0.30348040286E+02  0.30348040286E+02  0.00000000000E+00 0.  1.
          5    1    1    2  502    0 -0.62619960311E+02  0.42167243563E+02  0.16747724327E+03  0.18376629961E+03  0.47000000000E+01 0.  1.
         -5    1    1    2    0  502  0.15171557387E+02 -0.24107773779E+02  0.34382320680E+03  0.34503311210E+03  0.47000000000E+01 0.  1.
        -11    1    1    2    0    0 -0.17929831604E+02  0.14688677609E+02  0.47397764093E+01  0.23658013265E+02  0.00000000000E+00 0.  1.
         11    1    1    2    0    0  0.65378234528E+02 -0.32748147393E+02  0.97971780117E+02  0.12225066219E+03  0.00000000000E+00 0. -1.
<mgrwt>
<rscale>  0 0.12630096E+03</rscale>
<asrwt>0</asrwt>
<pdfrwt beam="1">  1        1 0.99132304E-01 0.13490985E+03</pdfrwt>
<pdfrwt beam="2">  1       -1 0.46689298E-02 0.13490985E+03</pdfrwt>
<totfact> 0.59831838E+03</totfact>
</mgrwt>
</event>
<event>
 6    1  0.6101889E-006  0.1546929E+03  0.7546771E-02  0.1203350E+00
         -4   -1    0    0    0  501 -0.00000000000E+00  0.00000000000E+00  0.12456256150E+03  0.12456256150E+03  0.00000000000E+00 0.  1.
          4   -1    0    0  501    0  0.00000000000E+00 -0.00000000000E+00 -0.20410529094E+03  0.20410529094E+03  0.00000000000E+00 0. -1.
          5    1    1    2  502    0 -0.89074475428E+02  0.12376383899E+02 -0.30107800528E+02  0.94952655064E+02  0.47000000000E+01 0. -1.
         -5    1    1    2    0  502  0.45343187764E+01 -0.46427792839E+02 -0.87865890159E+02  0.99592191703E+02  0.47000000000E+01 0. -1.
        -11    1    1    2    0    0  0.55051163243E+02  0.35425080208E+02  0.66551417461E+02  0.93352332849E+02  0.00000000000E+00 0.  1.
         11    1    1    2    0    0  0.29488993408E+02 -0.13736712686E+01 -0.28120456215E+02  0.40770672827E+02  0.00000000000E+00 0. -1.
<mgrwt>
<rscale>  0 0.14768214E+03</rscale>
<asrwt>0</asrwt>
<pdfrwt beam="2">  1        4 0.31400814E-01 0.15469294E+03</pdfrwt>
<pdfrwt beam="1">  1       -4 0.19163471E-01 0.15469294E+03</pdfrwt>
<totfact> 0.40431859E+02</totfact>
</mgrwt>
</event>
<event>
 6    1  0.6101889E-006  0.1399078E+03  0.7546771E-02  0.1224252E+00
          1   -1    0    0  501    0  0.00000000000E+00  0.00000000000E+00  0.23004926193E+03  0.23004926193E+03  0.00000000000E+00 0. -1.
         -1   -1    0    0    0  501 -0.00000000000E+00 -0.00000000000E+00 -0.85647995488E+02  0.85647995488E+02  0.00000000000E+00 0.  1.
          5    1    1    2  502    0 -0.45854803876E+02  0.42409416091E+02  0.14773946251E+03  0.16046887671E+03  0.47000000000E+01 0.  1.
         -5    1    1    2    0  502 -0.16946288863E+02 -0.39964579279E+02  0.91943909106E+00  0.43672413162E+02  0.47000000000E+01 0.  1.
        -11    1    1    2    0    0 -0.18446094717E+02  0.18313818907E+02 -0.91484553866E+01  0.27556280759E+02  0.00000000000E+00 0.  1.
         11    1    1    2    0    0  0.81247187455E+02 -0.20758655720E+02  0.48908202271E+01  0.83999686780E+02  0.00000000000E+00 0. -1.
<mgrwt>
<rscale>  0 0.13218298E+03</rscale>
<asrwt>0</asrwt>
<pdfrwt beam="1">  1        1 0.35392194E-01 0.13990782E+03</pdfrwt>
<pdfrwt beam="2">  1       -1 0.13176615E-01 0.13990782E+03</pdfrwt>
<totfact> 0.46572787E+03</totfact>
</mgrwt>
</event>
<event>
 6    1  0.6101889E-006  0.1266894E+03  0.7546771E-02  0.1247985E+00
          2   -1    0    0  501    0  0.00000000000E+00  0.00000000000E+00  0.15363520538E+03  0.15363520538E+03  0.00000000000E+00 0.  1.
         -2   -1    0    0    0  501 -0.00000000000E+00 -0.00000000000E+00 -0.84867010515E+02  0.84867010515E+02  0.00000000000E+00 0. -1.
          5    1    1    2  502    0 -0.14840029921E+02  0.58724863102E+02  0.23840546424E+02  0.65263295107E+02  0.47000000000E+01 0. -1.
         -5    1    1    2    0  502  0.34883583117E+02 -0.53900993264E+02  0.48724764718E+02  0.80736448663E+02  0.47000000000E+01 0. -1.
        -11    1    1    2    0    0  0.76368813347E+01  0.15218740319E+02 -0.39540205498E+02  0.43050666246E+02  0.00000000000E+00 0. -1.
         11    1    1    2    0    0 -0.27680434530E+02 -0.20042610157E+02  0.35743089224E+02  0.49451805882E+02  0.00000000000E+00 0.  1.
<mgrwt>
<rscale>  0 0.11708519E+03</rscale>
<asrwt>0</asrwt>
<pdfrwt beam="1">  1        2 0.23636185E-01 0.12668939E+03</pdfrwt>
<pdfrwt beam="2">  1       -2 0.13056463E-01 0.12668939E+03</pdfrwt>
<totfact> 0.92579497E+03</totfact>
</mgrwt>
</event>
<event>
 6    1  0.6101889E-006  0.1842324E+03  0.7546771E-02  0.1169163E+00
         -2   -1    0    0    0  501 -0.00000000000E+00  0.00000000000E+00  0.52238612112E+03  0.52238612112E+03  0.00000000000E+00 0.  1.
          2   -1    0    0  501    0  0.00000000000E+00 -0.00000000000E+00 -0.89261620030E+02  0.89261620030E+02  0.00000000000E+00 0. -1.
          5    1    1    2  502    0  0.98078836329E+02 -0.28084699804E+02  0.56212964006E+02  0.11657699525E+03  0.47000000000E+01 0. -1.
         -5    1    1    2    0  502  0.32533004193E+02  0.63536657701E+02 -0.12871893577E+02  0.72684791242E+02  0.47000000000E+01 0. -1.
        -11    1    1    2    0    0 -0.10613606876E+03 -0.64391283036E+02  0.31410095875E+03  0.33774326746E+03  0.00000000000E+00 0.  1.
         11    1    1    2    0    0 -0.24475771761E+02  0.28939325139E+02  0.75682471907E+02  0.84642687202E+02  0.00000000000E+00 0. -1.
<mgrwt>
<rscale>  0 0.17860217E+03</rscale>
<asrwt>0</asrwt>
<pdfrwt beam="2">  1        2 0.13732557E-01 0.18423240E+03</pdfrwt>
<pdfrwt beam="1">  1       -2 0.80367094E-01 0.18423240E+03</pdfrwt>
<totfact> 0.60724821E+02</totfact>
</mgrwt>
</event>
<event>
 6    1  0.6101889E-006  0.2429064E+03  0.7546771E-02  0.1120550E+00
          1   -1    0    0  501    0  0.00000000000E+00  0.00000000000E+00  0.64163089095E+02  0.64163089095E+02  0.00000000000E+00 0.  1.
         -1   -1    0    0    0  501 -0.00000000000E+00 -0.00000000000E+00 -0.87890229487E+03  0.87890229487E+03  0.00000000000E+00 0. -1.
          5    1    1    2  502    0 -0.24518119757E+02  0.81195893994E+02 -0.27535533571E+03  0.28816065363E+03  0.47000000000E+01 0. -1.
         -5    1    1    2    0  502  0.81032178289E+02  0.11927167440E+03 -0.21286347304E+03  0.25714761206E+03  0.47000000000E+01 0. -1.
        -11    1    1    2    0    0 -0.34857607818E+01 -0.32905769317E+02 -0.81213389032E+01  0.34071928742E+02  0.00000000000E+00 0.  1.
         11    1    1    2    0    0 -0.53028297750E+02 -0.16756179908E+03 -0.31839905813E+03  0.36368518954E+03  0.00000000000E+00 0. -1.
<mgrwt>
<rscale>  0 0.23886652E+03</rscale>
<asrwt>0</asrwt>
<pdfrwt beam="1">  1        1 0.98712449E-02 0.24290636E+03</pdfrwt>
<pdfrwt beam="2">  1       -1 0.13521573E+00 0.24290636E+03</pdfrwt>
<totfact> 0.32304716E+02</totfact>
</mgrwt>
</event>
<event>
 6    1  0.6101889E-006  0.2847613E+03  0.7546771E-02  0.1093116E+00
          1   -1    0    0  501    0  0.00000000000E+00  0.00000000000E+00  0.90753519691E+02  0.90753519691E+02  0.00000000000E+00 0. -1.
         -1   -1    0    0    0  501 -0.00000000000E+00 -0.00000000000E+00 -0.22337696599E+03  0.22337696599E+03  0.00000000000E+00 0.  1.
          5    1    1    2  502    0  0.47957539999E+02 -0.83924794501E+02  0.17278686393E+02  0.98305339521E+02  0.47000000000E+01 0. -1.
         -5    1    1    2    0  502 -0.27054745897E+02  0.11439817434E+01 -0.49252539286E+02  0.56401866955E+02  0.47000000000E+01 0. -1.
        -11    1    1    2    0    0  0.86850269099E+01  0.35421048352E+02 -0.96806781504E+02  0.10344869890E+03  0.00000000000E+00 0.  1.
         11    1    1    2    0    0 -0.29587821012E+02  0.47359764406E+02 -0.38428118981E+01  0.55974580303E+02  0.00000000000E+00 0. -1.
<mgrwt>
<rscale>  0 0.28476127E+03</rscale>
<asrwt>0</asrwt>
<pdfrwt beam="1">  1        1 0.13962080E-01 0.28476127E+03</pdfrwt>
<pdfrwt beam="2">  1       -1 0.34365687E-01 0.28476127E+03</pdfrwt>
<totfact> 0.32985803E+03</totfact>
</mgrwt>
</event>
<event>
 6    1  0.6101889E-006  0.5605880E+03  0.7546771E-02  0.9990725E-01
          1   -1    0    0  501    0  0.00000000000E+00  0.00000000000E+00  0.11344217419E+03  0.11344217419E+03  0.00000000000E+00 0. -1.
         -1   -1    0    0    0  501 -0.00000000000E+00 -0.00000000000E+00 -0.69255314782E+03  0.69255314782E+03  0.00000000000E+00 0.  1.
          5    1    1    2  502    0 -0.84614013745E+00 -0.31394028474E+02  0.50766763171E+02  0.59880340846E+02  0.47000000000E+01 0.  1.
         -5    1    1    2    0  502 -0.11459008058E+03 -0.12090875219E+01 -0.18985584865E+02  0.11625356293E+03  0.47000000000E+01 0.  1.
        -11    1    1    2    0    0  0.98718304573E+02 -0.17253712418E+02 -0.42667925586E+03  0.43829006563E+03  0.00000000000E+00 0.  1.
         11    1    1    2    0    0  0.16717916149E+02  0.49856828414E+02 -0.18421289607E+03  0.19157135260E+03  0.00000000000E+00 0. -1.
<mgrwt>
<rscale>  0 0.56058803E+03</rscale>
<asrwt>0</asrwt>
<pdfrwt beam="1">  1        1 0.17452642E-01 0.56058803E+03</pdfrwt>
<pdfrwt beam="2">  1       -1 0.10654664E+00 0.56058803E+03</pdfrwt>
<totfact> 0.26364790E+02</totfact>
</mgrwt>
</event>
<event>
 6    1  0.6101889E-006  0.4838674E+03  0.7546771E-02  0.1018078E+00
          1   -1    0    0  501    0  0.00000000000E+00  0.00000000000E+00  0.18632230084E+04  0.18632230084E+04  0.00000000000E+00 0. -1.
         -1   -1    0    0    0  501 -0.00000000000E+00 -0.00000000000E+00 -0.31414339849E+02  0.31414339849E+02  0.00000000000E+00 0.  1.
          5    1    1    2  502    0  0.29201306955E+02 -0.16047939172E+03  0.10263923987E+04  0.10392833096E+04  0.47000000000E+01 0. -1.
         -5    1    1    2    0  502 -0.48471090421E+02 -0.11267840786E+02  0.29054132863E+03  0.29480970894E+03  0.47000000000E+01 0. -1.
        -11    1    1    2    0    0 -0.19142937242E+01  0.71803386388E+02  0.57816930234E+02  0.92207311201E+02  0.00000000000E+00 0.  1.
         11    1    1    2    0    0  0.21184077190E+02  0.99943846120E+02  0.45705801099E+03  0.46833701852E+03  0.00000000000E+00 0. -1.
<mgrwt>
<rscale>  0 0.48386742E+03</rscale>
<asrwt>0</asrwt>
<pdfrwt beam="1">  1        1 0.28664961E+00 0.48386742E+03</pdfrwt>
<pdfrwt beam="2">  1       -1 0.48329768E-02 0.48386742E+03</pdfrwt>
<totfact> 0.75261290E+02</totfact>
</mgrwt>
</event>
<event>
 6    1  0.6101889E-006  0.1802143E+03  0.7546771E-02  0.1174924E+00
          2   -1    0    0  501    0  0.00000000000E+00  0.00000000000E+00  0.97832524004E+03  0.97832524004E+03  0.00000000000E+00 0. -1.
         -2   -1    0    0    0  501 -0.00000000000E+00 -0.00000000000E+00 -0.28297444296E+02  0.28297444296E+02  0.00000000000E+00 0.  1.
          5    1    1    2  502    0 -0.14009823891E+03  0.20286656943E+02  0.46002581786E+03  0.48133658504E+03  0.47000000000E+01 0. -1.
         -5    1    1    2    0  502  0.18221435165E+02  0.24438150077E+02  0.42398493725E+02  0.52430584098E+02  0.47000000000E+01 0. -1.
        -11    1    1    2    0    0  0.11935789955E+03 -0.13182931837E+02  0.33415692180E+03  0.35507878881E+03  0.00000000000E+00 0.  1.
         11    1    1    2    0    0  0.25189042025E+01 -0.31541875182E+02  0.11344656235E+03  0.11777672639E+03  0.00000000000E+00 0. -1.
<mgrwt>
<rscale>  0 0.17283416E+03</rscale>
<asrwt>0</asrwt>
<pdfrwt beam="1">  1        2 0.15051155E+00 0.18021432E+03</pdfrwt>
<pdfrwt beam="2">  1       -2 0.43534537E-02 0.18021432E+03</pdfrwt>
<totfact> 0.64366151E+03</totfact>
</mgrwt>
</event>
<event>
 6    1  0.6101889E-006  0.3728397E+03  0.7546771E-02  0.1053612E+00
          1   -1    0    0  501    0  0.00000000000E+00  0.00000000000E+00  0.10568052512E+04  0.10568052512E+04  0.00000000000E+00 0. -1.
         -1   -1    0    0    0  501 -0.00000000000E+00 -0.00000000000E+00 -0.32884362559E+02  0.32884362559E+02  0.00000000000E+00 0.  1.
          5    1    1    2  502    0 -0.93524421180E+01  0.20029258610E+02  0.27647525991E+03  0.27739736609E+03  0.47000000000E+01 0. -1.
         -5    1    1    2    0  502  0.11939835571E+03  0.80942331701E+02  0.34784421177E+03  0.37659701814E+03  0.47000000000E+01 0. -1.
        -11    1    1    2    0    0 -0.39873930159E+02 -0.40298584198E+02  0.55600377931E+02  0.79405970939E+02  0.00000000000E+00 0.  1.
         11    1    1    2    0    0 -0.70171983436E+02 -0.60673006113E+02  0.34400103901E+03  0.35628925857E+03  0.00000000000E+00 0. -1.
<mgrwt>
<rscale>  0 0.37283974E+03</rscale>
<asrwt>0</asrwt>
<pdfrwt beam="1">  1        1 0.16258540E+00 0.37283974E+03</pdfrwt>
<pdfrwt beam="2">  1       -1 0.50591335E-02 0.37283974E+03</pdfrwt>
<totfact> 0.25134360E+03</totfact>
</mgrwt>
</event>
<event>
 6    1  0.6101889E-006  0.1372416E+03  0.7546771E-02  0.1229656E+00
         -2   -1    0    0    0  501 -0.00000000000E+00  0.00000000000E+00  0.92546838047E+01  0.92546838047E+01  0.00000000000E+00 0.  1.
          2   -1    0    0  501    0  0.00000000000E+00 -0.00000000000E+00 -0.18847833845E+04  0.18847833845E+04  0.00000000000E+00 0. -1.
          5    1    1    2  502    0  0.46625538383E+02 -0.10895265790E+02 -0.10485936495E+04  0.10496968036E+04  0.47000000000E+01 0. -1.
         -5    1    1    2    0  502 -0.44139592170E+02 -0.45709551613E+02 -0.36268643690E+03  0.36824069332E+03  0.47000000000E+01 0. -1.
        -11    1    1    2    0    0  0.38868489735E+02  0.42004421947E+02 -0.32837348173E+03  0.33332307820E+03  0.00000000000E+00 0.  1.
         11    1    1    2    0    0 -0.41354435948E+02  0.14600395456E+02 -0.13587513257E+03  0.14277749323E+03  0.00000000000E+00 0. -1.
<mgrwt>
<rscale>  0 0.12852845E+03</rscale>
<asrwt>0</asrwt>
<pdfrwt beam="2">  1        2 0.28996686E+00 0.13724162E+03</pdfrwt>
<pdfrwt beam="1">  1       -2 0.14237966E-02 0.13724162E+03</pdfrwt>
<totfact> 0.10664502E+04</totfact>
</mgrwt>
</event>
<event>
 6    1  0.6101889E-006  0.1570045E+03  0.7546771E-02  0.1200136E+00
         -4   -1    0    0    0  501 -0.00000000000E+00  0.00000000000E+00  0.44137224204E+03  0.44137224204E+03  0.00000000000E+00 0.  1.
          4   -1    0    0  501    0  0.00000000000E+00 -0.00000000000E+00 -0.86905712397E+02  0.86905712397E+02  0.00000000000E+00 0. -1.
          5    1    1    2  502    0  0.73990043727E+02 -0.66644900115E+02 -0.31214963884E+02  0.10446307124E+03  0.47000000000E+01 0. -1.
         -5    1    1    2    0  502 -0.30584322592E+02 -0.17861956806E+02  0.38771053323E+02  0.52723190961E+02  0.47000000000E+01 0. -1.
        -11    1    1    2    0    0 -0.50440916914E+02  0.98174423981E+02  0.25438608112E+03  0.27729908383E+03  0.00000000000E+00 0. -1.
         11    1    1    2    0    0  0.70351957792E+01 -0.13667567061E+02  0.92524359083E+02  0.93792608412E+02  0.00000000000E+00 0.  1.
<mgrwt>
<rscale>  0 0.15027431E+03</rscale>
<asrwt>0</asrwt>
<pdfrwt beam="2">  1        4 0.13370110E-01 0.15700454E+03</pdfrwt>
<pdfrwt beam="1">  1       -4 0.67903421E-01 0.15700454E+03</pdfrwt>
<totfact> 0.16083832E+02</totfact>
</mgrwt>
</event>
<event>
 6    1  0.6101889E-006  0.1948939E+03  0.7546771E-02  0.1158976E+00
          1   -1    0    0  501    0  0.00000000000E+00  0.00000000000E+00  0.21232800478E+03  0.21232800478E+03  0.00000000000E+00 0. -1.
         -1   -1    0    0    0  501 -0.00000000000E+00 -0.00000000000E+00 -0.16275650958E+03  0.16275650958E+03  0.00000000000E+00 0.  1.
          5    1    1    2  502    0 -0.40553492188E+02 -0.26748637171E+01  0.72251846237E+02  0.83031077972E+02  0.47000000000E+01 0. -1.
         -5    1    1    2    0  502 -0.84623356273E+02 -0.79120162214E+02 -0.22511532610E+02  0.11810999787E+03  0.47000000000E+01 0. -1.
        -11    1    1    2    0    0  0.15837797825E+02 -0.15910137729E+02 -0.14321950423E+02  0.26628679773E+02  0.00000000000E+00 0.  1.
         11    1    1    2    0    0  0.10933905064E+03  0.97705163660E+02  0.14153131989E+02  0.14731475875E+03  0.00000000000E+00 0. -1.
<mgrwt>
<rscale>  0 0.18943083E+03</rscale>
<asrwt>0</asrwt>
<pdfrwt beam="1">  1        1 0.32665847E-01 0.19489390E+03</pdfrwt>
<pdfrwt beam="2">  1       -1 0.25039463E-01 0.19489390E+03</pdfrwt>
<totfact> 0.18669339E+03</totfact>
</mgrwt>
</event>
<event>
 6    1  0.6101889E-006  0.2403645E+03  0.7546771E-02  0.1122216E+00
         -4   -1    0    0    0  501 -0.00000000000E+00  0.00000000000E+00  0.12547081726E+03  0.12547081726E+03  0.00000000000E+00 0.  1.
          4   -1    0    0  501    0  0.00000000000E+00 -0.00000000000E+00 -0.49110124987E+03  0.49110124987E+03  0.00000000000E+00 0. -1.
          5    1    1    2  502    0 -0.89067370639E+02  0.10656094904E+02 -0.15696697057E+03  0.18085151014E+03  0.47000000000E+01 0.  1.
         -5    1    1    2    0  502 -0.58821073583E+02  0.13174921039E+03 -0.13872352443E+03  0.20021008807E+03  0.47000000000E+01 0.  1.
        -11    1    1    2    0    0  0.78330648234E+02 -0.78505503965E+02  0.10567032907E+02  0.11140227462E+03  0.00000000000E+00 0.  1.
         11    1    1    2    0    0  0.69557795988E+02 -0.63899801325E+02 -0.80506970508E+02  0.12410819430E+03  0.00000000000E+00 0. -1.
<mgrwt>
<rscale>  0 0.23639765E+03</rscale>
<asrwt>0</asrwt>
<pdfrwt beam="2">  1        4 0.75554037E-01 0.24036446E+03</pdfrwt>
<pdfrwt beam="1">  1       -4 0.19303203E-01 0.24036446E+03</pdfrwt>
<totfact> 0.70500599E+01</totfact>
</mgrwt>
</event>
<event>
 6    1  0.6101889E-006  0.2662192E+03  0.7546771E-02  0.1105656E+00
          2   -1    0    0  501    0  0.00000000000E+00  0.00000000000E+00  0.15641413380E+03  0.15641413380E+03  0.00000000000E+00 0. -1.
         -2   -1    0    0    0  501 -0.00000000000E+00 -0.00000000000E+00 -0.43210616885E+03  0.43210616885E+03  0.00000000000E+00 0.  1.
          5    1    1    2  502    0 -0.23373806216E+03 -0.29746965141E+02 -0.18346270156E+03  0.29866204395E+03  0.47000000000E+01 0. -1.
         -5    1    1    2    0  502  0.22086710101E+00  0.30134874861E+01  0.15254304898E+02  0.16245421110E+02  0.47000000000E+01 0. -1.
        -11    1    1    2    0    0  0.10511236639E+03 -0.30641406922E+02 -0.61877118599E+02  0.12576280528E+03  0.00000000000E+00 0.  1.
         11    1    1    2    0    0  0.12840482866E+03  0.57374884576E+02 -0.45606519800E+02  0.14785003231E+03  0.00000000000E+00 0. -1.
<mgrwt>
<rscale>  0 0.26249112E+03</rscale>
<asrwt>0</asrwt>
<pdfrwt beam="1">  1        2 0.24063713E-01 0.26621917E+03</pdfrwt>
<pdfrwt beam="2">  1       -2 0.66477871E-01 0.26621917E+03</pdfrwt>
<totfact> 0.47986622E+02</totfact>
</mgrwt>
</event>
<event>
 6    1  0.6101889E-006  0.1286904E+03  0.7546771E-02  0.1245004E+00
         -1   -1    0    0    0  501 -0.00000000000E+00  0.00000000000E+00  0.91459486414E+02  0.91459486414E+02  0.00000000000E+00 0.  1.
          1   -1    0    0  501    0  0.00000000000E+00 -0.00000000000E+00 -0.16194792785E+03  0.16194792785E+03  0.00000000000E+00 0. -1.
          5    1    1    2  502    0 -0.76501731013E+01 -0.79012474888E+02 -0.52269682444E+02  0.95161473503E+02  0.47000000000E+01 0.  1.
         -5    1    1    2    0  502  0.40333017796E+01  0.48603254963E+02 -0.38667724005E+02  0.62416558669E+02  0.47000000000E+01 0.  1.
        -11    1    1    2    0    0 -0.11145837188E+02  0.10231511491E+02  0.52810485743E+02  0.54935060922E+02  0.00000000000E+00 0.  1.
         11    1    1    2    0    0  0.14762708509E+02  0.20177708433E+02 -0.32361520732E+02  0.40894321173E+02  0.00000000000E+00 0. -1.
<mgrwt>
<rscale>  0 0.11885141E+03</rscale>
<asrwt>0</asrwt>
<pdfrwt beam="2">  1        1 0.24915066E-01 0.12869042E+03</pdfrwt>
<pdfrwt beam="1">  1       -1 0.14070690E-01 0.12869042E+03</pdfrwt>
<totfact> 0.64751889E+03</totfact>
</mgrwt>
</event>
<event>
 6    1  0.6101889E-006  0.1982014E+03  0.7546771E-02  0.1155336E+00
          1   -1    0    0  501    0  0.00000000000E+00  0.00000000000E+00  0.34279151854E+03  0.34279151854E+03  0.00000000000E+00 0. -1.
         -1   -1    0    0    0  501 -0.00000000000E+00 -0.00000000000E+00 -0.10748767466E+03  0.10748767466E+03  0.00000000000E+00 0.  1.
          5    1    1    2  502    0  0.62935491993E+02  0.10008047272E+03  0.53750395319E+02  0.12995450038E+03  0.47000000000E+01 0. -1.
         -5    1    1    2    0  502  0.63406493941E+02 -0.12349197398E+02  0.10773003093E+03  0.12570097738E+03  0.47000000000E+01 0. -1.
        -11    1    1    2    0    0 -0.13075604048E+03 -0.78448203908E+02  0.37712062556E+02  0.15707788667E+03  0.00000000000E+00 0.  1.
         11    1    1    2    0    0  0.44140545452E+01 -0.92830714178E+01  0.36111355073E+02  0.37545828766E+02  0.00000000000E+00 0. -1.
<mgrwt>
<rscale>  0 0.19350665E+03</rscale>
<asrwt>0</asrwt>
<pdfrwt beam="1">  1        1 0.52737156E-01 0.19820140E+03</pdfrwt>
<pdfrwt beam="2">  1       -1 0.16536565E-01 0.19820140E+03</pdfrwt>
<totfact> 0.20108379E+03</totfact>
</mgrwt>
</event>
<event>
 6    1  0.6101889E-006  0.1433079E+03  0.7546771E-02  0.1226737E+00
          1   -1    0    0  501    0  0.00000000000E+00  0.00000000000E+00  0.35866185421E+03  0.35866185421E+03  0.00000000000E+00 0. -1.
         -1   -1    0    0    0  501 -0.00000000000E+00 -0.00000000000E+00 -0.41177791847E+02  0.41177791847E+02  0.00000000000E+00 0.  1.
          5    1    1    2  502    0  0.16637595934E+02  0.47412371656E+02  0.98411668106E+02  0.11059696652E+03  0.47000000000E+01 0. -1.
         -5    1    1    2    0  502 -0.11428388394E+02 -0.84576258732E+02  0.69568121625E+02  0.11020691970E+03  0.47000000000E+01 0.  1.
        -11    1    1    2    0    0  0.28886555385E+02  0.49174838425E+02  0.11810322283E+03  0.13115246494E+03  0.00000000000E+00 0. -1.
         11    1    1    2    0    0 -0.34095762926E+02 -0.12010951349E+02  0.31401049796E+02  0.47883294896E+02  0.00000000000E+00 0.  1.
<mgrwt>
<rscale>  0 0.13048535E+03</rscale>
<asrwt>0</asrwt>
<pdfrwt beam="1">  1        1 0.55178745E-01 0.14330787E+03</pdfrwt>
<pdfrwt beam="2">  1       -1 0.63350451E-02 0.14330787E+03</pdfrwt>
<totfact> 0.81931262E+03</totfact>
</mgrwt>
</event>
<event>
 6    1  0.6101889E-006  0.1879069E+03  0.7546771E-02  0.1179684E+00
         -2   -1    0    0    0  501 -0.00000000000E+00  0.00000000000E+00  0.70670779088E+03  0.70670779088E+03  0.00000000000E+00 0.  1.
          2   -1    0    0  501    0  0.00000000000E+00 -0.00000000000E+00 -0.33742577452E+02  0.33742577452E+02  0.00000000000E+00 0. -1.
          5    1    1    2  502    0 -0.54523370336E+02 -0.17152390434E+02  0.21124292848E+02  0.61117331083E+02  0.47000000000E+01 0. -1.
         -5    1    1    2    0  502 -0.46089159960E+01 -0.39494816965E+02  0.37703566316E+03  0.37915572522E+03  0.47000000000E+01 0.  1.
        -11    1    1    2    0    0  0.43653073781E+02 -0.14474809783E+02  0.80866642291E+02  0.93029698506E+02  0.00000000000E+00 0. -1.
         11    1    1    2    0    0  0.15479212551E+02  0.71122017182E+02  0.19393861513E+03  0.20714761352E+03  0.00000000000E+00 0.  1.
<mgrwt>
<rscale>  0 0.16825128E+03</rscale>
<asrwt>0</asrwt>
<pdfrwt beam="2">  1        2 0.51911663E-02 0.18790693E+03</pdfrwt>
<pdfrwt beam="1">  1       -2 0.10872426E+00 0.18790693E+03</pdfrwt>
<totfact> 0.10369914E+03</totfact>
</mgrwt>
</event>
<event>
 6    1  0.6101889E-006  0.1305798E+03  0.7546771E-02  0.1239118E+00
         -2   -1    0    0    0  501 -0.00000000000E+00  0.00000000000E+00  0.82046382488E+02  0.82046382488E+02  0.00000000000E+00 0. -1.
          2   -1    0    0  501    0  0.00000000000E+00 -0.00000000000E+00 -0.17844034895E+03  0.17844034895E+03  0.00000000000E+00 0.  1.
          5    1    1    2  502    0 -0.12949187113E+02  0.59267496614E+02 -0.82941559651E+02  0.10286743858E+03  0.47000000000E+01 0. -1.
         -5    1    1    2    0  502 -0.23748641856E+02 -0.50387079085E+02 -0.84946498911E+01  0.56542946559E+02  0.47000000000E+01 0. -1.
        -11    1    1    2    0    0  0.64220435510E+02 -0.61674605813E+01  0.15888665190E+02  0.66443597048E+02  0.00000000000E+00 0.  1.
         11    1    1    2    0    0 -0.27522606540E+02 -0.27129569472E+01 -0.20846422106E+02  0.34632749253E+02  0.00000000000E+00 0. -1.
<mgrwt>
<rscale>  0 0.12244433E+03</rscale>
<asrwt>0</asrwt>
<pdfrwt beam="2">  1        2 0.27452361E-01 0.13057982E+03</pdfrwt>
<pdfrwt beam="1">  1       -2 0.12622521E-01 0.13057982E+03</pdfrwt>
<totfact> 0.83110529E+03</totfact>
</mgrwt>
</event>
<event>
 6    1  0.6101889E-006  0.1252386E+03  0.7546771E-02  0.1252038E+00
          2   -1    0    0  501    0  0.00000000000E+00  0.00000000000E+00  0.14747093902E+03  0.14747093902E+03  0.00000000000E+00 0.  1.
         -2   -1    0    0    0  501 -0.00000000000E+00 -0.00000000000E+00 -0.83381256575E+02  0.83381256575E+02  0.00000000000E+00 0. -1.
          5    1    1    2  502    0  0.25336704489E+02 -0.51748242953E+02  0.61872147674E+02  0.84676336133E+02  0.47000000000E+01 0. -1.
         -5    1    1    2    0  502 -0.18144529082E+02  0.54385838631E+02  0.61769261077E+01  0.57855749890E+02  0.47000000000E+01 0. -1.
        -11    1    1    2    0    0  0.37112843301E+02 -0.81706584392E+00  0.15073650302E+02  0.40065517192E+02  0.00000000000E+00 0.  1.
         11    1    1    2    0    0 -0.44305018708E+02 -0.18205298335E+01 -0.19033041640E+02  0.48254592379E+02  0.00000000000E+00 0. -1.
<mgrwt>
<rscale>  0 0.11473858E+03</rscale>
<asrwt>0</asrwt>
<pdfrwt beam="1">  1        2 0.22687837E-01 0.12523865E+03</pdfrwt>
<pdfrwt beam="2">  1       -2 0.12827886E-01 0.12523865E+03</pdfrwt>
<totfact> 0.99576562E+03</totfact>
</mgrwt>
</event>
<event>
 6    1  0.6101889E-006  0.1592109E+03  0.7546771E-02  0.1197462E+00
         -3   -1    0    0    0  501 -0.00000000000E+00  0.00000000000E+00  0.99068127130E+02  0.99068127130E+02  0.00000000000E+00 0.  1.
          3   -1    0    0  501    0  0.00000000000E+00 -0.00000000000E+00 -0.21927748575E+03  0.21927748575E+03  0.00000000000E+00 0. -1.
          5    1    1    2  502    0 -0.28235577416E+02  0.26902968068E+02 -0.25880345136E+02  0.47041468804E+02  0.47000000000E+01 0. -1.
         -5    1    1    2    0  502  0.11882251312E+03  0.12031674983E+02 -0.56012092214E+02  0.13199619427E+03  0.47000000000E+01 0. -1.
        -11    1    1    2    0    0 -0.82223980157E+02 -0.12884271927E+02  0.99559944479E+01  0.83820696736E+02  0.00000000000E+00 0.  1.
         11    1    1    2    0    0 -0.83629555516E+01 -0.26050371123E+02 -0.48272915722E+02  0.55487253072E+02  0.00000000000E+00 0. -1.
<mgrwt>
<rscale>  0 0.15247651E+03</rscale>
<asrwt>0</asrwt>
<pdfrwt beam="2">  1        3 0.33734998E-01 0.15921091E+03</pdfrwt>
<pdfrwt beam="1">  1       -3 0.15241250E-01 0.15921091E+03</pdfrwt>
<totfact> 0.73616615E+02</totfact>
</mgrwt>
</event>
<event>
 6    1  0.6101889E-006  0.1869990E+03  0.7546771E-02  0.1167177E+00
         -1   -1    0    0    0  501 -0.00000000000E+00  0.00000000000E+00  0.40126801881E+03  0.40126801881E+03  0.00000000000E+00 0.  1.
          1   -1    0    0  501    0  0.00000000000E+00 -0.00000000000E+00 -0.78764577407E+02  0.78764577407E+02  0.00000000000E+00 0. -1.
          5    1    1    2  502    0  0.78171344759E+02  0.37453065788E+02  0.46622199825E+01  0.86932833691E+02  0.47000000000E+01 0.  1.
         -5    1    1    2    0  502  0.60170716955E+02 -0.23180609348E+02  0.12465889389E+03  0.14042715426E+03  0.47000000000E+01 0.  1.
        -11    1    1    2    0    0 -0.86721194005E+02 -0.20868306943E+02  0.17694885048E+03  0.19815889435E+03  0.00000000000E+00 0.  1.
         11    1    1    2    0    0 -0.51620867710E+02  0.65958505032E+01  0.16233477046E+02  0.54513713907E+02  0.00000000000E+00 0. -1.
<mgrwt>
<rscale>  0 0.18064850E+03</rscale>
<asrwt>0</asrwt>
<pdfrwt beam="2">  1        1 0.12117628E-01 0.18699897E+03</pdfrwt>
<pdfrwt beam="1">  1       -1 0.61733540E-01 0.18699897E+03</pdfrwt>
<totfact> 0.13479732E+03</totfact>
</mgrwt>
</event>
<event>
 6    1  0.6101889E-006  0.1946260E+03  0.7546771E-02  0.1158988E+00
          2   -1    0    0  501    0  0.00000000000E+00  0.00000000000E+00  0.15464644125E+03  0.15464644125E+03  0.00000000000E+00 0. -1.
         -2   -1    0    0    0  501 -0.00000000000E+00 -0.00000000000E+00 -0.22885748102E+03  0.22885748102E+03  0.00000000000E+00 0.  1.
          5    1    1    2  502    0  0.59999640332E+02  0.15174305048E+03 -0.17597627818E+02  0.16418793109E+03  0.47000000000E+01 0.  1.
         -5    1    1    2    0  502  0.13620506768E+02 -0.21989343523E+02  0.15366128902E+02  0.30450900654E+02  0.47000000000E+01 0.  1.
        -11    1    1    2    0    0 -0.76787218362E+02 -0.14197832602E+03 -0.70545971669E+02  0.17615577221E+03  0.00000000000E+00 0. -1.
         11    1    1    2    0    0  0.31670712617E+01  0.12224619060E+02 -0.14335691892E+01  0.12709318320E+02  0.00000000000E+00 0.  1.
<mgrwt>
<rscale>  0 0.18941682E+03</rscale>
<asrwt>0</asrwt>
<pdfrwt beam="1">  1        2 0.23791760E-01 0.19462604E+03</pdfrwt>
<pdfrwt beam="2">  1       -2 0.35208843E-01 0.19462604E+03</pdfrwt>
<totfact> 0.17077220E+03</totfact>
</mgrwt>
</event>
<event>
 6    1  0.6101889E-006  0.1569859E+03  0.7546771E-02  0.1197132E+00
         -2   -1    0    0    0  501 -0.00000000000E+00  0.00000000000E+00  0.87233107731E+02  0.87233107731E+02  0.00000000000E+00 0.  1.
          2   -1    0    0  501    0  0.00000000000E+00 -0.00000000000E+00 -0.74286830080E+03  0.74286830080E+03  0.00000000000E+00 0. -1.
          5    1    1    2  502    0 -0.85368044486E+02  0.43038541978E+02 -0.64012230897E+03  0.64723927535E+03  0.47000000000E+01 0. -1.
         -5    1    1    2    0  502  0.45031808956E+01  0.27342117862E+02 -0.30345397070E+02  0.41361856471E+02  0.47000000000E+01 0.  1.
        -11    1    1    2    0    0 -0.16557041641E+02 -0.68806133925E+01 -0.12729414717E+02  0.21989007882E+02  0.00000000000E+00 0. -1.
         11    1    1    2    0    0  0.97421905232E+02 -0.63500046448E+02  0.27561927691E+02  0.11951126882E+03  0.00000000000E+00 0.  1.
<mgrwt>
<rscale>  0 0.15275134E+03</rscale>
<asrwt>0</asrwt>
<pdfrwt beam="2">  1        2 0.11428743E+00 0.15698590E+03</pdfrwt>
<pdfrwt beam="1">  1       -2 0.13420478E-01 0.15698590E+03</pdfrwt>
<totfact> 0.15943186E+03</totfact>
</mgrwt>
</event>
<event>
 6    1  0.6101889E-006  0.1787644E+03  0.7546771E-02  0.1174905E+00
         -1   -1    0    0    0  501 -0.00000000000E+00  0.00000000000E+00  0.33786802595E+02  0.33786802595E+02  0.00000000000E+00 0.  1.
          1   -1    0    0  501    0  0.00000000000E+00 -0.00000000000E+00 -0.91416252064E+03  0.91416252064E+03  0.00000000000E+00 0. -1.
          5    1    1    2  502    0  0.11282090394E+03 -0.10417948881E+02 -0.42969572122E+03  0.44440701261E+03  0.47000000000E+01 0.  1.
         -5    1    1    2    0  502  0.34326234976E+01  0.63503833450E+02 -0.18039990047E+03  0.19133931602E+03  0.47000000000E+01 0.  1.
        -11    1    1    2    0    0 -0.65480692315E+02  0.16017446341E+02 -0.15034608615E+03  0.16476718506E+03  0.00000000000E+00 0. -1.
         11    1    1    2    0    0 -0.50772835121E+02 -0.69103330910E+02 -0.11993401021E+03  0.14743580953E+03  0.00000000000E+00 0.  1.
<mgrwt>
<rscale>  0 0.17285330E+03</rscale>
<asrwt>0</asrwt>
<pdfrwt beam="2">  1        1 0.14064040E+00 0.17876444E+03</pdfrwt>
<pdfrwt beam="1">  1       -1 0.51979693E-02 0.17876444E+03</pdfrwt>
<totfact> 0.30587417E+03</totfact>
</mgrwt>
</event>
<event>
 6    1  0.6101889E-006  0.2898331E+03  0.7546771E-02  0.1090436E+00
         -3   -1    0    0    0  501 -0.00000000000E+00  0.00000000000E+00  0.30856464839E+03  0.30856464839E+03  0.00000000000E+00 0.  1.
          3   -1    0    0  501    0  0.00000000000E+00 -0.00000000000E+00 -0.68059645065E+02  0.68059645065E+02  0.00000000000E+00 0. -1.
          5    1    1    2  502    0 -0.28688902608E+02 -0.23746309372E+01 -0.30960095358E+02  0.42535979001E+02  0.47000000000E+01 0. -1.
         -5    1    1    2    0  502 -0.61578915962E+02  0.11292333345E+02  0.12079403074E+03  0.13613510769E+03  0.47000000000E+01 0. -1.
        -11    1    1    2    0    0  0.41470420344E+02 -0.49456935645E+02  0.83846703721E+02  0.10581140757E+03  0.00000000000E+00 0. -1.
         11    1    1    2    0    0  0.48797398227E+02  0.40539233238E+02  0.66824364223E+02  0.92141799195E+02  0.00000000000E+00 0.  1.
<mgrwt>
<rscale>  0 0.28983306E+03</rscale>
<asrwt>0</asrwt>
<pdfrwt beam="2">  1        3 0.10470715E-01 0.28983306E+03</pdfrwt>
<pdfrwt beam="1">  1       -3 0.47471483E-01 0.28983306E+03</pdfrwt>
<totfact> 0.77377221E+02</totfact>
</mgrwt>
</event>
<event>
 6    1  0.6101889E-006  0.3277220E+03  0.7546771E-02  0.1072149E+00
          2   -1    0    0  501    0  0.00000000000E+00  0.00000000000E+00  0.43667502734E+03  0.43667502734E+03  0.00000000000E+00 0. -1.
         -2   -1    0    0    0  501 -0.00000000000E+00 -0.00000000000E+00 -0.61488361437E+02  0.61488361437E+02  0.00000000000E+00 0.  1.
          5    1    1    2  502    0  0.99304119328E+01 -0.85943372524E+01  0.11626450100E+03  0.11709824895E+03  0.47000000000E+01 0. -1.
         -5    1    1    2    0  502 -0.93880103721E+02  0.90373087143E+02  0.14146825011E+03  0.19239574980E+03  0.47000000000E+01 0. -1.
        -11    1    1    2    0    0  0.33967016552E+02  0.10564939931E+02  0.69712721886E+01  0.36248790395E+02  0.00000000000E+00 0.  1.
         11    1    1    2    0    0  0.49982675236E+02 -0.92343689821E+02  0.11048264261E+03  0.15242059963E+03  0.00000000000E+00 0. -1.
<mgrwt>
<rscale>  0 0.32772203E+03</rscale>
<asrwt>0</asrwt>
<pdfrwt beam="1">  1        2 0.67180771E-01 0.32772203E+03</pdfrwt>
<pdfrwt beam="2">  1       -2 0.94597482E-02 0.32772203E+03</pdfrwt>
<totfact> 0.52623804E+03</totfact>
</mgrwt>
</event>
<event>
 6    1  0.6101889E-006  0.1301827E+03  0.7546771E-02  0.1235527E+00
         -3   -1    0    0    0  501 -0.00000000000E+00  0.00000000000E+00  0.16866582083E+02  0.16866582083E+02  0.00000000000E+00 0.  1.
          3   -1    0    0  501    0  0.00000000000E+00 -0.00000000000E+00 -0.85583144227E+03  0.85583144227E+03  0.00000000000E+00 0. -1.
          5    1    1    2  502    0  0.12175437032E+02 -0.78866868383E+01  0.10430297694E+01  0.15284600332E+02  0.47000000000E+01 0. -1.
         -5    1    1    2    0  502 -0.80879198248E+01 -0.28250854448E+02 -0.48388622002E+03  0.48480046323E+03  0.47000000000E+01 0. -1.
        -11    1    1    2    0    0 -0.35327288207E+01 -0.31803868794E+02 -0.52511822700E+02  0.61493558739E+02  0.00000000000E+00 0.  1.
         11    1    1    2    0    0 -0.55478838606E+00  0.67941410080E+02 -0.30360984724E+03  0.31111940205E+03  0.00000000000E+00 0. -1.
<mgrwt>
<rscale>  0 0.12470758E+03</rscale>
<asrwt>0</asrwt>
<pdfrwt beam="2">  1        3 0.13166634E+00 0.13018266E+03</pdfrwt>
<pdfrwt beam="1">  1       -3 0.25948595E-02 0.13018266E+03</pdfrwt>
<totfact> 0.69747230E+02</totfact>
</mgrwt>
</event>
<event>
 6    1  0.6101889E-006  0.1661005E+03  0.7546771E-02  0.1188860E+00
          1   -1    0    0  501    0  0.00000000000E+00  0.00000000000E+00  0.27660393316E+03  0.27660393316E+03  0.00000000000E+00 0. -1.
         -1   -1    0    0    0  501 -0.00000000000E+00 -0.00000000000E+00 -0.91465847437E+02  0.91465847437E+02  0.00000000000E+00 0.  1.
          5    1    1    2  502    0 -0.43669826809E+02  0.21460052442E+02  0.10068935015E+02  0.49910530719E+02  0.47000000000E+01 0. -1.
         -5    1    1    2    0  502  0.57939987320E+02  0.86976936935E+02  0.13373429959E+03  0.16979099674E+03  0.47000000000E+01 0. -1.
        -11    1    1    2    0    0 -0.30251981585E+02 -0.96930296519E+02 -0.11425029208E+01  0.10154787091E+03  0.00000000000E+00 0.  1.
         11    1    1    2    0    0  0.15981821074E+02 -0.11506692859E+02  0.42477354040E+02  0.46820382224E+02  0.00000000000E+00 0. -1.
<mgrwt>
<rscale>  0 0.15985547E+03</rscale>
<asrwt>0</asrwt>
<pdfrwt beam="1">  1        1 0.42554451E-01 0.16610054E+03</pdfrwt>
<pdfrwt beam="2">  1       -1 0.14071669E-01 0.16610054E+03</pdfrwt>
<totfact> 0.33730484E+03</totfact>
</mgrwt>
</event>
<event>
 6    1  0.6101889E-006  0.1692409E+03  0.7546771E-02  0.1188264E+00
          1   -1    0    0  501    0  0.00000000000E+00  0.00000000000E+00  0.10950031143E+03  0.10950031143E+03  0.00000000000E+00 0. -1.
         -1   -1    0    0    0  501 -0.00000000000E+00 -0.00000000000E+00 -0.25336813624E+03  0.25336813624E+03  0.00000000000E+00 0.  1.
          5    1    1    2  502    0 -0.25991466038E+02  0.25990316105E+02  0.33230821417E+01  0.37204646389E+02  0.47000000000E+01 0. -1.
         -5    1    1    2    0  502  0.28805899952E+02 -0.12851474835E+03 -0.10047923690E+02  0.13216985733E+03  0.47000000000E+01 0.  1.
        -11    1    1    2    0    0 -0.43665433286E+02  0.75502807040E+02 -0.93880123370E+02  0.12814375326E+03  0.00000000000E+00 0. -1.
         11    1    1    2    0    0  0.40850999372E+02  0.27021625203E+02 -0.43262859889E+02  0.65350190696E+02  0.00000000000E+00 0.  1.
<mgrwt>
<rscale>  0 0.16038387E+03</rscale>
<asrwt>0</asrwt>
<pdfrwt beam="1">  1        1 0.16846202E-01 0.16924095E+03</pdfrwt>
<pdfrwt beam="2">  1       -1 0.38979713E-01 0.16924095E+03</pdfrwt>
<totfact> 0.20294440E+03</totfact>
</mgrwt>
</event>
<event>
 6    1  0.6101889E-006  0.1272801E+03  0.7546771E-02  0.1245858E+00
          1   -1    0    0  501    0  0.00000000000E+00  0.00000000000E+00  0.35413099953E+02  0.35413099953E+02  0.00000000000E+00 0. -1.
         -1   -1    0    0    0  501 -0.00000000000E+00 -0.00000000000E+00 -0.35142389202E+03  0.35142389202E+03  0.00000000000E+00 0.  1.
          5    1    1    2  502    0 -0.15839861840E+02  0.33726979990E+02 -0.15725915801E+03  0.16168161052E+03  0.47000000000E+01 0. -1.
         -5    1    1    2    0  502 -0.48809858745E+01 -0.45815782592E+02 -0.81435983483E+01  0.47024654722E+02  0.47000000000E+01 0. -1.
        -11    1    1    2    0    0 -0.12031226742E+02 -0.20914285057E+02 -0.41666256511E+01  0.24485066994E+02  0.00000000000E+00 0. -1.
         11    1    1    2    0    0  0.32752074457E+02  0.33003087659E+02 -0.14644141005E+03  0.15364565973E+03  0.00000000000E+00 0.  1.
<mgrwt>
<rscale>  0 0.11834181E+03</rscale>
<asrwt>0</asrwt>
<pdfrwt beam="1">  1        1 0.54481693E-02 0.12728014E+03</pdfrwt>
<pdfrwt beam="2">  1       -1 0.54065214E-01 0.12728014E+03</pdfrwt>
<totfact> 0.49779118E+03</totfact>
</mgrwt>
</event>
<event>
 6    1  0.6101889E-006  0.3538557E+03  0.7546771E-02  0.1061044E+00
          2   -1    0    0  501    0  0.00000000000E+00  0.00000000000E+00  0.95235672653E+02  0.95235672653E+02  0.00000000000E+00 0. -1.
         -2   -1    0    0    0  501 -0.00000000000E+00 -0.00000000000E+00 -0.32869473890E+03  0.32869473890E+03  0.00000000000E+00 0.  1.
          5    1    1    2  502    0 -0.81063902547E+02  0.42074862568E+02  0.50165958505E+02  0.10430898211E+03  0.47000000000E+01 0.  1.
         -5    1    1    2    0  502 -0.12262738195E+01 -0.12801136196E+02 -0.46247038758E+02  0.48231228777E+02  0.47000000000E+01 0.  1.
        -11    1    1    2    0    0  0.42557644975E+02 -0.21810065080E+02 -0.22693288707E+02  0.52932196600E+02  0.00000000000E+00 0. -1.
         11    1    1    2    0    0  0.39732531392E+02 -0.74636612919E+01 -0.21468469729E+03  0.21845800407E+03  0.00000000000E+00 0.  1.
<mgrwt>
<rscale>  0 0.35385570E+03</rscale>
<asrwt>0</asrwt>
<pdfrwt beam="1">  1        2 0.14651642E-01 0.35385570E+03</pdfrwt>
<pdfrwt beam="2">  1       -2 0.50568422E-01 0.35385570E+03</pdfrwt>
<totfact> 0.15132594E+03</totfact>
</mgrwt>
</event>
<event>
 6    1  0.6101889E-006  0.1315674E+03  0.7546771E-02  0.1275981E+00
          1   -1    0    0  501    0  0.00000000000E+00  0.00000000000E+00  0.13601196015E+04  0.13601196015E+04  0.00000000000E+00 0. -1.
         -1   -1    0    0    0  501 -0.00000000000E+00 -0.00000000000E+00 -0.68178243882E+01  0.68178243882E+01  0.00000000000E+00 0.  1.
          5    1    1    2  502    0  0.33390197214E+02  0.45242764653E+01  0.76870511493E+02  0.84062713998E+02  0.47000000000E+01 0. -1.
         -5    1    1    2    0  502  0.59855209236E+01 -0.16124252981E+02  0.10991274999E+04  0.10992721088E+04  0.47000000000E+01 0. -1.
        -11    1    1    2    0    0 -0.29847376124E+02  0.18081525987E+02  0.14922337567E+03  0.15324954581E+03  0.00000000000E+00 0.  1.
         11    1    1    2    0    0 -0.95283420128E+01 -0.64815494721E+01  0.28080389965E+02  0.30353057270E+02  0.00000000000E+00 0. -1.
<mgrwt>
<rscale>  0 0.10208057E+03</rscale>
<asrwt>0</asrwt>
<pdfrwt beam="1">  1        1 0.20924895E+00 0.13156740E+03</pdfrwt>
<pdfrwt beam="2">  1       -1 0.10488971E-02 0.13156740E+03</pdfrwt>
<totfact> 0.15010207E+04</totfact>
</mgrwt>
</event>
<event>
 6    1  0.6101889E-006  0.1252384E+03  0.7546771E-02  0.1247508E+00
          1   -1    0    0  501    0  0.00000000000E+00  0.00000000000E+00  0.53948096797E+03  0.53948096797E+03  0.00000000000E+00 0. -1.
         -1   -1    0    0    0  501 -0.00000000000E+00 -0.00000000000E+00 -0.25781271389E+02  0.25781271389E+02  0.00000000000E+00 0.  1.
          5    1    1    2  502    0 -0.14193220628E+02  0.54322826238E+02  0.12300257650E+03  0.13529279651E+03  0.47000000000E+01 0.  1.
         -5    1    1    2    0  502  0.13980705060E+02 -0.61999258521E+02  0.25851932792E+03  0.26625871080E+03  0.47000000000E+01 0.  1.
        -11    1    1    2    0    0 -0.17995399575E+02  0.35367982516E+02  0.15811169358E+02  0.42716760991E+02  0.00000000000E+00 0.  1.
         11    1    1    2    0    0  0.18207915142E+02 -0.27691550233E+02  0.11636662280E+03  0.12099397105E+03  0.00000000000E+00 0. -1.
<mgrwt>
<rscale>  0 0.11736528E+03</rscale>
<asrwt>0</asrwt>
<pdfrwt beam="1">  1        1 0.82997064E-01 0.12523837E+03</pdfrwt>
<pdfrwt beam="2">  1       -1 0.39663498E-02 0.12523837E+03</pdfrwt>
<totfact> 0.96267172E+03</totfact>
</mgrwt>
</event>
<event>
 6    1  0.6101889E-006  0.1263620E+03  0.7546771E-02  0.1254381E+00
          1   -1    0    0  501    0  0.00000000000E+00  0.00000000000E+00  0.60787359901E+03  0.60787359901E+03  0.00000000000E+00 0. -1.
         -1   -1    0    0    0  501 -0.00000000000E+00 -0.00000000000E+00 -0.17921941269E+02  0.17921941269E+02  0.00000000000E+00 0.  1.
          5    1    1    2  502    0  0.39715218849E+02 -0.12675936989E+02  0.48545682417E+02  0.64161914467E+02  0.47000000000E+01 0. -1.
         -5    1    1    2    0  502 -0.50223543086E+02  0.27878008384E+02  0.32788111546E+03  0.33290795050E+03  0.47000000000E+01 0. -1.
        -11    1    1    2    0    0  0.29991492714E+02  0.23681223245E+02  0.90388549093E+02  0.98134498403E+02  0.00000000000E+00 0. -1.
         11    1    1    2    0    0 -0.19483168476E+02 -0.38883294640E+02  0.12313631078E+03  0.13059117691E+03  0.00000000000E+00 0.  1.
<mgrwt>
<rscale>  0 0.11341073E+03</rscale>
<asrwt>0</asrwt>
<pdfrwt beam="1">  1        1 0.93518999E-01 0.12636195E+03</pdfrwt>
<pdfrwt beam="2">  1       -1 0.27572222E-02 0.12636195E+03</pdfrwt>
<totfact> 0.13943655E+04</totfact>
</mgrwt>
</event>
<event>
 6    1  0.6101889E-006  0.1279496E+03  0.7546771E-02  0.1244804E+00
         -1   -1    0    0    0  501 -0.00000000000E+00  0.00000000000E+00  0.35295906057E+03  0.35295906057E+03  0.00000000000E+00 0.  1.
          1   -1    0    0  501    0  0.00000000000E+00 -0.00000000000E+00 -0.35554779822E+02  0.35554779822E+02  0.00000000000E+00 0. -1.
          5    1    1    2  502    0 -0.34066462884E+02 -0.39512112733E+02  0.11472150597E+03  0.12611441186E+03  0.47000000000E+01 0.  1.
         -5    1    1    2    0  502  0.59482159056E+02  0.29553579481E+02  0.54571106601E+02  0.86090864682E+02  0.47000000000E+01 0.  1.
        -11    1    1    2    0    0 -0.89016966017E+00  0.43768541657E+02  0.11486179904E+03  0.12292156247E+03  0.00000000000E+00 0.  1.
         11    1    1    2    0    0 -0.24525526512E+02 -0.33810008405E+02  0.33249869133E+02  0.53387001380E+02  0.00000000000E+00 0. -1.
<mgrwt>
<rscale>  0 0.11897145E+03</rscale>
<asrwt>0</asrwt>
<pdfrwt beam="2">  1        1 0.54699664E-02 0.12794956E+03</pdfrwt>
<pdfrwt beam="1">  1       -1 0.54301391E-01 0.12794956E+03</pdfrwt>
<totfact> 0.49129607E+03</totfact>
</mgrwt>
</event>
<event>
 6    1  0.6101889E-006  0.1586641E+03  0.7546771E-02  0.1213518E+00
          2   -1    0    0  501    0  0.00000000000E+00  0.00000000000E+00  0.76105112939E+02  0.76105112939E+02  0.00000000000E+00 0. -1.
         -2   -1    0    0    0  501 -0.00000000000E+00 -0.00000000000E+00 -0.22201787362E+03  0.22201787362E+03  0.00000000000E+00 0.  1.
          5    1    1    2  502    0 -0.45479518426E+02  0.63479314234E+02 -0.15742307681E+02  0.79799249264E+02  0.47000000000E+01 0. -1.
         -5    1    1    2    0  502  0.76348908208E+02 -0.15645685742E+02 -0.44843245999E+02  0.90038602713E+02  0.47000000000E+01 0.  1.
        -11    1    1    2    0    0 -0.48003279161E+02 -0.57260089359E+01 -0.56920043853E+02  0.74679270087E+02  0.00000000000E+00 0. -1.
         11    1    1    2    0    0  0.17133889380E+02 -0.42107619556E+02 -0.28407163146E+02  0.53605864493E+02  0.00000000000E+00 0.  1.
<mgrwt>
<rscale>  0 0.13985972E+03</rscale>
<asrwt>0</asrwt>
<pdfrwt beam="1">  1        2 0.11708479E-01 0.15866407E+03</pdfrwt>
<pdfrwt beam="2">  1       -2 0.34156596E-01 0.15866407E+03</pdfrwt>
<totfact> 0.40861165E+03</totfact>
</mgrwt>
</event>
<event>
 6    1  0.6101889E-006  0.1213094E+03  0.7546771E-02  0.1253385E+00
          1   -1    0    0  501    0  0.00000000000E+00  0.00000000000E+00  0.12532418694E+04  0.12532418694E+04  0.00000000000E+00 0. -1.
         -1   -1    0    0    0  501 -0.00000000000E+00 -0.00000000000E+00 -0.98418296813E+01  0.98418296813E+01  0.00000000000E+00 0.  1.
          5    1    1    2  502    0 -0.24527187216E+02 -0.38511470479E+02  0.81674927184E+03  0.81803800604E+03  0.47000000000E+01 0. -1.
         -5    1    1    2    0  502  0.13853124584E+02  0.14989412461E+02  0.25949917464E+02  0.33347859947E+02  0.47000000000E+01 0.  1.
        -11    1    1    2    0    0  0.22677743117E+02 -0.30923359285E+02  0.18264996024E+03  0.18663210377E+03  0.00000000000E+00 0. -1.
         11    1    1    2    0    0 -0.12003680485E+02  0.54445417304E+02  0.21805089016E+03  0.22506572931E+03  0.00000000000E+00 0.  1.
<mgrwt>
<rscale>  0 0.11397279E+03</rscale>
<asrwt>0</asrwt>
<pdfrwt beam="1">  1        1 0.19280631E+00 0.12130939E+03</pdfrwt>
<pdfrwt beam="2">  1       -1 0.15141286E-02 0.12130939E+03</pdfrwt>
<totfact> 0.10418405E+04</totfact>
</mgrwt>
</event>
<event>
 6    1  0.6101889E-006  0.1465704E+03  0.7546771E-02  0.1214661E+00
         -2   -1    0    0    0  501 -0.00000000000E+00  0.00000000000E+00  0.36424510190E+02  0.36424510190E+02  0.00000000000E+00 0.  1.
          2   -1    0    0  501    0  0.00000000000E+00 -0.00000000000E+00 -0.57726400768E+03  0.57726400768E+03  0.00000000000E+00 0. -1.
          5    1    1    2  502    0  0.20211542432E+02 -0.23918399072E+02 -0.44079719742E+02  0.54274376589E+02  0.47000000000E+01 0.  1.
         -5    1    1    2    0  502 -0.88900019283E+02  0.57706947452E+02 -0.37384131277E+03  0.38860355421E+03  0.47000000000E+01 0.  1.
        -11    1    1    2    0    0 -0.11796567639E+01 -0.12743569387E+02  0.11923237984E+02  0.17491533805E+02  0.00000000000E+00 0.  1.
         11    1    1    2    0    0  0.69868133615E+02 -0.21044978993E+02 -0.13484170296E+03  0.15331905326E+03  0.00000000000E+00 0. -1.
<mgrwt>
<rscale>  0 0.13901479E+03</rscale>
<asrwt>0</asrwt>
<pdfrwt beam="2">  1        2 0.88809839E-01 0.14657037E+03</pdfrwt>
<pdfrwt beam="1">  1       -2 0.56037713E-02 0.14657037E+03</pdfrwt>
<totfact> 0.83497330E+03</totfact>
</mgrwt>
</event>
<event>
 6    1  0.6101889E-006  0.2224043E+03  0.7546771E-02  0.1135397E+00
         -1   -1    0    0    0  501 -0.00000000000E+00  0.00000000000E+00  0.21983942695E+03  0.21983942695E+03  0.00000000000E+00 0.  1.
          1   -1    0    0  501    0  0.00000000000E+00 -0.00000000000E+00 -0.20833080309E+03  0.20833080309E+03  0.00000000000E+00 0. -1.
          5    1    1    2  502    0  0.14829440495E+03  0.56376655743E+01  0.49452377394E+01  0.14855826866E+03  0.47000000000E+01 0. -1.
         -5    1    1    2    0  502  0.19044359384E+02  0.70767242837E+02 -0.79683160858E+01  0.73866598299E+02  0.47000000000E+01 0. -1.
        -11    1    1    2    0    0 -0.97877228069E+02 -0.20885924914E+02  0.47663016274E+02  0.11085096641E+03  0.00000000000E+00 0.  1.
         11    1    1    2    0    0 -0.69461536262E+02 -0.55518983497E+02 -0.33131314068E+02  0.94894396675E+02  0.00000000000E+00 0. -1.
<mgrwt>
<rscale>  0 0.21798090E+03</rscale>
<asrwt>0</asrwt>
<pdfrwt beam="2">  1        1 0.32050893E-01 0.22240432E+03</pdfrwt>
<pdfrwt beam="1">  1       -1 0.33821450E-01 0.22240432E+03</pdfrwt>
<totfact> 0.11531560E+03</totfact>
</mgrwt>
</event>
<event>
 6    1  0.6101889E-006  0.1332197E+03  0.7546771E-02  0.1235244E+00
          2   -1    0    0  501    0  0.00000000000E+00  0.00000000000E+00  0.40170679936E+03  0.40170679936E+03  0.00000000000E+00 0. -1.
         -2   -1    0    0    0  501 -0.00000000000E+00 -0.00000000000E+00 -0.43818650630E+02  0.43818650630E+02  0.00000000000E+00 0.  1.
          5    1    1    2  502    0 -0.39210975555E+02  0.37289888554E+02  0.40849551643E+02  0.67961844161E+02  0.47000000000E+01 0.  1.
         -5    1    1    2    0  502 -0.51823550717E+01 -0.24925146660E+02  0.25727348003E+03  0.25857272336E+03  0.47000000000E+01 0.  1.
        -11    1    1    2    0    0 -0.16110096995E+02 -0.34289422799E+02  0.28717642067E+02  0.47539485767E+02  0.00000000000E+00 0. -1.
         11    1    1    2    0    0  0.60503427622E+02  0.21924680905E+02  0.31047474985E+02  0.71451396695E+02  0.00000000000E+00 0.  1.
<mgrwt>
<rscale>  0 0.12488857E+03</rscale>
<asrwt>0</asrwt>
<pdfrwt beam="1">  1        2 0.61801044E-01 0.13321967E+03</pdfrwt>
<pdfrwt beam="2">  1       -2 0.67413311E-02 0.13321967E+03</pdfrwt>
<totfact> 0.93210809E+03</totfact>
</mgrwt>
</event>
<event>
 6    1  0.6101889E-006  0.2504721E+03  0.7546771E-02  0.1113007E+00
         -3   -1    0    0    0  501 -0.00000000000E+00  0.00000000000E+00  0.10824600505E+03  0.10824600505E+03  0.00000000000E+00 0.  1.
          3   -1    0    0  501    0  0.00000000000E+00 -0.00000000000E+00 -0.14489286466E+03  0.14489286466E+03  0.00000000000E+00 0. -1.
          5    1    1    2  502    0 -0.70675923491E+02 -0.24279011103E+02 -0.78671747900E+02  0.10860888757E+03  0.47000000000E+01 0. -1.
         -5    1    1    2    0  502  0.21599825126E+02  0.26729032281E+02  0.15664461490E+02  0.38058625381E+02  0.47000000000E+01 0.  1.
        -11    1    1    2    0    0  0.21078633118E+02 -0.43054134950E+02  0.30755567828E+02  0.56955002088E+02  0.00000000000E+00 0.  1.
         11    1    1    2    0    0  0.27997465248E+02  0.40604113772E+02 -0.43951410312E+01  0.49516354674E+02  0.00000000000E+00 0. -1.
<mgrwt>
<rscale>  0 0.25047214E+03</rscale>
<asrwt>0</asrwt>
<pdfrwt beam="2">  1        3 0.22291210E-01 0.25047214E+03</pdfrwt>
<pdfrwt beam="1">  1       -3 0.16653231E-01 0.25047214E+03</pdfrwt>
<totfact> 0.14414903E+03</totfact>
</mgrwt>
</event>
<event>
 6    1  0.6101889E-006  0.2370254E+03  0.7546771E-02  0.1121790E+00
         -2   -1    0    0    0  501 -0.00000000000E+00  0.00000000000E+00  0.12351706921E+03  0.12351706921E+03  0.00000000000E+00 0.  1.
          2   -1    0    0  501    0  0.00000000000E+00 -0.00000000000E+00 -0.11371106387E+03  0.11371106387E+03  0.00000000000E+00 0. -1.
          5    1    1    2  502    0  0.41546659952E+01 -0.80921816424E+02 -0.16819773942E+02  0.82889060909E+02  0.47000000000E+01 0.  1.
         -5    1    1    2    0  502  0.31119697625E+01  0.35795929571E+02  0.36868594443E+02  0.51695417455E+02  0.47000000000E+01 0.  1.
        -11    1    1    2    0    0 -0.37153395029E+02  0.15062827067E+02  0.25229750386E+02  0.47368806465E+02  0.00000000000E+00 0.  1.
         11    1    1    2    0    0  0.29886759271E+02  0.30063059785E+02 -0.35472565549E+02  0.55274848258E+02  0.00000000000E+00 0. -1.
<mgrwt>
<rscale>  0 0.23702538E+03</rscale>
<asrwt>0</asrwt>
<pdfrwt beam="2">  1        2 0.17494010E-01 0.23702538E+03</pdfrwt>
<pdfrwt beam="1">  1       -2 0.19002626E-01 0.23702538E+03</pdfrwt>
<totfact> 0.73227483E+03</totfact>
</mgrwt>
</event>
<event>
 6    1  0.6101889E-006  0.2845525E+03  0.7546771E-02  0.1107019E+00
          2   -1    0    0  501    0  0.00000000000E+00  0.00000000000E+00  0.69705847949E+03  0.69705847949E+03  0.00000000000E+00 0. -1.
         -2   -1    0    0    0  501 -0.00000000000E+00 -0.00000000000E+00 -0.84402157227E+02  0.84402157227E+02  0.00000000000E+00 0.  1.
          5    1    1    2  502    0 -0.73663819906E+02 -0.45259724695E+02  0.26833436401E+03  0.28195783719E+03  0.47000000000E+01 0. -1.
         -5    1    1    2    0  502  0.15816472015E+03  0.24290941961E+02  0.12295004989E+03  0.20185374242E+03  0.47000000000E+01 0.  1.
        -11    1    1    2    0    0 -0.11608559200E+03  0.34510035510E+02  0.23197507530E+03  0.26168538893E+03  0.00000000000E+00 0.  1.
         11    1    1    2    0    0  0.31584691762E+02 -0.13541252776E+02 -0.10603166930E+02  0.35963668185E+02  0.00000000000E+00 0. -1.
<mgrwt>
<rscale>  0 0.26020718E+03</rscale>
<asrwt>0</asrwt>
<pdfrwt beam="1">  1        2 0.10723976E+00 0.28455255E+03</pdfrwt>
<pdfrwt beam="2">  1       -2 0.12984948E-01 0.28455255E+03</pdfrwt>
<totfact> 0.18315250E+03</totfact>
</mgrwt>
</event>
<event>
 6    1  0.6101889E-006  0.1921486E+03  0.7546771E-02  0.1161313E+00
          2   -1    0    0  501    0  0.00000000000E+00  0.00000000000E+00  0.59875570083E+03  0.59875570083E+03  0.00000000000E+00 0.  1.
         -2   -1    0    0    0  501 -0.00000000000E+00 -0.00000000000E+00 -0.56331569360E+02  0.56331569360E+02  0.00000000000E+00 0. -1.
          5    1    1    2  502    0  0.28270126769E+02  0.97431807175E+02  0.84539875450E+02  0.13214097645E+03  0.47000000000E+01 0.  1.
         -5    1    1    2    0  502  0.26206161220E+02  0.37829704712E+02  0.24498118460E+03  0.24931048965E+03  0.47000000000E+01 0.  1.
        -11    1    1    2    0    0  0.18621531965E+02 -0.42639364732E+02  0.28032521964E+02  0.54320338411E+02  0.00000000000E+00 0. -1.
         11    1    1    2    0    0 -0.73097819954E+02 -0.92622147155E+02  0.18487054946E+03  0.21931546567E+03  0.00000000000E+00 0.  1.
<mgrwt>
<rscale>  0 0.18687254E+03</rscale>
<asrwt>0</asrwt>
<pdfrwt beam="1">  1        2 0.92116257E-01 0.19214862E+03</pdfrwt>
<pdfrwt beam="2">  1       -2 0.86663957E-02 0.19214862E+03</pdfrwt>
<totfact> 0.41489479E+03</totfact>
</mgrwt>
</event>
<event>
 6    1  0.6101889E-006  0.1435849E+03  0.7546771E-02  0.1218371E+00
          2   -1    0    0  501    0  0.00000000000E+00  0.00000000000E+00  0.12414304359E+03  0.12414304359E+03  0.00000000000E+00 0. -1.
         -2   -1    0    0    0  501 -0.00000000000E+00 -0.00000000000E+00 -0.14720937855E+03  0.14720937855E+03  0.00000000000E+00 0.  1.
          5    1    1    2  502    0  0.50400752027E+02 -0.72790434977E+01 -0.18008281094E+01  0.51171801424E+02  0.47000000000E+01 0.  1.
         -5    1    1    2    0  502 -0.46553998127E+02  0.77831366781E+02  0.25778829986E+02  0.94401453761E+02  0.47000000000E+01 0.  1.
        -11    1    1    2    0    0 -0.29580145744E+02 -0.71996918736E+02 -0.58702581484E+02  0.97491201668E+02  0.00000000000E+00 0.  1.
         11    1    1    2    0    0  0.25733391845E+02  0.14445954529E+01  0.11658244647E+02  0.28287965288E+02  0.00000000000E+00 0. -1.
<mgrwt>
<rscale>  0 0.13631788E+03</rscale>
<asrwt>0</asrwt>
<pdfrwt beam="1">  1        2 0.19098930E-01 0.14358492E+03</pdfrwt>
<pdfrwt beam="2">  1       -2 0.22647597E-01 0.14358492E+03</pdfrwt>
<totfact> 0.47514602E+03</totfact>
</mgrwt>
</event>
<event>
 6    1  0.6101889E-006  0.2763135E+03  0.7546771E-02  0.1097720E+00
          1   -1    0    0  501    0  0.00000000000E+00  0.00000000000E+00  0.91916573690E+02  0.91916573690E+02  0.00000000000E+00 0. -1.
         -1   -1    0    0    0  501 -0.00000000000E+00 -0.00000000000E+00 -0.20765885187E+03  0.20765885187E+03  0.00000000000E+00 0.  1.
          5    1    1    2  502    0  0.79311363046E+01  0.10742436711E+02  0.48487507089E+02  0.50511693827E+02  0.47000000000E+01 0. -1.
         -5    1    1    2    0  502  0.66263915494E+02  0.54446042977E+01 -0.82168156085E+02  0.10580286427E+03  0.47000000000E+01 0.  1.
        -11    1    1    2    0    0 -0.44854769299E+02 -0.49276907621E+02 -0.71612661755E+02  0.97818900409E+02  0.00000000000E+00 0. -1.
         11    1    1    2    0    0 -0.29340282500E+02  0.33089866612E+02 -0.10448967425E+02  0.45441967055E+02  0.00000000000E+00 0.  1.
<mgrwt>
<rscale>  0 0.27631352E+03</rscale>
<asrwt>0</asrwt>
<pdfrwt beam="1">  1        1 0.14141011E-01 0.27631352E+03</pdfrwt>
<pdfrwt beam="2">  1       -1 0.31947515E-01 0.27631352E+03</pdfrwt>
<totfact> 0.36758426E+03</totfact>
</mgrwt>
</event>
<event>
 6    1  0.6101889E-006  0.1580245E+03  0.7546771E-02  0.1198632E+00
         -2   -1    0    0    0  501 -0.00000000000E+00  0.00000000000E+00  0.34734597898E+02  0.34734597898E+02  0.00000000000E+00 0. -1.
          2   -1    0    0  501    0  0.00000000000E+00 -0.00000000000E+00 -0.68449456451E+03  0.68449456451E+03  0.00000000000E+00 0.  1.
          5    1    1    2  502    0  0.24776211820E+02 -0.66353505177E+02 -0.42694370189E+03  0.43280441645E+03  0.47000000000E+01 0. -1.
         -5    1    1    2    0  502  0.44343484226E+02 -0.12326105778E+01 -0.39160534857E+02  0.59359088710E+02  0.47000000000E+01 0. -1.
        -11    1    1    2    0    0 -0.12127628075E+02  0.65851313670E+02 -0.56128619333E+02  0.87372173963E+02  0.00000000000E+00 0. -1.
         11    1    1    2    0    0 -0.56992067972E+02  0.17348020842E+01 -0.12752711054E+03  0.13969348329E+03  0.00000000000E+00 0.  1.
<mgrwt>
<rscale>  0 0.15150796E+03</rscale>
<asrwt>0</asrwt>
<pdfrwt beam="2">  1        2 0.10530685E+00 0.15802454E+03</pdfrwt>
<pdfrwt beam="1">  1       -2 0.53437846E-02 0.15802454E+03</pdfrwt>
<totfact> 0.73979702E+03</totfact>
</mgrwt>
</event>
<event>
 6    1  0.6101889E-006  0.1451194E+03  0.7546771E-02  0.1214513E+00
         -2   -1    0    0    0  501 -0.00000000000E+00  0.00000000000E+00  0.11237317275E+03  0.11237317275E+03  0.00000000000E+00 0.  1.
          2   -1    0    0  501    0  0.00000000000E+00 -0.00000000000E+00 -0.16219995098E+03  0.16219995098E+03  0.00000000000E+00 0. -1.
          5    1    1    2  502    0 -0.57591916146E+02  0.47384895259E+02 -0.60199365302E+02  0.95959422085E+02  0.47000000000E+01 0.  1.
         -5    1    1    2    0  502 -0.16030505198E+02 -0.51121103440E+02  0.15355763503E+02  0.55930615825E+02  0.47000000000E+01 0.  1.
        -11    1    1    2    0    0  0.65808816293E+02  0.43884620708E+02 -0.15149840024E+02  0.80536810771E+02  0.00000000000E+00 0.  1.
         11    1    1    2    0    0  0.78136050516E+01 -0.40148412527E+02  0.10166663589E+02  0.42146275053E+02  0.00000000000E+00 0. -1.
<mgrwt>
<rscale>  0 0.13912353E+03</rscale>
<asrwt>0</asrwt>
<pdfrwt beam="2">  1        2 0.24953839E-01 0.14511938E+03</pdfrwt>
<pdfrwt beam="1">  1       -2 0.17288180E-01 0.14511938E+03</pdfrwt>
<totfact> 0.55636055E+03</totfact>
</mgrwt>
</event>
<event>
 6    1  0.6101889E-006  0.2377518E+03  0.7546771E-02  0.1123965E+00
         -1   -1    0    0    0  501 -0.00000000000E+00  0.00000000000E+00  0.60524943903E+03  0.60524943903E+03  0.00000000000E+00 0.  1.
          1   -1    0    0  501    0  0.00000000000E+00 -0.00000000000E+00 -0.35542074266E+03  0.35542074266E+03  0.00000000000E+00 0. -1.
          5    1    1    2  502    0  0.13456672341E+03  0.97550785359E+02 -0.19817916266E+03  0.25869176501E+03  0.47000000000E+01 0. -1.
         -5    1    1    2    0  502 -0.19213562724E+02  0.68566163976E+02 -0.92873333753E+02  0.11712397687E+03  0.47000000000E+01 0. -1.
        -11    1    1    2    0    0 -0.32212480438E+02 -0.44070846042E+02  0.27823649711E+03  0.28354088187E+03  0.00000000000E+00 0.  1.
         11    1    1    2    0    0 -0.83140680245E+02 -0.12204610329E+03  0.26264469567E+03  0.30131355795E+03  0.00000000000E+00 0. -1.
<mgrwt>
<rscale>  0 0.23384117E+03</rscale>
<asrwt>0</asrwt>
<pdfrwt beam="2">  1        1 0.54680115E-01 0.23775180E+03</pdfrwt>
<pdfrwt beam="1">  1       -1 0.93115298E-01 0.23775180E+03</pdfrwt>
<totfact> 0.84750727E+01</totfact>
</mgrwt>
</event>
<event>
 6    1  0.6101889E-006  0.1814918E+03  0.7546771E-02  0.1171466E+00
         -1   -1    0    0    0  501 -0.00000000000E+00  0.00000000000E+00  0.33728636085E+03  0.33728636085E+03  0.00000000000E+00 0.  1.
          1   -1    0    0  501    0  0.00000000000E+00 -0.00000000000E+00 -0.87294024956E+02  0.87294024956E+02  0.00000000000E+00 0. -1.
          5    1    1    2  502    0 -0.10337155975E+03 -0.30825166567E+02  0.14774713019E+03  0.18299501288E+03  0.47000000000E+01 0. -1.
         -5    1    1    2    0  502 -0.28144034413E+02  0.35266655312E+02 -0.80011431279E+01  0.46064432497E+02  0.47000000000E+01 0. -1.
        -11    1    1    2    0    0  0.32278590490E+02  0.23397651247E+02  0.77879337865E+02  0.87490278056E+02  0.00000000000E+00 0.  1.
         11    1    1    2    0    0  0.99237003676E+02 -0.27839139991E+02  0.32367010966E+02  0.10803066237E+03  0.00000000000E+00 0. -1.
<mgrwt>
<rscale>  0 0.17626625E+03</rscale>
<asrwt>0</asrwt>
<pdfrwt beam="2">  1        1 0.13429850E-01 0.18149184E+03</pdfrwt>
<pdfrwt beam="1">  1       -1 0.51890209E-01 0.18149184E+03</pdfrwt>
<totfact> 0.16325823E+03</totfact>
</mgrwt>
</event>
<event>
 6    1  0.6101889E-006  0.3743609E+03  0.7546771E-02  0.1053038E+00
          1   -1    0    0  501    0  0.00000000000E+00  0.00000000000E+00  0.68429759474E+03  0.68429759474E+03  0.00000000000E+00 0. -1.
         -1   -1    0    0    0  501 -0.00000000000E+00 -0.00000000000E+00 -0.51200700378E+02  0.51200700378E+02  0.00000000000E+00 0.  1.
          5    1    1    2  502    0 -0.25824097427E+02  0.60524610259E+01  0.13227828702E+03  0.13499315357E+03  0.47000000000E+01 0. -1.
         -5    1    1    2    0  502 -0.87294027604E+01  0.13394104344E+03  0.11125818804E+03  0.17440435773E+03  0.47000000000E+01 0. -1.
        -11    1    1    2    0    0 -0.12148191085E+02 -0.11717497244E+03  0.23212292494E+03  0.26030483091E+03  0.00000000000E+00 0.  1.
         11    1    1    2    0    0  0.46701691272E+02 -0.22818532027E+02  0.15743749436E+03  0.16579595291E+03  0.00000000000E+00 0. -1.
<mgrwt>
<rscale>  0 0.37436087E+03</rscale>
<asrwt>0</asrwt>
<pdfrwt beam="1">  1        1 0.10527655E+00 0.37436087E+03</pdfrwt>
<pdfrwt beam="2">  1       -1 0.78770313E-02 0.37436087E+03</pdfrwt>
<totfact> 0.25782985E+03</totfact>
</mgrwt>
</event>
<event>
 6    1  0.6101889E-006  0.1453568E+03  0.7546771E-02  0.1222451E+00
         -3   -1    0    0    0  501 -0.00000000000E+00  0.00000000000E+00  0.42369299320E+02  0.42369299320E+02  0.00000000000E+00 0.  1.
          3   -1    0    0  501    0  0.00000000000E+00 -0.00000000000E+00 -0.55318923550E+03  0.55318923550E+03  0.00000000000E+00 0. -1.
          5    1    1    2  502    0 -0.19531793159E+02 -0.47149145683E+02 -0.18147244591E+03  0.18857060086E+03  0.47000000000E+01 0. -1.
         -5    1    1    2    0  502  0.10368000894E+01  0.93451435527E+02 -0.27470237151E+03  0.29020290948E+03  0.47000000000E+01 0.  1.
        -11    1    1    2    0    0 -0.28566044244E+02 -0.33180480662E+02 -0.51830180930E+02  0.67847850636E+02  0.00000000000E+00 0. -1.
         11    1    1    2    0    0  0.47061037313E+02 -0.13121809181E+02 -0.28149378269E+01  0.48937173848E+02  0.00000000000E+00 0.  1.
<mgrwt>
<rscale>  0 0.13343164E+03</rscale>
<asrwt>0</asrwt>
<pdfrwt beam="2">  1        3 0.85106031E-01 0.14535684E+03</pdfrwt>
<pdfrwt beam="1">  1       -3 0.65183541E-02 0.14535684E+03</pdfrwt>
<totfact> 0.45483154E+02</totfact>
</mgrwt>
</event>
<event>
 6    1  0.6101889E-006  0.1265907E+03  0.7546771E-02  0.1248896E+00
         -1   -1    0    0    0  501 -0.00000000000E+00  0.00000000000E+00  0.20219344326E+03  0.20219344326E+03  0.00000000000E+00 0.  1.
          1   -1    0    0  501    0  0.00000000000E+00 -0.00000000000E+00 -0.59914310751E+02  0.59914310751E+02  0.00000000000E+00 0. -1.
          5    1    1    2  502    0 -0.55041786333E+02  0.12736107524E+02  0.36620291548E+02  0.67490313606E+02  0.47000000000E+01 0.  1.
         -5    1    1    2    0  502  0.60967229211E+02 -0.31999013254E+02  0.65616494554E+02  0.95228956964E+02  0.47000000000E+01 0.  1.
        -11    1    1    2    0    0 -0.38825517756E+02  0.36040698508E+02  0.30953857102E+02  0.61355472840E+02  0.00000000000E+00 0.  1.
         11    1    1    2    0    0  0.32900074878E+02 -0.16777792778E+02  0.90884893044E+01  0.38033010600E+02  0.00000000000E+00 0. -1.
<mgrwt>
<rscale>  0 0.11655213E+03</rscale>
<asrwt>0</asrwt>
<pdfrwt beam="2">  1        1 0.92175864E-02 0.12659068E+03</pdfrwt>
<pdfrwt beam="1">  1       -1 0.31106683E-01 0.12659068E+03</pdfrwt>
<totfact> 0.64910846E+03</totfact>
</mgrwt>
</event>
<event>
 6    1  0.6101889E-006  0.1663113E+03  0.7546771E-02  0.1188706E+00
          2   -1    0    0  501    0  0.00000000000E+00  0.00000000000E+00  0.30967677468E+03  0.30967677468E+03  0.00000000000E+00 0. -1.
         -2   -1    0    0    0  501 -0.00000000000E+00 -0.00000000000E+00 -0.11735880119E+03  0.11735880119E+03  0.00000000000E+00 0.  1.
          5    1    1    2  502    0 -0.76806655052E+02  0.15552755931E+02  0.44810209282E+02  0.90394664297E+02  0.47000000000E+01 0.  1.
         -5    1    1    2    0  502 -0.27047194837E+02 -0.50893751985E+02  0.18125956135E+03  0.19025993619E+03  0.47000000000E+01 0.  1.
        -11    1    1    2    0    0  0.63441505443E+02 -0.22907042060E+02  0.93285518987E+00  0.67456855898E+02  0.00000000000E+00 0. -1.
         11    1    1    2    0    0  0.40412344446E+02  0.58248038115E+02 -0.34684652332E+02  0.78924119477E+02  0.00000000000E+00 0.  1.
<mgrwt>
<rscale>  0 0.15999148E+03</rscale>
<asrwt>0</asrwt>
<pdfrwt beam="1">  1        2 0.47642580E-01 0.16631135E+03</pdfrwt>
<pdfrwt beam="2">  1       -2 0.18055200E-01 0.16631135E+03</pdfrwt>
<totfact> 0.25925666E+03</totfact>
</mgrwt>
</event>
<event>
 6    1  0.6101889E-006  0.1463724E+03  0.7546771E-02  0.1215170E+00
         -1   -1    0    0    0  501 -0.00000000000E+00  0.00000000000E+00  0.61944229784E+02  0.61944229784E+02  0.00000000000E+00 0.  1.
          1   -1    0    0  501    0  0.00000000000E+00 -0.00000000000E+00 -0.69532256706E+03  0.69532256706E+03  0.00000000000E+00 0. -1.
          5    1    1    2  502    0  0.15170960347E+02 -0.16055413211E+02 -0.37423245981E+03  0.37491326772E+03  0.47000000000E+01 0.  1.
         -5    1    1    2    0  502 -0.90894180700E+02  0.79034958322E+01 -0.24767458610E+03  0.26398675711E+03  0.47000000000E+01 0.  1.
        -11    1    1    2    0    0 -0.17684211139E+02  0.15806934227E+02 -0.61081860915E+01  0.24492864891E+02  0.00000000000E+00 0.  1.
         11    1    1    2    0    0  0.93407431492E+02 -0.76550168475E+01 -0.53631052718E+01  0.93873907125E+02  0.00000000000E+00 0. -1.
<mgrwt>
<rscale>  0 0.13864030E+03</rscale>
<asrwt>0</asrwt>
<pdfrwt beam="2">  1        1 0.10697271E+00 0.14637236E+03</pdfrwt>
<pdfrwt beam="1">  1       -1 0.95298812E-02 0.14637236E+03</pdfrwt>
<totfact> 0.18505494E+03</totfact>
</mgrwt>
</event>
<event>
 6    1  0.6101889E-006  0.1777735E+03  0.7546771E-02  0.1175716E+00
          2   -1    0    0  501    0  0.00000000000E+00  0.00000000000E+00  0.16493861931E+04  0.16493861931E+04  0.00000000000E+00 0. -1.
         -2   -1    0    0    0  501 -0.00000000000E+00 -0.00000000000E+00 -0.31859320445E+02  0.31859320445E+02  0.00000000000E+00 0.  1.
          5    1    1    2  502    0  0.40746736159E+02 -0.15425582660E+02  0.13006924504E+03  0.13725284555E+03  0.47000000000E+01 0. -1.
         -5    1    1    2    0  502  0.74071545198E+02  0.68294588713E+02  0.12823006547E+04  0.12862611724E+04  0.47000000000E+01 0. -1.
        -11    1    1    2    0    0  0.43690487043E+01 -0.34520899592E+02  0.36854880071E+02  0.50685927832E+02  0.00000000000E+00 0. -1.
         11    1    1    2    0    0 -0.11918733006E+03 -0.18348106462E+02  0.16830209282E+03  0.20704556771E+03  0.00000000000E+00 0.  1.
<mgrwt>
<rscale>  0 0.17206073E+03</rscale>
<asrwt>0</asrwt>
<pdfrwt beam="1">  1        2 0.25375166E+00 0.17777352E+03</pdfrwt>
<pdfrwt beam="2">  1       -2 0.49014352E-02 0.17777352E+03</pdfrwt>
<totfact> 0.22973835E+03</totfact>
</mgrwt>
</event>
<event>
 6    1  0.6101889E-006  0.3540238E+03  0.7546771E-02  0.1060976E+00
         -1   -1    0    0    0  501 -0.00000000000E+00  0.00000000000E+00  0.11432615165E+03  0.11432615165E+03  0.00000000000E+00 0.  1.
          1   -1    0    0  501    0  0.00000000000E+00 -0.00000000000E+00 -0.27406860102E+03  0.27406860102E+03  0.00000000000E+00 0. -1.
          5    1    1    2  502    0  0.46067921589E+02  0.10287725816E+03 -0.32003306854E+02  0.11727013812E+03  0.47000000000E+01 0. -1.
         -5    1    1    2    0  502  0.32041734567E+02  0.24281478906E+01 -0.10485005471E+03  0.10976425934E+03  0.47000000000E+01 0. -1.
        -11    1    1    2    0    0 -0.97896070567E+01 -0.67267965131E+02 -0.43235765805E+02  0.80561448497E+02  0.00000000000E+00 0. -1.
         11    1    1    2    0    0 -0.68320049099E+02 -0.38037440917E+02  0.20346677996E+02  0.80798906712E+02  0.00000000000E+00 0.  1.
<mgrwt>
<rscale>  0 0.35402378E+03</rscale>
<asrwt>0</asrwt>
<pdfrwt beam="2">  1        1 0.42164400E-01 0.35402378E+03</pdfrwt>
<pdfrwt beam="1">  1       -1 0.17588639E-01 0.35402378E+03</pdfrwt>
<totfact> 0.24520245E+03</totfact>
</mgrwt>
</event>
<event>
 6    1  0.6101889E-006  0.3458964E+03  0.7546771E-02  0.1064312E+00
          2   -1    0    0  501    0  0.00000000000E+00  0.00000000000E+00  0.91494392317E+03  0.91494392317E+03  0.00000000000E+00 0.  1.
         -2   -1    0    0    0  501 -0.00000000000E+00 -0.00000000000E+00 -0.32691709884E+02  0.32691709884E+02  0.00000000000E+00 0. -1.
          5    1    1    2  502    0  0.17168598136E+02 -0.28258938077E+02  0.25918931091E+03  0.26133219709E+03  0.47000000000E+01 0. -1.
         -5    1    1    2    0  502  0.11236194029E+02  0.11608967149E+03  0.47639238109E+03  0.49048430622E+03  0.47000000000E+01 0. -1.
        -11    1    1    2    0    0 -0.44951653365E+02 -0.91043212520E+01  0.32747315926E+02  0.56355359160E+02  0.00000000000E+00 0.  1.
         11    1    1    2    0    0  0.16546861200E+02 -0.78726412165E+02  0.11392320535E+03  0.13946377058E+03  0.00000000000E+00 0. -1.
<mgrwt>
<rscale>  0 0.34589641E+03</rscale>
<asrwt>0</asrwt>
<pdfrwt beam="1">  1        2 0.14076058E+00 0.34589641E+03</pdfrwt>
<pdfrwt beam="2">  1       -2 0.50294945E-02 0.34589641E+03</pdfrwt>
<totfact> 0.57884649E+03</totfact>
</mgrwt>
</event>
<event>
 6    1  0.6101889E-006  0.3737945E+03  0.7546771E-02  0.1053251E+00
          2   -1    0    0  501    0  0.00000000000E+00  0.00000000000E+00  0.28305022931E+03  0.28305022931E+03  0.00000000000E+00 0. -1.
         -2   -1    0    0    0  501 -0.00000000000E+00 -0.00000000000E+00 -0.12340772841E+03  0.12340772841E+03  0.00000000000E+00 0.  1.
          5    1    1    2  502    0  0.97777326803E+01 -0.10373215257E+02 -0.14192401280E+02  0.20657248249E+02  0.47000000000E+01 0.  1.
         -5    1    1    2    0  502 -0.80169542515E+02  0.53131969932E+02  0.17019686638E+03  0.19554852365E+03  0.47000000000E+01 0.  1.
        -11    1    1    2    0    0  0.10312199503E+03  0.29323528997E+02  0.20896509492E+02  0.10922764907E+03  0.00000000000E+00 0.  1.
         11    1    1    2    0    0 -0.32730185194E+02 -0.72082283672E+02 -0.17258473695E+02  0.81024536756E+02  0.00000000000E+00 0. -1.
<mgrwt>
<rscale>  0 0.37379452E+03</rscale>
<asrwt>0</asrwt>
<pdfrwt beam="1">  1        2 0.43546189E-01 0.37379452E+03</pdfrwt>
<pdfrwt beam="2">  1       -2 0.18985805E-01 0.37379452E+03</pdfrwt>
<totfact> 0.26919101E+03</totfact>
</mgrwt>
</event>
<event>
 6    1  0.6101889E-006  0.1286657E+03  0.7546771E-02  0.1245854E+00
          1   -1    0    0  501    0  0.00000000000E+00  0.00000000000E+00  0.12291010079E+03  0.12291010079E+03  0.00000000000E+00 0. -1.
         -1   -1    0    0    0  501 -0.00000000000E+00 -0.00000000000E+00 -0.10129602496E+03  0.10129602496E+03  0.00000000000E+00 0.  1.
          5    1    1    2  502    0 -0.47052460457E+02 -0.58087102258E+01  0.59424845990E+02  0.76164804670E+02  0.47000000000E+01 0.  1.
         -5    1    1    2    0  502  0.39662584121E+02 -0.23764611748E+02 -0.30659258553E+02  0.55677261838E+02  0.47000000000E+01 0.  1.
        -11    1    1    2    0    0  0.23673532155E+02  0.46908295406E+02  0.20042986264E+02  0.56236514837E+02  0.00000000000E+00 0. -1.
         11    1    1    2    0    0 -0.16283655819E+02 -0.17334973432E+02 -0.27194497864E+02  0.36127544406E+02  0.00000000000E+00 0.  1.
<mgrwt>
<rscale>  0 0.11834407E+03</rscale>
<asrwt>0</asrwt>
<pdfrwt beam="1">  1        1 0.18909246E-01 0.12866574E+03</pdfrwt>
<pdfrwt beam="2">  1       -1 0.15584004E-01 0.12866574E+03</pdfrwt>
<totfact> 0.78195785E+03</totfact>
</mgrwt>
</event>
<event>
 6    1  0.6101889E-006  0.3401745E+03  0.7546771E-02  0.1066722E+00
          2   -1    0    0  501    0  0.00000000000E+00  0.00000000000E+00  0.97599250705E+03  0.97599250705E+03  0.00000000000E+00 0. -1.
         -2   -1    0    0    0  501 -0.00000000000E+00 -0.00000000000E+00 -0.29641282269E+02  0.29641282269E+02  0.00000000000E+00 0.  1.
          5    1    1    2  502    0 -0.27608728595E+02 -0.42782514899E+01  0.76160269959E+02  0.81258981354E+02  0.47000000000E+01 0. -1.
         -5    1    1    2    0  502  0.10811144641E+03  0.10256257586E+03  0.52643064008E+03  0.54713661514E+03  0.47000000000E+01 0. -1.
        -11    1    1    2    0    0 -0.39112576282E+02 -0.36306629812E+02  0.46516731872E+02  0.70793865100E+02  0.00000000000E+00 0.  1.
         11    1    1    2    0    0 -0.41390141531E+02 -0.61977694557E+02  0.29724358287E+03  0.30644432772E+03  0.00000000000E+00 0. -1.
<mgrwt>
<rscale>  0 0.34017448E+03</rscale>
<asrwt>0</asrwt>
<pdfrwt beam="1">  1        2 0.15015267E+00 0.34017448E+03</pdfrwt>
<pdfrwt beam="2">  1       -2 0.45601980E-02 0.34017448E+03</pdfrwt>
<totfact> 0.61453148E+03</totfact>
</mgrwt>
</event>
<event>
 6    1  0.7582876E-006  0.2547982E+03  0.7546771E-02  0.1112679E+00
          1   -1    0    0  501    0  0.00000000000E+00  0.00000000000E+00  0.49731781600E+03  0.49731781600E+03  0.00000000000E+00 0. -1.
         -1   -1    0    0    0  501 -0.00000000000E+00 -0.00000000000E+00 -0.14228076344E+03  0.14228076344E+03  0.00000000000E+00 0.  1.
          5    1    1    2  502    0  0.90800670854E+02  0.37374925844E+02  0.96696185347E+02  0.13789085963E+03  0.47000000000E+01 0.  1.
         -5    1    1    2    0  502  0.12419693564E+03 -0.92807431058E+02  0.20302357086E+03  0.25549708102E+03  0.47000000000E+01 0.  1.
        -11    1    1    2    0    0 -0.45707306180E+02 -0.12275769409E+02 -0.16682256363E+02  0.50181172069E+02  0.00000000000E+00 0.  1.
         11    1    1    2    0    0 -0.16929030032E+03  0.67708274623E+02  0.71999552707E+02  0.19602946672E+03  0.00000000000E+00 0. -1.
<mgrwt>
<rscale>  0 0.25099328E+03</rscale>
<asrwt>0</asrwt>
<pdfrwt beam="1">  1        1 0.76510432E-01 0.25479823E+03</pdfrwt>
<pdfrwt beam="2">  1       -1 0.21889348E-01 0.25479823E+03</pdfrwt>
<totfact> 0.79281862E+02</totfact>
</mgrwt>
</event>
<event>
 6    1  0.6101889E-006  0.5030692E+03  0.7546771E-02  0.1012981E+00
         -2   -1    0    0    0  501 -0.00000000000E+00  0.00000000000E+00  0.25218051122E+03  0.25218051122E+03  0.00000000000E+00 0.  1.
          2   -1    0    0  501    0  0.00000000000E+00 -0.00000000000E+00 -0.25089037954E+03  0.25089037954E+03  0.00000000000E+00 0. -1.
          5    1    1    2  502    0  0.66804388294E+02  0.73929066637E+02 -0.20600115665E+03  0.22888184666E+03  0.47000000000E+01 0. -1.
         -5    1    1    2    0  502 -0.15947322342E+01 -0.28437697910E+02 -0.55713797800E+01  0.29400273910E+02  0.47000000000E+01 0. -1.
        -11    1    1    2    0    0 -0.43040212690E+02  0.52191845802E+01  0.16811979026E+03  0.17362017070E+03  0.00000000000E+00 0.  1.
         11    1    1    2    0    0 -0.22169443369E+02 -0.50710553307E+02  0.44742877848E+02  0.71168599495E+02  0.00000000000E+00 0. -1.
<mgrwt>
<rscale>  0 0.50306924E+03</rscale>
<asrwt>0</asrwt>
<pdfrwt beam="2">  1        2 0.38598520E-01 0.50306924E+03</pdfrwt>
<pdfrwt beam="1">  1       -2 0.38797002E-01 0.50306924E+03</pdfrwt>
<totfact> 0.84436358E+02</totfact>
</mgrwt>
</event>
<event>
 6    1  0.6101889E-006  0.2925879E+03  0.7546771E-02  0.1089006E+00
         -3   -1    0    0    0  501 -0.00000000000E+00  0.00000000000E+00  0.11296279510E+03  0.11296279510E+03  0.00000000000E+00 0.  1.
          3   -1    0    0  501    0  0.00000000000E+00 -0.00000000000E+00 -0.18945993061E+03  0.18945993061E+03  0.00000000000E+00 0. -1.
          5    1    1    2  502    0 -0.12510220823E+02  0.23887641208E+02  0.46621166695E+01  0.27765992858E+02  0.47000000000E+01 0. -1.
         -5    1    1    2    0  502  0.11590731312E+03 -0.22591165660E+02 -0.66538483704E+02  0.13562568272E+03  0.47000000000E+01 0.  1.
        -11    1    1    2    0    0 -0.29948473511E+02  0.39996880710E+02  0.10596648453E+02  0.51077886512E+02  0.00000000000E+00 0.  1.
         11    1    1    2    0    0 -0.73448618788E+02 -0.41293356259E+02 -0.25217416928E+02  0.87953163613E+02  0.00000000000E+00 0. -1.
<mgrwt>
<rscale>  0 0.29258792E+03</rscale>
<asrwt>0</asrwt>
<pdfrwt beam="2">  1        3 0.29147682E-01 0.29258792E+03</pdfrwt>
<pdfrwt beam="1">  1       -3 0.17378892E-01 0.29258792E+03</pdfrwt>
<totfact> 0.83299618E+02</totfact>
</mgrwt>
</event>
<event>
 6    1  0.6101889E-006  0.1965141E+03  0.7546771E-02  0.1157137E+00
         -2   -1    0    0    0  501 -0.00000000000E+00  0.00000000000E+00  0.24395827340E+02  0.24395827340E+02  0.00000000000E+00 0.  1.
          2   -1    0    0  501    0  0.00000000000E+00 -0.00000000000E+00 -0.18207059065E+04  0.18207059065E+04  0.00000000000E+00 0. -1.
          5    1    1    2  502    0  0.10327874272E+02 -0.14452178272E+02 -0.46693999155E+02  0.50179178958E+02  0.47000000000E+01 0. -1.
         -5    1    1    2    0  502 -0.28074635963E+02  0.16504540557E+03 -0.13146485670E+04  0.13252739776E+04  0.47000000000E+01 0. -1.
        -11    1    1    2    0    0  0.11416212732E+02 -0.15832175324E+02 -0.67037304816E+01  0.20638015675E+02  0.00000000000E+00 0. -1.
         11    1    1    2    0    0  0.63305489594E+01 -0.13476105198E+03 -0.42826378249E+03  0.44901056154E+03  0.00000000000E+00 0.  1.
<mgrwt>
<rscale>  0 0.19147626E+03</rscale>
<asrwt>0</asrwt>
<pdfrwt beam="2">  1        2 0.28010865E+00 0.19651413E+03</pdfrwt>
<pdfrwt beam="1">  1       -2 0.37532035E-02 0.19651413E+03</pdfrwt>
<totfact> 0.27951975E+03</totfact>
</mgrwt>
</event>
<event>
 6    1  0.6101889E-006  0.1546348E+03  0.7546771E-02  0.1203262E+00
          2   -1    0    0  501    0  0.00000000000E+00  0.00000000000E+00  0.82744295278E+03  0.82744295278E+03  0.00000000000E+00 0.  1.
         -2   -1    0    0    0  501 -0.00000000000E+00 -0.00000000000E+00 -0.34888287201E+02  0.34888287201E+02  0.00000000000E+00 0. -1.
          5    1    1    2  502    0  0.31537766424E+02  0.30223251996E+02  0.38267438730E+03  0.38518807402E+03  0.47000000000E+01 0. -1.
         -5    1    1    2    0  502  0.42643083145E+02 -0.82997708840E+02  0.27563809662E+03  0.29104209751E+03  0.47000000000E+01 0. -1.
        -11    1    1    2    0    0 -0.41285289405E+00  0.40918202659E+02  0.11669070789E+02  0.42551580105E+02  0.00000000000E+00 0. -1.
         11    1    1    2    0    0 -0.73767996675E+02  0.11856254185E+02  0.12257311087E+03  0.14354948835E+03  0.00000000000E+00 0.  1.
<mgrwt>
<rscale>  0 0.14775264E+03</rscale>
<asrwt>0</asrwt>
<pdfrwt beam="1">  1        2 0.12729890E+00 0.15463479E+03</pdfrwt>
<pdfrwt beam="2">  1       -2 0.53674294E-02 0.15463479E+03</pdfrwt>
<totfact> 0.58196731E+03</totfact>
</mgrwt>
</event>
<event>
 6    1  0.6101889E-006  0.1259664E+03  0.7546771E-02  0.1248539E+00
          1   -1    0    0  501    0  0.00000000000E+00  0.00000000000E+00  0.12408611832E+03  0.12408611832E+03  0.00000000000E+00 0. -1.
         -1   -1    0    0    0  501 -0.00000000000E+00 -0.00000000000E+00 -0.96888826800E+02  0.96888826800E+02  0.00000000000E+00 0.  1.
          5    1    1    2  502    0  0.33937817706E+02  0.13153352508E+02  0.53860400855E+02  0.65175293886E+02  0.47000000000E+01 0. -1.
         -5    1    1    2    0  502 -0.32091990842E+02 -0.26892269861E+02 -0.44321115782E+02  0.61151789497E+02  0.47000000000E+01 0. -1.
        -11    1    1    2    0    0  0.12594988256E+02 -0.26981915814E+02 -0.21188858431E+02  0.36546206805E+02  0.00000000000E+00 0.  1.
         11    1    1    2    0    0 -0.14440815120E+02  0.40720833167E+02  0.38846864882E+02  0.58101654936E+02  0.00000000000E+00 0. -1.
<mgrwt>
<rscale>  0 0.11676039E+03</rscale>
<asrwt>0</asrwt>
<pdfrwt beam="1">  1        1 0.19090172E-01 0.12596640E+03</pdfrwt>
<pdfrwt beam="2">  1       -1 0.14905973E-01 0.12596640E+03</pdfrwt>
<totfact> 0.82691817E+03</totfact>
</mgrwt>
</event>
<event>
 6    1  0.6101889E-006  0.1300285E+03  0.7546771E-02  0.1240987E+00
         -2   -1    0    0    0  501 -0.00000000000E+00  0.00000000000E+00  0.19886412099E+02  0.19886412099E+02  0.00000000000E+00 0. -1.
          2   -1    0    0  501    0  0.00000000000E+00 -0.00000000000E+00 -0.80191570340E+03  0.80191570340E+03  0.00000000000E+00 0.  1.
          5    1    1    2  502    0 -0.44339279932E+02  0.10313013862E+02 -0.32815732261E+03  0.33133313807E+03  0.47000000000E+01 0.  1.
         -5    1    1    2    0  502  0.68073396886E+02 -0.37173678937E+02 -0.28089453444E+03  0.29144416146E+03  0.47000000000E+01 0.  1.
        -11    1    1    2    0    0 -0.51667125958E+02  0.10701877302E+01 -0.56829580500E+02  0.76813009486E+02  0.00000000000E+00 0. -1.
         11    1    1    2    0    0  0.27933009003E+02  0.25790477345E+02 -0.11614785375E+03  0.12221180649E+03  0.00000000000E+00 0.  1.
<mgrwt>
<rscale>  0 0.12128791E+03</rscale>
<asrwt>0</asrwt>
<pdfrwt beam="2">  1        2 0.12337165E+00 0.13002846E+03</pdfrwt>
<pdfrwt beam="1">  1       -2 0.30594479E-02 0.13002846E+03</pdfrwt>
<totfact> 0.13844487E+04</totfact>
</mgrwt>
</event>
<event>
 6    1  0.6101889E-006  0.1532618E+03  0.7546771E-02  0.1205040E+00
          1   -1    0    0  501    0  0.00000000000E+00  0.00000000000E+00  0.11607525887E+04  0.11607525887E+04  0.00000000000E+00 0. -1.
         -1   -1    0    0    0  501 -0.00000000000E+00 -0.00000000000E+00 -0.16971349444E+02  0.16971349444E+02  0.00000000000E+00 0.  1.
          5    1    1    2  502    0  0.87678856931E+01  0.11955402490E+02  0.49144986122E+03  0.49169590558E+03  0.47000000000E+01 0.  1.
         -5    1    1    2    0  502  0.48456137353E+02  0.55819493112E+02  0.14348009382E+03  0.16146962681E+03  0.47000000000E+01 0.  1.
        -11    1    1    2    0    0  0.78397375787E+01 -0.18191731743E+02  0.17462756283E+02  0.26407355910E+02  0.00000000000E+00 0.  1.
         11    1    1    2    0    0 -0.65063760625E+02 -0.49583163859E+02  0.49138852793E+03  0.49815104985E+03  0.00000000000E+00 0. -1.
<mgrwt>
<rscale>  0 0.14634284E+03</rscale>
<asrwt>0</asrwt>
<pdfrwt beam="1">  1        1 0.17857726E+00 0.15326175E+03</pdfrwt>
<pdfrwt beam="2">  1       -1 0.26109777E-02 0.15326175E+03</pdfrwt>
<totfact> 0.55496228E+03</totfact>
</mgrwt>
</event>
<event>
 6    1  0.6101889E-006  0.4460542E+03  0.7546771E-02  0.1054181E+00
          1   -1    0    0  501    0  0.00000000000E+00  0.00000000000E+00  0.98443239937E+03  0.98443239937E+03  0.00000000000E+00 0. -1.
         -1   -1    0    0    0  501 -0.00000000000E+00 -0.00000000000E+00 -0.14054905858E+03  0.14054905858E+03  0.00000000000E+00 0.  1.
          5    1    1    2  502    0 -0.22445020023E+03 -0.20617846872E+03  0.41134288210E+03  0.51196924712E+03  0.47000000000E+01 0. -1.
         -5    1    1    2    0  502  0.96453960092E+02  0.62254152242E+02  0.37349826591E+03  0.39077102059E+03  0.47000000000E+01 0.  1.
        -11    1    1    2    0    0  0.14116918324E+03  0.11380578661E+03  0.51733563933E+02  0.18856525926E+03  0.00000000000E+00 0.  1.
         11    1    1    2    0    0 -0.13172943102E+02  0.30118529870E+02  0.73086288498E+01  0.33675930977E+02  0.00000000000E+00 0. -1.
<mgrwt>
<rscale>  0 0.37134145E+03</rscale>
<asrwt>0</asrwt>
<pdfrwt beam="1">  1        1 0.15145113E+00 0.44605422E+03</pdfrwt>
<pdfrwt beam="2">  1       -1 0.21622933E-01 0.44605422E+03</pdfrwt>
<totfact> 0.28808968E+02</totfact>
</mgrwt>
</event>
<event>
 6    1  0.6101889E-006  0.1469082E+03  0.7546771E-02  0.1213249E+00
         -2   -1    0    0    0  501 -0.00000000000E+00  0.00000000000E+00  0.24266375032E+02  0.24266375032E+02  0.00000000000E+00 0.  1.
          2   -1    0    0  501    0  0.00000000000E+00 -0.00000000000E+00 -0.90569669340E+03  0.90569669340E+03  0.00000000000E+00 0. -1.
          5    1    1    2  502    0  0.30909266033E+02 -0.29459403671E+02 -0.63715236079E+03  0.63859882560E+03  0.47000000000E+01 0. -1.
         -5    1    1    2    0  502  0.21827066360E+02 -0.26891982862E+02 -0.35161430420E+02  0.49578379939E+02  0.47000000000E+01 0. -1.
        -11    1    1    2    0    0 -0.22758630266E+02 -0.25095133787E+02 -0.70940849290E+02  0.78615043658E+02  0.00000000000E+00 0.  1.
         11    1    1    2    0    0 -0.29977702128E+02  0.81446520319E+02 -0.13817567787E+03  0.16317081924E+03  0.00000000000E+00 0. -1.
<mgrwt>
<rscale>  0 0.14005947E+03</rscale>
<asrwt>0</asrwt>
<pdfrwt beam="2">  1        2 0.13933796E+00 0.14690824E+03</pdfrwt>
<pdfrwt beam="1">  1       -2 0.37332883E-02 0.14690824E+03</pdfrwt>
<totfact> 0.88987371E+03</totfact>
</mgrwt>
</event>
<event>
 6    1  0.6101889E-006  0.1499234E+03  0.7546771E-02  0.1209749E+00
          1   -1    0    0  501    0  0.00000000000E+00  0.00000000000E+00  0.74939044802E+02  0.74939044802E+02  0.00000000000E+00 0. -1.
         -1   -1    0    0    0  501 -0.00000000000E+00 -0.00000000000E+00 -0.24857081196E+03  0.24857081196E+03  0.00000000000E+00 0.  1.
          5    1    1    2  502    0 -0.70521741431E+01  0.77514581927E+02 -0.11202755125E+03  0.13649361088E+03  0.47000000000E+01 0.  1.
         -5    1    1    2    0  502  0.35855221091E+02  0.90818381446E-01  0.18083506281E+02  0.40431526399E+02  0.47000000000E+01 0.  1.
        -11    1    1    2    0    0 -0.38931093406E+02 -0.79348411268E+02 -0.93960127681E+02  0.12899731004E+03  0.00000000000E+00 0.  1.
         11    1    1    2    0    0  0.10128046458E+02  0.17430109591E+01  0.14272405492E+02  0.17587409440E+02  0.00000000000E+00 0. -1.
<mgrwt>
<rscale>  0 0.14269436E+03</rscale>
<asrwt>0</asrwt>
<pdfrwt beam="1">  1        1 0.11529084E-01 0.14992338E+03</pdfrwt>
<pdfrwt beam="2">  1       -1 0.38241664E-01 0.14992338E+03</pdfrwt>
<totfact> 0.34251319E+03</totfact>
</mgrwt>
</event>
<event>
 6    1  0.6101889E-006  0.1319172E+03  0.7546771E-02  0.1236806E+00
         -3   -1    0    0    0  501 -0.00000000000E+00  0.00000000000E+00  0.17198273025E+03  0.17198273025E+03  0.00000000000E+00 0.  1.
          3   -1    0    0  501    0  0.00000000000E+00 -0.00000000000E+00 -0.85084697987E+02  0.85084697987E+02  0.00000000000E+00 0. -1.
          5    1    1    2  502    0  0.20216298453E+02 -0.55639080979E+02 -0.19469681880E+02  0.62494516302E+02  0.47000000000E+01 0.  1.
         -5    1    1    2    0  502  0.21949721627E+02  0.55882663304E+02  0.36749046995E+02  0.70549591016E+02  0.47000000000E+01 0.  1.
        -11    1    1    2    0    0 -0.13453497397E+02 -0.15929796855E+02  0.85250167461E+02  0.87763010843E+02  0.00000000000E+00 0.  1.
         11    1    1    2    0    0 -0.28712522683E+02  0.15686214530E+02 -0.15631500309E+02  0.36260310079E+02  0.00000000000E+00 0. -1.
<mgrwt>
<rscale>  0 0.12389552E+03</rscale>
<asrwt>0</asrwt>
<pdfrwt beam="2">  1        3 0.13089954E-01 0.13191724E+03</pdfrwt>
<pdfrwt beam="1">  1       -3 0.26458881E-01 0.13191724E+03</pdfrwt>
<totfact> 0.14526107E+03</totfact>
</mgrwt>
</event>
<event>
 6    1  0.6101889E-006  0.1667471E+03  0.7546771E-02  0.1188071E+00
         -1   -1    0    0    0  501 -0.00000000000E+00  0.00000000000E+00  0.43261170712E+03  0.43261170712E+03  0.00000000000E+00 0.  1.
          1   -1    0    0  501    0  0.00000000000E+00 -0.00000000000E+00 -0.69279111233E+02  0.69279111233E+02  0.00000000000E+00 0. -1.
          5    1    1    2  502    0 -0.10360280727E+03 -0.30101911320E+02  0.15307478527E+02  0.10906913238E+03  0.47000000000E+01 0.  1.
         -5    1    1    2    0  502 -0.64883661651E+01  0.37771857413E+02  0.65952932134E+02  0.76424416026E+02  0.47000000000E+01 0.  1.
        -11    1    1    2    0    0  0.12338121222E+03  0.55084478339E+01  0.22996903582E+03  0.26103452638E+03  0.00000000000E+00 0.  1.
         11    1    1    2    0    0 -0.13290038788E+02 -0.13178393928E+02  0.52103149409E+02  0.55362743573E+02  0.00000000000E+00 0. -1.
<mgrwt>
<rscale>  0 0.16055560E+03</rscale>
<asrwt>0</asrwt>
<pdfrwt beam="2">  1        1 0.10658325E-01 0.16674712E+03</pdfrwt>
<pdfrwt beam="1">  1       -1 0.66555646E-01 0.16674712E+03</pdfrwt>
<totfact> 0.13764389E+03</totfact>
</mgrwt>
</event>
<event>
 6    1  0.6101889E-006  0.2857765E+03  0.7546771E-02  0.1092575E+00
         -2   -1    0    0    0  501 -0.00000000000E+00  0.00000000000E+00  0.39858663449E+02  0.39858663449E+02  0.00000000000E+00 0.  1.
          2   -1    0    0  501    0  0.00000000000E+00 -0.00000000000E+00 -0.51223631750E+03  0.51223631750E+03  0.00000000000E+00 0. -1.
          5    1    1    2  502    0  0.98349558614E+02  0.62649360606E+02 -0.20268711449E+03  0.23388401922E+03  0.47000000000E+01 0. -1.
         -5    1    1    2    0  502 -0.36286794102E+02  0.58082379399E+01 -0.41932585739E+02  0.55954435042E+02  0.47000000000E+01 0. -1.
        -11    1    1    2    0    0 -0.33045351673E+02 -0.21678820289E+02 -0.14643435880E+02  0.42147321750E+02  0.00000000000E+00 0.  1.
         11    1    1    2    0    0 -0.29017412840E+02 -0.46778778257E+02 -0.21311451794E+03  0.22010920494E+03  0.00000000000E+00 0. -1.
<mgrwt>
<rscale>  0 0.28577652E+03</rscale>
<asrwt>0</asrwt>
<pdfrwt beam="2">  1        2 0.78805586E-01 0.28577652E+03</pdfrwt>
<pdfrwt beam="1">  1       -2 0.61321022E-02 0.28577652E+03</pdfrwt>
<totfact> 0.86362739E+03</totfact>
</mgrwt>
</event>
<event>
 6    1  0.6101889E-006  0.3404785E+03  0.7546771E-02  0.1066592E+00
          1   -1    0    0  501    0  0.00000000000E+00  0.00000000000E+00  0.20547563321E+04  0.20547563321E+04  0.00000000000E+00 0. -1.
         -1   -1    0    0    0  501 -0.00000000000E+00 -0.00000000000E+00 -0.14104544915E+02  0.14104544915E+02  0.00000000000E+00 0.  1.
          5    1    1    2  502    0 -0.26160079016E+02 -0.14095140307E+02  0.40102209689E+03  0.40214902077E+03  0.47000000000E+01 0.  1.
         -5    1    1    2    0  502  0.12346521593E+03  0.33484801933E+02  0.12016692404E+04  0.12084684294E+04  0.47000000000E+01 0.  1.
        -11    1    1    2    0    0 -0.18173673029E+02 -0.47469608577E+02  0.16979116630E+03  0.17723624428E+03  0.00000000000E+00 0.  1.
         11    1    1    2    0    0 -0.79131463890E+02  0.28079946951E+02  0.26816928357E+03  0.28100718256E+03  0.00000000000E+00 0. -1.
<mgrwt>
<rscale>  0 0.34047850E+03</rscale>
<asrwt>0</asrwt>
<pdfrwt beam="1">  1        1 0.31611612E+00 0.34047850E+03</pdfrwt>
<pdfrwt beam="2">  1       -1 0.21699316E-02 0.34047850E+03</pdfrwt>
<totfact> 0.18839271E+03</totfact>
</mgrwt>
</event>
<event>
 6    1  0.6101889E-006  0.2377872E+03  0.7546771E-02  0.1170729E+00
         -1   -1    0    0    0  501 -0.00000000000E+00  0.00000000000E+00  0.83359286578E+02  0.83359286578E+02  0.00000000000E+00 0.  1.
          1   -1    0    0  501    0  0.00000000000E+00 -0.00000000000E+00 -0.35588946658E+03  0.35588946658E+03  0.00000000000E+00 0. -1.
          5    1    1    2  502    0 -0.11393896242E+03  0.40333639698E+02 -0.13701458592E+03  0.18276754746E+03  0.47000000000E+01 0. -1.
         -5    1    1    2    0  502  0.11657689616E+03 -0.43992510602E+01 -0.14123043417E+03  0.18324205758E+03  0.47000000000E+01 0.  1.
        -11    1    1    2    0    0 -0.11567645611E+02 -0.27098752368E+02 -0.25893913922E+02  0.39225598569E+02  0.00000000000E+00 0. -1.
         11    1    1    2    0    0  0.89297118719E+01 -0.88356362702E+01  0.31608754017E+02  0.34013549549E+02  0.00000000000E+00 0.  1.
<mgrwt>
<rscale>  0 0.17700910E+03</rscale>
<asrwt>0</asrwt>
<pdfrwt beam="2">  1        1 0.54752226E-01 0.23778717E+03</pdfrwt>
<pdfrwt beam="1">  1       -1 0.12824506E-01 0.23778717E+03</pdfrwt>
<totfact> 0.28821379E+03</totfact>
</mgrwt>
</event>
<event>
 6    1  0.6101889E-006  0.1455098E+03  0.7546771E-02  0.1216283E+00
         -2   -1    0    0    0  501 -0.00000000000E+00  0.00000000000E+00  0.33357597128E+02  0.33357597128E+02  0.00000000000E+00 0. -1.
          2   -1    0    0  501    0  0.00000000000E+00 -0.00000000000E+00 -0.89466346526E+03  0.89466346526E+03  0.00000000000E+00 0.  1.
          5    1    1    2  502    0  0.73694574610E+02  0.19362369000E+02 -0.73915681553E+03  0.74308860818E+03  0.47000000000E+01 0.  1.
         -5    1    1    2    0  502  0.77228702517E+00 -0.21194088111E+02 -0.18858876020E+02  0.28766873359E+02  0.47000000000E+01 0.  1.
        -11    1    1    2    0    0  0.17211422752E+01 -0.25728418704E+02 -0.11739803236E+01  0.25812634300E+02  0.00000000000E+00 0.  1.
         11    1    1    2    0    0 -0.76188003910E+02  0.27560137814E+02 -0.10211619626E+03  0.13035294655E+03  0.00000000000E+00 0. -1.
<mgrwt>
<rscale>  0 0.13782683E+03</rscale>
<asrwt>0</asrwt>
<pdfrwt beam="2">  1        2 0.13764055E+00 0.14550978E+03</pdfrwt>
<pdfrwt beam="1">  1       -2 0.51319373E-02 0.14550978E+03</pdfrwt>
<totfact> 0.56171888E+03</totfact>
</mgrwt>
</event>
<event>
 6    1  0.6101889E-006  0.1709846E+03  0.7546771E-02  0.1184077E+00
         -2   -1    0    0    0  501 -0.00000000000E+00  0.00000000000E+00  0.32135848997E+02  0.32135848997E+02  0.00000000000E+00 0. -1.
          2   -1    0    0  501    0  0.00000000000E+00 -0.00000000000E+00 -0.91233225804E+03  0.91233225804E+03  0.00000000000E+00 0.  1.
          5    1    1    2  502    0  0.27187462382E+02  0.94789277121E+02 -0.46221544953E+03  0.47264085409E+03  0.47000000000E+01 0. -1.
         -5    1    1    2    0  502 -0.65404432495E+02  0.15442318846E+02 -0.18898477999E+03  0.20063285391E+03  0.47000000000E+01 0. -1.
        -11    1    1    2    0    0  0.18922183999E+02 -0.12147909277E+03 -0.19462371481E+03  0.23020340873E+03  0.00000000000E+00 0.  1.
         11    1    1    2    0    0  0.19294786114E+02  0.11247496801E+02 -0.34372464717E+02  0.40990990305E+02  0.00000000000E+00 0. -1.
<mgrwt>
<rscale>  0 0.16416158E+03</rscale>
<asrwt>0</asrwt>
<pdfrwt beam="2">  1        2 0.14035879E+00 0.17098464E+03</pdfrwt>
<pdfrwt beam="1">  1       -2 0.49439775E-02 0.17098464E+03</pdfrwt>
<totfact> 0.58290301E+03</totfact>
</mgrwt>
</event>
<event>
 6    1  0.6101889E-006  0.1308170E+03  0.7546771E-02  0.1240520E+00
         -2   -1    0    0    0  501 -0.00000000000E+00  0.00000000000E+00  0.24451381380E+03  0.24451381380E+03  0.00000000000E+00 0.  1.
          2   -1    0    0  501    0  0.00000000000E+00 -0.00000000000E+00 -0.55183551965E+02  0.55183551965E+02  0.00000000000E+00 0. -1.
          5    1    1    2  502    0 -0.24304437418E+02 -0.34834302780E+02  0.81718073031E+02  0.92217502613E+02  0.47000000000E+01 0.  1.
         -5    1    1    2    0  502  0.58805783857E+02  0.17617857703E+02 -0.85599147502E+00  0.61573791880E+02  0.47000000000E+01 0.  1.
        -11    1    1    2    0    0  0.12844938777E+02  0.15592249252E+02  0.94327535711E+02  0.96466546959E+02  0.00000000000E+00 0.  1.
         11    1    1    2    0    0 -0.47346285215E+02  0.16241958239E+01  0.14140644573E+02  0.49439524317E+02  0.00000000000E+00 0. -1.
<mgrwt>
<rscale>  0 0.12157554E+03</rscale>
<asrwt>0</asrwt>
<pdfrwt beam="2">  1        2 0.84897773E-02 0.13081699E+03</pdfrwt>
<pdfrwt beam="1">  1       -2 0.37617509E-01 0.13081699E+03</pdfrwt>
<totfact> 0.50058950E+03</totfact>
</mgrwt>
</event>
<event>
 6    1  0.6101889E-006  0.1293586E+03  0.7546771E-02  0.1243597E+00
          1   -1    0    0  501    0  0.00000000000E+00  0.00000000000E+00  0.26019944420E+02  0.26019944420E+02  0.00000000000E+00 0. -1.
         -1   -1    0    0    0  501 -0.00000000000E+00 -0.00000000000E+00 -0.49988212761E+03  0.49988212761E+03  0.00000000000E+00 0.  1.
          5    1    1    2  502    0 -0.34956435451E+02  0.66356926321E+02 -0.18795262805E+03  0.20241905652E+03  0.47000000000E+01 0.  1.
         -5    1    1    2    0  502  0.25963715580E+02 -0.34288833998E+02 -0.36335610387E+02  0.56499603945E+02  0.47000000000E+01 0.  1.
        -11    1    1    2    0    0 -0.16121665180E+01  0.30914945702E+02 -0.82740476827E+02  0.88342059373E+02  0.00000000000E+00 0. -1.
         11    1    1    2    0    0  0.10604886388E+02 -0.62983038025E+02 -0.16683346792E+03  0.17864135219E+03  0.00000000000E+00 0.  1.
<mgrwt>
<rscale>  0 0.11969737E+03</rscale>
<asrwt>0</asrwt>
<pdfrwt beam="1">  1        1 0.40030685E-02 0.12935864E+03</pdfrwt>
<pdfrwt beam="2">  1       -1 0.76904940E-01 0.12935864E+03</pdfrwt>
<totfact> 0.38451260E+03</totfact>
</mgrwt>
</event>
<event>
 6    1  0.6101889E-006  0.1401570E+03  0.7546771E-02  0.1223856E+00
         -1   -1    0    0    0  501 -0.00000000000E+00  0.00000000000E+00  0.64067367057E+03  0.64067367057E+03  0.00000000000E+00 0.  1.
          1   -1    0    0  501    0  0.00000000000E+00 -0.00000000000E+00 -0.24855603512E+02  0.24855603512E+02  0.00000000000E+00 0. -1.
          5    1    1    2  502    0 -0.19820724165E+02 -0.80064048059E+01  0.21693524210E+03  0.21803658613E+03  0.47000000000E+01 0. -1.
         -5    1    1    2    0  502  0.81767039523E+02 -0.48508075475E+01  0.10632333259E+03  0.13429862300E+03  0.47000000000E+01 0. -1.
        -11    1    1    2    0    0  0.43675025973E+01  0.18167898530E+02  0.69453760429E+01  0.19934539481E+02  0.00000000000E+00 0. -1.
         11    1    1    2    0    0 -0.66313817955E+02 -0.53106861770E+01  0.28561411632E+03  0.29325952547E+03  0.00000000000E+00 0.  1.
<mgrwt>
<rscale>  0 0.13245629E+03</rscale>
<asrwt>0</asrwt>
<pdfrwt beam="2">  1        1 0.38239395E-02 0.14015703E+03</pdfrwt>
<pdfrwt beam="1">  1       -1 0.98565168E-01 0.14015703E+03</pdfrwt>
<totfact> 0.24428872E+03</totfact>
</mgrwt>
</event>
<event>
 6    1  0.6101889E-006  0.1308921E+03  0.7546771E-02  0.1230535E+00
         -2   -1    0    0    0  501 -0.00000000000E+00  0.00000000000E+00  0.25723227154E+03  0.25723227154E+03  0.00000000000E+00 0. -1.
          2   -1    0    0  501    0  0.00000000000E+00 -0.00000000000E+00 -0.61554223883E+02  0.61554223883E+02  0.00000000000E+00 0.  1.
          5    1    1    2  502    0  0.79178143507E+01 -0.43989935408E+02  0.11009491105E+03  0.11891503538E+03  0.47000000000E+01 0.  1.
         -5    1    1    2    0  502 -0.27138155850E+02  0.10274539065E+02 -0.23834495710E+02  0.37844667282E+02  0.47000000000E+01 0.  1.
        -11    1    1    2    0    0  0.34353410685E+02  0.63654079683E+02  0.10597161437E+03  0.12830425456E+03  0.00000000000E+00 0. -1.
         11    1    1    2    0    0 -0.15133069186E+02 -0.29938683341E+02  0.34460179559E+01  0.33722538204E+02  0.00000000000E+00 0.  1.
<mgrwt>
<rscale>  0 0.12794635E+03</rscale>
<asrwt>0</asrwt>
<pdfrwt beam="2">  1        2 0.94698807E-02 0.13089211E+03</pdfrwt>
<pdfrwt beam="1">  1       -2 0.39574195E-01 0.13089211E+03</pdfrwt>
<totfact> 0.39748718E+03</totfact>
</mgrwt>
</event>
<event>
 6    1  0.6101889E-006  0.2497890E+03  0.7546771E-02  0.1131985E+00
          2   -1    0    0  501    0  0.00000000000E+00  0.00000000000E+00  0.24775077539E+03  0.24775077539E+03  0.00000000000E+00 0. -1.
         -2   -1    0    0    0  501 -0.00000000000E+00 -0.00000000000E+00 -0.17225196024E+03  0.17225196024E+03  0.00000000000E+00 0.  1.
          5    1    1    2  502    0  0.21694569822E+02 -0.35504372794E+01  0.11032991174E+03  0.11259680008E+03  0.47000000000E+01 0. -1.
         -5    1    1    2    0  502 -0.12101831616E+03  0.83160009292E+02 -0.29698503255E+02  0.14988365851E+03  0.47000000000E+01 0.  1.
        -11    1    1    2    0    0  0.95241836765E+02 -0.20920511310E+02 -0.12182695695E+02  0.98270511031E+02  0.00000000000E+00 0. -1.
         11    1    1    2    0    0  0.40819095763E+01 -0.58689060703E+02  0.70501023634E+01  0.59251766010E+02  0.00000000000E+00 0.  1.
<mgrwt>
<rscale>  0 0.22256551E+03</rscale>
<asrwt>0</asrwt>
<pdfrwt beam="1">  1        2 0.38115504E-01 0.24978905E+03</pdfrwt>
<pdfrwt beam="2">  1       -2 0.26500302E-01 0.24978905E+03</pdfrwt>
<totfact> 0.17187872E+03</totfact>
</mgrwt>
</event>
<event>
 6    1  0.6101889E-006  0.1262433E+03  0.7546771E-02  0.1248174E+00
          2   -1    0    0  501    0  0.00000000000E+00  0.00000000000E+00  0.99505444789E+03  0.99505444789E+03  0.00000000000E+00 0. -1.
         -2   -1    0    0    0  501 -0.00000000000E+00 -0.00000000000E+00 -0.17909735047E+02  0.17909735047E+02  0.00000000000E+00 0.  1.
          5    1    1    2  502    0  0.63492628667E+02  0.52176233771E+01  0.27378835633E+03  0.28114176415E+03  0.47000000000E+01 0.  1.
         -5    1    1    2    0  502 -0.47803961740E+02 -0.13302108739E+02  0.55132632251E+03  0.55357471830E+03  0.47000000000E+01 0.  1.
        -11    1    1    2    0    0 -0.31487339737E+02 -0.30354252257E+01  0.15544279059E+03  0.15862889875E+03  0.00000000000E+00 0. -1.
         11    1    1    2    0    0  0.15798672810E+02  0.11119910588E+02 -0.34127565873E+01  0.19618801736E+02  0.00000000000E+00 0.  1.
<mgrwt>
<rscale>  0 0.11697430E+03</rscale>
<asrwt>0</asrwt>
<pdfrwt beam="1">  1        2 0.15308526E+00 0.12624331E+03</pdfrwt>
<pdfrwt beam="2">  1       -2 0.27553446E-02 0.12624331E+03</pdfrwt>
<totfact> 0.12166075E+04</totfact>
</mgrwt>
</event>
<event>
 6    1  0.6101889E-006  0.1254660E+03  0.7546771E-02  0.1255772E+00
          4   -1    0    0  501    0  0.00000000000E+00  0.00000000000E+00  0.13781230099E+02  0.13781230099E+02  0.00000000000E+00 0. -1.
         -4   -1    0    0    0  501 -0.00000000000E+00 -0.00000000000E+00 -0.78595314259E+03  0.78595314259E+03  0.00000000000E+00 0.  1.
          5    1    1    2  502    0  0.39239190042E+02 -0.32154925875E+02 -0.90850297045E+02  0.10416102806E+03  0.47000000000E+01 0.  1.
         -5    1    1    2    0  502 -0.30638921802E+02  0.25509528688E+02 -0.41823284913E+03  0.42015507337E+03  0.47000000000E+01 0.  1.
        -11    1    1    2    0    0 -0.95893948130E+01 -0.32473072162E+02 -0.18500678906E+03  0.18807968765E+03  0.00000000000E+00 0.  1.
         11    1    1    2    0    0  0.98912657290E+00  0.39118469349E+02 -0.78081977251E+02  0.87338583610E+02  0.00000000000E+00 0. -1.
<mgrwt>
<rscale>  0 0.11263199E+03</rscale>
<asrwt>0</asrwt>
<pdfrwt beam="1">  1        4 0.21201893E-02 0.12546603E+03</pdfrwt>
<pdfrwt beam="2">  1       -4 0.12091586E+00 0.12546603E+03</pdfrwt>
<totfact> 0.82554275E+02</totfact>
</mgrwt>
</event>
<event>
 6    1  0.6101889E-006  0.1155436E+03  0.7546771E-02  0.1264078E+00
          3   -1    0    0  501    0  0.00000000000E+00  0.00000000000E+00  0.12495044689E+02  0.12495044689E+02  0.00000000000E+00 0. -1.
         -3   -1    0    0    0  501 -0.00000000000E+00 -0.00000000000E+00 -0.84927371752E+03  0.84927371752E+03  0.00000000000E+00 0.  1.
          5    1    1    2  502    0  0.50443758711E+02  0.16620909458E+02 -0.95955048823E+02  0.10977380753E+03  0.47000000000E+01 0. -1.
         -5    1    1    2    0  502 -0.35036437825E+02  0.23063025845E+01 -0.31921058706E+03  0.32117029735E+03  0.47000000000E+01 0.  1.
        -11    1    1    2    0    0 -0.43975993142E+02  0.12825255864E+02 -0.20832788559E+03  0.21330467195E+03  0.00000000000E+00 0.  1.
         11    1    1    2    0    0  0.28568672256E+02 -0.31752467906E+02 -0.21328515136E+03  0.21751998539E+03  0.00000000000E+00 0. -1.
<mgrwt>
<rscale>  0 0.10812700E+03</rscale>
<asrwt>0</asrwt>
<pdfrwt beam="1">  1        3 0.19223154E-02 0.11554357E+03</pdfrwt>
<pdfrwt beam="2">  1       -3 0.13065744E+00 0.11554357E+03</pdfrwt>
<totfact> 0.10978791E+03</totfact>
</mgrwt>
</event>
<event>
 6    1  0.6101889E-006  0.1284185E+03  0.7546771E-02  0.1243491E+00
         -1   -1    0    0    0  501 -0.00000000000E+00  0.00000000000E+00  0.11002599069E+02  0.11002599069E+02  0.00000000000E+00 0.  1.
          1   -1    0    0  501    0  0.00000000000E+00 -0.00000000000E+00 -0.12190781884E+04  0.12190781884E+04  0.00000000000E+00 0. -1.
          5    1    1    2  502    0 -0.17590863232E+02  0.50423352560E+02 -0.37064429260E+03  0.37450131453E+03  0.47000000000E+01 0.  1.
         -5    1    1    2    0  502  0.51350729987E+00 -0.74391396144E+02 -0.45145781825E+03  0.45757031718E+03  0.47000000000E+01 0.  1.
        -11    1    1    2    0    0  0.38336796279E+02  0.47252832406E+02 -0.30703873001E+03  0.31301009863E+03  0.00000000000E+00 0. -1.
         11    1    1    2    0    0 -0.21259440347E+02 -0.23284788821E+02 -0.78934748469E+02  0.84999057113E+02  0.00000000000E+00 0.  1.
<mgrwt>
<rscale>  0 0.11976169E+03</rscale>
<asrwt>0</asrwt>
<pdfrwt beam="2">  1        1 0.18755032E+00 0.12841853E+03</pdfrwt>
<pdfrwt beam="1">  1       -1 0.16927091E-02 0.12841853E+03</pdfrwt>
<totfact> 0.93936402E+03</totfact>
</mgrwt>
</event>
<event>
 6    1  0.6101889E-006  0.1620437E+03  0.7546771E-02  0.1193097E+00
          1   -1    0    0  501    0  0.00000000000E+00  0.00000000000E+00  0.90397445496E+02  0.90397445496E+02  0.00000000000E+00 0. -1.
         -1   -1    0    0    0  501 -0.00000000000E+00 -0.00000000000E+00 -0.40901321823E+03  0.40901321823E+03  0.00000000000E+00 0.  1.
          5    1    1    2  502    0 -0.57807702966E+02  0.24818797275E+02  0.33100222781E+02  0.71241967748E+02  0.47000000000E+01 0. -1.
         -5    1    1    2    0  502 -0.34200505333E+02 -0.71382751818E+02 -0.45158028254E+02  0.91249708700E+02  0.47000000000E+01 0. -1.
        -11    1    1    2    0    0  0.64172832627E+02  0.75734996322E+02 -0.20996323566E+03  0.23224664141E+03  0.00000000000E+00 0.  1.
         11    1    1    2    0    0  0.27835375672E+02 -0.29171041779E+02 -0.96594731600E+02  0.10467234587E+03  0.00000000000E+00 0. -1.
<mgrwt>
<rscale>  0 0.15616375E+03</rscale>
<asrwt>0</asrwt>
<pdfrwt beam="1">  1        1 0.13907300E-01 0.16204368E+03</pdfrwt>
<pdfrwt beam="2">  1       -1 0.62925108E-01 0.16204368E+03</pdfrwt>
<totfact> 0.10801372E+03</totfact>
</mgrwt>
</event>
<event>
 6    1  0.6101889E-006  0.2842260E+03  0.7546771E-02  0.1093403E+00
         -1   -1    0    0    0  501 -0.00000000000E+00  0.00000000000E+00  0.22133544467E+02  0.22133544467E+02  0.00000000000E+00 0.  1.
          1   -1    0    0  501    0  0.00000000000E+00 -0.00000000000E+00 -0.91246592707E+03  0.91246592707E+03  0.00000000000E+00 0. -1.
          5    1    1    2  502    0  0.95465553617E+01 -0.82944249894E+01 -0.32640048926E+03  0.32667920594E+03  0.47000000000E+01 0.  1.
         -5    1    1    2    0  502 -0.57688127439E+02 -0.70322344802E+02 -0.16230071012E+03  0.18610954498E+03  0.47000000000E+01 0.  1.
        -11    1    1    2    0    0  0.99831122774E+01  0.64304928285E+02 -0.35017587291E+03  0.35617120645E+03  0.00000000000E+00 0. -1.
         11    1    1    2    0    0  0.38158459799E+02  0.14311841507E+02 -0.51455310310E+02  0.65639514172E+02  0.00000000000E+00 0.  1.
<mgrwt>
<rscale>  0 0.28422600E+03</rscale>
<asrwt>0</asrwt>
<pdfrwt beam="2">  1        1 0.14037938E+00 0.28422600E+03</pdfrwt>
<pdfrwt beam="1">  1       -1 0.34051606E-02 0.28422600E+03</pdfrwt>
<totfact> 0.58352517E+03</totfact>
</mgrwt>
</event>
<event>
 6    1  0.6101889E-006  0.1530479E+03  0.7546771E-02  0.1205312E+00
          3   -1    0    0  501    0  0.00000000000E+00  0.00000000000E+00  0.31571809926E+02  0.31571809926E+02  0.00000000000E+00 0. -1.
         -3   -1    0    0    0  501 -0.00000000000E+00 -0.00000000000E+00 -0.82115661654E+03  0.82115661654E+03  0.00000000000E+00 0.  1.
          5    1    1    2  502    0  0.61121370485E+02  0.31957089807E+02 -0.98195682076E+02  0.12008979764E+03  0.47000000000E+01 0. -1.
         -5    1    1    2    0  502  0.10885971366E+02 -0.83056955450E+02 -0.11481861705E+03  0.14220536925E+03  0.47000000000E+01 0. -1.
        -11    1    1    2    0    0  0.16903316394E+02  0.30572607802E+02 -0.19492436093E+03  0.19803008089E+03  0.00000000000E+00 0.  1.
         11    1    1    2    0    0 -0.88910658245E+02  0.20527257841E+02 -0.38164614656E+03  0.39240317869E+03  0.00000000000E+00 0. -1.
<mgrwt>
<rscale>  0 0.14612878E+03</rscale>
<asrwt>0</asrwt>
<pdfrwt beam="1">  1        3 0.48572017E-02 0.15304791E+03</pdfrwt>
<pdfrwt beam="2">  1       -3 0.12633178E+00 0.15304791E+03</pdfrwt>
<totfact> 0.29549944E+02</totfact>
</mgrwt>
</event>
<event>
 6    1  0.6101889E-006  0.1251046E+03  0.7546771E-02  0.1250692E+00
          4   -1    0    0  501    0  0.00000000000E+00  0.00000000000E+00  0.17840577448E+03  0.17840577448E+03  0.00000000000E+00 0. -1.
         -4   -1    0    0    0  501 -0.00000000000E+00 -0.00000000000E+00 -0.83788894021E+02  0.83788894021E+02  0.00000000000E+00 0.  1.
          5    1    1    2  502    0  0.44827365462E+02  0.12034426505E+02  0.11303918653E+03  0.12228764372E+03  0.47000000000E+01 0.  1.
         -5    1    1    2    0  502 -0.43618617678E+02 -0.16687747843E+02  0.93096644342E+00  0.46947006664E+02  0.47000000000E+01 0.  1.
        -11    1    1    2    0    0 -0.54181678243E+01 -0.32638891560E+02 -0.38554179670E+02  0.50804316302E+02  0.00000000000E+00 0.  1.
         11    1    1    2    0    0  0.42094200401E+01  0.37292212899E+02  0.19200907157E+02  0.42155701817E+02  0.00000000000E+00 0. -1.
<mgrwt>
<rscale>  0 0.11551108E+03</rscale>
<asrwt>0</asrwt>
<pdfrwt beam="1">  1        4 0.27447042E-01 0.12510464E+03</pdfrwt>
<pdfrwt beam="2">  1       -4 0.12890599E-01 0.12510464E+03</pdfrwt>
<totfact> 0.10021713E+03</totfact>
</mgrwt>
</event>
<event>
 6    1  0.6101889E-006  0.1293503E+03  0.7546771E-02  0.1243342E+00
          1   -1    0    0  501    0  0.00000000000E+00  0.00000000000E+00  0.10748878143E+03  0.10748878143E+03  0.00000000000E+00 0. -1.
         -1   -1    0    0    0  501 -0.00000000000E+00 -0.00000000000E+00 -0.11745421330E+03  0.11745421330E+03  0.00000000000E+00 0.  1.
          5    1    1    2  502    0 -0.11169216205E+02  0.27744170436E+02 -0.50817123261E+02  0.59152010958E+02  0.47000000000E+01 0.  1.
         -5    1    1    2    0  502 -0.13279598220E+02 -0.50306719725E+02  0.46974532020E+02  0.70255323192E+02  0.47000000000E+01 0.  1.
        -11    1    1    2    0    0  0.15120200305E+02  0.43845852210E+02 -0.35264086396E+02  0.58263496314E+02  0.00000000000E+00 0.  1.
         11    1    1    2    0    0  0.93286141201E+01 -0.21283302922E+02  0.29141245766E+02  0.37272164271E+02  0.00000000000E+00 0. -1.
<mgrwt>
<rscale>  0 0.11985149E+03</rscale>
<asrwt>0</asrwt>
<pdfrwt beam="1">  1        1 0.16536736E-01 0.12935027E+03</pdfrwt>
<pdfrwt beam="2">  1       -1 0.18069879E-01 0.12935027E+03</pdfrwt>
<totfact> 0.73512659E+03</totfact>
</mgrwt>
</event>
<event>
 6    1  0.6101889E-006  0.1348665E+03  0.7546771E-02  0.1233821E+00
          1   -1    0    0  501    0  0.00000000000E+00  0.00000000000E+00  0.78273026568E+03  0.78273026568E+03  0.00000000000E+00 0. -1.
         -1   -1    0    0    0  501 -0.00000000000E+00 -0.00000000000E+00 -0.21876732418E+02  0.21876732418E+02  0.00000000000E+00 0.  1.
          5    1    1    2  502    0 -0.71175317215E+02 -0.10693263443E+02  0.43844275542E+03  0.44433592185E+03  0.47000000000E+01 0. -1.
         -5    1    1    2    0  502  0.43693579762E+02 -0.31831075497E+02  0.15451847868E+03  0.16376933941E+03  0.47000000000E+01 0. -1.
        -11    1    1    2    0    0  0.14707150570E+01  0.48698046703E+02  0.32664906346E+02  0.58657129678E+02  0.00000000000E+00 0.  1.
         11    1    1    2    0    0  0.26011022396E+02 -0.61737077624E+01  0.13522739282E+03  0.13784460716E+03  0.00000000000E+00 0. -1.
<mgrwt>
<rscale>  0 0.12580220E+03</rscale>
<asrwt>0</asrwt>
<pdfrwt beam="1">  1        1 0.12042002E+00 0.13486654E+03</pdfrwt>
<pdfrwt beam="2">  1       -1 0.33656517E-02 0.13486654E+03</pdfrwt>
<totfact> 0.73127837E+03</totfact>
</mgrwt>
</event>
<event>
 6    1  0.6101889E-006  0.1574279E+03  0.7546771E-02  0.1201055E+00
         -1   -1    0    0    0  501 -0.00000000000E+00  0.00000000000E+00  0.66512156683E+02  0.66512156683E+02  0.00000000000E+00 0.  1.
          1   -1    0    0  501    0  0.00000000000E+00 -0.00000000000E+00 -0.30655969933E+03  0.30655969933E+03  0.00000000000E+00 0. -1.
          5    1    1    2  502    0 -0.13108993067E+02 -0.13983305279E+02 -0.76274580061E+02  0.78786293790E+02  0.47000000000E+01 0. -1.
         -5    1    1    2    0  502  0.39263229581E+02  0.10604334067E+03 -0.53254713113E+02  0.12507975762E+03  0.47000000000E+01 0. -1.
        -11    1    1    2    0    0 -0.40084426386E+02 -0.76285491244E+02 -0.38880075653E+02  0.94540455340E+02  0.00000000000E+00 0.  1.
         11    1    1    2    0    0  0.13930189873E+02 -0.15774544143E+02 -0.71638173818E+02  0.74665349265E+02  0.00000000000E+00 0. -1.
<mgrwt>
<rscale>  0 0.14952736E+03</rscale>
<asrwt>0</asrwt>
<pdfrwt beam="2">  1        1 0.47163031E-01 0.15742785E+03</pdfrwt>
<pdfrwt beam="1">  1       -1 0.10232639E-01 0.15742785E+03</pdfrwt>
<totfact> 0.48509030E+03</totfact>
</mgrwt>
</event>
<event>
 6    1  0.6101889E-006  0.1252072E+03  0.7546771E-02  0.1251487E+00
         -1   -1    0    0    0  501 -0.00000000000E+00  0.00000000000E+00  0.94785607890E+02  0.94785607890E+02  0.00000000000E+00 0.  1.
          1   -1    0    0  501    0  0.00000000000E+00 -0.00000000000E+00 -0.12428756559E+03  0.12428756559E+03  0.00000000000E+00 0. -1.
          5    1    1    2  502    0  0.26370750527E+02  0.37077208093E+02  0.27139739358E+02  0.53186382615E+02  0.47000000000E+01 0.  1.
         -5    1    1    2    0  502 -0.20471344621E+02 -0.41178838951E+02 -0.60966080384E+02  0.76509644394E+02  0.47000000000E+01 0.  1.
        -11    1    1    2    0    0  0.82123184673E+01  0.24316001706E+02  0.39087103415E+02  0.46760151485E+02  0.00000000000E+00 0.  1.
         11    1    1    2    0    0 -0.14111724373E+02 -0.20214370848E+02 -0.34762720089E+02  0.42616994985E+02  0.00000000000E+00 0. -1.
<mgrwt>
<rscale>  0 0.11505389E+03</rscale>
<asrwt>0</asrwt>
<pdfrwt beam="2">  1        1 0.19121164E-01 0.12520718E+03</pdfrwt>
<pdfrwt beam="1">  1       -1 0.14582401E-01 0.12520718E+03</pdfrwt>
<totfact> 0.85358306E+03</totfact>
</mgrwt>
</event>
<event>
 6    1  0.6101889E-006  0.2285368E+03  0.7546771E-02  0.1127674E+00
          3   -1    0    0  501    0  0.00000000000E+00  0.00000000000E+00  0.43134889931E+02  0.43134889931E+02  0.00000000000E+00 0. -1.
         -3   -1    0    0    0  501 -0.00000000000E+00 -0.00000000000E+00 -0.30270775371E+03  0.30270775371E+03  0.00000000000E+00 0.  1.
          5    1    1    2  502    0 -0.84109583183E+01 -0.41948345099E+02 -0.16140947619E+01  0.43070908724E+02  0.47000000000E+01 0. -1.
         -5    1    1    2    0  502 -0.29688781073E+01  0.14493006929E+02 -0.17313914475E+03  0.17383358401E+03  0.47000000000E+01 0. -1.
        -11    1    1    2    0    0  0.51105713687E+02  0.19603622799E+02 -0.36019311593E+02  0.65524703783E+02  0.00000000000E+00 0. -1.
         11    1    1    2    0    0 -0.39725877261E+02  0.78517153714E+01 -0.48800312674E+02  0.63413447119E+02  0.00000000000E+00 0.  1.
<mgrwt>
<rscale>  0 0.22853679E+03</rscale>
<asrwt>0</asrwt>
<pdfrwt beam="1">  1        3 0.66361372E-02 0.22853679E+03</pdfrwt>
<pdfrwt beam="2">  1       -3 0.46570422E-01 0.22853679E+03</pdfrwt>
<totfact> 0.16586700E+03</totfact>
</mgrwt>
</event>
<event>
 6    1  0.6101889E-006  0.1287756E+03  0.7546771E-02  0.1243253E+00
          1   -1    0    0  501    0  0.00000000000E+00  0.00000000000E+00  0.15102484314E+03  0.15102484314E+03  0.00000000000E+00 0. -1.
         -1   -1    0    0    0  501 -0.00000000000E+00 -0.00000000000E+00 -0.84644391142E+02  0.84644391142E+02  0.00000000000E+00 0.  1.
          5    1    1    2  502    0 -0.33200044370E+02  0.25044303583E+02  0.53796040089E+02  0.68158374521E+02  0.47000000000E+01 0.  1.
         -5    1    1    2    0  502  0.39420494324E+02 -0.55405988143E+02 -0.77544401982E+01  0.68600439048E+02  0.47000000000E+01 0.  1.
        -11    1    1    2    0    0 -0.11800566362E+01  0.60229308186E+02 -0.35328789485E+01  0.60344372827E+02  0.00000000000E+00 0.  1.
         11    1    1    2    0    0 -0.50403933186E+01 -0.29867623626E+02  0.23871731051E+02  0.38566047882E+02  0.00000000000E+00 0. -1.
<mgrwt>
<rscale>  0 0.11990581E+03</rscale>
<asrwt>0</asrwt>
<pdfrwt beam="1">  1        1 0.23234591E-01 0.12877556E+03</pdfrwt>
<pdfrwt beam="2">  1       -1 0.13022214E-01 0.12877556E+03</pdfrwt>
<totfact> 0.79725334E+03</totfact>
</mgrwt>
</event>
<event>
 6    1  0.6101889E-006  0.1467853E+03  0.7546771E-02  0.1214644E+00
         -2   -1    0    0    0  501 -0.00000000000E+00  0.00000000000E+00  0.14395677734E+02  0.14395677734E+02  0.00000000000E+00 0. -1.
          2   -1    0    0  501    0  0.00000000000E+00 -0.00000000000E+00 -0.19654616946E+04  0.19654616946E+04  0.00000000000E+00 0.  1.
          5    1    1    2  502    0  0.31188763177E+02  0.38927119219E+02 -0.21825048945E+03  0.22392727772E+03  0.47000000000E+01 0.  1.
         -5    1    1    2    0  502  0.43812549288E+02 -0.21751015972E+02 -0.14306670943E+04  0.14315107652E+04  0.47000000000E+01 0.  1.
        -11    1    1    2    0    0 -0.72284476614E+02  0.24494444326E+02 -0.19964089299E+03  0.21373233147E+03  0.00000000000E+00 0.  1.
         11    1    1    2    0    0 -0.27168358513E+01 -0.41670547573E+02 -0.10250754011E+03  0.11068699794E+03  0.00000000000E+00 0. -1.
<mgrwt>
<rscale>  0 0.13902730E+03</rscale>
<asrwt>0</asrwt>
<pdfrwt beam="2">  1        2 0.30237866E+00 0.14678527E+03</pdfrwt>
<pdfrwt beam="1">  1       -2 0.22147201E-02 0.14678527E+03</pdfrwt>
<totfact> 0.51200944E+03</totfact>
</mgrwt>
</event>
<event>
 6    1  0.6101889E-006  0.1295753E+03  0.7546771E-02  0.1241771E+00
         -4   -1    0    0    0  501 -0.00000000000E+00  0.00000000000E+00  0.56120972939E+02  0.56120972939E+02  0.00000000000E+00 0. -1.
          4   -1    0    0  501    0  0.00000000000E+00 -0.00000000000E+00 -0.23518284138E+03  0.23518284138E+03  0.00000000000E+00 0.  1.
          5    1    1    2  502    0  0.38226512278E+02  0.66280369098E+02 -0.45636015903E+02  0.89213729415E+02  0.47000000000E+01 0. -1.
         -5    1    1    2    0  502 -0.30539546190E+02 -0.33010783708E+02 -0.76427334483E+02  0.88800918794E+02  0.47000000000E+01 0. -1.
        -11    1    1    2    0    0 -0.34164329261E+02 -0.41716248895E+02 -0.64918085180E+02  0.84390785037E+02  0.00000000000E+00 0.  1.
         11    1    1    2    0    0  0.26477363173E+02  0.84466635044E+01  0.79195671277E+01  0.28898381070E+02  0.00000000000E+00 0. -1.
<mgrwt>
<rscale>  0 0.12080754E+03</rscale>
<asrwt>0</asrwt>
<pdfrwt beam="2">  1        4 0.36181975E-01 0.12957528E+03</pdfrwt>
<pdfrwt beam="1">  1       -4 0.86339960E-02 0.12957528E+03</pdfrwt>
<totfact> 0.11762331E+03</totfact>
</mgrwt>
</event>
<event>
 6    1  0.6101889E-006  0.1152228E+03  0.7546771E-02  0.1260329E+00
         -2   -1    0    0    0  501 -0.00000000000E+00  0.00000000000E+00  0.11896786945E+03  0.11896786945E+03  0.00000000000E+00 0.  1.
          2   -1    0    0  501    0  0.00000000000E+00 -0.00000000000E+00 -0.93901861632E+02  0.93901861632E+02  0.00000000000E+00 0. -1.
          5    1    1    2  502    0  0.38938835487E+02 -0.20475838235E+02 -0.12027333824E+02  0.45850186689E+02  0.47000000000E+01 0. -1.
         -5    1    1    2    0  502 -0.64891020131E+02  0.35431600492E+01  0.26252756993E+02  0.70247389464E+02  0.47000000000E+01 0.  1.
        -11    1    1    2    0    0 -0.14885491491E+02 -0.28002584469E+02  0.16572771257E+02  0.35782388699E+02  0.00000000000E+00 0.  1.
         11    1    1    2    0    0  0.40837676135E+02  0.44935262654E+02 -0.57321866037E+01  0.60989766233E+02  0.00000000000E+00 0. -1.
<mgrwt>
<rscale>  0 0.11013003E+03</rscale>
<asrwt>0</asrwt>
<pdfrwt beam="2">  1        2 0.14446440E-01 0.11522276E+03</pdfrwt>
<pdfrwt beam="1">  1       -2 0.18302749E-01 0.11522276E+03</pdfrwt>
<totfact> 0.92582666E+03</totfact>
</mgrwt>
</event>
<event>
 6    1  0.6200114E-006  0.1781808E+03  0.7546771E-02  0.1175434E+00
         -3   -1    0    0    0  501 -0.00000000000E+00  0.00000000000E+00  0.27499095848E+03  0.27499095848E+03  0.00000000000E+00 0.  1.
          3   -1    0    0  501    0  0.00000000000E+00 -0.00000000000E+00 -0.10541957590E+03  0.10541957590E+03  0.00000000000E+00 0. -1.
          5    1    1    2  502    0 -0.24702466392E+02 -0.30389479869E+02 -0.33123472730E+02  0.51507152691E+02  0.47000000000E+01 0. -1.
         -5    1    1    2    0  502 -0.10149586098E+03  0.16353381413E+02  0.86668963488E+02  0.13454531620E+03  0.47000000000E+01 0. -1.
        -11    1    1    2    0    0  0.28566429810E+02  0.39221361749E+02  0.65680612954E+02  0.81659653731E+02  0.00000000000E+00 0.  1.
         11    1    1    2    0    0  0.97631897558E+02 -0.25185263292E+02  0.50345278867E+02  0.11269841175E+03  0.00000000000E+00 0. -1.
<mgrwt>
<rscale>  0 0.17233585E+03</rscale>
<asrwt>0</asrwt>
<pdfrwt beam="2">  1        3 0.16218396E-01 0.17818081E+03</pdfrwt>
<pdfrwt beam="1">  1       -3 0.42306301E-01 0.17818081E+03</pdfrwt>
<totfact> 0.43456732E+02</totfact>
</mgrwt>
</event>
<event>
 6    1  0.6101889E-006  0.1411659E+03  0.7546771E-02  0.1224025E+00
          2   -1    0    0  501    0  0.00000000000E+00  0.00000000000E+00  0.38161028128E+03  0.38161028128E+03  0.00000000000E+00 0. -1.
         -2   -1    0    0    0  501 -0.00000000000E+00 -0.00000000000E+00 -0.44709670741E+02  0.44709670741E+02  0.00000000000E+00 0.  1.
          5    1    1    2  502    0 -0.66541282793E+02 -0.19152590002E+02  0.10993631152E+03  0.13001017887E+03  0.47000000000E+01 0.  1.
         -5    1    1    2    0  502  0.22174435384E+02  0.67467937088E+02  0.13919801311E+03  0.15633875071E+03  0.47000000000E+01 0.  1.
        -11    1    1    2    0    0  0.65682108583E+02 -0.49633270962E+02  0.85175111228E+02  0.11845843384E+03  0.00000000000E+00 0. -1.
         11    1    1    2    0    0 -0.21315261174E+02  0.13179238769E+01  0.25911746810E+01  0.21512588605E+02  0.00000000000E+00 0.  1.
<mgrwt>
<rscale>  0 0.13233973E+03</rscale>
<asrwt>0</asrwt>
<pdfrwt beam="1">  1        2 0.58709272E-01 0.14116585E+03</pdfrwt>
<pdfrwt beam="2">  1       -2 0.68784111E-02 0.14116585E+03</pdfrwt>
<totfact> 0.95859858E+03</totfact>
</mgrwt>
</event>
<event>
 6    1  0.6101889E-006  0.1298433E+03  0.7546771E-02  0.1240609E+00
          2   -1    0    0  501    0  0.00000000000E+00  0.00000000000E+00  0.17471957920E+03  0.17471957920E+03  0.00000000000E+00 0. -1.
         -2   -1    0    0    0  501 -0.00000000000E+00 -0.00000000000E+00 -0.10210621485E+03  0.10210621485E+03  0.00000000000E+00 0.  1.
          5    1    1    2  502    0 -0.18230004982E+02 -0.69244284905E+02  0.30548813226E+02  0.77989897187E+02  0.47000000000E+01 0.  1.
         -5    1    1    2    0  502 -0.78791262600E+01  0.45732190441E+02  0.79699003243E+02  0.92344653289E+02  0.47000000000E+01 0.  1.
        -11    1    1    2    0    0  0.73151926928E+01 -0.33503645520E+02 -0.30757074463E+02  0.46065213956E+02  0.00000000000E+00 0.  1.
         11    1    1    2    0    0  0.18793938549E+02  0.57015739984E+02 -0.68773776475E+01  0.60426029618E+02  0.00000000000E+00 0. -1.
<mgrwt>
<rscale>  0 0.12152081E+03</rscale>
<asrwt>0</asrwt>
<pdfrwt beam="1">  1        2 0.26879935E-01 0.12984328E+03</pdfrwt>
<pdfrwt beam="2">  1       -2 0.15708648E-01 0.12984328E+03</pdfrwt>
<totfact> 0.59627355E+03</totfact>
</mgrwt>
</event>
<event>
 6    1  0.6101889E-006  0.2455717E+03  0.7546771E-02  0.1118776E+00
         -1   -1    0    0    0  501 -0.00000000000E+00  0.00000000000E+00  0.21184171171E+03  0.21184171171E+03  0.00000000000E+00 0.  1.
          1   -1    0    0  501    0  0.00000000000E+00 -0.00000000000E+00 -0.26906133730E+03  0.26906133730E+03  0.00000000000E+00 0. -1.
          5    1    1    2  502    0 -0.22027524206E+02  0.17558369090E+02  0.10409902537E+02  0.30396779740E+02  0.47000000000E+01 0.  1.
         -5    1    1    2    0  502 -0.11946591428E+03 -0.17458910945E+03 -0.62489831174E+02  0.22063664884E+03  0.47000000000E+01 0.  1.
        -11    1    1    2    0    0  0.85874926643E+02  0.86312958772E+02 -0.47161974867E+02  0.13057060064E+03  0.00000000000E+00 0. -1.
         11    1    1    2    0    0  0.55618511839E+02  0.70717781584E+02  0.42022277909E+02  0.99299019794E+02  0.00000000000E+00 0.  1.
<mgrwt>
<rscale>  0 0.24153329E+03</rscale>
<asrwt>0</asrwt>
<pdfrwt beam="2">  1        1 0.41394052E-01 0.24557171E+03</pdfrwt>
<pdfrwt beam="1">  1       -1 0.32591032E-01 0.24557171E+03</pdfrwt>
<totfact> 0.89207912E+02</totfact>
</mgrwt>
</event>
<event>
 6    1  0.6101889E-006  0.2227082E+03  0.7546771E-02  0.1135395E+00
         -2   -1    0    0    0  501 -0.00000000000E+00  0.00000000000E+00  0.45681558748E+02  0.45681558748E+02  0.00000000000E+00 0. -1.
          2   -1    0    0  501    0  0.00000000000E+00 -0.00000000000E+00 -0.10614472076E+04  0.10614472076E+04  0.00000000000E+00 0.  1.
          5    1    1    2  502    0  0.24260998904E+02 -0.74842819493E+02 -0.30580482460E+03  0.31579855042E+03  0.47000000000E+01 0.  1.
         -5    1    1    2    0  502  0.13946200415E+03 -0.98278395031E+01 -0.35738843041E+03  0.38379006921E+03  0.47000000000E+01 0.  1.
        -11    1    1    2    0    0 -0.78385157534E+02  0.85544990114E+02 -0.23695356618E+03  0.26383549947E+03  0.00000000000E+00 0.  1.
         11    1    1    2    0    0 -0.85337845522E+02 -0.87433111834E+00 -0.11561882768E+03  0.14370464727E+03  0.00000000000E+00 0. -1.
<mgrwt>
<rscale>  0 0.21798439E+03</rscale>
<asrwt>0</asrwt>
<pdfrwt beam="2">  1        2 0.16329956E+00 0.22270820E+03</pdfrwt>
<pdfrwt beam="1">  1       -2 0.70279325E-02 0.22270820E+03</pdfrwt>
<totfact> 0.27794012E+03</totfact>
</mgrwt>
</event>
<event>
 6    1  0.6101889E-006  0.1271281E+03  0.7546771E-02  0.1244444E+00
          2   -1    0    0  501    0  0.00000000000E+00  0.00000000000E+00  0.55903730119E+02  0.55903730119E+02  0.00000000000E+00 0. -1.
         -2   -1    0    0    0  501 -0.00000000000E+00 -0.00000000000E+00 -0.22768167765E+03  0.22768167765E+03  0.00000000000E+00 0.  1.
          5    1    1    2  502    0 -0.50536575466E+02 -0.26965097691E+02 -0.31041177568E+02  0.65320032594E+02  0.47000000000E+01 0. -1.
         -5    1    1    2    0  502  0.67525872991E+02  0.11197469830E+02 -0.58676939243E+02  0.90278458408E+02  0.47000000000E+01 0. -1.
        -11    1    1    2    0    0 -0.34233255901E+02 -0.32342773769E+02 -0.40493007156E+02  0.62110018943E+02  0.00000000000E+00 0.  1.
         11    1    1    2    0    0  0.17243958376E+02  0.48110401630E+02 -0.41566823561E+02  0.65876897820E+02  0.00000000000E+00 0. -1.
<mgrwt>
<rscale>  0 0.11918709E+03</rscale>
<asrwt>0</asrwt>
<pdfrwt beam="1">  1        2 0.86005739E-02 0.12712808E+03</pdfrwt>
<pdfrwt beam="2">  1       -2 0.35027950E-01 0.12712808E+03</pdfrwt>
<totfact> 0.56109151E+03</totfact>
</mgrwt>
</event>
<event>
 6    1  0.6101889E-006  0.1523657E+03  0.7546771E-02  0.1206471E+00
          2   -1    0    0  501    0  0.00000000000E+00  0.00000000000E+00  0.30110448911E+03  0.30110448911E+03  0.00000000000E+00 0. -1.
         -2   -1    0    0    0  501 -0.00000000000E+00 -0.00000000000E+00 -0.69610017523E+02  0.69610017523E+02  0.00000000000E+00 0.  1.
          5    1    1    2  502    0 -0.12365333492E+02  0.53265940229E+02  0.60704490912E+02  0.81836954231E+02  0.47000000000E+01 0. -1.
         -5    1    1    2    0  502 -0.74244877817E+02 -0.62896811632E+02  0.11665410531E+03  0.15198217356E+03  0.47000000000E+01 0. -1.
        -11    1    1    2    0    0  0.22193724539E+02  0.31652828474E+02 -0.13484371242E+02  0.40942535670E+02  0.00000000000E+00 0.  1.
         11    1    1    2    0    0  0.64416486770E+02 -0.22021957071E+02  0.67620246610E+02  0.95952843171E+02  0.00000000000E+00 0. -1.
<mgrwt>
<rscale>  0 0.14522144E+03</rscale>
<asrwt>0</asrwt>
<pdfrwt beam="1">  1        2 0.46323767E-01 0.15236572E+03</pdfrwt>
<pdfrwt beam="2">  1       -2 0.10709234E-01 0.15236572E+03</pdfrwt>
<totfact> 0.62253530E+03</totfact>
</mgrwt>
</event>
<event>
 6    1  0.6101889E-006  0.1682487E+03  0.7546771E-02  0.1186580E+00
          1   -1    0    0  501    0  0.00000000000E+00  0.00000000000E+00  0.94363066152E+03  0.94363066152E+03  0.00000000000E+00 0. -1.
         -1   -1    0    0    0  501 -0.00000000000E+00 -0.00000000000E+00 -0.25870960119E+02  0.25870960119E+02  0.00000000000E+00 0.  1.
          5    1    1    2  502    0 -0.20299160143E+02 -0.88856899486E+02  0.30140010136E+03  0.31491541021E+03  0.47000000000E+01 0.  1.
         -5    1    1    2    0  502  0.75234321704E+02 -0.94510682325E+01  0.19870714788E+03  0.21273492067E+03  0.47000000000E+01 0.  1.
        -11    1    1    2    0    0 -0.23884097982E+02  0.10297286170E+03  0.36984331158E+03  0.38465300662E+03  0.00000000000E+00 0.  1.
         11    1    1    2    0    0 -0.31051063579E+02 -0.46648939768E+01  0.47809140575E+02  0.57198284133E+02  0.00000000000E+00 0. -1.
<mgrwt>
<rscale>  0 0.16188962E+03</rscale>
<asrwt>0</asrwt>
<pdfrwt beam="1">  1        1 0.14517392E+00 0.16824866E+03</pdfrwt>
<pdfrwt beam="2">  1       -1 0.39801484E-02 0.16824866E+03</pdfrwt>
<totfact> 0.43082020E+03</totfact>
</mgrwt>
</event>
<event>
 6    1  0.6101889E-006  0.1115351E+03  0.7546771E-02  0.1267620E+00
         -1   -1    0    0    0  501 -0.00000000000E+00  0.00000000000E+00  0.12635465437E+02  0.12635465437E+02  0.00000000000E+00 0.  1.
          1   -1    0    0  501    0  0.00000000000E+00 -0.00000000000E+00 -0.20103543695E+04  0.20103543695E+04  0.00000000000E+00 0. -1.
          5    1    1    2  502    0  0.32984436027E+02  0.38326169176E+02 -0.14317313254E+04  0.14326316855E+04  0.47000000000E+01 0. -1.
         -5    1    1    2    0  502 -0.23699973035E+02 -0.36842907107E+02 -0.38341009701E+03  0.38593325980E+03  0.47000000000E+01 0.  1.
        -11    1    1    2    0    0  0.24687911935E+02  0.31113077413E+02 -0.11801254396E+03  0.12451697521E+03  0.00000000000E+00 0. -1.
         11    1    1    2    0    0 -0.33972374927E+02 -0.32596339482E+02 -0.64564937701E+02  0.79907914414E+02  0.00000000000E+00 0.  1.
<mgrwt>
<rscale>  0 0.10627909E+03</rscale>
<asrwt>0</asrwt>
<pdfrwt beam="2">  1        1 0.30928534E+00 0.11153509E+03</pdfrwt>
<pdfrwt beam="1">  1       -1 0.19439175E-02 0.11153509E+03</pdfrwt>
<totfact> 0.23727447E+03</totfact>
</mgrwt>
</event>
<event>
 6    1  0.6101889E-006  0.1593986E+03  0.7546771E-02  0.1197705E+00
          2   -1    0    0  501    0  0.00000000000E+00  0.00000000000E+00  0.13978984153E+04  0.13978984153E+04  0.00000000000E+00 0.  1.
         -2   -1    0    0    0  501 -0.00000000000E+00 -0.00000000000E+00 -0.15461652059E+02  0.15461652059E+02  0.00000000000E+00 0. -1.
          5    1    1    2  502    0  0.43400030692E+02  0.39838106085E+01  0.72087008137E+02  0.84368596961E+02  0.47000000000E+01 0. -1.
         -5    1    1    2    0  502  0.36280157076E+02  0.54626323324E+02  0.76071289476E+03  0.76354861224E+03  0.47000000000E+01 0. -1.
        -11    1    1    2    0    0  0.10422388128E+02 -0.27693606905E+02  0.63432631580E+02  0.69994719707E+02  0.00000000000E+00 0.  1.
         11    1    1    2    0    0 -0.90102575897E+02 -0.30916527028E+02  0.48620422875E+03  0.49544813843E+03  0.00000000000E+00 0. -1.
<mgrwt>
<rscale>  0 0.15227527E+03</rscale>
<asrwt>0</asrwt>
<pdfrwt beam="1">  1        2 0.21506120E+00 0.15939861E+03</pdfrwt>
<pdfrwt beam="2">  1       -2 0.23787168E-02 0.15939861E+03</pdfrwt>
<totfact> 0.90948579E+03</totfact>
</mgrwt>
</event>
<event>
 6    1  0.6101889E-006  0.2817579E+03  0.7546771E-02  0.1096886E+00
          1   -1    0    0  501    0  0.00000000000E+00  0.00000000000E+00  0.81042351557E+03  0.81042351557E+03  0.00000000000E+00 0. -1.
         -1   -1    0    0    0  501 -0.00000000000E+00 -0.00000000000E+00 -0.94874289906E+02  0.94874289906E+02  0.00000000000E+00 0.  1.
          5    1    1    2  502    0  0.12385513789E+03 -0.84936529584E+02  0.35206419819E+03  0.38278662318E+03  0.47000000000E+01 0. -1.
         -5    1    1    2    0  502  0.10547689130E+03 -0.20745630650E+02  0.84539386735E+02  0.13683842186E+03  0.47000000000E+01 0. -1.
        -11    1    1    2    0    0 -0.66745970166E+02  0.35613748725E+02  0.32767594454E+02  0.82444398706E+02  0.00000000000E+00 0. -1.
         11    1    1    2    0    0 -0.16258605902E+03  0.70068411510E+02  0.24617804628E+03  0.30322836172E+03  0.00000000000E+00 0.  1.
<mgrwt>
<rscale>  0 0.27781963E+03</rscale>
<asrwt>0</asrwt>
<pdfrwt beam="1">  1        1 0.12468054E+00 0.28175787E+03</pdfrwt>
<pdfrwt beam="2">  1       -1 0.14596045E-01 0.28175787E+03</pdfrwt>
<totfact> 0.76015928E+02</totfact>
</mgrwt>
</event>
<event>
 6    1  0.6101889E-006  0.2944269E+03  0.7546771E-02  0.1088060E+00
         -2   -1    0    0    0  501 -0.00000000000E+00  0.00000000000E+00  0.10912093318E+02  0.10912093318E+02  0.00000000000E+00 0.  1.
          2   -1    0    0  501    0  0.00000000000E+00 -0.00000000000E+00 -0.19860353106E+04  0.19860353106E+04  0.00000000000E+00 0. -1.
          5    1    1    2  502    0  0.80062492200E+02 -0.36329451117E+02 -0.14836689345E+04  0.14862790549E+04  0.47000000000E+01 0. -1.
         -5    1    1    2    0  502 -0.24820190628E+02  0.69801467915E+01 -0.12071080010E+03  0.12352308114E+03  0.47000000000E+01 0.  1.
        -11    1    1    2    0    0  0.21490120011E+00  0.50814794415E+02 -0.19951572301E+03  0.20588519433E+03  0.00000000000E+00 0.  1.
         11    1    1    2    0    0 -0.55457202773E+02 -0.21465490089E+02 -0.17122775968E+03  0.18126007362E+03  0.00000000000E+00 0. -1.
<mgrwt>
<rscale>  0 0.29442692E+03</rscale>
<asrwt>0</asrwt>
<pdfrwt beam="2">  1        2 0.30554408E+00 0.29442692E+03</pdfrwt>
<pdfrwt beam="1">  1       -2 0.16787826E-02 0.29442692E+03</pdfrwt>
<totfact> 0.75622693E+03</totfact>
</mgrwt>
</event>
<event>
 6    1  0.6101889E-006  0.1738642E+03  0.7546771E-02  0.1193549E+00
          1   -1    0    0  501    0  0.00000000000E+00  0.00000000000E+00  0.75119234021E+03  0.75119234021E+03  0.00000000000E+00 0. -1.
         -1   -1    0    0    0  501 -0.00000000000E+00 -0.00000000000E+00 -0.28051033148E+02  0.28051033148E+02  0.00000000000E+00 0.  1.
          5    1    1    2  502    0  0.78456674201E+02  0.13322062273E+02  0.49587753433E+03  0.50224450831E+03  0.47000000000E+01 0. -1.
         -5    1    1    2    0  502 -0.20335486655E+02 -0.20829757724E+02  0.76622426227E+01  0.30466551928E+02  0.47000000000E+01 0.  1.
        -11    1    1    2    0    0 -0.57316014119E+02  0.37374279190E+02  0.87410962549E+02  0.11100738080E+03  0.00000000000E+00 0. -1.
         11    1    1    2    0    0 -0.80517342651E+00 -0.29866583739E+02  0.13219056756E+03  0.13552493232E+03  0.00000000000E+00 0.  1.
<mgrwt>
<rscale>  0 0.15577674E+03</rscale>
<asrwt>0</asrwt>
<pdfrwt beam="1">  1        1 0.11556804E+00 0.17386422E+03</pdfrwt>
<pdfrwt beam="2">  1       -1 0.43155441E-02 0.17386422E+03</pdfrwt>
<totfact> 0.54601963E+03</totfact>
</mgrwt>
</event>
<event>
 6    1  0.6101889E-006  0.2856066E+03  0.7546771E-02  0.1094463E+00
         -2   -1    0    0    0  501 -0.00000000000E+00  0.00000000000E+00  0.14269833949E+03  0.14269833949E+03  0.00000000000E+00 0.  1.
          2   -1    0    0  501    0  0.00000000000E+00 -0.00000000000E+00 -0.16086192578E+04  0.16086192578E+04  0.00000000000E+00 0. -1.
          5    1    1    2  502    0  0.92507664325E+01  0.12907197336E+00 -0.18772319376E+03  0.18800978914E+03  0.47000000000E+01 0. -1.
         -5    1    1    2    0  502 -0.24128749505E+03 -0.11015361595E+03 -0.12628760000E+04  0.12904384355E+04  0.47000000000E+01 0. -1.
        -11    1    1    2    0    0  0.11600600524E+03  0.85831888112E+02  0.27388287500E+02  0.14688303020E+03  0.00000000000E+00 0.  1.
         11    1    1    2    0    0  0.11603072337E+03  0.24192655860E+02 -0.42710012067E+02  0.12598634249E+03  0.00000000000E+00 0. -1.
<mgrwt>
<rscale>  0 0.28225618E+03</rscale>
<asrwt>0</asrwt>
<pdfrwt beam="2">  1        2 0.24747989E+00 0.28560660E+03</pdfrwt>
<pdfrwt beam="1">  1       -2 0.21953590E-01 0.28560660E+03</pdfrwt>
<totfact> 0.21450643E+02</totfact>
</mgrwt>
</event>
<event>
 6    1  0.6101889E-006  0.1445424E+03  0.7546771E-02  0.1217974E+00
          1   -1    0    0  501    0  0.00000000000E+00  0.00000000000E+00  0.10175726352E+04  0.10175726352E+04  0.00000000000E+00 0. -1.
         -1   -1    0    0    0  501 -0.00000000000E+00 -0.00000000000E+00 -0.36144215039E+02  0.36144215039E+02  0.00000000000E+00 0.  1.
          5    1    1    2  502    0  0.16780919752E+02  0.39559066965E+02  0.33368771756E+03  0.33647600493E+03  0.47000000000E+01 0.  1.
         -5    1    1    2    0  502 -0.89155111553E+02 -0.44915923407E+02  0.56876844526E+03  0.57748221480E+03  0.47000000000E+01 0.  1.
        -11    1    1    2    0    0  0.12103990200E+02 -0.16200909311E+02 -0.15613843162E+02  0.25549327576E+02  0.00000000000E+00 0.  1.
         11    1    1    2    0    0  0.60270201602E+02  0.21557765753E+02  0.94586100491E+02  0.11420930291E+03  0.00000000000E+00 0. -1.
<mgrwt>
<rscale>  0 0.13660323E+03</rscale>
<asrwt>0</asrwt>
<pdfrwt beam="1">  1        1 0.15654961E+00 0.14454239E+03</pdfrwt>
<pdfrwt beam="2">  1       -1 0.55606492E-02 0.14454239E+03</pdfrwt>
<totfact> 0.23044089E+03</totfact>
</mgrwt>
</event>
<event>
 6    1  0.6101889E-006  0.2603123E+03  0.7546771E-02  0.1106956E+00
         -1   -1    0    0    0  501 -0.00000000000E+00  0.00000000000E+00  0.54477263617E+02  0.54477263617E+02  0.00000000000E+00 0.  1.
          1   -1    0    0  501    0  0.00000000000E+00 -0.00000000000E+00 -0.31096697432E+03  0.31096697432E+03  0.00000000000E+00 0. -1.
          5    1    1    2  502    0  0.40037757103E+02 -0.48916334505E+02 -0.22387273785E+03  0.23267342462E+03  0.47000000000E+01 0.  1.
         -5    1    1    2    0  502 -0.10460592478E+02  0.83634862353E+01  0.11871548368E+02  0.18503933573E+02  0.47000000000E+01 0.  1.
        -11    1    1    2    0    0 -0.17770975780E+02 -0.27161291043E+02 -0.12629022127E+00  0.32458577611E+02  0.00000000000E+00 0.  1.
         11    1    1    2    0    0 -0.11806188844E+02  0.67714139313E+02 -0.44362231005E+02  0.81808302131E+02  0.00000000000E+00 0. -1.
<mgrwt>
<rscale>  0 0.26031235E+03</rscale>
<asrwt>0</asrwt>
<pdfrwt beam="2">  1        1 0.47841074E-01 0.26031235E+03</pdfrwt>
<pdfrwt beam="1">  1       -1 0.83811173E-02 0.26031235E+03</pdfrwt>
<totfact> 0.66429004E+03</totfact>
</mgrwt>
</event>
<event>
 6    1  0.6101889E-006  0.1258524E+03  0.7546771E-02  0.1249798E+00
         -1   -1    0    0    0  501 -0.00000000000E+00  0.00000000000E+00  0.41140906229E+03  0.41140906229E+03  0.00000000000E+00 0.  1.
          1   -1    0    0  501    0  0.00000000000E+00 -0.00000000000E+00 -0.28593697178E+02  0.28593697178E+02  0.00000000000E+00 0. -1.
          5    1    1    2  502    0 -0.55910396494E+02 -0.36786130580E+01  0.19228737450E+03  0.20033978392E+03  0.47000000000E+01 0.  1.
         -5    1    1    2    0  502  0.48089296060E+02 -0.86752495954E+01  0.37950203607E+02  0.62049563294E+02  0.47000000000E+01 0.  1.
        -11    1    1    2    0    0 -0.13138316422E+02  0.47850314857E+02  0.86963323722E+02  0.10012436099E+03  0.00000000000E+00 0. -1.
         11    1    1    2    0    0  0.20959416855E+02 -0.35496452203E+02  0.65614463280E+02  0.77489051262E+02  0.00000000000E+00 0.  1.
<mgrwt>
<rscale>  0 0.11602768E+03</rscale>
<asrwt>0</asrwt>
<pdfrwt beam="2">  1        1 0.43990306E-02 0.12585240E+03</pdfrwt>
<pdfrwt beam="1">  1       -1 0.63293698E-01 0.12585240E+03</pdfrwt>
<totfact> 0.49483334E+03</totfact>
</mgrwt>
</event>
<event>
 6    1  0.6101889E-006  0.1847866E+03  0.7546771E-02  0.1168451E+00
          2   -1    0    0  501    0  0.00000000000E+00  0.00000000000E+00  0.29400808278E+03  0.29400808278E+03  0.00000000000E+00 0. -1.
         -2   -1    0    0    0  501 -0.00000000000E+00 -0.00000000000E+00 -0.18516962283E+03  0.18516962283E+03  0.00000000000E+00 0.  1.
          5    1    1    2  502    0 -0.12792139699E+03 -0.45768325678E+02  0.17905214256E+03  0.22481188402E+03  0.47000000000E+01 0. -1.
         -5    1    1    2    0  502  0.22532575453E+02 -0.40336924088E+02  0.36245667069E+02  0.58911991842E+02  0.47000000000E+01 0. -1.
        -11    1    1    2    0    0  0.85366928958E+01 -0.15052043598E+02 -0.33114838022E+02  0.37363506785E+02  0.00000000000E+00 0.  1.
         11    1    1    2    0    0  0.96852128638E+02  0.10115729336E+03 -0.73344511655E+02  0.15809032296E+03  0.00000000000E+00 0. -1.
<mgrwt>
<rscale>  0 0.17933230E+03</rscale>
<asrwt>0</asrwt>
<pdfrwt beam="1">  1        2 0.45232013E-01 0.18478661E+03</pdfrwt>
<pdfrwt beam="2">  1       -2 0.28487634E-01 0.18478661E+03</pdfrwt>
<totfact> 0.12472856E+03</totfact>
</mgrwt>
</event>
<event>
 6    1  0.6101889E-006  0.1267731E+03  0.7546771E-02  0.1248692E+00
          1   -1    0    0  501    0  0.00000000000E+00  0.00000000000E+00  0.19142527803E+03  0.19142527803E+03  0.00000000000E+00 0. -1.
         -1   -1    0    0    0  501 -0.00000000000E+00 -0.00000000000E+00 -0.68264858550E+02  0.68264858550E+02  0.00000000000E+00 0.  1.
          5    1    1    2  502    0 -0.31643989189E+02 -0.54616011387E+02  0.81783967229E+02  0.10341643026E+03  0.47000000000E+01 0. -1.
         -5    1    1    2    0  502  0.34627258383E+02  0.46163928314E+02  0.28128668257E+02  0.64369769911E+02  0.47000000000E+01 0.  1.
        -11    1    1    2    0    0 -0.22385171799E+01  0.36559103331E+02 -0.25063691006E+02  0.44382063971E+02  0.00000000000E+00 0.  1.
         11    1    1    2    0    0 -0.74475201458E+00 -0.28107020258E+02  0.38311474996E+02  0.47521872435E+02  0.00000000000E+00 0. -1.
<mgrwt>
<rscale>  0 0.11667129E+03</rscale>
<asrwt>0</asrwt>
<pdfrwt beam="1">  1        1 0.29450043E-01 0.12677311E+03</pdfrwt>
<pdfrwt beam="2">  1       -1 0.10502286E-01 0.12677311E+03</pdfrwt>
<totfact> 0.82425214E+03</totfact>
</mgrwt>
</event>
<event>
 6    1  0.6101889E-006  0.1488542E+03  0.7546771E-02  0.1211482E+00
          2   -1    0    0  501    0  0.00000000000E+00  0.00000000000E+00  0.56403805937E+03  0.56403805937E+03  0.00000000000E+00 0. -1.
         -2   -1    0    0    0  501 -0.00000000000E+00 -0.00000000000E+00 -0.41401286271E+02  0.41401286271E+02  0.00000000000E+00 0.  1.
          5    1    1    2  502    0  0.17837634056E+02 -0.73352300583E+02  0.10225267330E+03  0.12718663604E+03  0.47000000000E+01 0.  1.
         -5    1    1    2    0  502 -0.14867031556E+02 -0.74067506288E+01  0.32126597446E+03  0.32172939705E+03  0.47000000000E+01 0.  1.
        -11    1    1    2    0    0 -0.28416305651E+01  0.11108080363E+02 -0.17362447150E+02  0.20806702878E+02  0.00000000000E+00 0.  1.
         11    1    1    2    0    0 -0.12897193483E+00  0.69650970849E+02  0.11648057249E+03  0.13571660967E+03  0.00000000000E+00 0. -1.
<mgrwt>
<rscale>  0 0.14138181E+03</rscale>
<asrwt>0</asrwt>
<pdfrwt beam="1">  1        2 0.86775081E-01 0.14885416E+03</pdfrwt>
<pdfrwt beam="2">  1       -2 0.63694291E-02 0.14885416E+03</pdfrwt>
<totfact> 0.70621293E+03</totfact>
</mgrwt>
</event>
<event>
 6    1  0.6101889E-006  0.2788689E+03  0.7546771E-02  0.1098788E+00
          2   -1    0    0  501    0  0.00000000000E+00  0.00000000000E+00  0.22234494832E+04  0.22234494832E+04  0.00000000000E+00 0. -1.
         -2   -1    0    0    0  501 -0.00000000000E+00 -0.00000000000E+00 -0.40046089988E+02  0.40046089988E+02  0.00000000000E+00 0.  1.
          5    1    1    2  502    0  0.14857557248E+03  0.15862052499E+03  0.11533594550E+04  0.11736674546E+04  0.47000000000E+01 0.  1.
         -5    1    1    2    0  502  0.55962520453E+02 -0.16121504993E+02  0.44776577109E+03  0.45156171492E+03  0.47000000000E+01 0.  1.
        -11    1    1    2    0    0 -0.70216060292E+02 -0.20349676911E+02  0.10791536398E+03  0.13034619387E+03  0.00000000000E+00 0. -1.
         11    1    1    2    0    0 -0.13432203264E+03 -0.12214934308E+03  0.47436280322E+03  0.50792020982E+03  0.00000000000E+00 0.  1.
<mgrwt>
<rscale>  0 0.27439827E+03</rscale>
<asrwt>0</asrwt>
<pdfrwt beam="1">  1        2 0.34206905E+00 0.27886890E+03</pdfrwt>
<pdfrwt beam="2">  1       -2 0.61609387E-02 0.27886890E+03</pdfrwt>
<totfact> 0.80304494E+02</totfact>
</mgrwt>
</event>
<event>
 6    1  0.6101889E-006  0.3043028E+03  0.7546771E-02  0.1083109E+00
         -2   -1    0    0    0  501 -0.00000000000E+00  0.00000000000E+00  0.30582170389E+02  0.30582170389E+02  0.00000000000E+00 0.  1.
          2   -1    0    0  501    0  0.00000000000E+00 -0.00000000000E+00 -0.75697878190E+03  0.75697878190E+03  0.00000000000E+00 0. -1.
          5    1    1    2  502    0 -0.17312223138E+02 -0.40204897036E+00 -0.30358128294E+03  0.30411109823E+03  0.47000000000E+01 0.  1.
         -5    1    1    2    0  502  0.84879370624E+02  0.55610782915E+02 -0.24390614527E+03  0.26421461813E+03  0.47000000000E+01 0.  1.
        -11    1    1    2    0    0 -0.59569612831E+02 -0.46609070272E+01 -0.41895754709E+02  0.72976140551E+02  0.00000000000E+00 0.  1.
         11    1    1    2    0    0 -0.79975346553E+01 -0.50547826917E+02 -0.13701342859E+03  0.14625909538E+03  0.00000000000E+00 0. -1.
<mgrwt>
<rscale>  0 0.30430284E+03</rscale>
<asrwt>0</asrwt>
<pdfrwt beam="2">  1        2 0.11645826E+00 0.30430284E+03</pdfrwt>
<pdfrwt beam="1">  1       -2 0.47049497E-02 0.30430284E+03</pdfrwt>
<totfact> 0.81814049E+03</totfact>
</mgrwt>
</event>
<event>
 6    1  0.6101889E-006  0.1341000E+03  0.7546771E-02  0.1233770E+00
         -2   -1    0    0    0  501 -0.00000000000E+00  0.00000000000E+00  0.49243214398E+02  0.49243214398E+02  0.00000000000E+00 0.  1.
          2   -1    0    0  501    0  0.00000000000E+00 -0.00000000000E+00 -0.28817437507E+03  0.28817437507E+03  0.00000000000E+00 0. -1.
          5    1    1    2  502    0  0.90377450131E+01  0.49441387739E+02  0.16157837274E+01  0.50505766142E+02  0.47000000000E+01 0.  1.
         -5    1    1    2    0  502  0.17826564921E+02 -0.89349090334E+01 -0.14261871092E+03  0.14408263504E+03  0.47000000000E+01 0.  1.
        -11    1    1    2    0    0 -0.17179088191E+02 -0.27298504438E+02 -0.11484173269E+03  0.11928517503E+03  0.00000000000E+00 0. -1.
         11    1    1    2    0    0 -0.96852217430E+01 -0.13207974268E+02  0.16913499209E+02  0.23544013251E+02  0.00000000000E+00 0.  1.
<mgrwt>
<rscale>  0 0.12583489E+03</rscale>
<asrwt>0</asrwt>
<pdfrwt beam="2">  1        2 0.44334520E-01 0.13410004E+03</pdfrwt>
<pdfrwt beam="1">  1       -2 0.75758790E-02 0.13410004E+03</pdfrwt>
<totfact> 0.11096061E+04</totfact>
</mgrwt>
</event>
<event>
 6    1  0.6101889E-006  0.2983686E+03  0.7546771E-02  0.1086059E+00
          1   -1    0    0  501    0  0.00000000000E+00  0.00000000000E+00  0.49124758008E+02  0.49124758008E+02  0.00000000000E+00 0. -1.
         -1   -1    0    0    0  501 -0.00000000000E+00 -0.00000000000E+00 -0.45304977384E+03  0.45304977384E+03  0.00000000000E+00 0.  1.
          5    1    1    2  502    0  0.10470231164E+03 -0.25259200744E+02 -0.68346135380E+02  0.12764750489E+03  0.47000000000E+01 0. -1.
         -5    1    1    2    0  502 -0.98077189018E+01 -0.92436853006E+01 -0.11612731377E+03  0.11700119688E+03  0.47000000000E+01 0. -1.
        -11    1    1    2    0    0 -0.60260464388E+02  0.52848758132E+02 -0.19623423406E+03  0.21197214303E+03  0.00000000000E+00 0.  1.
         11    1    1    2    0    0 -0.34634128347E+02 -0.18345872087E+02 -0.23217332621E+02  0.45553687041E+02  0.00000000000E+00 0. -1.
<mgrwt>
<rscale>  0 0.29836863E+03</rscale>
<asrwt>0</asrwt>
<pdfrwt beam="1">  1        1 0.75576553E-02 0.29836863E+03</pdfrwt>
<pdfrwt beam="2">  1       -1 0.69699963E-01 0.29836863E+03</pdfrwt>
<totfact> 0.20335072E+03</totfact>
</mgrwt>
</event>
<event>
 6    1  0.6101889E-006  0.2685299E+03  0.7546771E-02  0.1102124E+00
         -1   -1    0    0    0  501 -0.00000000000E+00  0.00000000000E+00  0.49078481536E+02  0.49078481536E+02  0.00000000000E+00 0.  1.
          1   -1    0    0  501    0  0.00000000000E+00 -0.00000000000E+00 -0.36731131850E+03  0.36731131850E+03  0.00000000000E+00 0. -1.
          5    1    1    2  502    0  0.82417911023E+02  0.29498641737E+02 -0.23632781548E+03  0.25206310379E+03  0.47000000000E+01 0.  1.
         -5    1    1    2    0  502 -0.22635297421E+02  0.45247385274E+01  0.50431797521E+00  0.23562136676E+02  0.47000000000E+01 0.  1.
        -11    1    1    2    0    0 -0.58512479815E+00 -0.48938661720E+02 -0.55649804604E+02  0.74109619716E+02  0.00000000000E+00 0. -1.
         11    1    1    2    0    0 -0.59197488804E+02  0.14915281456E+02 -0.26759534856E+02  0.66654939857E+02  0.00000000000E+00 0.  1.
<mgrwt>
<rscale>  0 0.26852994E+03</rscale>
<asrwt>0</asrwt>
<pdfrwt beam="2">  1        1 0.56509435E-01 0.26852994E+03</pdfrwt>
<pdfrwt beam="1">  1       -1 0.75505354E-02 0.26852994E+03</pdfrwt>
<totfact> 0.63178629E+03</totfact>
</mgrwt>
</event>
<event>
 6    1  0.6101889E-006  0.1793736E+03  0.7546771E-02  0.1172237E+00
         -2   -1    0    0    0  501 -0.00000000000E+00  0.00000000000E+00  0.16143855027E+03  0.16143855027E+03  0.00000000000E+00 0.  1.
          2   -1    0    0  501    0  0.00000000000E+00 -0.00000000000E+00 -0.20649103318E+03  0.20649103318E+03  0.00000000000E+00 0. -1.
          5    1    1    2  502    0 -0.24169870875E+02 -0.13621631879E+03 -0.69097227492E+02  0.15471129568E+03  0.47000000000E+01 0. -1.
         -5    1    1    2    0  502 -0.34303534664E+02  0.21624823901E+02 -0.16351175572E+02  0.43975179838E+02  0.47000000000E+01 0. -1.
        -11    1    1    2    0    0  0.90984302800E+01  0.85726683242E+01 -0.30165544596E+02  0.32653210509E+02  0.00000000000E+00 0. -1.
         11    1    1    2    0    0  0.49374975259E+02  0.10601882657E+03  0.70561464750E+02  0.13658989742E+03  0.00000000000E+00 0.  1.
<mgrwt>
<rscale>  0 0.17549400E+03</rscale>
<asrwt>0</asrwt>
<pdfrwt beam="2">  1        2 0.31767851E-01 0.17937359E+03</pdfrwt>
<pdfrwt beam="1">  1       -2 0.24836700E-01 0.17937359E+03</pdfrwt>
<totfact> 0.23252780E+03</totfact>
</mgrwt>
</event>
<event>
 6    1  0.6101889E-006  0.1267857E+03  0.7546771E-02  0.1247480E+00
          2   -1    0    0  501    0  0.00000000000E+00  0.00000000000E+00  0.64030931157E+02  0.64030931157E+02  0.00000000000E+00 0. -1.
         -2   -1    0    0    0  501 -0.00000000000E+00 -0.00000000000E+00 -0.22214055894E+03  0.22214055894E+03  0.00000000000E+00 0.  1.
          5    1    1    2  502    0 -0.43126076558E+02 -0.31063280333E+02  0.13049653975E+02  0.54928765991E+02  0.47000000000E+01 0.  1.
         -5    1    1    2    0  502  0.57631611660E+02  0.15567517547E+02 -0.47557003683E+02  0.76469005907E+02  0.47000000000E+01 0.  1.
        -11    1    1    2    0    0  0.46127278529E+01 -0.21187994770E+02  0.27167447112E+01  0.21853811623E+02  0.00000000000E+00 0. -1.
         11    1    1    2    0    0 -0.19118262954E+02  0.36683757557E+02 -0.12631902279E+03  0.13291990658E+03  0.00000000000E+00 0.  1.
<mgrwt>
<rscale>  0 0.11738195E+03</rscale>
<asrwt>0</asrwt>
<pdfrwt beam="1">  1        2 0.98509124E-02 0.12678571E+03</pdfrwt>
<pdfrwt beam="2">  1       -2 0.34175471E-01 0.12678571E+03</pdfrwt>
<totfact> 0.49639106E+03</totfact>
</mgrwt>
</event>
<event>
 6    1  0.6101889E-006  0.1592169E+03  0.7546771E-02  0.1197202E+00
         -2   -1    0    0    0  501 -0.00000000000E+00  0.00000000000E+00  0.21544124437E+03  0.21544124437E+03  0.00000000000E+00 0. -1.
          2   -1    0    0  501    0  0.00000000000E+00 -0.00000000000E+00 -0.12599681152E+03  0.12599681152E+03  0.00000000000E+00 0.  1.
          5    1    1    2  502    0 -0.32555838890E+02 -0.44663850669E+02 -0.73225939794E+02  0.91863324897E+02  0.47000000000E+01 0. -1.
         -5    1    1    2    0  502 -0.54298905966E+02 -0.17218150461E+01  0.43933742299E+02  0.70025706341E+02  0.47000000000E+01 0. -1.
        -11    1    1    2    0    0  0.12369473136E+01 -0.13792282024E+02 -0.73605730250E+01  0.15682318622E+02  0.00000000000E+00 0.  1.
         11    1    1    2    0    0  0.85617797542E+02  0.60177947740E+02  0.12609720336E+03  0.16386670603E+03  0.00000000000E+00 0. -1.
<mgrwt>
<rscale>  0 0.15269329E+03</rscale>
<asrwt>0</asrwt>
<pdfrwt beam="2">  1        2 0.19384125E-01 0.15921691E+03</pdfrwt>
<pdfrwt beam="1">  1       -2 0.33144807E-01 0.15921691E+03</pdfrwt>
<totfact> 0.23881227E+03</totfact>
</mgrwt>
</event>
<event>
 6    1  0.6101889E-006  0.1446213E+03  0.7546771E-02  0.1216854E+00
          2   -1    0    0  501    0  0.00000000000E+00  0.00000000000E+00  0.29971923289E+03  0.29971923289E+03  0.00000000000E+00 0. -1.
         -2   -1    0    0    0  501 -0.00000000000E+00 -0.00000000000E+00 -0.57549279417E+02  0.57549279417E+02  0.00000000000E+00 0.  1.
          5    1    1    2  502    0 -0.40622025769E+02  0.12590871544E+02  0.10335436270E+02  0.44018067503E+02  0.47000000000E+01 0. -1.
         -5    1    1    2    0  502  0.28283948028E+02 -0.84268596663E+02  0.12957753364E+03  0.15720561480E+03  0.47000000000E+01 0. -1.
        -11    1    1    2    0    0 -0.13496537436E+02  0.83813469751E+02  0.93271954817E+02  0.12612102041E+03  0.00000000000E+00 0. -1.
         11    1    1    2    0    0  0.25834615177E+02 -0.12135744632E+02  0.89850287486E+01  0.29923809596E+02  0.00000000000E+00 0.  1.
<mgrwt>
<rscale>  0 0.13741234E+03</rscale>
<asrwt>0</asrwt>
<pdfrwt beam="1">  1        2 0.46110650E-01 0.14462134E+03</pdfrwt>
<pdfrwt beam="2">  1       -2 0.88537355E-02 0.14462134E+03</pdfrwt>
<totfact> 0.84075943E+03</totfact>
</mgrwt>
</event>
<event>
 6    1  0.6101889E-006  0.1459422E+03  0.7546771E-02  0.1214362E+00
          2   -1    0    0  501    0  0.00000000000E+00  0.00000000000E+00  0.37147562224E+03  0.37147562224E+03  0.00000000000E+00 0. -1.
         -2   -1    0    0    0  501 -0.00000000000E+00 -0.00000000000E+00 -0.49150030009E+02  0.49150030009E+02  0.00000000000E+00 0.  1.
          5    1    1    2  502    0  0.78186924619E+01 -0.63506007972E+02  0.53195794065E+02  0.83342831165E+02  0.47000000000E+01 0. -1.
         -5    1    1    2    0  502 -0.75220848501E+02  0.29885483141E+02  0.89622291011E+02  0.12085347822E+03  0.47000000000E+01 0. -1.
        -11    1    1    2    0    0 -0.27060792953E+01  0.33899038947E+02  0.14168688922E+02  0.36840459449E+02  0.00000000000E+00 0.  1.
         11    1    1    2    0    0  0.70108235334E+02 -0.27851411563E+00  0.16533881823E+03  0.17958888341E+03  0.00000000000E+00 0. -1.
<mgrwt>
<rscale>  0 0.13923529E+03</rscale>
<asrwt>0</asrwt>
<pdfrwt beam="1">  1        2 0.57150094E-01 0.14594221E+03</pdfrwt>
<pdfrwt beam="2">  1       -2 0.75615433E-02 0.14594221E+03</pdfrwt>
<totfact> 0.85494551E+03</totfact>
</mgrwt>
</event>
<event>
 6    1  0.6101889E-006  0.1408752E+03  0.7546771E-02  0.1223318E+00
         -1   -1    0    0    0  501 -0.00000000000E+00  0.00000000000E+00  0.13272648696E+02  0.13272648696E+02  0.00000000000E+00 0.  1.
          1   -1    0    0  501    0  0.00000000000E+00 -0.00000000000E+00 -0.15308106887E+04  0.15308106887E+04  0.00000000000E+00 0. -1.
          5    1    1    2  502    0  0.33849624207E+02  0.43436064991E+02 -0.35828424949E+03  0.36252197483E+03  0.47000000000E+01 0. -1.
         -5    1    1    2    0  502  0.19913421554E+02 -0.79900520299E+02 -0.82795081474E+03  0.83204884420E+03  0.47000000000E+01 0. -1.
        -11    1    1    2    0    0  0.10178015996E+02  0.15332603740E+02 -0.94460045937E+01  0.20685931205E+02  0.00000000000E+00 0.  1.
         11    1    1    2    0    0 -0.63941061756E+02  0.21131851568E+02 -0.32185697120E+03  0.32882658719E+03  0.00000000000E+00 0. -1.
<mgrwt>
<rscale>  0 0.13282869E+03</rscale>
<asrwt>0</asrwt>
<pdfrwt beam="2">  1        1 0.23550926E+00 0.14087517E+03</pdfrwt>
<pdfrwt beam="1">  1       -1 0.20419467E-02 0.14087517E+03</pdfrwt>
<totfact> 0.44795574E+03</totfact>
</mgrwt>
</event>
<event>
 6    1  0.6101889E-006  0.3848891E+03  0.7546771E-02  0.1049141E+00
         -2   -1    0    0    0  501 -0.00000000000E+00  0.00000000000E+00  0.22407496173E+03  0.22407496173E+03  0.00000000000E+00 0.  1.
          2   -1    0    0  501    0  0.00000000000E+00 -0.00000000000E+00 -0.16527911990E+03  0.16527911990E+03  0.00000000000E+00 0. -1.
          5    1    1    2  502    0 -0.19474392472E+02  0.33259733627E+02  0.32462856379E+02  0.50610165850E+02  0.47000000000E+01 0. -1.
         -5    1    1    2    0  502 -0.13351484835E+03 -0.74608248427E+02 -0.49671162500E+01  0.15309920871E+03  0.47000000000E+01 0. -1.
        -11    1    1    2    0    0  0.43302404146E+02  0.57196984565E+02  0.18465503411E+02  0.74078121361E+02  0.00000000000E+00 0.  1.
         11    1    1    2    0    0  0.10968683668E+03 -0.15848469764E+02  0.12834598296E+02  0.11156658571E+03  0.00000000000E+00 0. -1.
<mgrwt>
<rscale>  0 0.38488914E+03</rscale>
<asrwt>0</asrwt>
<pdfrwt beam="2">  1        2 0.25427557E-01 0.38488914E+03</pdfrwt>
<pdfrwt beam="1">  1       -2 0.34473071E-01 0.38488914E+03</pdfrwt>
<totfact> 0.16788856E+03</totfact>
</mgrwt>
</event>
<event>
 6    1  0.6101889E-006  0.1262611E+03  0.7546771E-02  0.1251260E+00
          2   -1    0    0  501    0  0.00000000000E+00  0.00000000000E+00  0.44441415120E+03  0.44441415120E+03  0.00000000000E+00 0. -1.
         -2   -1    0    0    0  501 -0.00000000000E+00 -0.00000000000E+00 -0.28531428193E+02  0.28531428193E+02  0.00000000000E+00 0.  1.
          5    1    1    2  502    0 -0.27599034573E+02 -0.43204967690E+02  0.25717661875E+03  0.26227901017E+03  0.47000000000E+01 0.  1.
         -5    1    1    2    0  502  0.10954251429E+02  0.49677629781E+02  0.58248221057E+02  0.77477788955E+02  0.47000000000E+01 0.  1.
        -11    1    1    2    0    0 -0.26598201256E+02 -0.20023725674E+02  0.72921295253E+02  0.80161893699E+02  0.00000000000E+00 0. -1.
         11    1    1    2    0    0  0.43242984400E+02  0.13551063583E+02  0.27536587951E+02  0.53026886577E+02  0.00000000000E+00 0.  1.
<mgrwt>
<rscale>  0 0.11518389E+03</rscale>
<asrwt>0</asrwt>
<pdfrwt beam="1">  1        2 0.68371403E-01 0.12626105E+03</pdfrwt>
<pdfrwt beam="2">  1       -2 0.43894508E-02 0.12626105E+03</pdfrwt>
<totfact> 0.15898293E+04</totfact>
</mgrwt>
</event>
<event>
 6    1  0.6101889E-006  0.1721659E+03  0.7546771E-02  0.1188582E+00
          2   -1    0    0  501    0  0.00000000000E+00  0.00000000000E+00  0.11286428143E+04  0.11286428143E+04  0.00000000000E+00 0. -1.
         -2   -1    0    0    0  501 -0.00000000000E+00 -0.00000000000E+00 -0.38716886488E+02  0.38716886488E+02  0.00000000000E+00 0.  1.
          5    1    1    2  502    0 -0.34089735653E+02 -0.42573617027E+02  0.70470827404E+03  0.70683128428E+03  0.47000000000E+01 0. -1.
         -5    1    1    2    0  502 -0.29406014759E+02  0.44540888345E+02  0.20253655315E+03  0.20950357945E+03  0.47000000000E+01 0.  1.
        -11    1    1    2    0    0 -0.96644140176E+01  0.26953992054E+02 -0.19120561631E+02  0.34431300630E+02  0.00000000000E+00 0.  1.
         11    1    1    2    0    0  0.73160164430E+02 -0.28921263373E+02  0.20180166225E+03  0.21659353642E+03  0.00000000000E+00 0. -1.
<mgrwt>
<rscale>  0 0.16010193E+03</rscale>
<asrwt>0</asrwt>
<pdfrwt beam="1">  1        2 0.17363733E+00 0.17216586E+03</pdfrwt>
<pdfrwt beam="2">  1       -2 0.59564449E-02 0.17216586E+03</pdfrwt>
<totfact> 0.32610279E+03</totfact>
</mgrwt>
</event>
<event>
 6    1  0.6101889E-006  0.1296479E+03  0.7546771E-02  0.1241730E+00
         -1   -1    0    0    0  501 -0.00000000000E+00  0.00000000000E+00  0.32779385800E+03  0.32779385800E+03  0.00000000000E+00 0.  1.
          1   -1    0    0  501    0  0.00000000000E+00 -0.00000000000E+00 -0.43207064907E+02  0.43207064907E+02  0.00000000000E+00 0. -1.
          5    1    1    2  502    0 -0.41661929203E+02  0.48129915258E+02  0.42966917675E+02  0.76944467651E+02  0.47000000000E+01 0. -1.
         -5    1    1    2    0  502  0.10977360776E+02 -0.63828421926E+02  0.63393379872E+02  0.90748997277E+02  0.47000000000E+01 0. -1.
        -11    1    1    2    0    0  0.39455097231E+02 -0.16012356460E+02  0.16025977955E+03  0.16582007477E+03  0.00000000000E+00 0.  1.
         11    1    1    2    0    0 -0.87705288045E+01  0.31710863127E+02  0.17966715996E+02  0.37487383204E+02  0.00000000000E+00 0. -1.
<mgrwt>
<rscale>  0 0.12083253E+03</rscale>
<asrwt>0</asrwt>
<pdfrwt beam="2">  1        1 0.66472410E-02 0.12964793E+03</pdfrwt>
<pdfrwt beam="1">  1       -1 0.50429823E-01 0.12964793E+03</pdfrwt>
<totfact> 0.43260379E+03</totfact>
</mgrwt>
</event>
<event>
 6    1  0.6101889E-006  0.1521621E+03  0.7546771E-02  0.1206702E+00
         -2   -1    0    0    0  501 -0.00000000000E+00  0.00000000000E+00  0.77120439194E+02  0.77120439194E+02  0.00000000000E+00 0.  1.
          2   -1    0    0  501    0  0.00000000000E+00 -0.00000000000E+00 -0.34401451480E+03  0.34401451480E+03  0.00000000000E+00 0. -1.
          5    1    1    2  502    0  0.20259647366E+02  0.54353441801E+02 -0.40602188531E+02  0.70960395014E+02  0.47000000000E+01 0. -1.
         -5    1    1    2    0  502  0.63902973688E+02 -0.33249963696E+02 -0.21175320715E+03  0.22372005022E+03  0.47000000000E+01 0. -1.
        -11    1    1    2    0    0 -0.42249560529E+02  0.40716553896E+01 -0.50346958138E+02  0.65851499119E+02  0.00000000000E+00 0. -1.
         11    1    1    2    0    0 -0.41913060525E+02 -0.25175133494E+02  0.35808278213E+02  0.60603009642E+02  0.00000000000E+00 0.  1.
<mgrwt>
<rscale>  0 0.14504113E+03</rscale>
<asrwt>0</asrwt>
<pdfrwt beam="2">  1        2 0.52925309E-01 0.15216215E+03</pdfrwt>
<pdfrwt beam="1">  1       -2 0.11864683E-01 0.15216215E+03</pdfrwt>
<totfact> 0.45890017E+03</totfact>
</mgrwt>
</event>
<event>
 6    1  0.6101889E-006  0.1438956E+03  0.7546771E-02  0.1219302E+00
          1   -1    0    0  501    0  0.00000000000E+00  0.00000000000E+00  0.56704608952E+03  0.56704608952E+03  0.00000000000E+00 0.  1.
         -1   -1    0    0    0  501 -0.00000000000E+00 -0.00000000000E+00 -0.34482579403E+02  0.34482579403E+02  0.00000000000E+00 0. -1.
          5    1    1    2  502    0  0.31870192849E+02 -0.37336871252E+02  0.29137048390E+03  0.29551412832E+03  0.47000000000E+01 0. -1.
         -5    1    1    2    0  502  0.34466363337E+02  0.63426475559E+02  0.11798448723E+03  0.13839536564E+03  0.47000000000E+01 0. -1.
        -11    1    1    2    0    0 -0.29392894162E+02 -0.23229614866E+02  0.12502799648E+03  0.13052033228E+03  0.00000000000E+00 0.  1.
         11    1    1    2    0    0 -0.36943662025E+02 -0.28599894409E+01 -0.18194574918E+01  0.37098842690E+02  0.00000000000E+00 0. -1.
<mgrwt>
<rscale>  0 0.13565196E+03</rscale>
<asrwt>0</asrwt>
<pdfrwt beam="1">  1        1 0.87237853E-01 0.14389564E+03</pdfrwt>
<pdfrwt beam="2">  1       -1 0.53050126E-02 0.14389564E+03</pdfrwt>
<totfact> 0.59173135E+03</totfact>
</mgrwt>
</event>
<event>
 6    1  0.6101889E-006  0.1274985E+03  0.7546771E-02  0.1245051E+00
          2   -1    0    0  501    0  0.00000000000E+00  0.00000000000E+00  0.11929535517E+04  0.11929535517E+04  0.00000000000E+00 0. -1.
         -2   -1    0    0    0  501 -0.00000000000E+00 -0.00000000000E+00 -0.10887239665E+02  0.10887239665E+02  0.00000000000E+00 0.  1.
          5    1    1    2  502    0  0.28933682712E+02  0.62139694260E+02  0.60315464631E+03  0.60705528329E+03  0.47000000000E+01 0.  1.
         -5    1    1    2    0  502 -0.84035986615E+01 -0.47676529350E+02  0.18215491432E+03  0.18853693201E+03  0.47000000000E+01 0.  1.
        -11    1    1    2    0    0  0.37883583155E+01  0.36903194749E+02  0.20161328081E+03  0.20499783521E+03  0.00000000000E+00 0.  1.
         11    1    1    2    0    0 -0.24318442366E+02 -0.51366359659E+02  0.19514347057E+03  0.20325074084E+03  0.00000000000E+00 0. -1.
<mgrwt>
<rscale>  0 0.11882348E+03</rscale>
<asrwt>0</asrwt>
<pdfrwt beam="1">  1        2 0.18353121E+00 0.12749850E+03</pdfrwt>
<pdfrwt beam="2">  1       -2 0.16749609E-02 0.12749850E+03</pdfrwt>
<totfact> 0.19320460E+04</totfact>
</mgrwt>
</event>
<event>
 6    1  0.6101889E-006  0.1422078E+03  0.7546771E-02  0.1220225E+00
         -4   -1    0    0    0  501 -0.00000000000E+00  0.00000000000E+00  0.31097875876E+02  0.31097875876E+02  0.00000000000E+00 0.  1.
          4   -1    0    0  501    0  0.00000000000E+00 -0.00000000000E+00 -0.67242677366E+03  0.67242677366E+03  0.00000000000E+00 0. -1.
          5    1    1    2  502    0 -0.14165769494E+02  0.33834615837E+02 -0.17792761748E+03  0.18172995713E+03  0.47000000000E+01 0.  1.
         -5    1    1    2    0  502  0.60793468708E+02 -0.83066742990E+02 -0.32815362270E+03  0.34395176946E+03  0.47000000000E+01 0.  1.
        -11    1    1    2    0    0 -0.37161409782E+02  0.77196885577E+02 -0.10586224705E+03  0.13618790280E+03  0.00000000000E+00 0. -1.
         11    1    1    2    0    0 -0.94662894326E+01 -0.27964758424E+02 -0.29385410554E+02  0.41655020139E+02  0.00000000000E+00 0.  1.
<mgrwt>
<rscale>  0 0.13499617E+03</rscale>
<asrwt>0</asrwt>
<pdfrwt beam="2">  1        4 0.10345027E+00 0.14220779E+03</pdfrwt>
<pdfrwt beam="1">  1       -4 0.47842888E-02 0.14220779E+03</pdfrwt>
<totfact> 0.34051597E+02</totfact>
</mgrwt>
</event>
<event>
 6    1  0.6101889E-006  0.4178197E+03  0.7546771E-02  0.1081607E+00
         -4   -1    0    0    0  501 -0.00000000000E+00  0.00000000000E+00  0.36449363881E+03  0.36449363881E+03  0.00000000000E+00 0.  1.
          4   -1    0    0  501    0  0.00000000000E+00 -0.00000000000E+00 -0.20018073371E+03  0.20018073371E+03  0.00000000000E+00 0. -1.
          5    1    1    2  502    0  0.18329570605E+03 -0.10137293490E+03 -0.46461002377E+02  0.21460312796E+03  0.47000000000E+01 0. -1.
         -5    1    1    2    0  502 -0.13390552708E+03  0.42067449299E+02  0.17121645682E+03  0.22144418159E+03  0.47000000000E+01 0.  1.
        -11    1    1    2    0    0  0.91582395689E+01 -0.11308220914E+02  0.33704372931E+02  0.36711496386E+02  0.00000000000E+00 0. -1.
         11    1    1    2    0    0 -0.58548418537E+02  0.70613706517E+02  0.58530777274E+01  0.91915566583E+02  0.00000000000E+00 0.  1.
<mgrwt>
<rscale>  0 0.30738393E+03</rscale>
<asrwt>0</asrwt>
<pdfrwt beam="2">  1        4 0.30797036E-01 0.41781974E+03</pdfrwt>
<pdfrwt beam="1">  1       -4 0.56075944E-01 0.41781974E+03</pdfrwt>
<totfact> 0.59368470E+01</totfact>
</mgrwt>
</event>
<event>
 6    1  0.6101889E-006  0.1317167E+03  0.7546771E-02  0.1237810E+00
          1   -1    0    0  501    0  0.00000000000E+00  0.00000000000E+00  0.25887670173E+03  0.25887670173E+03  0.00000000000E+00 0. -1.
         -1   -1    0    0    0  501 -0.00000000000E+00 -0.00000000000E+00 -0.70933376115E+02  0.70933376115E+02  0.00000000000E+00 0.  1.
          5    1    1    2  502    0 -0.22539128348E+02  0.57906989587E+01  0.18792605421E+03  0.18941973591E+03  0.47000000000E+01 0. -1.
         -5    1    1    2    0  502  0.16692029179E+02  0.35332573542E+02 -0.85778260306E+00  0.39368012170E+02  0.47000000000E+01 0. -1.
        -11    1    1    2    0    0  0.24933695337E+01 -0.21017462757E+02  0.46478579192E+02  0.51070627136E+02  0.00000000000E+00 0. -1.
         11    1    1    2    0    0  0.33537296350E+01 -0.20105809743E+02 -0.45603525176E+02  0.49951702638E+02  0.00000000000E+00 0.  1.
<mgrwt>
<rscale>  0 0.12326250E+03</rscale>
<asrwt>0</asrwt>
<pdfrwt beam="1">  1        1 0.39827184E-01 0.13171672E+03</pdfrwt>
<pdfrwt beam="2">  1       -1 0.10912827E-01 0.13171672E+03</pdfrwt>
<totfact> 0.53640976E+03</totfact>
</mgrwt>
</event>
<event>
 6    1  0.6101889E-006  0.1657206E+03  0.7546771E-02  0.1190477E+00
         -2   -1    0    0    0  501 -0.00000000000E+00  0.00000000000E+00  0.60519676938E+02  0.60519676938E+02  0.00000000000E+00 0.  1.
          2   -1    0    0  501    0  0.00000000000E+00 -0.00000000000E+00 -0.45523152500E+03  0.45523152500E+03  0.00000000000E+00 0. -1.
          5    1    1    2  502    0  0.79794094874E+02 -0.25411369205E+02 -0.12992423465E+03  0.15464550433E+03  0.47000000000E+01 0.  1.
         -5    1    1    2    0  502 -0.31868983785E+02 -0.72273032034E+02 -0.18525661877E+03  0.20144758149E+03  0.47000000000E+01 0.  1.
        -11    1    1    2    0    0 -0.56768436297E+02  0.10765556062E+03 -0.81079960782E+02  0.14624067537E+03  0.00000000000E+00 0. -1.
         11    1    1    2    0    0  0.88433252086E+01 -0.99711593833E+01  0.15489661389E+01  0.13417440750E+02  0.00000000000E+00 0.  1.
<mgrwt>
<rscale>  0 0.15843367E+03</rscale>
<asrwt>0</asrwt>
<pdfrwt beam="2">  1        2 0.70035623E-01 0.16572059E+03</pdfrwt>
<pdfrwt beam="1">  1       -2 0.93107191E-02 0.16572059E+03</pdfrwt>
<totfact> 0.50059544E+03</totfact>
</mgrwt>
</event>
<event>
 6    1  0.6101889E-006  0.1275578E+03  0.7546771E-02  0.1245360E+00
          3   -1    0    0  501    0  0.00000000000E+00  0.00000000000E+00  0.21835510468E+03  0.21835510468E+03  0.00000000000E+00 0. -1.
         -3   -1    0    0    0  501 -0.00000000000E+00 -0.00000000000E+00 -0.63988854437E+02  0.63988854437E+02  0.00000000000E+00 0.  1.
          5    1    1    2  502    0 -0.11649644155E+02 -0.20591325208E+02  0.12948061572E+03  0.13170814982E+03  0.47000000000E+01 0. -1.
         -5    1    1    2    0  502  0.13974446303E+02  0.50674062828E+02  0.40081691430E+01  0.52927320099E+02  0.47000000000E+01 0.  1.
        -11    1    1    2    0    0 -0.33321498104E+02 -0.36288560999E+01 -0.20777140136E+02  0.39435775442E+02  0.00000000000E+00 0.  1.
         11    1    1    2    0    0  0.30996695956E+02 -0.26453881520E+02  0.41654605519E+02  0.58272713757E+02  0.00000000000E+00 0. -1.
<mgrwt>
<rscale>  0 0.11863876E+03</rscale>
<asrwt>0</asrwt>
<pdfrwt beam="1">  1        3 0.33593093E-01 0.12755783E+03</pdfrwt>
<pdfrwt beam="2">  1       -3 0.98444392E-02 0.12755783E+03</pdfrwt>
<totfact> 0.14950399E+03</totfact>
</mgrwt>
</event>
<event>
 6    1  0.6101889E-006  0.1256759E+03  0.7546771E-02  0.1248063E+00
         -1   -1    0    0    0  501 -0.00000000000E+00  0.00000000000E+00  0.82562685463E+02  0.82562685463E+02  0.00000000000E+00 0.  1.
          1   -1    0    0  501    0  0.00000000000E+00 -0.00000000000E+00 -0.16168400279E+03  0.16168400279E+03  0.00000000000E+00 0. -1.
          5    1    1    2  502    0  0.34305304680E+02  0.45080437992E+02 -0.17687863009E+02  0.59531926868E+02  0.47000000000E+01 0.  1.
         -5    1    1    2    0  502 -0.47548020650E+02 -0.42387531669E+02 -0.63631602314E+02  0.90158681900E+02  0.47000000000E+01 0.  1.
        -11    1    1    2    0    0  0.16968936213E+02 -0.16661974627E+02  0.44169304992E+02  0.50164665833E+02  0.00000000000E+00 0.  1.
         11    1    1    2    0    0 -0.37262202425E+01  0.13969068303E+02 -0.41971156991E+02  0.44391413649E+02  0.00000000000E+00 0. -1.
<mgrwt>
<rscale>  0 0.11703936E+03</rscale>
<asrwt>0</asrwt>
<pdfrwt beam="2">  1        1 0.24874462E-01 0.12567586E+03</pdfrwt>
<pdfrwt beam="1">  1       -1 0.12701952E-01 0.12567586E+03</pdfrwt>
<totfact> 0.75918286E+03</totfact>
</mgrwt>
</event>
<event>
 6    1  0.6101889E-006  0.1253119E+03  0.7546771E-02  0.1250071E+00
          2   -1    0    0  501    0  0.00000000000E+00  0.00000000000E+00  0.10782149417E+03  0.10782149417E+03  0.00000000000E+00 0. -1.
         -2   -1    0    0    0  501 -0.00000000000E+00 -0.00000000000E+00 -0.10914160441E+03  0.10914160441E+03  0.00000000000E+00 0.  1.
          5    1    1    2  502    0  0.68993307543E+01 -0.37599353438E+02 -0.48623612554E+02  0.62029491708E+02  0.47000000000E+01 0. -1.
         -5    1    1    2    0  502 -0.23077894494E+00  0.43613777774E+02  0.45659536217E+02  0.63317439290E+02  0.47000000000E+01 0. -1.
        -11    1    1    2    0    0  0.26899747709E+02 -0.35701100658E+02 -0.89047861719E+01  0.45579164448E+02  0.00000000000E+00 0. -1.
         11    1    1    2    0    0 -0.33568299519E+02  0.29686676321E+02  0.10548752262E+02  0.46037003137E+02  0.00000000000E+00 0.  1.
<mgrwt>
<rscale>  0 0.11586966E+03</rscale>
<asrwt>0</asrwt>
<pdfrwt beam="1">  1        2 0.16587922E-01 0.12531188E+03</pdfrwt>
<pdfrwt beam="2">  1       -2 0.16791016E-01 0.12531188E+03</pdfrwt>
<totfact> 0.91604518E+03</totfact>
</mgrwt>
</event>
<event>
 6    1  0.6101889E-006  0.1655366E+03  0.7546771E-02  0.1190844E+00
         -2   -1    0    0    0  501 -0.00000000000E+00  0.00000000000E+00  0.46412051342E+02  0.46412051342E+02  0.00000000000E+00 0. -1.
          2   -1    0    0  501    0  0.00000000000E+00 -0.00000000000E+00 -0.72555471951E+03  0.72555471951E+03  0.00000000000E+00 0.  1.
          5    1    1    2  502    0  0.15584830914E+01  0.31763992591E+02 -0.31891682025E+02  0.45282993245E+02  0.47000000000E+01 0. -1.
         -5    1    1    2    0  502 -0.10404450560E+03  0.39350269773E+01 -0.54559833180E+03  0.55546410617E+03  0.47000000000E+01 0. -1.
        -11    1    1    2    0    0 -0.40511661836E+01 -0.28037867119E+02 -0.36128956140E+02  0.45911168704E+02  0.00000000000E+00 0.  1.
         11    1    1    2    0    0  0.10653718869E+03 -0.76611524492E+01 -0.65523698201E+02  0.12530850273E+03  0.00000000000E+00 0. -1.
<mgrwt>
<rscale>  0 0.15811237E+03</rscale>
<asrwt>0</asrwt>
<pdfrwt beam="2">  1        2 0.11162380E+00 0.16553659E+03</pdfrwt>
<pdfrwt beam="1">  1       -2 0.71403158E-02 0.16553659E+03</pdfrwt>
<totfact> 0.44429489E+03</totfact>
</mgrwt>
</event>
<event>
 6    1  0.6101889E-006  0.1574046E+03  0.7546771E-02  0.1198751E+00
         -2   -1    0    0    0  501 -0.00000000000E+00  0.00000000000E+00  0.26772330093E+02  0.26772330093E+02  0.00000000000E+00 0.  1.
          2   -1    0    0  501    0  0.00000000000E+00 -0.00000000000E+00 -0.10312372475E+04  0.10312372475E+04  0.00000000000E+00 0. -1.
          5    1    1    2  502    0 -0.64403610683E+02 -0.25331278234E+01 -0.73805509468E+03  0.74087897432E+03  0.47000000000E+01 0. -1.
         -5    1    1    2    0  502 -0.29412707205E+02  0.21229828270E+02 -0.45747325755E+02  0.58572354975E+02  0.47000000000E+01 0. -1.
        -11    1    1    2    0    0  0.42744545774E+02  0.62801800302E+01 -0.18819073946E+03  0.19308622756E+03  0.00000000000E+00 0. -1.
         11    1    1    2    0    0  0.51071772115E+02 -0.24976880477E+02 -0.32471757534E+02  0.65472020762E+02  0.00000000000E+00 0.  1.
<mgrwt>
<rscale>  0 0.15140971E+03</rscale>
<asrwt>0</asrwt>
<pdfrwt beam="2">  1        2 0.15865185E+00 0.15740455E+03</pdfrwt>
<pdfrwt beam="1">  1       -2 0.41188208E-02 0.15740455E+03</pdfrwt>
<totfact> 0.64647069E+03</totfact>
</mgrwt>
</event>
<event>
 6    1  0.6101889E-006  0.1674325E+03  0.7546771E-02  0.1194700E+00
          1   -1    0    0  501    0  0.00000000000E+00  0.00000000000E+00  0.64241439801E+03  0.64241439801E+03  0.00000000000E+00 0. -1.
         -1   -1    0    0    0  501 -0.00000000000E+00 -0.00000000000E+00 -0.42511514508E+02  0.42511514508E+02  0.00000000000E+00 0.  1.
          5    1    1    2  502    0 -0.39243377002E+02  0.62157388015E+01  0.64144377130E+02  0.75599399235E+02  0.47000000000E+01 0. -1.
         -5    1    1    2    0  502  0.11621538892E+03  0.23230701175E+02  0.43489650592E+03  0.45078014925E+03  0.47000000000E+01 0.  1.
        -11    1    1    2    0    0 -0.96006134615E+02 -0.12833410749E+02  0.76204871175E+02  0.12324389115E+03  0.00000000000E+00 0. -1.
         11    1    1    2    0    0  0.19034122700E+02 -0.16613029228E+02  0.24657129273E+02  0.35302472875E+02  0.00000000000E+00 0.  1.
<mgrwt>
<rscale>  0 0.15479609E+03</rscale>
<asrwt>0</asrwt>
<pdfrwt beam="1">  1        1 0.98832978E-01 0.16743245E+03</pdfrwt>
<pdfrwt beam="2">  1       -1 0.65402334E-02 0.16743245E+03</pdfrwt>
<totfact> 0.36728453E+03</totfact>
</mgrwt>
</event>
<event>
 6    1  0.6101889E-006  0.1900083E+03  0.7546771E-02  0.1163942E+00
          1   -1    0    0  501    0  0.00000000000E+00  0.00000000000E+00  0.17710251400E+03  0.17710251400E+03  0.00000000000E+00 0. -1.
         -1   -1    0    0    0  501 -0.00000000000E+00 -0.00000000000E+00 -0.41767928824E+03  0.41767928824E+03  0.00000000000E+00 0.  1.
          5    1    1    2  502    0 -0.20499654355E+00  0.53168279574E+02 -0.25056050593E+02  0.58964426969E+02  0.47000000000E+01 0. -1.
         -5    1    1    2    0  502  0.34610784245E+02  0.85737995661E+02  0.12551906232E+03  0.15596805856E+03  0.47000000000E+01 0. -1.
        -11    1    1    2    0    0 -0.30965566769E+02 -0.98996028265E+02 -0.13658200579E+03  0.17150429803E+03  0.00000000000E+00 0. -1.
         11    1    1    2    0    0 -0.34402209327E+01 -0.39910246970E+02 -0.20445778017E+03  0.20834501868E+03  0.00000000000E+00 0.  1.
<mgrwt>
<rscale>  0 0.18404766E+03</rscale>
<asrwt>0</asrwt>
<pdfrwt beam="1">  1        1 0.27246541E-01 0.19000831E+03</pdfrwt>
<pdfrwt beam="2">  1       -1 0.64258351E-01 0.19000831E+03</pdfrwt>
<totfact> 0.43816562E+02</totfact>
</mgrwt>
</event>
<event>
 6    1  0.6101889E-006  0.1388681E+03  0.7546771E-02  0.1226053E+00
         -1   -1    0    0    0  501 -0.00000000000E+00  0.00000000000E+00  0.11654567717E+03  0.11654567717E+03  0.00000000000E+00 0.  1.
          1   -1    0    0  501    0  0.00000000000E+00 -0.00000000000E+00 -0.13442767980E+03  0.13442767980E+03  0.00000000000E+00 0. -1.
          5    1    1    2  502    0  0.48568194243E+02 -0.19417899340E+02  0.43388036336E+02  0.68121479754E+02  0.47000000000E+01 0.  1.
         -5    1    1    2    0  502 -0.78365842715E+01 -0.25310896236E+02 -0.67708753289E+02  0.72860268962E+02  0.47000000000E+01 0.  1.
        -11    1    1    2    0    0 -0.15188732385E+02  0.71078122741E+02 -0.28263781651E+00  0.72683402562E+02  0.00000000000E+00 0.  1.
         11    1    1    2    0    0 -0.25542877586E+02 -0.26349327166E+02  0.67213521357E+01  0.37308205692E+02  0.00000000000E+00 0. -1.
<mgrwt>
<rscale>  0 0.13094999E+03</rscale>
<asrwt>0</asrwt>
<pdfrwt beam="2">  1        1 0.20681181E-01 0.13886813E+03</pdfrwt>
<pdfrwt beam="1">  1       -1 0.17930104E-01 0.13886813E+03</pdfrwt>
<totfact> 0.56212595E+03</totfact>
</mgrwt>
</event>
<event>
 6    1  0.6101889E-006  0.2736225E+03  0.7546771E-02  0.1101176E+00
          2   -1    0    0  501    0  0.00000000000E+00  0.00000000000E+00  0.73200276996E+03  0.73200276996E+03  0.00000000000E+00 0. -1.
         -2   -1    0    0    0  501 -0.00000000000E+00 -0.00000000000E+00 -0.10182386271E+03  0.10182386271E+03  0.00000000000E+00 0.  1.
          5    1    1    2  502    0 -0.13821735211E+03 -0.17183046850E+02  0.11892117500E+03  0.18320379195E+03  0.47000000000E+01 0. -1.
         -5    1    1    2    0  502 -0.99500974865E+02 -0.35111455602E+02  0.29169626184E+03  0.31022904037E+03  0.47000000000E+01 0. -1.
        -11    1    1    2    0    0  0.12775029925E+03  0.52402656311E+02  0.17203470921E+03  0.22059491953E+03  0.00000000000E+00 0.  1.
         11    1    1    2    0    0  0.10996802772E+03 -0.10815385909E+00  0.47526761193E+02  0.11979888083E+03  0.00000000000E+00 0. -1.
<mgrwt>
<rscale>  0 0.27018170E+03</rscale>
<asrwt>0</asrwt>
<pdfrwt beam="1">  1        2 0.11261581E+00 0.27362251E+03</pdfrwt>
<pdfrwt beam="2">  1       -2 0.15665210E-01 0.27362251E+03</pdfrwt>
<totfact> 0.12647190E+03</totfact>
</mgrwt>
</event>
<event>
 6    1  0.6101889E-006  0.1492074E+03  0.7546771E-02  0.1212319E+00
          1   -1    0    0  501    0  0.00000000000E+00  0.00000000000E+00  0.48778388353E+03  0.48778388353E+03  0.00000000000E+00 0. -1.
         -1   -1    0    0    0  501 -0.00000000000E+00 -0.00000000000E+00 -0.39432099270E+02  0.39432099270E+02  0.00000000000E+00 0.  1.
          5    1    1    2  502    0  0.16808873508E+02  0.56408484008E+02  0.75124428474E+02  0.95552211122E+02  0.47000000000E+01 0.  1.
         -5    1    1    2    0  502  0.64180899318E+02 -0.47503677556E+02  0.24298249213E+03  0.25580924279E+03  0.47000000000E+01 0.  1.
        -11    1    1    2    0    0 -0.94362776043E+02 -0.98633017505E+01  0.80788303806E+02  0.12461287356E+03  0.00000000000E+00 0.  1.
         11    1    1    2    0    0  0.13373003217E+02  0.95849529822E+00  0.49456559853E+02  0.51241655328E+02  0.00000000000E+00 0. -1.
<mgrwt>
<rscale>  0 0.14075303E+03</rscale>
<asrwt>0</asrwt>
<pdfrwt beam="1">  1        1 0.75043670E-01 0.14920743E+03</pdfrwt>
<pdfrwt beam="2">  1       -1 0.60664772E-02 0.14920743E+03</pdfrwt>
<totfact> 0.59248249E+03</totfact>
</mgrwt>
</event>
<event>
 6    1  0.6101889E-006  0.3020161E+03  0.7546771E-02  0.1084237E+00
         -2   -1    0    0    0  501 -0.00000000000E+00  0.00000000000E+00  0.54195618842E+02  0.54195618842E+02  0.00000000000E+00 0.  1.
          2   -1    0    0  501    0  0.00000000000E+00 -0.00000000000E+00 -0.42076147474E+03  0.42076147474E+03  0.00000000000E+00 0. -1.
          5    1    1    2  502    0  0.17194452572E+02  0.46018309389E+01 -0.98714368791E+02  0.10041634654E+03  0.47000000000E+01 0. -1.
         -5    1    1    2    0  502 -0.12069942676E+03 -0.21381199338E+02 -0.11223957967E+03  0.16626882014E+03  0.47000000000E+01 0. -1.
        -11    1    1    2    0    0  0.34460316966E+02  0.20489286568E+02 -0.23800294486E+01  0.40162032439E+02  0.00000000000E+00 0.  1.
         11    1    1    2    0    0  0.69044657224E+02 -0.37099181694E+01 -0.15323187798E+03  0.16810989446E+03  0.00000000000E+00 0. -1.
<mgrwt>
<rscale>  0 0.30201608E+03</rscale>
<asrwt>0</asrwt>
<pdfrwt beam="2">  1        2 0.64732537E-01 0.30201608E+03</pdfrwt>
<pdfrwt beam="1">  1       -2 0.83377873E-02 0.30201608E+03</pdfrwt>
<totfact> 0.66764116E+03</totfact>
</mgrwt>
</event>
<event>
 6    1  0.6101889E-006  0.1586387E+03  0.7546771E-02  0.1197981E+00
          2   -1    0    0  501    0  0.00000000000E+00  0.00000000000E+00  0.17721695843E+04  0.17721695843E+04  0.00000000000E+00 0. -1.
         -2   -1    0    0    0  501 -0.00000000000E+00 -0.00000000000E+00 -0.15191951529E+02  0.15191951529E+02  0.00000000000E+00 0.  1.
          5    1    1    2  502    0 -0.23819197299E+02  0.91960018229E+02  0.67932361622E+03  0.68594946218E+03  0.47000000000E+01 0.  1.
         -5    1    1    2    0  502 -0.51788050309E+02 -0.30120192104E+02  0.66225272161E+03  0.66497367271E+03  0.47000000000E+01 0.  1.
        -11    1    1    2    0    0  0.58086820068E+02 -0.80114133819E+02  0.38151424144E+03  0.39413889624E+03  0.00000000000E+00 0. -1.
         11    1    1    2    0    0  0.17520427540E+02  0.18274307694E+02  0.33887053515E+02  0.42299504711E+02  0.00000000000E+00 0.  1.
<mgrwt>
<rscale>  0 0.15204596E+03</rscale>
<asrwt>0</asrwt>
<pdfrwt beam="1">  1        2 0.27264131E+00 0.15863873E+03</pdfrwt>
<pdfrwt beam="2">  1       -2 0.23372247E-02 0.15863873E+03</pdfrwt>
<totfact> 0.59552766E+03</totfact>
</mgrwt>
</event>
<event>
 6    1  0.6101889E-006  0.1929433E+03  0.7546771E-02  0.1187207E+00
          1   -1    0    0  501    0  0.00000000000E+00  0.00000000000E+00  0.67874874694E+03  0.67874874694E+03  0.00000000000E+00 0. -1.
         -1   -1    0    0    0  501 -0.00000000000E+00 -0.00000000000E+00 -0.36413301563E+02  0.36413301563E+02  0.00000000000E+00 0.  1.
          5    1    1    2  502    0 -0.25077929968E+01  0.82669529471E+02  0.13805487005E+03  0.16100241388E+03  0.47000000000E+01 0. -1.
         -5    1    1    2    0  502 -0.18535369831E+02 -0.88681493692E+02  0.41323856976E+03  0.42307939301E+03  0.47000000000E+01 0.  1.
        -11    1    1    2    0    0  0.11779528228E+02 -0.18564020205E+02 -0.11789725437E+02  0.24947500021E+02  0.00000000000E+00 0.  1.
         11    1    1    2    0    0  0.92636345999E+01  0.24575984426E+02  0.10283173100E+03  0.10613274159E+03  0.00000000000E+00 0. -1.
<mgrwt>
<rscale>  0 0.16132645E+03</rscale>
<asrwt>0</asrwt>
<pdfrwt beam="1">  1        1 0.10442287E+00 0.19294326E+03</pdfrwt>
<pdfrwt beam="2">  1       -1 0.56020469E-02 0.19294326E+03</pdfrwt>
<totfact> 0.43086450E+03</totfact>
</mgrwt>
</event>
<event>
 6    1  0.6101889E-006  0.1583045E+03  0.7546771E-02  0.1198328E+00
          2   -1    0    0  501    0  0.00000000000E+00  0.00000000000E+00  0.15475017061E+04  0.15475017061E+04  0.00000000000E+00 0.  1.
         -2   -1    0    0    0  501 -0.00000000000E+00 -0.00000000000E+00 -0.15380485642E+02  0.15380485642E+02  0.00000000000E+00 0. -1.
          5    1    1    2  502    0 -0.50409202019E+02  0.55757586614E+02  0.34498677393E+03  0.35311182407E+03  0.47000000000E+01 0. -1.
         -5    1    1    2    0  502  0.57976130129E+02  0.41084626422E+02  0.73055441062E+03  0.73401704004E+03  0.47000000000E+01 0. -1.
        -11    1    1    2    0    0  0.30937492527E+02 -0.33634814407E+02  0.81474396084E+02  0.93415771694E+02  0.00000000000E+00 0. -1.
         11    1    1    2    0    0 -0.38504420637E+02 -0.63207398630E+02  0.37510563986E+03  0.38233755597E+03  0.00000000000E+00 0.  1.
<mgrwt>
<rscale>  0 0.15175867E+03</rscale>
<asrwt>0</asrwt>
<pdfrwt beam="1">  1        2 0.23807706E+00 0.15830454E+03</pdfrwt>
<pdfrwt beam="2">  1       -2 0.23662298E-02 0.15830454E+03</pdfrwt>
<totfact> 0.76428966E+03</totfact>
</mgrwt>
</event>
<event>
 6    1  0.6101889E-006  0.1536215E+03  0.7546771E-02  0.1204548E+00
          1   -1    0    0  501    0  0.00000000000E+00  0.00000000000E+00  0.93723520954E+03  0.93723520954E+03  0.00000000000E+00 0. -1.
         -1   -1    0    0    0  501 -0.00000000000E+00 -0.00000000000E+00 -0.26685700712E+02  0.26685700712E+02  0.00000000000E+00 0.  1.
          5    1    1    2  502    0 -0.39537609477E+02 -0.61354195928E+02  0.15865605285E+03  0.17470372929E+03  0.47000000000E+01 0.  1.
         -5    1    1    2    0  502 -0.21090087397E+02 -0.42131373191E+01  0.54871016910E+03  0.54915160201E+03  0.47000000000E+01 0.  1.
        -11    1    1    2    0    0  0.39408349492E+02 -0.12865224368E+02  0.10329930804E+03  0.11130713836E+03  0.00000000000E+00 0.  1.
         11    1    1    2    0    0  0.21219347382E+02  0.78432557615E+02  0.99883978831E+02  0.12875844060E+03  0.00000000000E+00 0. -1.
<mgrwt>
<rscale>  0 0.14673111E+03</rscale>
<asrwt>0</asrwt>
<pdfrwt beam="1">  1        1 0.14419001E+00 0.15362151E+03</pdfrwt>
<pdfrwt beam="2">  1       -1 0.41054931E-02 0.15362151E+03</pdfrwt>
<totfact> 0.41491432E+03</totfact>
</mgrwt>
</event>
<event>
 6    1  0.6101889E-006  0.1120923E+03  0.7546771E-02  0.1262092E+00
          1   -1    0    0  501    0  0.00000000000E+00  0.00000000000E+00  0.66301211252E+02  0.66301211252E+02  0.00000000000E+00 0. -1.
         -1   -1    0    0    0  501 -0.00000000000E+00 -0.00000000000E+00 -0.23776217914E+03  0.23776217914E+03  0.00000000000E+00 0.  1.
          5    1    1    2  502    0  0.18134202277E+02 -0.52920346132E+02 -0.27551827905E+02  0.62534834675E+02  0.47000000000E+01 0. -1.
         -5    1    1    2    0  502 -0.16790775409E+02  0.42685096138E+02  0.19028426511E+02  0.49881044362E+02  0.47000000000E+01 0.  1.
        -11    1    1    2    0    0 -0.41895411005E+02 -0.19392967889E+02 -0.10663967155E+03  0.11620383907E+03  0.00000000000E+00 0.  1.
         11    1    1    2    0    0  0.40551984137E+02  0.29628217883E+02 -0.56297894945E+02  0.75443672283E+02  0.00000000000E+00 0. -1.
<mgrwt>
<rscale>  0 0.10918197E+03</rscale>
<asrwt>0</asrwt>
<pdfrwt beam="1">  1        1 0.10200186E-01 0.11209229E+03</pdfrwt>
<pdfrwt beam="2">  1       -1 0.36578797E-01 0.11209229E+03</pdfrwt>
<totfact> 0.42724174E+03</totfact>
</mgrwt>
</event>
<event>
 6    1  0.6101889E-006  0.1666477E+03  0.7546771E-02  0.1188384E+00
          1   -1    0    0  501    0  0.00000000000E+00  0.00000000000E+00  0.91180232383E+03  0.91180232383E+03  0.00000000000E+00 0.  1.
         -1   -1    0    0    0  501 -0.00000000000E+00 -0.00000000000E+00 -0.35207437328E+02  0.35207437328E+02  0.00000000000E+00 0. -1.
          5    1    1    2  502    0 -0.23873934635E+02  0.14113315413E+02  0.67326756908E+02  0.72966654183E+02  0.47000000000E+01 0.  1.
         -5    1    1    2    0  502  0.13330867619E+03 -0.10483239952E+01  0.63506104261E+03  0.64891981013E+03  0.47000000000E+01 0.  1.
        -11    1    1    2    0    0 -0.21446465050E+02 -0.22336285409E+02  0.11393762076E+03  0.11807049561E+03  0.00000000000E+00 0.  1.
         11    1    1    2    0    0 -0.87988276501E+02  0.92712939907E+01  0.60269466213E+02  0.10705280123E+03  0.00000000000E+00 0. -1.
<mgrwt>
<rscale>  0 0.16027766E+03</rscale>
<asrwt>0</asrwt>
<pdfrwt beam="1">  1        1 0.14027726E+00 0.16664767E+03</pdfrwt>
<pdfrwt beam="2">  1       -1 0.54165295E-02 0.16664767E+03</pdfrwt>
<totfact> 0.28837168E+03</totfact>
</mgrwt>
</event>
<event>
 6    1  0.6101889E-006  0.2826274E+03  0.7546771E-02  0.1094263E+00
          2   -1    0    0  501    0  0.00000000000E+00  0.00000000000E+00  0.39232317719E+03  0.39232317719E+03  0.00000000000E+00 0.  1.
         -2   -1    0    0    0  501 -0.00000000000E+00 -0.00000000000E+00 -0.50900782933E+02  0.50900782933E+02  0.00000000000E+00 0. -1.
          5    1    1    2  502    0  0.33629105742E+02  0.80377588533E+02  0.50737487882E+02  0.10093491055E+03  0.47000000000E+01 0. -1.
         -5    1    1    2    0  502  0.15664303498E+02 -0.55867398553E+01  0.15480855991E+03  0.15577022273E+03  0.47000000000E+01 0. -1.
        -11    1    1    2    0    0  0.14403841632E+02 -0.53560666896E+02  0.35827896616E+02  0.66029189515E+02  0.00000000000E+00 0.  1.
         11    1    1    2    0    0 -0.63697250872E+02 -0.21230181782E+02  0.10004844985E+03  0.12048963733E+03  0.00000000000E+00 0. -1.
<mgrwt>
<rscale>  0 0.28262737E+03</rscale>
<asrwt>0</asrwt>
<pdfrwt beam="1">  1        2 0.60357410E-01 0.28262737E+03</pdfrwt>
<pdfrwt beam="2">  1       -2 0.78308899E-02 0.28262737E+03</pdfrwt>
<totfact> 0.79327194E+03</totfact>
</mgrwt>
</event>
<event>
 6    1  0.6101889E-006  0.1327390E+03  0.7546771E-02  0.1236047E+00
         -3   -1    0    0    0  501 -0.00000000000E+00  0.00000000000E+00  0.26481590750E+02  0.26481590750E+02  0.00000000000E+00 0.  1.
          3   -1    0    0  501    0  0.00000000000E+00 -0.00000000000E+00 -0.83020548043E+03  0.83020548043E+03  0.00000000000E+00 0. -1.
          5    1    1    2  502    0  0.26509028535E+02 -0.52846134723E+02 -0.35056661305E+03  0.35554814405E+03  0.47000000000E+01 0.  1.
         -5    1    1    2    0  502  0.14255660618E+02  0.71081446028E+02 -0.34374583733E+03  0.35133899088E+03  0.47000000000E+01 0.  1.
        -11    1    1    2    0    0 -0.34536040053E+02  0.19791081671E+02 -0.10340469863E+03  0.11080142903E+03  0.00000000000E+00 0. -1.
         11    1    1    2    0    0 -0.62286491001E+01 -0.38026392976E+02 -0.60067406676E+01  0.38998507226E+02  0.00000000000E+00 0.  1.
<mgrwt>
<rscale>  0 0.12437637E+03</rscale>
<asrwt>0</asrwt>
<pdfrwt beam="2">  1        3 0.12772394E+00 0.13273900E+03</pdfrwt>
<pdfrwt beam="1">  1       -3 0.40740903E-02 0.13273900E+03</pdfrwt>
<totfact> 0.37387434E+02</totfact>
</mgrwt>
</event>
<event>
 6    1  0.6101889E-006  0.1259915E+03  0.7546771E-02  0.1248749E+00
         -1   -1    0    0    0  501 -0.00000000000E+00  0.00000000000E+00  0.65466518882E+03  0.65466518882E+03  0.00000000000E+00 0.  1.
          1   -1    0    0  501    0  0.00000000000E+00 -0.00000000000E+00 -0.18690337539E+02  0.18690337539E+02  0.00000000000E+00 0. -1.
          5    1    1    2  502    0 -0.85912339127E+01 -0.64446609646E+02  0.10578050080E+03  0.12425288384E+03  0.47000000000E+01 0. -1.
         -5    1    1    2    0  502  0.37019995224E+01  0.49458583454E+02  0.20787291055E+03  0.21375942837E+03  0.47000000000E+01 0. -1.
        -11    1    1    2    0    0  0.47176903016E+02  0.13738166915E+02  0.14722071213E+03  0.15520417356E+03  0.00000000000E+00 0.  1.
         11    1    1    2    0    0 -0.42287668626E+02  0.12498592771E+01  0.17510072781E+03  0.18013904059E+03  0.00000000000E+00 0. -1.
<mgrwt>
<rscale>  0 0.11663806E+03</rscale>
<asrwt>0</asrwt>
<pdfrwt beam="2">  1        1 0.28754370E-02 0.12599151E+03</pdfrwt>
<pdfrwt beam="1">  1       -1 0.10071770E+00 0.12599151E+03</pdfrwt>
<totfact> 0.34327966E+03</totfact>
</mgrwt>
</event>
<event>
 6    1  0.6101889E-006  0.4179389E+03  0.7546771E-02  0.1072933E+00
         -1   -1    0    0    0  501 -0.00000000000E+00  0.00000000000E+00  0.29987984304E+03  0.29987984304E+03  0.00000000000E+00 0.  1.
          1   -1    0    0  501    0  0.00000000000E+00 -0.00000000000E+00 -0.45447614328E+03  0.45447614328E+03  0.00000000000E+00 0. -1.
          5    1    1    2  502    0 -0.15905788090E+03 -0.11985365960E+03 -0.10314001383E+03  0.22433069707E+03  0.47000000000E+01 0. -1.
         -5    1    1    2    0  502  0.64430099833E+02  0.19988539035E+03 -0.21800267720E+03  0.30274191039E+03  0.47000000000E+01 0.  1.
        -11    1    1    2    0    0  0.91579859311E+02 -0.19412406686E+02  0.10842778993E+03  0.14324907607E+03  0.00000000000E+00 0.  1.
         11    1    1    2    0    0  0.30479217563E+01 -0.60619324067E+02  0.58118600863E+02  0.84034302780E+02  0.00000000000E+00 0. -1.
<mgrwt>
<rscale>  0 0.32597163E+03</rscale>
<asrwt>0</asrwt>
<pdfrwt beam="2">  1        1 0.69919407E-01 0.41793888E+03</pdfrwt>
<pdfrwt beam="1">  1       -1 0.46135361E-01 0.41793888E+03</pdfrwt>
<totfact> 0.24347277E+02</totfact>
</mgrwt>
</event>
<event>
 6    1  0.6101889E-006  0.1570817E+03  0.7546771E-02  0.1200282E+00
         -2   -1    0    0    0  501 -0.00000000000E+00  0.00000000000E+00  0.11261400081E+03  0.11261400081E+03  0.00000000000E+00 0.  1.
          2   -1    0    0  501    0  0.00000000000E+00 -0.00000000000E+00 -0.18879471427E+03  0.18879471427E+03  0.00000000000E+00 0. -1.
          5    1    1    2  502    0  0.13868276947E+01 -0.34814261417E+02  0.47248127423E+02  0.58893392108E+02  0.47000000000E+01 0. -1.
         -5    1    1    2    0  502  0.67385235355E+02 -0.30906574474E+02 -0.65881253803E+02  0.99289555807E+02  0.47000000000E+01 0. -1.
        -11    1    1    2    0    0 -0.41020841697E+02  0.61590301795E+02  0.55126860586E+01  0.74205555292E+02  0.00000000000E+00 0.  1.
         11    1    1    2    0    0 -0.27751221353E+02  0.41305340965E+01 -0.63060273134E+02  0.69020211868E+02  0.00000000000E+00 0. -1.
<mgrwt>
<rscale>  0 0.15015548E+03</rscale>
<asrwt>0</asrwt>
<pdfrwt beam="2">  1        2 0.29045340E-01 0.15708167E+03</pdfrwt>
<pdfrwt beam="1">  1       -2 0.17325231E-01 0.15708167E+03</pdfrwt>
<totfact> 0.47151683E+03</totfact>
</mgrwt>
</event>
<event>
 6    1  0.6101889E-006  0.1401604E+03  0.7546771E-02  0.1225933E+00
          2   -1    0    0  501    0  0.00000000000E+00  0.00000000000E+00  0.13613359025E+03  0.13613359025E+03  0.00000000000E+00 0. -1.
         -2   -1    0    0    0  501 -0.00000000000E+00 -0.00000000000E+00 -0.11584357619E+03  0.11584357619E+03  0.00000000000E+00 0.  1.
          5    1    1    2  502    0 -0.48160441486E+01  0.45448524513E+02 -0.78120059700E+01  0.46603434411E+02  0.47000000000E+01 0.  1.
         -5    1    1    2    0  502  0.67123291701E+02 -0.57212051191E+02  0.41303125050E+02  0.97502785751E+02  0.47000000000E+01 0.  1.
        -11    1    1    2    0    0 -0.13442111947E+02  0.32327606050E+02 -0.35949184534E+02  0.50180756822E+02  0.00000000000E+00 0.  1.
         11    1    1    2    0    0 -0.48865135606E+02 -0.20564079373E+02  0.22748079517E+02  0.57690189460E+02  0.00000000000E+00 0. -1.
<mgrwt>
<rscale>  0 0.13103159E+03</rscale>
<asrwt>0</asrwt>
<pdfrwt beam="1">  1        2 0.20943629E-01 0.14016044E+03</pdfrwt>
<pdfrwt beam="2">  1       -2 0.17822089E-01 0.14016044E+03</pdfrwt>
<totfact> 0.64154180E+03</totfact>
</mgrwt>
</event>
<event>
 6    1  0.6101889E-006  0.2863196E+03  0.7546771E-02  0.1092287E+00
          1   -1    0    0  501    0  0.00000000000E+00  0.00000000000E+00  0.66721152044E+03  0.66721152044E+03  0.00000000000E+00 0. -1.
         -1   -1    0    0    0  501 -0.00000000000E+00 -0.00000000000E+00 -0.30716980007E+02  0.30716980007E+02  0.00000000000E+00 0.  1.
          5    1    1    2  502    0 -0.83358305746E+01 -0.16397531183E+02  0.26936209923E+03  0.27003036052E+03  0.47000000000E+01 0.  1.
         -5    1    1    2    0  502  0.82429725263E+02  0.47382761194E+02  0.18581761848E+03  0.20878233403E+03  0.47000000000E+01 0.  1.
        -11    1    1    2    0    0 -0.61350678238E+02  0.22087578734E+02  0.73379164215E+02  0.98164497633E+02  0.00000000000E+00 0.  1.
         11    1    1    2    0    0 -0.12743216450E+02 -0.53072808744E+02  0.10793565850E+03  0.12095130826E+03  0.00000000000E+00 0. -1.
<mgrwt>
<rscale>  0 0.28631956E+03</rscale>
<asrwt>0</asrwt>
<pdfrwt beam="1">  1        1 0.10264792E+00 0.28631956E+03</pdfrwt>
<pdfrwt beam="2">  1       -1 0.47256897E-02 0.28631956E+03</pdfrwt>
<totfact> 0.57837025E+03</totfact>
</mgrwt>
</event>
<event>
 6    1  0.6101889E-006  0.1592644E+03  0.7546771E-02  0.1196027E+00
          2   -1    0    0  501    0  0.00000000000E+00  0.00000000000E+00  0.61901929355E+03  0.61901929355E+03  0.00000000000E+00 0.  1.
         -2   -1    0    0    0  501 -0.00000000000E+00 -0.00000000000E+00 -0.36158413602E+02  0.36158413602E+02  0.00000000000E+00 0. -1.
          5    1    1    2  502    0  0.37389359282E+02  0.20703953424E+02  0.28498427234E+02  0.51583604272E+02  0.47000000000E+01 0.  1.
         -5    1    1    2    0  502  0.45991751538E+02 -0.73518702672E+02  0.32012650814E+03  0.33169762143E+03  0.47000000000E+01 0.  1.
        -11    1    1    2    0    0 -0.72721927545E+02  0.47744982082E+02  0.24240446119E+03  0.25754220017E+03  0.00000000000E+00 0.  1.
         11    1    1    2    0    0 -0.10659183275E+02  0.50697671667E+01 -0.81685166200E+01  0.14354281277E+02  0.00000000000E+00 0. -1.
<mgrwt>
<rscale>  0 0.15367665E+03</rscale>
<asrwt>0</asrwt>
<pdfrwt beam="1">  1        2 0.95233729E-01 0.15926441E+03</pdfrwt>
<pdfrwt beam="2">  1       -2 0.55628333E-02 0.15926441E+03</pdfrwt>
<totfact> 0.78336233E+03</totfact>
</mgrwt>
</event>
<event>
 6    1  0.6101889E-006  0.1393554E+03  0.7546771E-02  0.1224622E+00
         -1   -1    0    0    0  501 -0.00000000000E+00  0.00000000000E+00  0.16915351297E+02  0.16915351297E+02  0.00000000000E+00 0.  1.
          1   -1    0    0  501    0  0.00000000000E+00 -0.00000000000E+00 -0.12281429644E+04  0.12281429644E+04  0.00000000000E+00 0. -1.
          5    1    1    2  502    0 -0.73653312036E+02  0.13654177370E+02 -0.54639855480E+03  0.55152943495E+03  0.47000000000E+01 0.  1.
         -5    1    1    2    0  502  0.29522689660E+02 -0.56646980865E+02 -0.41305754442E+03  0.41799413231E+03  0.47000000000E+01 0.  1.
        -11    1    1    2    0    0  0.77342375605E+01  0.38334142987E+02 -0.22907544739E+03  0.23238951256E+03  0.00000000000E+00 0. -1.
         11    1    1    2    0    0  0.36396384815E+02  0.46586605080E+01 -0.22696066520E+02  0.43145235899E+02  0.00000000000E+00 0.  1.
<mgrwt>
<rscale>  0 0.13192862E+03</rscale>
<asrwt>0</asrwt>
<pdfrwt beam="2">  1        1 0.18894509E+00 0.13935545E+03</pdfrwt>
<pdfrwt beam="1">  1       -1 0.26023615E-02 0.13935545E+03</pdfrwt>
<totfact> 0.49956239E+03</totfact>
</mgrwt>
</event>
<event>
 6    1  0.6101889E-006  0.1368285E+03  0.7546771E-02  0.1229630E+00
          2   -1    0    0  501    0  0.00000000000E+00  0.00000000000E+00  0.94331705708E+02  0.94331705708E+02  0.00000000000E+00 0. -1.
         -2   -1    0    0    0  501 -0.00000000000E+00 -0.00000000000E+00 -0.16492226165E+03  0.16492226165E+03  0.00000000000E+00 0.  1.
          5    1    1    2  502    0  0.13844604690E+02  0.66671242630E+02  0.24212355750E+02  0.72422757776E+02  0.47000000000E+01 0. -1.
         -5    1    1    2    0  502 -0.48780661924E+02 -0.23333475312E+02 -0.35530547806E+02  0.64873059703E+02  0.47000000000E+01 0. -1.
        -11    1    1    2    0    0 -0.26334786153E+02 -0.25237705441E+02 -0.42298039734E+02  0.55853262241E+02  0.00000000000E+00 0.  1.
         11    1    1    2    0    0  0.61270843387E+02 -0.18100061877E+02 -0.16974324153E+02  0.66104887639E+02  0.00000000000E+00 0. -1.
<mgrwt>
<rscale>  0 0.12854568E+03</rscale>
<asrwt>0</asrwt>
<pdfrwt beam="1">  1        2 0.14512570E-01 0.13682851E+03</pdfrwt>
<pdfrwt beam="2">  1       -2 0.25372655E-01 0.13682851E+03</pdfrwt>
<totfact> 0.53431995E+03</totfact>
</mgrwt>
</event>
<event>
 6    1  0.6101889E-006  0.1542379E+03  0.7546771E-02  0.1203667E+00
          1   -1    0    0  501    0  0.00000000000E+00  0.00000000000E+00  0.98273685442E+03  0.98273685442E+03  0.00000000000E+00 0. -1.
         -1   -1    0    0    0  501 -0.00000000000E+00 -0.00000000000E+00 -0.20396554282E+02  0.20396554282E+02  0.00000000000E+00 0.  1.
          5    1    1    2  502    0  0.16412159206E+02  0.10692917601E+03  0.48020174276E+03  0.49225908971E+03  0.47000000000E+01 0.  1.
         -5    1    1    2    0  502  0.14299756454E+02 -0.22001967386E+02  0.27275687987E+02  0.38139517022E+02  0.47000000000E+01 0.  1.
        -11    1    1    2    0    0  0.30635712957E+02 -0.21047008683E+02  0.92115414500E+02  0.99331631777E+02  0.00000000000E+00 0.  1.
         11    1    1    2    0    0 -0.61347628617E+02 -0.63880199942E+02  0.36274745490E+03  0.37340317020E+03  0.00000000000E+00 0. -1.
<mgrwt>
<rscale>  0 0.14742963E+03</rscale>
<asrwt>0</asrwt>
<pdfrwt beam="1">  1        1 0.15119025E+00 0.15423793E+03</pdfrwt>
<pdfrwt beam="2">  1       -1 0.31379322E-02 0.15423793E+03</pdfrwt>
<totfact> 0.56927363E+03</totfact>
</mgrwt>
</event>
<event>
 6    1  0.6101889E-006  0.2541800E+03  0.7546771E-02  0.1130556E+00
          2   -1    0    0  501    0  0.00000000000E+00  0.00000000000E+00  0.64730699365E+03  0.64730699365E+03  0.00000000000E+00 0. -1.
         -2   -1    0    0    0  501 -0.00000000000E+00 -0.00000000000E+00 -0.65923822998E+02  0.65923822998E+02  0.00000000000E+00 0.  1.
          5    1    1    2  502    0 -0.18696315205E+02 -0.78505678714E+02  0.21569200671E+03  0.23034284350E+03  0.47000000000E+01 0. -1.
         -5    1    1    2    0  502 -0.95135582635E+02  0.12913562059E+03  0.19362809268E+03  0.25147706826E+03  0.47000000000E+01 0.  1.
        -11    1    1    2    0    0  0.10063344125E+03 -0.33303202494E+01  0.14115674908E+03  0.17338802825E+03  0.00000000000E+00 0.  1.
         11    1    1    2    0    0  0.13198456593E+02 -0.47299621623E+02  0.30906322183E+02  0.58022876635E+02  0.00000000000E+00 0. -1.
<mgrwt>
<rscale>  0 0.22452185E+03</rscale>
<asrwt>0</asrwt>
<pdfrwt beam="1">  1        2 0.99585687E-01 0.25418002E+03</pdfrwt>
<pdfrwt beam="2">  1       -2 0.10142127E-01 0.25418002E+03</pdfrwt>
<totfact> 0.29786373E+03</totfact>
</mgrwt>
</event>
<event>
 6    1  0.6101889E-006  0.2422583E+03  0.7546771E-02  0.1118297E+00
          1   -1    0    0  501    0  0.00000000000E+00  0.00000000000E+00  0.28909138275E+03  0.28909138275E+03  0.00000000000E+00 0. -1.
         -1   -1    0    0    0  501 -0.00000000000E+00 -0.00000000000E+00 -0.50753054711E+02  0.50753054711E+02  0.00000000000E+00 0.  1.
          5    1    1    2  502    0 -0.47564713040E+02  0.53870934996E+02  0.18836390524E+03  0.20166192095E+03  0.47000000000E+01 0.  1.
         -5    1    1    2    0  502  0.21976982771E+02 -0.10294822875E+02 -0.57039883171E+01  0.25369206382E+02  0.47000000000E+01 0.  1.
        -11    1    1    2    0    0  0.31291267142E+02 -0.53833819792E+01 -0.12770383938E+02  0.34222900328E+02  0.00000000000E+00 0.  1.
         11    1    1    2    0    0 -0.57035368732E+01 -0.38192730142E+02  0.68448795057E+02  0.78590409805E+02  0.00000000000E+00 0. -1.
<mgrwt>
<rscale>  0 0.24225830E+03</rscale>
<asrwt>0</asrwt>
<pdfrwt beam="1">  1        1 0.44475596E-01 0.24225830E+03</pdfrwt>
<pdfrwt beam="2">  1       -1 0.78081624E-02 0.24225830E+03</pdfrwt>
<totfact> 0.80867195E+03</totfact>
</mgrwt>
</event>
<event>
 6    1  0.6101889E-006  0.1356471E+03  0.7546771E-02  0.1230287E+00
          2   -1    0    0  501    0  0.00000000000E+00  0.00000000000E+00  0.87710735357E+03  0.87710735357E+03  0.00000000000E+00 0. -1.
         -2   -1    0    0    0  501 -0.00000000000E+00 -0.00000000000E+00 -0.19966147514E+02  0.19966147514E+02  0.00000000000E+00 0.  1.
          5    1    1    2  502    0 -0.21741963418E+02 -0.31588673581E+02  0.90965832892E+02  0.98830309246E+02  0.47000000000E+01 0. -1.
         -5    1    1    2    0  502  0.73988046922E+02  0.38328196638E+02  0.55345868246E+03  0.55971589662E+03  0.47000000000E+01 0. -1.
        -11    1    1    2    0    0 -0.64282795978E+02 -0.27147013759E+02  0.91795183155E+02  0.11530652135E+03  0.00000000000E+00 0.  1.
         11    1    1    2    0    0  0.12036712474E+02  0.20407490703E+02  0.12092150755E+03  0.12322077387E+03  0.00000000000E+00 0. -1.
<mgrwt>
<rscale>  0 0.12811035E+03</rscale>
<asrwt>0</asrwt>
<pdfrwt beam="1">  1        2 0.13493956E+00 0.13564715E+03</pdfrwt>
<pdfrwt beam="2">  1       -2 0.30717157E-02 0.13564715E+03</pdfrwt>
<totfact> 0.12321212E+04</totfact>
</mgrwt>
</event>
<event>
 6    1  0.6101889E-006  0.2068319E+03  0.7546771E-02  0.1148179E+00
         -1   -1    0    0    0  501 -0.00000000000E+00  0.00000000000E+00  0.65583407219E+02  0.65583407219E+02  0.00000000000E+00 0.  1.
          1   -1    0    0  501    0  0.00000000000E+00 -0.00000000000E+00 -0.67146205440E+03  0.67146205440E+03  0.00000000000E+00 0. -1.
          5    1    1    2  502    0  0.23013421743E+02  0.47923606898E+02 -0.25907325415E+03  0.26451338472E+03  0.47000000000E+01 0.  1.
         -5    1    1    2    0  502 -0.62257514681E+02  0.11212200408E+03 -0.18255836318E+03  0.22315238717E+03  0.47000000000E+01 0.  1.
        -11    1    1    2    0    0 -0.26758953831E+01 -0.69732749321E+02 -0.17332851722E+02  0.71904412193E+02  0.00000000000E+00 0.  1.
         11    1    1    2    0    0  0.41919988321E+02 -0.90312861659E+02 -0.14691417813E+03  0.17747527753E+03  0.00000000000E+00 0. -1.
<mgrwt>
<rscale>  0 0.20186042E+03</rscale>
<asrwt>0</asrwt>
<pdfrwt beam="2">  1        1 0.10330186E+00 0.20683186E+03</pdfrwt>
<pdfrwt beam="1">  1       -1 0.10089755E-01 0.20683186E+03</pdfrwt>
<totfact> 0.17929417E+03</totfact>
</mgrwt>
</event>
<event>
 6    1  0.6101889E-006  0.2070762E+03  0.7546771E-02  0.1147931E+00
          1   -1    0    0  501    0  0.00000000000E+00  0.00000000000E+00  0.15133484914E+03  0.15133484914E+03  0.00000000000E+00 0. -1.
         -1   -1    0    0    0  501 -0.00000000000E+00 -0.00000000000E+00 -0.26160494308E+03  0.26160494308E+03  0.00000000000E+00 0.  1.
          5    1    1    2  502    0  0.81678500805E+01 -0.91829551230E+02  0.20560672362E+02  0.94573841532E+02  0.47000000000E+01 0.  1.
         -5    1    1    2    0  502 -0.86393012645E+02 -0.53541735667E+02 -0.53985977398E+02  0.11518266297E+03  0.47000000000E+01 0.  1.
        -11    1    1    2    0    0  0.49679525811E+02  0.36547381274E+02 -0.65723201380E+02  0.90129382348E+02  0.00000000000E+00 0.  1.
         11    1    1    2    0    0  0.28545636753E+02  0.10882390562E+03 -0.11121587522E+02  0.11305390538E+03  0.00000000000E+00 0. -1.
<mgrwt>
<rscale>  0 0.20215745E+03</rscale>
<asrwt>0</asrwt>
<pdfrwt beam="1">  1        1 0.23282285E-01 0.20707617E+03</pdfrwt>
<pdfrwt beam="2">  1       -1 0.40246914E-01 0.20707617E+03</pdfrwt>
<totfact> 0.12733225E+03</totfact>
</mgrwt>
</event>
<event>
 6    1  0.6101889E-006  0.1337264E+03  0.7546771E-02  0.1234622E+00
          1   -1    0    0  501    0  0.00000000000E+00  0.00000000000E+00  0.10130072063E+03  0.10130072063E+03  0.00000000000E+00 0. -1.
         -1   -1    0    0    0  501 -0.00000000000E+00 -0.00000000000E+00 -0.16245710144E+03  0.16245710144E+03  0.00000000000E+00 0.  1.
          5    1    1    2  502    0  0.67925313179E+02  0.10631656840E+02 -0.21706678089E+02  0.72250606719E+02  0.47000000000E+01 0. -1.
         -5    1    1    2    0  502 -0.29876479398E+02 -0.39123764796E+02  0.38204515848E+02  0.62489583326E+02  0.47000000000E+01 0. -1.
        -11    1    1    2    0    0 -0.38575623811E+02  0.59157986614E+02 -0.42758811066E+02  0.82559445592E+02  0.00000000000E+00 0. -1.
         11    1    1    2    0    0  0.52679003058E+00 -0.30665878657E+02 -0.34895407500E+02  0.46458186428E+02  0.00000000000E+00 0.  1.
<mgrwt>
<rscale>  0 0.12528662E+03</rscale>
<asrwt>0</asrwt>
<pdfrwt beam="1">  1        1 0.15584726E-01 0.13372636E+03</pdfrwt>
<pdfrwt beam="2">  1       -1 0.24993400E-01 0.13372636E+03</pdfrwt>
<totfact> 0.47111298E+03</totfact>
</mgrwt>
</event>
<event>
 6    1  0.6101889E-006  0.1391948E+03  0.7546771E-02  0.1225260E+00
         -1   -1    0    0    0  501 -0.00000000000E+00  0.00000000000E+00  0.28699677385E+02  0.28699677385E+02  0.00000000000E+00 0.  1.
          1   -1    0    0  501    0  0.00000000000E+00 -0.00000000000E+00 -0.56229683587E+03  0.56229683587E+03  0.00000000000E+00 0. -1.
          5    1    1    2  502    0 -0.23323995776E+02 -0.41523793445E+02 -0.16250075404E+03  0.16940135556E+03  0.47000000000E+01 0.  1.
         -5    1    1    2    0  502  0.83236619752E+02  0.28850966491E+02 -0.18568056462E+03  0.20557255462E+03  0.47000000000E+01 0.  1.
        -11    1    1    2    0    0 -0.52265572702E+02  0.40005304439E+02 -0.17289873484E+03  0.18500293777E+03  0.00000000000E+00 0.  1.
         11    1    1    2    0    0 -0.76470512746E+01 -0.27332477485E+02 -0.12517104982E+02  0.31019665307E+02  0.00000000000E+00 0. -1.
<mgrwt>
<rscale>  0 0.13149126E+03</rscale>
<asrwt>0</asrwt>
<pdfrwt beam="2">  1        1 0.86507203E-01 0.13919484E+03</pdfrwt>
<pdfrwt beam="1">  1       -1 0.44153351E-02 0.13919484E+03</pdfrwt>
<totfact> 0.78367494E+03</totfact>
</mgrwt>
</event>
<event>
 6    1  0.6101889E-006  0.1568808E+03  0.7546771E-02  0.1200425E+00
          3   -1    0    0  501    0  0.00000000000E+00  0.00000000000E+00  0.47586857394E+03  0.47586857394E+03  0.00000000000E+00 0. -1.
         -3   -1    0    0    0  501 -0.00000000000E+00 -0.00000000000E+00 -0.48079944695E+02  0.48079944695E+02  0.00000000000E+00 0.  1.
          5    1    1    2  502    0 -0.57490431768E+02  0.35029195940E+02  0.45697496951E+02  0.81501813113E+02  0.47000000000E+01 0. -1.
         -5    1    1    2    0  502 -0.27517261339E+02  0.69232981408E+01  0.26500160513E+03  0.26655782197E+03  0.47000000000E+01 0. -1.
        -11    1    1    2    0    0  0.48365488408E+02 -0.40005440419E+02  0.11117281109E+02  0.63743624554E+02  0.00000000000E+00 0.  1.
         11    1    1    2    0    0  0.36642204699E+02 -0.19470536621E+01  0.10597224605E+03  0.11214525900E+03  0.00000000000E+00 0. -1.
<mgrwt>
<rscale>  0 0.15003871E+03</rscale>
<asrwt>0</asrwt>
<pdfrwt beam="1">  1        3 0.73210547E-01 0.15688077E+03</pdfrwt>
<pdfrwt beam="2">  1       -3 0.73969149E-02 0.15688077E+03</pdfrwt>
<totfact> 0.51934419E+02</totfact>
</mgrwt>
</event>
<event>
 6    1  0.6101889E-006  0.2235623E+03  0.7546771E-02  0.1134580E+00
          1   -1    0    0  501    0  0.00000000000E+00  0.00000000000E+00  0.69826024689E+02  0.69826024689E+02  0.00000000000E+00 0. -1.
         -1   -1    0    0    0  501 -0.00000000000E+00 -0.00000000000E+00 -0.11649835529E+04  0.11649835529E+04  0.00000000000E+00 0.  1.
          5    1    1    2  502    0 -0.14422918592E+03 -0.10535063800E+03 -0.10010541572E+03  0.20480234191E+03  0.47000000000E+01 0.  1.
         -5    1    1    2    0  502 -0.24991202845E+02  0.29723500473E+02 -0.54199474732E+02  0.66841003592E+02  0.47000000000E+01 0.  1.
        -11    1    1    2    0    0  0.14787793449E+03  0.91732086373E+02 -0.87417978830E+03  0.89133212747E+03  0.00000000000E+00 0.  1.
         11    1    1    2    0    0  0.21342454270E+02 -0.16104948846E+02 -0.66672849491E+02  0.71834104650E+02  0.00000000000E+00 0. -1.
<mgrwt>
<rscale>  0 0.21906805E+03</rscale>
<asrwt>0</asrwt>
<pdfrwt beam="1">  1        1 0.10742466E-01 0.22356231E+03</pdfrwt>
<pdfrwt beam="2">  1       -1 0.17922824E+00 0.22356231E+03</pdfrwt>
<totfact> 0.13586492E+02</totfact>
</mgrwt>
</event>
<event>
 6    1  0.6101889E-006  0.1357165E+03  0.7546771E-02  0.1234672E+00
         -4   -1    0    0    0  501 -0.00000000000E+00  0.00000000000E+00  0.33303630848E+02  0.33303630848E+02  0.00000000000E+00 0.  1.
          4   -1    0    0  501    0  0.00000000000E+00 -0.00000000000E+00 -0.45900229522E+03  0.45900229522E+03  0.00000000000E+00 0. -1.
          5    1    1    2  502    0  0.52066507861E+02  0.20836198879E+02 -0.17151755649E+03  0.18051435015E+03  0.47000000000E+01 0. -1.
         -5    1    1    2    0  502 -0.31771657590E+02 -0.69643145450E+02 -0.14984496276E+03  0.16833065317E+03  0.47000000000E+01 0. -1.
        -11    1    1    2    0    0 -0.22703900297E+02 -0.18081579007E+02 -0.17751455464E+02  0.34022415540E+02  0.00000000000E+00 0.  1.
         11    1    1    2    0    0  0.24090500265E+01  0.66888525577E+02 -0.86584689655E+02  0.10943850720E+03  0.00000000000E+00 0. -1.
<mgrwt>
<rscale>  0 0.12525440E+03</rscale>
<asrwt>0</asrwt>
<pdfrwt beam="2">  1        4 0.70615732E-01 0.13571650E+03</pdfrwt>
<pdfrwt beam="1">  1       -4 0.51236359E-02 0.13571650E+03</pdfrwt>
<totfact> 0.71152592E+02</totfact>
</mgrwt>
</event>
<event>
 6    1  0.6101889E-006  0.1573327E+03  0.7546771E-02  0.1201571E+00
          2   -1    0    0  501    0  0.00000000000E+00  0.00000000000E+00  0.10830870231E+04  0.10830870231E+04  0.00000000000E+00 0. -1.
         -2   -1    0    0    0  501 -0.00000000000E+00 -0.00000000000E+00 -0.19717238933E+02  0.19717238933E+02  0.00000000000E+00 0.  1.
          5    1    1    2  502    0  0.69223647266E+02  0.81790819121E+02  0.50317583114E+03  0.51447998841E+03  0.47000000000E+01 0.  1.
         -5    1    1    2    0  502 -0.48329619483E+02  0.11423387212E+02  0.20977178171E+03  0.21562127979E+03  0.47000000000E+01 0.  1.
        -11    1    1    2    0    0 -0.51179886569E+02 -0.72928697832E+02  0.27206764104E+03  0.28628443384E+03  0.00000000000E+00 0. -1.
         11    1    1    2    0    0  0.30285858786E+02 -0.20285508501E+02  0.78354530317E+02  0.86418560037E+02  0.00000000000E+00 0.  1.
<mgrwt>
<rscale>  0 0.14911016E+03</rscale>
<asrwt>0</asrwt>
<pdfrwt beam="1">  1        2 0.16662873E+00 0.15733265E+03</pdfrwt>
<pdfrwt beam="2">  1       -2 0.30334222E-02 0.15733265E+03</pdfrwt>
<totfact> 0.94911185E+03</totfact>
</mgrwt>
</event>
<event>
 6    1  0.6101889E-006  0.1371589E+03  0.7546771E-02  0.1229944E+00
         -3   -1    0    0    0  501 -0.00000000000E+00  0.00000000000E+00  0.22730915516E+03  0.22730915516E+03  0.00000000000E+00 0.  1.
          3   -1    0    0  501    0  0.00000000000E+00 -0.00000000000E+00 -0.65745436872E+02  0.65745436872E+02  0.00000000000E+00 0. -1.
          5    1    1    2  502    0  0.22429122345E+02  0.43037078052E+02  0.42270807961E+02  0.64530355819E+02  0.47000000000E+01 0.  1.
         -5    1    1    2    0  502  0.17005997308E+02 -0.83475845724E+02  0.29533277388E+02  0.90286905125E+02  0.47000000000E+01 0.  1.
        -11    1    1    2    0    0 -0.25577694819E+02  0.66766406035E+02  0.79122318358E+02  0.10664104608E+03  0.00000000000E+00 0.  1.
         11    1    1    2    0    0 -0.13857424834E+02 -0.26327638363E+02  0.10637314585E+02  0.31596285009E+02  0.00000000000E+00 0. -1.
<mgrwt>
<rscale>  0 0.12833698E+03</rscale>
<asrwt>0</asrwt>
<pdfrwt beam="2">  1        3 0.10114683E-01 0.13715888E+03</pdfrwt>
<pdfrwt beam="1">  1       -3 0.34970639E-01 0.13715888E+03</pdfrwt>
<totfact> 0.13414424E+03</totfact>
</mgrwt>
</event>
<event>
 6    1  0.6101889E-006  0.1359102E+03  0.7546771E-02  0.1231211E+00
          1   -1    0    0  501    0  0.00000000000E+00  0.00000000000E+00  0.68866959212E+02  0.68866959212E+02  0.00000000000E+00 0. -1.
         -1   -1    0    0    0  501 -0.00000000000E+00 -0.00000000000E+00 -0.21822369719E+03  0.21822369719E+03  0.00000000000E+00 0.  1.
          5    1    1    2  502    0 -0.88118066695E+01  0.59867151346E+02  0.12882284411E+02  0.62046490624E+02  0.47000000000E+01 0. -1.
         -5    1    1    2    0  502 -0.36194128650E+02 -0.31212979879E+02 -0.71118975987E+02  0.85815288889E+02  0.47000000000E+01 0. -1.
        -11    1    1    2    0    0 -0.17568600376E+02 -0.37208132810E+02 -0.45325259459E+02  0.61216664491E+02  0.00000000000E+00 0.  1.
         11    1    1    2    0    0  0.62574535695E+02  0.85539613421E+01 -0.45794786943E+02  0.78012212399E+02  0.00000000000E+00 0. -1.
<mgrwt>
<rscale>  0 0.12750156E+03</rscale>
<asrwt>0</asrwt>
<pdfrwt beam="1">  1        1 0.10594917E-01 0.13591024E+03</pdfrwt>
<pdfrwt beam="2">  1       -1 0.33572876E-01 0.13591024E+03</pdfrwt>
<totfact> 0.47659613E+03</totfact>
</mgrwt>
</event>
<event>
 6    1  0.6101889E-006  0.1705847E+03  0.7546771E-02  0.1199172E+00
         -1   -1    0    0    0  501 -0.00000000000E+00  0.00000000000E+00  0.27849232692E+03  0.27849232692E+03  0.00000000000E+00 0.  1.
          1   -1    0    0  501    0  0.00000000000E+00 -0.00000000000E+00 -0.77193910820E+02  0.77193910820E+02  0.00000000000E+00 0. -1.
          5    1    1    2  502    0  0.19657310408E+02 -0.48703520805E+02 -0.34893391500E+02  0.63230384797E+02  0.47000000000E+01 0. -1.
         -5    1    1    2    0  502 -0.61871742812E+02  0.26449974874E+02  0.97336793841E+02  0.11842404808E+03  0.47000000000E+01 0.  1.
        -11    1    1    2    0    0 -0.22320441095E+02  0.10038350025E+02  0.50698889590E+01  0.24993485870E+02  0.00000000000E+00 0.  1.
         11    1    1    2    0    0  0.64534873499E+02  0.12215195906E+02  0.13378512480E+03  0.14903831899E+03  0.00000000000E+00 0. -1.
<mgrwt>
<rscale>  0 0.15106386E+03</rscale>
<asrwt>0</asrwt>
<pdfrwt beam="2">  1        1 0.11875986E-01 0.17058474E+03</pdfrwt>
<pdfrwt beam="1">  1       -1 0.42844973E-01 0.17058474E+03</pdfrwt>
<totfact> 0.27124675E+03</totfact>
</mgrwt>
</event>
<event>
 6    1  0.6101889E-006  0.1644514E+03  0.7546771E-02  0.1190973E+00
          2   -1    0    0  501    0  0.00000000000E+00  0.00000000000E+00  0.15521210507E+04  0.15521210507E+04  0.00000000000E+00 0. -1.
         -2   -1    0    0    0  501 -0.00000000000E+00 -0.00000000000E+00 -0.16559902438E+02  0.16559902438E+02  0.00000000000E+00 0.  1.
          5    1    1    2  502    0  0.74100942962E+02 -0.28644306134E+02  0.25584610679E+03  0.26793798981E+03  0.47000000000E+01 0. -1.
         -5    1    1    2    0  502  0.27953205777E+02 -0.30262025955E+01  0.81169860067E+03  0.81219901991E+03  0.47000000000E+01 0. -1.
        -11    1    1    2    0    0 -0.69177398931E+01  0.41145022728E+02  0.19065775319E+03  0.19516953367E+03  0.00000000000E+00 0.  1.
         11    1    1    2    0    0 -0.95136408846E+02 -0.94745139981E+01  0.27735868761E+03  0.29337440975E+03  0.00000000000E+00 0. -1.
<mgrwt>
<rscale>  0 0.15800077E+03</rscale>
<asrwt>0</asrwt>
<pdfrwt beam="1">  1        2 0.23878774E+00 0.16445138E+03</pdfrwt>
<pdfrwt beam="2">  1       -2 0.25476785E-02 0.16445138E+03</pdfrwt>
<totfact> 0.68277828E+03</totfact>
</mgrwt>
</event>
<event>
 6    1  0.6101889E-006  0.1391830E+03  0.7546771E-02  0.1223203E+00
          1   -1    0    0  501    0  0.00000000000E+00  0.00000000000E+00  0.65028580366E+02  0.65028580366E+02  0.00000000000E+00 0. -1.
         -1   -1    0    0    0  501 -0.00000000000E+00 -0.00000000000E+00 -0.30289656083E+03  0.30289656083E+03  0.00000000000E+00 0.  1.
          5    1    1    2  502    0 -0.20490686398E+02  0.27706516912E+02  0.13008971039E+01  0.34803759017E+02  0.47000000000E+01 0. -1.
         -5    1    1    2    0  502  0.85196646691E+02 -0.53332748811E+02 -0.52518240964E+02  0.11350377235E+03  0.47000000000E+01 0.  1.
        -11    1    1    2    0    0  0.14279955858E+02 -0.19623958635E+02 -0.47423596385E+02  0.53273017428E+02  0.00000000000E+00 0.  1.
         11    1    1    2    0    0 -0.78985916150E+02  0.45250190535E+02 -0.13922704022E+03  0.16634459240E+03  0.00000000000E+00 0. -1.
<mgrwt>
<rscale>  0 0.13290801E+03</rscale>
<asrwt>0</asrwt>
<pdfrwt beam="1">  1        1 0.10004397E-01 0.13918300E+03</pdfrwt>
<pdfrwt beam="2">  1       -1 0.46599471E-01 0.13918300E+03</pdfrwt>
<totfact> 0.28996794E+03</totfact>
</mgrwt>
</event>
<event>
 6    1  0.6101889E-006  0.3421127E+03  0.7546771E-02  0.1089607E+00
          2   -1    0    0  501    0  0.00000000000E+00  0.00000000000E+00  0.15473816356E+04  0.15473816356E+04  0.00000000000E+00 0. -1.
         -2   -1    0    0    0  501 -0.00000000000E+00 -0.00000000000E+00 -0.84255402927E+02  0.84255402927E+02  0.00000000000E+00 0.  1.
          5    1    1    2  502    0 -0.10600175494E+03  0.17843403749E+03  0.13296772483E+04  0.13457855522E+04  0.47000000000E+01 0. -1.
         -5    1    1    2    0  502  0.76318508667E+00 -0.64064246172E+02  0.69638036129E+02  0.94743633902E+02  0.47000000000E+01 0.  1.
        -11    1    1    2    0    0  0.43486577653E+02 -0.51633724028E+02 -0.19125384409E+02  0.70163410848E+02  0.00000000000E+00 0. -1.
         11    1    1    2    0    0  0.61751992202E+02 -0.62736067290E+02  0.82936332629E+02  0.12094444158E+03  0.00000000000E+00 0.  1.
<mgrwt>
<rscale>  0 0.29142669E+03</rscale>
<asrwt>0</asrwt>
<pdfrwt beam="1">  1        2 0.23805869E+00 0.34211266E+03</pdfrwt>
<pdfrwt beam="2">  1       -2 0.12962371E-01 0.34211266E+03</pdfrwt>
<totfact> 0.55820958E+02</totfact>
</mgrwt>
</event>
<event>
 6    1  0.6101889E-006  0.1345203E+03  0.7546771E-02  0.1233801E+00
          2   -1    0    0  501    0  0.00000000000E+00  0.00000000000E+00  0.11734525063E+03  0.11734525063E+03  0.00000000000E+00 0. -1.
         -2   -1    0    0    0  501 -0.00000000000E+00 -0.00000000000E+00 -0.12490288599E+03  0.12490288599E+03  0.00000000000E+00 0.  1.
          5    1    1    2  502    0  0.27901560603E+02 -0.57067090299E+02  0.60627359713E+02  0.87937003731E+02  0.47000000000E+01 0.  1.
         -5    1    1    2    0  502  0.77582939239E+01  0.22412989767E+02 -0.41406834574E+02  0.47949444046E+02  0.47000000000E+01 0.  1.
        -11    1    1    2    0    0  0.10553182102E+02 -0.15806316397E+02 -0.32552060679E+02  0.37694110216E+02  0.00000000000E+00 0.  1.
         11    1    1    2    0    0 -0.46213036629E+02  0.50460416930E+02  0.57739001789E+01  0.68667578627E+02  0.00000000000E+00 0. -1.
<mgrwt>
<rscale>  0 0.12581492E+03</rscale>
<asrwt>0</asrwt>
<pdfrwt beam="1">  1        2 0.18053116E-01 0.13452025E+03</pdfrwt>
<pdfrwt beam="2">  1       -2 0.19215829E-01 0.13452025E+03</pdfrwt>
<totfact> 0.66743110E+03</totfact>
</mgrwt>
</event>
<event>
 6    1  0.6101889E-006  0.3209928E+03  0.7546771E-02  0.1075193E+00
          1   -1    0    0  501    0  0.00000000000E+00  0.00000000000E+00  0.67976128910E+02  0.67976128910E+02  0.00000000000E+00 0. -1.
         -1   -1    0    0    0  501 -0.00000000000E+00 -0.00000000000E+00 -0.37894330977E+03  0.37894330977E+03  0.00000000000E+00 0.  1.
          5    1    1    2  502    0  0.16719390827E+02 -0.34005569349E+01 -0.55663559012E+02  0.58409105617E+02  0.47000000000E+01 0.  1.
         -5    1    1    2    0  502 -0.10132178901E+03  0.35801508907E+02 -0.57285604401E+01  0.10771610544E+03  0.47000000000E+01 0.  1.
        -11    1    1    2    0    0  0.72264919199E+02 -0.10608931082E+01 -0.23160430473E+03  0.24261883276E+03  0.00000000000E+00 0. -1.
         11    1    1    2    0    0  0.12337478979E+02 -0.31340058864E+02 -0.17970756682E+02  0.38175394862E+02  0.00000000000E+00 0.  1.
<mgrwt>
<rscale>  0 0.32099283E+03</rscale>
<asrwt>0</asrwt>
<pdfrwt beam="1">  1        1 0.10457866E-01 0.32099283E+03</pdfrwt>
<pdfrwt beam="2">  1       -1 0.58298970E-01 0.32099283E+03</pdfrwt>
<totfact> 0.18587929E+03</totfact>
</mgrwt>
</event>
<event>
 6    1  0.6101889E-006  0.1551780E+03  0.7546771E-02  0.1202608E+00
          2   -1    0    0  501    0  0.00000000000E+00  0.00000000000E+00  0.11873902859E+03  0.11873902859E+03  0.00000000000E+00 0.  1.
         -2   -1    0    0    0  501 -0.00000000000E+00 -0.00000000000E+00 -0.17140624576E+03  0.17140624576E+03  0.00000000000E+00 0. -1.
          5    1    1    2  502    0 -0.33188222377E+01  0.26115955475E+02 -0.75479892967E+02  0.80077224938E+02  0.47000000000E+01 0. -1.
         -5    1    1    2    0  502 -0.56026791691E+02  0.44119416407E+02  0.36031089312E+02  0.80036577190E+02  0.47000000000E+01 0. -1.
        -11    1    1    2    0    0 -0.11344772304E+02  0.38800894745E+01  0.19169842805E+02  0.22610657358E+02  0.00000000000E+00 0.  1.
         11    1    1    2    0    0  0.70690386233E+02 -0.74115461357E+02 -0.32388256318E+02  0.10742081486E+03  0.00000000000E+00 0. -1.
<mgrwt>
<rscale>  0 0.14827601E+03</rscale>
<asrwt>0</asrwt>
<pdfrwt beam="1">  1        2 0.18267543E-01 0.15517803E+03</pdfrwt>
<pdfrwt beam="2">  1       -2 0.26370192E-01 0.15517803E+03</pdfrwt>
<totfact> 0.38517952E+03</totfact>
</mgrwt>
</event>
<event>
 6    1  0.6101889E-006  0.1809027E+03  0.7546771E-02  0.1172421E+00
         -1   -1    0    0    0  501 -0.00000000000E+00  0.00000000000E+00  0.42786139230E+02  0.42786139230E+02  0.00000000000E+00 0.  1.
          1   -1    0    0  501    0  0.00000000000E+00 -0.00000000000E+00 -0.13876769804E+04  0.13876769804E+04  0.00000000000E+00 0. -1.
          5    1    1    2  502    0 -0.55012422701E+02  0.34310096875E+02 -0.89732749323E+03  0.89967898137E+03  0.47000000000E+01 0. -1.
         -5    1    1    2    0  502 -0.20171934839E+01  0.83365707553E+02 -0.30697030209E+03  0.31813010959E+03  0.47000000000E+01 0. -1.
        -11    1    1    2    0    0 -0.50345357785E+01 -0.75412958331E+02 -0.10547774290E+03  0.12976137746E+03  0.00000000000E+00 0. -1.
         11    1    1    2    0    0  0.62064151964E+02 -0.42262846096E+02 -0.35115302913E+02  0.82892651169E+02  0.00000000000E+00 0.  1.
<mgrwt>
<rscale>  0 0.17530981E+03</rscale>
<asrwt>0</asrwt>
<pdfrwt beam="2">  1        1 0.21348879E+00 0.18090274E+03</pdfrwt>
<pdfrwt beam="1">  1       -1 0.65824822E-02 0.18090274E+03</pdfrwt>
<totfact> 0.99409994E+02</totfact>
</mgrwt>
</event>
<event>
 6    1  0.6101889E-006  0.1532730E+03  0.7546771E-02  0.1204329E+00
         -2   -1    0    0    0  501 -0.00000000000E+00  0.00000000000E+00  0.23882038137E+02  0.23882038137E+02  0.00000000000E+00 0.  1.
          2   -1    0    0  501    0  0.00000000000E+00 -0.00000000000E+00 -0.84485727441E+03  0.84485727441E+03  0.00000000000E+00 0. -1.
          5    1    1    2  502    0 -0.31178369098E+02  0.29867021158E+02 -0.43084012605E+03  0.43302359505E+03  0.47000000000E+01 0. -1.
         -5    1    1    2    0  502 -0.53717740267E+02 -0.41705442681E+01 -0.58096443135E+02  0.79374276462E+02  0.47000000000E+01 0. -1.
        -11    1    1    2    0    0  0.23821251568E+02 -0.46987412215E+02 -0.22661714152E+03  0.23265983272E+03  0.00000000000E+00 0. -1.
         11    1    1    2    0    0  0.61074857798E+02  0.21290935325E+02 -0.10542152557E+03  0.12368160832E+03  0.00000000000E+00 0.  1.
<mgrwt>
<rscale>  0 0.14690438E+03</rscale>
<asrwt>0</asrwt>
<pdfrwt beam="2">  1        2 0.12997806E+00 0.15327299E+03</pdfrwt>
<pdfrwt beam="1">  1       -2 0.36741591E-02 0.15327299E+03</pdfrwt>
<totfact> 0.99947947E+03</totfact>
</mgrwt>
</event>
<event>
 6    1  0.6101889E-006  0.1492051E+03  0.7546771E-02  0.1210907E+00
          1   -1    0    0  501    0  0.00000000000E+00  0.00000000000E+00  0.10444933079E+03  0.10444933079E+03  0.00000000000E+00 0. -1.
         -1   -1    0    0    0  501 -0.00000000000E+00 -0.00000000000E+00 -0.20619398355E+03  0.20619398355E+03  0.00000000000E+00 0.  1.
          5    1    1    2  502    0  0.35701112609E+02  0.41454319635E+02 -0.14973747543E+02  0.56915140107E+02  0.47000000000E+01 0. -1.
         -5    1    1    2    0  502  0.34050678910E+02 -0.83549623265E+02  0.19132669690E+02  0.92347914603E+02  0.47000000000E+01 0. -1.
        -11    1    1    2    0    0 -0.84029147275E+02  0.13086026639E+02 -0.55677072201E+02  0.10164683002E+03  0.00000000000E+00 0.  1.
         11    1    1    2    0    0  0.14277355756E+02  0.29009276990E+02 -0.50226502703E+02  0.59733429607E+02  0.00000000000E+00 0. -1.
<mgrwt>
<rscale>  0 0.14181532E+03</rscale>
<asrwt>0</asrwt>
<pdfrwt beam="1">  1        1 0.16069128E-01 0.14920510E+03</pdfrwt>
<pdfrwt beam="2">  1       -1 0.31722151E-01 0.14920510E+03</pdfrwt>
<totfact> 0.30608757E+03</totfact>
</mgrwt>
</event>
<event>
 6    1  0.6101889E-006  0.1122916E+03  0.7546771E-02  0.1267678E+00
          2   -1    0    0  501    0  0.00000000000E+00  0.00000000000E+00  0.77956348089E+02  0.77956348089E+02  0.00000000000E+00 0. -1.
         -2   -1    0    0    0  501 -0.00000000000E+00 -0.00000000000E+00 -0.14734616175E+03  0.14734616175E+03  0.00000000000E+00 0.  1.
          5    1    1    2  502    0  0.36145014200E+02 -0.26338707534E+02 -0.31209004699E+02  0.54738300488E+02  0.47000000000E+01 0. -1.
         -5    1    1    2    0  502 -0.34389743621E+02  0.34624460827E+02  0.30155557164E+02  0.57558278135E+02  0.47000000000E+01 0.  1.
        -11    1    1    2    0    0 -0.27368350027E+02 -0.19596990018E+02 -0.76718822693E+02  0.83778555468E+02  0.00000000000E+00 0.  1.
         11    1    1    2    0    0  0.25613079448E+02  0.11311236725E+02  0.83824565663E+01  0.29227375749E+02  0.00000000000E+00 0. -1.
<mgrwt>
<rscale>  0 0.10624889E+03</rscale>
<asrwt>0</asrwt>
<pdfrwt beam="1">  1        2 0.11993284E-01 0.11229164E+03</pdfrwt>
<pdfrwt beam="2">  1       -2 0.22668640E-01 0.11229164E+03</pdfrwt>
<totfact> 0.80206597E+03</totfact>
</mgrwt>
</event>
<event>
 6    1  0.6101889E-006  0.1303948E+03  0.7546771E-02  0.1239549E+00
         -1   -1    0    0    0  501 -0.00000000000E+00  0.00000000000E+00  0.88698487790E+03  0.88698487790E+03  0.00000000000E+00 0.  1.
          1   -1    0    0  501    0  0.00000000000E+00 -0.00000000000E+00 -0.15188918627E+02  0.15188918627E+02  0.00000000000E+00 0. -1.
          5    1    1    2  502    0 -0.91070363778E+01  0.61443061673E+02  0.12416343891E+03  0.13891305735E+03  0.47000000000E+01 0. -1.
         -5    1    1    2    0  502  0.35625196904E+02 -0.35463070864E+02  0.32131020561E+03  0.32525239780E+03  0.47000000000E+01 0. -1.
        -11    1    1    2    0    0 -0.10671022100E+02 -0.61019620845E+02  0.27240310829E+03  0.27935768872E+03  0.00000000000E+00 0. -1.
         11    1    1    2    0    0 -0.15847138426E+02  0.35039630036E+02  0.15391920647E+03  0.15865065266E+03  0.00000000000E+00 0.  1.
<mgrwt>
<rscale>  0 0.12217674E+03</rscale>
<asrwt>0</asrwt>
<pdfrwt beam="2">  1        1 0.23367574E-02 0.13039479E+03</pdfrwt>
<pdfrwt beam="1">  1       -1 0.13645917E+00 0.13039479E+03</pdfrwt>
<totfact> 0.22603048E+03</totfact>
</mgrwt>
</event>
<event>
 6    1  0.6101889E-006  0.1159431E+03  0.7546771E-02  0.1258535E+00
          1   -1    0    0  501    0  0.00000000000E+00  0.00000000000E+00  0.21311611682E+04  0.21311611682E+04  0.00000000000E+00 0. -1.
         -1   -1    0    0    0  501 -0.00000000000E+00 -0.00000000000E+00 -0.21029592516E+02  0.21029592516E+02  0.00000000000E+00 0.  1.
          5    1    1    2  502    0 -0.43556626984E+02 -0.22869386369E+02  0.17954689009E+04  0.17961488949E+04  0.47000000000E+01 0. -1.
         -5    1    1    2    0  502  0.31241065073E+02 -0.11507527581E+02  0.21054509746E+03  0.21321293441E+03  0.47000000000E+01 0.  1.
        -11    1    1    2    0    0  0.34641834160E+02  0.14860856725E+02  0.34128604825E+01  0.37849033716E+02  0.00000000000E+00 0.  1.
         11    1    1    2    0    0 -0.22326272248E+02  0.19516057225E+02  0.10070471691E+03  0.10497989774E+03  0.00000000000E+00 0. -1.
<mgrwt>
<rscale>  0 0.11110633E+03</rscale>
<asrwt>0</asrwt>
<pdfrwt beam="1">  1        1 0.32787078E+00 0.11594309E+03</pdfrwt>
<pdfrwt beam="2">  1       -1 0.32353236E-02 0.11594309E+03</pdfrwt>
<totfact> 0.95371516E+02</totfact>
</mgrwt>
</event>
<event>
 6    1  0.1058237E-005  0.1261053E+03  0.7546771E-02  0.1248101E+00
         -3   -1    0    0    0  501 -0.00000000000E+00  0.00000000000E+00  0.19531281567E+03  0.19531281567E+03  0.00000000000E+00 0.  1.
          3   -1    0    0  501    0  0.00000000000E+00 -0.00000000000E+00 -0.65440883444E+02  0.65440883444E+02  0.00000000000E+00 0. -1.
          5    1    1    2  502    0 -0.11528932023E+02  0.88423770397E+01  0.82655922752E+02  0.84054717127E+02  0.47000000000E+01 0.  1.
         -5    1    1    2    0  502  0.28179643723E+02 -0.79334516556E+01 -0.39358146316E+02  0.49276623839E+02  0.47000000000E+01 0.  1.
        -11    1    1    2    0    0  0.16099642468E+02  0.33162759679E+02  0.66586265435E+02  0.76109775073E+02  0.00000000000E+00 0. -1.
         11    1    1    2    0    0 -0.32750354168E+02 -0.34071685063E+02  0.19987890358E+02  0.51312583078E+02  0.00000000000E+00 0.  1.
<mgrwt>
<rscale>  0 0.11701660E+03</rscale>
<asrwt>0</asrwt>
<pdfrwt beam="2">  1        3 0.10067828E-01 0.12610531E+03</pdfrwt>
<pdfrwt beam="1">  1       -3 0.30048125E-01 0.12610531E+03</pdfrwt>
<totfact> 0.17690776E+03</totfact>
</mgrwt>
</event>
<event>
 6    1  0.6101889E-006  0.1273593E+03  0.7546771E-02  0.1245998E+00
          3   -1    0    0  501    0  0.00000000000E+00  0.00000000000E+00  0.72663846335E+02  0.72663846335E+02  0.00000000000E+00 0. -1.
         -3   -1    0    0    0  501 -0.00000000000E+00 -0.00000000000E+00 -0.17007975727E+03  0.17007975727E+03  0.00000000000E+00 0.  1.
          5    1    1    2  502    0  0.53920626444E+02  0.72501083605E+01 -0.18185485550E+02  0.57556927577E+02  0.47000000000E+01 0. -1.
         -5    1    1    2    0  502 -0.71861184877E+02  0.93287853219E+01 -0.31401786905E+02  0.79115221976E+02  0.47000000000E+01 0. -1.
        -11    1    1    2    0    0 -0.12852722756E+02 -0.11593230382E+01 -0.65919428300E+02  0.67170734249E+02  0.00000000000E+00 0.  1.
         11    1    1    2    0    0  0.30793281189E+02 -0.15419570644E+02  0.18090789816E+02  0.38900719806E+02  0.00000000000E+00 0. -1.
<mgrwt>
<rscale>  0 0.11825868E+03</rscale>
<asrwt>0</asrwt>
<pdfrwt beam="1">  1        3 0.11179053E-01 0.12735925E+03</pdfrwt>
<pdfrwt beam="2">  1       -3 0.26166116E-01 0.12735925E+03</pdfrwt>
<totfact> 0.19191286E+03</totfact>
</mgrwt>
</event>
<event>
 6    1  0.6101889E-006  0.1614508E+03  0.7546771E-02  0.1213664E+00
         -2   -1    0    0    0  501 -0.00000000000E+00  0.00000000000E+00  0.35177749814E+02  0.35177749814E+02  0.00000000000E+00 0.  1.
          2   -1    0    0  501    0  0.00000000000E+00 -0.00000000000E+00 -0.48197724635E+03  0.48197724635E+03  0.00000000000E+00 0. -1.
          5    1    1    2  502    0  0.66728161738E+02  0.14883436114E+01 -0.28042647197E+03  0.28829838522E+03  0.47000000000E+01 0. -1.
         -5    1    1    2    0  502 -0.64573938836E+02  0.14198223289E+02 -0.64225845608E+02  0.92295353976E+02  0.47000000000E+01 0.  1.
        -11    1    1    2    0    0  0.27377881910E+02  0.27151709635E+02 -0.41327284719E+02  0.56521749939E+02  0.00000000000E+00 0. -1.
         11    1    1    2    0    0 -0.29532104811E+02 -0.42838276535E+02 -0.60819894237E+02  0.80039507033E+02  0.00000000000E+00 0.  1.
<mgrwt>
<rscale>  0 0.13975126E+03</rscale>
<asrwt>0</asrwt>
<pdfrwt beam="2">  1        2 0.74150344E-01 0.16145084E+03</pdfrwt>
<pdfrwt beam="1">  1       -2 0.54119616E-02 0.16145084E+03</pdfrwt>
<totfact> 0.10827615E+04</totfact>
</mgrwt>
</event>
<event>
 6    1  0.6101889E-006  0.1269649E+03  0.7546771E-02  0.1246426E+00
         -1   -1    0    0    0  501 -0.00000000000E+00  0.00000000000E+00  0.58691968408E+02  0.58691968408E+02  0.00000000000E+00 0.  1.
          1   -1    0    0  501    0  0.00000000000E+00 -0.00000000000E+00 -0.28932138565E+03  0.28932138565E+03  0.00000000000E+00 0. -1.
          5    1    1    2  502    0  0.36410707332E+02  0.47941540912E+02 -0.15762427404E+03  0.16879464659E+03  0.47000000000E+01 0.  1.
         -5    1    1    2    0  502 -0.15514517909E+02 -0.55375340648E+02 -0.60589026559E+02  0.83667489249E+02  0.47000000000E+01 0.  1.
        -11    1    1    2    0    0  0.10610757690E+02 -0.33358644357E+02  0.13917290124E+02  0.37670655642E+02  0.00000000000E+00 0.  1.
         11    1    1    2    0    0 -0.31506947113E+02  0.40792444094E+02 -0.26333406772E+02  0.57880562573E+02  0.00000000000E+00 0. -1.
<mgrwt>
<rscale>  0 0.11800417E+03</rscale>
<asrwt>0</asrwt>
<pdfrwt beam="2">  1        1 0.44510983E-01 0.12696490E+03</pdfrwt>
<pdfrwt beam="1">  1       -1 0.90295335E-02 0.12696490E+03</pdfrwt>
<totfact> 0.62267476E+03</totfact>
</mgrwt>
</event>
<event>
 6    1  0.6101889E-006  0.1343541E+03  0.7546771E-02  0.1232123E+00
          4   -1    0    0  501    0  0.00000000000E+00  0.00000000000E+00  0.25377322227E+03  0.25377322227E+03  0.00000000000E+00 0. -1.
         -4   -1    0    0    0  501 -0.00000000000E+00 -0.00000000000E+00 -0.59559065665E+02  0.59559065665E+02  0.00000000000E+00 0.  1.
          5    1    1    2  502    0  0.63481368109E+02 -0.30513274861E+02  0.11154088668E+03  0.13200152817E+03  0.47000000000E+01 0. -1.
         -5    1    1    2    0  502 -0.51640163599E+02 -0.16483550533E+02  0.26116364684E+02  0.60353694494E+02  0.47000000000E+01 0. -1.
        -11    1    1    2    0    0  0.14435366939E+02  0.61241365803E+02  0.64442540765E+02  0.90065119576E+02  0.00000000000E+00 0. -1.
         11    1    1    2    0    0 -0.26276571449E+02 -0.14244540409E+02 -0.78856355228E+01  0.30911945688E+02  0.00000000000E+00 0.  1.
<mgrwt>
<rscale>  0 0.12690420E+03</rscale>
<asrwt>0</asrwt>
<pdfrwt beam="1">  1        4 0.39042034E-01 0.13435406E+03</pdfrwt>
<pdfrwt beam="2">  1       -4 0.91629333E-02 0.13435406E+03</pdfrwt>
<totfact> 0.92552507E+02</totfact>
</mgrwt>
</event>
<event>
 6    1  0.6101889E-006  0.2897425E+03  0.7546771E-02  0.1090484E+00
          1   -1    0    0  501    0  0.00000000000E+00  0.00000000000E+00  0.14540517307E+03  0.14540517307E+03  0.00000000000E+00 0. -1.
         -1   -1    0    0    0  501 -0.00000000000E+00 -0.00000000000E+00 -0.14433930493E+03  0.14433930493E+03  0.00000000000E+00 0.  1.
          5    1    1    2  502    0 -0.12299518581E+02 -0.56015133571E+02  0.10353706727E+03  0.11845246998E+03  0.47000000000E+01 0. -1.
         -5    1    1    2    0  502 -0.27004299986E+01 -0.10063158948E+02 -0.36863621623E+02  0.38595026743E+02  0.47000000000E+01 0. -1.
        -11    1    1    2    0    0  0.23462813349E+02 -0.13651876730E+02 -0.40356513136E+02  0.48636668276E+02  0.00000000000E+00 0. -1.
         11    1    1    2    0    0 -0.84628647698E+01  0.79730169249E+02 -0.25251064369E+02  0.84060312992E+02  0.00000000000E+00 0.  1.
<mgrwt>
<rscale>  0 0.28974252E+03</rscale>
<asrwt>0</asrwt>
<pdfrwt beam="1">  1        1 0.22370027E-01 0.28974252E+03</pdfrwt>
<pdfrwt beam="2">  1       -1 0.22206047E-01 0.28974252E+03</pdfrwt>
<totfact> 0.37338316E+03</totfact>
</mgrwt>
</event>
<event>
 6    1  0.6101889E-006  0.3607884E+03  0.7546771E-02  0.1058272E+00
         -2   -1    0    0    0  501 -0.00000000000E+00  0.00000000000E+00  0.15494106424E+02  0.15494106424E+02  0.00000000000E+00 0.  1.
          2   -1    0    0  501    0  0.00000000000E+00 -0.00000000000E+00 -0.21002868841E+04  0.21002868841E+04  0.00000000000E+00 0. -1.
          5    1    1    2  502    0  0.25393613728E+02 -0.83383709490E+02 -0.16147942800E+04  0.16171519210E+04  0.47000000000E+01 0. -1.
         -5    1    1    2    0  502  0.84938473386E+01  0.36382875993E+02 -0.26190017880E+03  0.26459337249E+03  0.47000000000E+01 0. -1.
        -11    1    1    2    0    0  0.11926081108E+02  0.38803689533E+02 -0.31430586140E+02  0.51340427317E+02  0.00000000000E+00 0.  1.
         11    1    1    2    0    0 -0.45813542174E+02  0.81971439642E+01 -0.17666773270E+03  0.18269526977E+03  0.00000000000E+00 0. -1.
<mgrwt>
<rscale>  0 0.36078841E+03</rscale>
<asrwt>0</asrwt>
<pdfrwt beam="2">  1        2 0.32312110E+00 0.36078841E+03</pdfrwt>
<pdfrwt beam="1">  1       -2 0.23837084E-02 0.36078841E+03</pdfrwt>
<totfact> 0.39126841E+03</totfact>
</mgrwt>
</event>
<event>
 6    1  0.6101889E-006  0.1279955E+03  0.7546771E-02  0.1246544E+00
         -2   -1    0    0    0  501 -0.00000000000E+00  0.00000000000E+00  0.22752330334E+02  0.22752330334E+02  0.00000000000E+00 0.  1.
          2   -1    0    0  501    0  0.00000000000E+00 -0.00000000000E+00 -0.88542089258E+03  0.88542089258E+03  0.00000000000E+00 0. -1.
          5    1    1    2  502    0  0.60935393704E+02 -0.21765737898E+01 -0.22119873314E+03  0.22949690460E+03  0.47000000000E+01 0.  1.
         -5    1    1    2    0  502 -0.44745299755E+02  0.24425217922E+02 -0.53647001732E+03  0.53890713727E+03  0.47000000000E+01 0.  1.
        -11    1    1    2    0    0 -0.60276187254E+01  0.28387851350E+02 -0.74111561097E+02  0.79590990570E+02  0.00000000000E+00 0. -1.
         11    1    1    2    0    0 -0.10162475224E+02 -0.50636495482E+02 -0.30888250691E+02  0.60178190469E+02  0.00000000000E+00 0.  1.
<mgrwt>
<rscale>  0 0.11793428E+03</rscale>
<asrwt>0</asrwt>
<pdfrwt beam="2">  1        2 0.13621858E+00 0.12799545E+03</pdfrwt>
<pdfrwt beam="1">  1       -2 0.35003591E-02 0.12799545E+03</pdfrwt>
<totfact> 0.10004906E+04</totfact>
</mgrwt>
</event>
<event>
 6    1  0.6101889E-006  0.1775463E+03  0.7546771E-02  0.1187915E+00
          1   -1    0    0  501    0  0.00000000000E+00  0.00000000000E+00  0.38943200338E+03  0.38943200338E+03  0.00000000000E+00 0. -1.
         -1   -1    0    0    0  501 -0.00000000000E+00 -0.00000000000E+00 -0.78616486364E+02  0.78616486364E+02  0.00000000000E+00 0.  1.
          5    1    1    2  502    0 -0.83026967569E+00  0.63560003079E+02  0.28794869540E+02  0.69941388683E+02  0.47000000000E+01 0. -1.
         -5    1    1    2    0  502 -0.61217359725E+02 -0.18560067344E+02  0.27096371465E+03  0.27845190947E+03  0.47000000000E+01 0.  1.
        -11    1    1    2    0    0  0.82072882547E+02 -0.48607171482E+02 -0.21259880600E+01  0.95410350561E+02  0.00000000000E+00 0.  1.
         11    1    1    2    0    0 -0.20025253146E+02  0.36072357466E+01  0.13182920881E+02  0.24244841023E+02  0.00000000000E+00 0. -1.
<mgrwt>
<rscale>  0 0.16069450E+03</rscale>
<asrwt>0</asrwt>
<pdfrwt beam="1">  1        1 0.59912615E-01 0.17754628E+03</pdfrwt>
<pdfrwt beam="2">  1       -1 0.12094844E-01 0.17754628E+03</pdfrwt>
<totfact> 0.27896941E+03</totfact>
</mgrwt>
</event>
<event>
 6    1  0.6588611E-006  0.1260725E+03  0.7546771E-02  0.1250867E+00
         -1   -1    0    0    0  501 -0.00000000000E+00  0.00000000000E+00  0.22786589600E+02  0.22786589600E+02  0.00000000000E+00 0.  1.
          1   -1    0    0  501    0  0.00000000000E+00 -0.00000000000E+00 -0.51965577984E+03  0.51965577984E+03  0.00000000000E+00 0. -1.
          5    1    1    2  502    0  0.19973392656E+02 -0.46563224584E+02 -0.62900476940E+02  0.80905069663E+02  0.47000000000E+01 0. -1.
         -5    1    1    2    0  502 -0.34402864809E+02  0.38742075988E+02 -0.27218662249E+03  0.27711397117E+03  0.47000000000E+01 0. -1.
        -11    1    1    2    0    0  0.25293029626E+02 -0.15172776490E+02 -0.10949320719E+02  0.31461692871E+02  0.00000000000E+00 0.  1.
         11    1    1    2    0    0 -0.10863557473E+02  0.22993925086E+02 -0.15083277010E+03  0.15296163574E+03  0.00000000000E+00 0. -1.
<mgrwt>
<rscale>  0 0.11541027E+03</rscale>
<asrwt>0</asrwt>
<pdfrwt beam="2">  1        1 0.79947031E-01 0.12607248E+03</pdfrwt>
<pdfrwt beam="1">  1       -1 0.35056297E-02 0.12607248E+03</pdfrwt>
<totfact> 0.12119746E+04</totfact>
</mgrwt>
</event>
<event>
 6    1  0.6101889E-006  0.3002664E+03  0.7546771E-02  0.1085108E+00
          4   -1    0    0  501    0  0.00000000000E+00  0.00000000000E+00  0.22460000456E+03  0.22460000456E+03  0.00000000000E+00 0. -1.
         -4   -1    0    0    0  501 -0.00000000000E+00 -0.00000000000E+00 -0.10035610338E+03  0.10035610338E+03  0.00000000000E+00 0.  1.
          5    1    1    2  502    0  0.22363902055E+02  0.13454819069E+02  0.65948310513E+02  0.71080559443E+02  0.47000000000E+01 0.  1.
         -5    1    1    2    0  502  0.34089237286E+02 -0.98608903385E+02  0.30468897653E+01  0.10448524041E+03  0.47000000000E+01 0.  1.
        -11    1    1    2    0    0  0.19341217899E+01  0.57881782431E+02 -0.87461136036E+01  0.58570778274E+02  0.00000000000E+00 0.  1.
         11    1    1    2    0    0 -0.58387261131E+02  0.27272301885E+02  0.63994814511E+02  0.90819529820E+02  0.00000000000E+00 0. -1.
<mgrwt>
<rscale>  0 0.30026642E+03</rscale>
<asrwt>0</asrwt>
<pdfrwt beam="1">  1        4 0.34553847E-01 0.30026642E+03</pdfrwt>
<pdfrwt beam="2">  1       -4 0.15439401E-01 0.30026642E+03</pdfrwt>
<totfact> 0.55017201E+02</totfact>
</mgrwt>
</event>
<event>
 6    1  0.6101889E-006  0.1584846E+03  0.7546771E-02  0.1198222E+00
          2   -1    0    0  501    0  0.00000000000E+00  0.00000000000E+00  0.60580896356E+03  0.60580896356E+03  0.00000000000E+00 0. -1.
         -2   -1    0    0    0  501 -0.00000000000E+00 -0.00000000000E+00 -0.61813530072E+02  0.61813530072E+02  0.00000000000E+00 0.  1.
          5    1    1    2  502    0 -0.97513181273E+02 -0.19365109902E+02  0.25135047375E+03  0.27033863701E+03  0.47000000000E+01 0.  1.
         -5    1    1    2    0  502  0.56284844549E+01  0.51737567700E+02  0.25246546670E+03  0.25781651930E+03  0.47000000000E+01 0.  1.
        -11    1    1    2    0    0  0.46286258045E+02 -0.53979287913E+02 -0.56124223846E+01  0.71327978328E+02  0.00000000000E+00 0.  1.
         11    1    1    2    0    0  0.45598438774E+02  0.21606830115E+02  0.45791915421E+02  0.68139358994E+02  0.00000000000E+00 0. -1.
<mgrwt>
<rscale>  0 0.15184649E+03</rscale>
<asrwt>0</asrwt>
<pdfrwt beam="1">  1        2 0.93201375E-01 0.15848460E+03</pdfrwt>
<pdfrwt beam="2">  1       -2 0.95097742E-02 0.15848460E+03</pdfrwt>
<totfact> 0.35134002E+03</totfact>
</mgrwt>
</event>
<event>
 6    1  0.6101889E-006  0.1299407E+03  0.7546771E-02  0.1241455E+00
         -2   -1    0    0    0  501 -0.00000000000E+00  0.00000000000E+00  0.20247278530E+02  0.20247278530E+02  0.00000000000E+00 0.  1.
          2   -1    0    0  501    0  0.00000000000E+00 -0.00000000000E+00 -0.65097578309E+03  0.65097578309E+03  0.00000000000E+00 0. -1.
          5    1    1    2  502    0  0.58797918280E+02 -0.29326534580E+02 -0.21819430992E+03  0.22792123137E+03  0.47000000000E+01 0. -1.
         -5    1    1    2    0  502 -0.33374911839E+02  0.54165962417E+02 -0.18445747309E+03  0.19517808689E+03  0.47000000000E+01 0. -1.
        -11    1    1    2    0    0 -0.57456067542E+02 -0.14743094770E+02 -0.10553652932E+03  0.12106410517E+03  0.00000000000E+00 0.  1.
         11    1    1    2    0    0  0.32033061102E+02 -0.10096333067E+02 -0.12254019223E+03  0.12705963819E+03  0.00000000000E+00 0. -1.
<mgrwt>
<rscale>  0 0.12100094E+03</rscale>
<asrwt>0</asrwt>
<pdfrwt beam="2">  1        2 0.10015012E+00 0.12994066E+03</pdfrwt>
<pdfrwt beam="1">  1       -2 0.31149661E-02 0.12994066E+03</pdfrwt>
<totfact> 0.17310746E+04</totfact>
</mgrwt>
</event>
<event>
 6    1  0.6101889E-006  0.1705491E+03  0.7546771E-02  0.1183504E+00
         -2   -1    0    0    0  501 -0.00000000000E+00  0.00000000000E+00  0.14413674460E+03  0.14413674460E+03  0.00000000000E+00 0.  1.
          2   -1    0    0  501    0  0.00000000000E+00 -0.00000000000E+00 -0.17830067238E+03  0.17830067238E+03  0.00000000000E+00 0. -1.
          5    1    1    2  502    0 -0.36450614096E+02  0.60970604251E+02 -0.15356869268E+02  0.72828464796E+02  0.47000000000E+01 0.  1.
         -5    1    1    2    0  502  0.86030291960E+02  0.43924106979E+02  0.14059376341E+02  0.97725607553E+02  0.47000000000E+01 0.  1.
        -11    1    1    2    0    0  0.11529487410E+02 -0.51378955119E+02 -0.45605824769E+02  0.69660730415E+02  0.00000000000E+00 0. -1.
         11    1    1    2    0    0 -0.61109165273E+02 -0.53515756111E+02  0.12739389914E+02  0.82222614212E+02  0.00000000000E+00 0.  1.
<mgrwt>
<rscale>  0 0.16468772E+03</rscale>
<asrwt>0</asrwt>
<pdfrwt beam="2">  1        2 0.27430873E-01 0.17054914E+03</pdfrwt>
<pdfrwt beam="1">  1       -2 0.22174884E-01 0.17054914E+03</pdfrwt>
<totfact> 0.33178589E+03</totfact>
</mgrwt>
</event>
<event>
 6    1  0.6101889E-006  0.1571860E+03  0.7546771E-02  0.1204271E+00
         -1   -1    0    0    0  501 -0.00000000000E+00  0.00000000000E+00  0.42266932773E+03  0.42266932773E+03  0.00000000000E+00 0.  1.
          1   -1    0    0  501    0  0.00000000000E+00 -0.00000000000E+00 -0.45470810407E+02  0.45470810407E+02  0.00000000000E+00 0. -1.
          5    1    1    2  502    0  0.87276654736E+01  0.85152871190E+02  0.50210039855E+02  0.99349492796E+02  0.47000000000E+01 0. -1.
         -5    1    1    2    0  502  0.29609241650E+02  0.20727483373E+01  0.16183934529E+03  0.16460579322E+03  0.47000000000E+01 0. -1.
        -11    1    1    2    0    0  0.85597561204E+01 -0.34195824829E+02  0.15245793776E+02  0.38406484979E+02  0.00000000000E+00 0. -1.
         11    1    1    2    0    0 -0.46896663245E+02 -0.53029794699E+02  0.14990333840E+03  0.16577836714E+03  0.00000000000E+00 0.  1.
<mgrwt>
<rscale>  0 0.14695036E+03</rscale>
<asrwt>0</asrwt>
<pdfrwt beam="2">  1        1 0.69955096E-02 0.15718604E+03</pdfrwt>
<pdfrwt beam="1">  1       -1 0.65026048E-01 0.15718604E+03</pdfrwt>
<totfact> 0.25290922E+03</totfact>
</mgrwt>
</event>
<event>
 6    1  0.6101889E-006  0.1253504E+03  0.7546771E-02  0.1250368E+00
          2   -1    0    0  501    0  0.00000000000E+00  0.00000000000E+00  0.40628769500E+03  0.40628769500E+03  0.00000000000E+00 0.  1.
         -2   -1    0    0    0  501 -0.00000000000E+00 -0.00000000000E+00 -0.31621921279E+02  0.31621921279E+02  0.00000000000E+00 0. -1.
          5    1    1    2  502    0  0.13242159533E+02 -0.23389987372E+02  0.10822732290E+01  0.27307647531E+02  0.47000000000E+01 0.  1.
         -5    1    1    2    0  502 -0.66905318045E+01  0.16807751896E+02  0.27806221120E+03  0.27868969669E+03  0.47000000000E+01 0.  1.
        -11    1    1    2    0    0 -0.19147371935E+01  0.28607560426E+02  0.10398505062E+03  0.10786542302E+03  0.00000000000E+00 0.  1.
         11    1    1    2    0    0 -0.46368905348E+01 -0.22025324950E+02 -0.84637613267E+01  0.24046849041E+02  0.00000000000E+00 0. -1.
<mgrwt>
<rscale>  0 0.11569789E+03</rscale>
<asrwt>0</asrwt>
<pdfrwt beam="1">  1        2 0.62505796E-01 0.12535043E+03</pdfrwt>
<pdfrwt beam="2">  1       -2 0.48649112E-02 0.12535043E+03</pdfrwt>
<totfact> 0.15002272E+04</totfact>
</mgrwt>
</event>
<event>
 6    1  0.6101889E-006  0.1358166E+03  0.7546771E-02  0.1230201E+00
          1   -1    0    0  501    0  0.00000000000E+00  0.00000000000E+00  0.23964250525E+03  0.23964250525E+03  0.00000000000E+00 0. -1.
         -1   -1    0    0    0  501 -0.00000000000E+00 -0.00000000000E+00 -0.67503949670E+02  0.67503949670E+02  0.00000000000E+00 0.  1.
          5    1    1    2  502    0  0.28032939225E+02  0.12037611595E+02 -0.16479369870E+02  0.34991561923E+02  0.47000000000E+01 0.  1.
         -5    1    1    2    0  502 -0.18699488802E+01  0.34184154436E+02  0.15575890982E+03  0.15954617235E+03  0.47000000000E+01 0.  1.
        -11    1    1    2    0    0 -0.20871969167E+02 -0.72665138131E+02  0.81646359191E+01  0.76042900235E+02  0.00000000000E+00 0.  1.
         11    1    1    2    0    0 -0.52910211777E+01  0.26443372100E+02  0.24694379715E+02  0.36565820415E+02  0.00000000000E+00 0. -1.
<mgrwt>
<rscale>  0 0.12816709E+03</rscale>
<asrwt>0</asrwt>
<pdfrwt beam="1">  1        1 0.36868077E-01 0.13581657E+03</pdfrwt>
<pdfrwt beam="2">  1       -1 0.10385223E-01 0.13581657E+03</pdfrwt>
<totfact> 0.63786068E+03</totfact>
</mgrwt>
</event>
<event>
 6    1  0.6101889E-006  0.1796784E+03  0.7546771E-02  0.1174073E+00
         -2   -1    0    0    0  501 -0.00000000000E+00  0.00000000000E+00  0.20809831509E+03  0.20809831509E+03  0.00000000000E+00 0. -1.
          2   -1    0    0  501    0  0.00000000000E+00 -0.00000000000E+00 -0.14791753919E+03  0.14791753919E+03  0.00000000000E+00 0.  1.
          5    1    1    2  502    0 -0.66857340829E+02  0.41993097838E+02  0.11617517200E+01  0.79099708949E+02  0.47000000000E+01 0.  1.
         -5    1    1    2    0  502 -0.55714722140E+02 -0.82447548490E+02 -0.19534185201E+02  0.10151553037E+03  0.47000000000E+01 0.  1.
        -11    1    1    2    0    0  0.49671084645E+02 -0.45902060710E+01 -0.11393151242E+02  0.51167279943E+02  0.00000000000E+00 0. -1.
         11    1    1    2    0    0  0.72900978324E+02  0.45044656723E+02  0.89946360623E+02  0.12423333502E+03  0.00000000000E+00 0.  1.
<mgrwt>
<rscale>  0 0.17367096E+03</rscale>
<asrwt>0</asrwt>
<pdfrwt beam="2">  1        2 0.22756545E-01 0.17967837E+03</pdfrwt>
<pdfrwt beam="1">  1       -2 0.32015125E-01 0.17967837E+03</pdfrwt>
<totfact> 0.21330918E+03</totfact>
</mgrwt>
</event>
<event>
 6    1  0.6101889E-006  0.1826800E+03  0.7546771E-02  0.1170686E+00
          2   -1    0    0  501    0  0.00000000000E+00  0.00000000000E+00  0.10246308847E+04  0.10246308847E+04  0.00000000000E+00 0. -1.
         -2   -1    0    0    0  501 -0.00000000000E+00 -0.00000000000E+00 -0.31452003012E+02  0.31452003012E+02  0.00000000000E+00 0.  1.
          5    1    1    2  502    0 -0.34630994068E+02  0.97161578293E+02  0.57823390064E+03  0.58738080655E+03  0.47000000000E+01 0. -1.
         -5    1    1    2    0  502 -0.56327834801E+02  0.27002468447E+00  0.98396057166E+02  0.11347586507E+03  0.47000000000E+01 0. -1.
        -11    1    1    2    0    0  0.10654908706E+03 -0.81432512036E+02  0.23395283713E+03  0.26966255204E+03  0.00000000000E+00 0.  1.
         11    1    1    2    0    0 -0.15590258192E+02 -0.15999090942E+02  0.82596086723E+02  0.85563664037E+02  0.00000000000E+00 0. -1.
<mgrwt>
<rscale>  0 0.17705297E+03</rscale>
<asrwt>0</asrwt>
<pdfrwt beam="1">  1        2 0.15763550E+00 0.18267998E+03</pdfrwt>
<pdfrwt beam="2">  1       -2 0.48387705E-02 0.18267998E+03</pdfrwt>
<totfact> 0.51492333E+03</totfact>
</mgrwt>
</event>
<event>
 6    1  0.6101889E-006  0.1251153E+03  0.7546771E-02  0.1250648E+00
          1   -1    0    0  501    0  0.00000000000E+00  0.00000000000E+00  0.11972240240E+04  0.11972240240E+04  0.00000000000E+00 0. -1.
         -1   -1    0    0    0  501 -0.00000000000E+00 -0.00000000000E+00 -0.32590021336E+02  0.32590021336E+02  0.00000000000E+00 0.  1.
          5    1    1    2  502    0 -0.25071466650E+02 -0.47786721464E+02  0.30521192322E+03  0.30998154342E+03  0.47000000000E+01 0. -1.
         -5    1    1    2    0  502  0.27876463299E+02  0.52636318795E+02  0.81746380704E+03  0.81964434060E+03  0.47000000000E+01 0. -1.
        -11    1    1    2    0    0 -0.45831494871E+02 -0.79381387269E+01  0.30268006536E+02  0.55494974441E+02  0.00000000000E+00 0.  1.
         11    1    1    2    0    0  0.43026498221E+02  0.30885413967E+01  0.11690265880E+02  0.44693186880E+02  0.00000000000E+00 0. -1.
<mgrwt>
<rscale>  0 0.11553621E+03</rscale>
<asrwt>0</asrwt>
<pdfrwt beam="1">  1        1 0.18418828E+00 0.12511532E+03</pdfrwt>
<pdfrwt beam="2">  1       -1 0.50138504E-02 0.12511532E+03</pdfrwt>
<totfact> 0.20036677E+03</totfact>
</mgrwt>
</event>
<event>
 6    1  0.6101889E-006  0.1791724E+03  0.7546771E-02  0.1174648E+00
         -2   -1    0    0    0  501 -0.00000000000E+00  0.00000000000E+00  0.71391930457E+02  0.71391930457E+02  0.00000000000E+00 0.  1.
          2   -1    0    0  501    0  0.00000000000E+00 -0.00000000000E+00 -0.49879271368E+03  0.49879271368E+03  0.00000000000E+00 0. -1.
          5    1    1    2  502    0  0.24929819978E+01  0.20446697255E+02 -0.86671491365E+01  0.22836196313E+02  0.47000000000E+01 0.  1.
         -5    1    1    2    0  502  0.80430325045E+02 -0.11843843558E+03 -0.34728202646E+03  0.37566420658E+03  0.47000000000E+01 0.  1.
        -11    1    1    2    0    0 -0.24776206652E+02  0.14606542147E+02  0.19930256619E+02  0.34991807877E+02  0.00000000000E+00 0.  1.
         11    1    1    2    0    0 -0.58147100390E+02  0.83385196174E+02 -0.91381864245E+02  0.13669243336E+03  0.00000000000E+00 0. -1.
<mgrwt>
<rscale>  0 0.17310541E+03</rscale>
<asrwt>0</asrwt>
<pdfrwt beam="2">  1        2 0.76737337E-01 0.17917242E+03</pdfrwt>
<pdfrwt beam="1">  1       -2 0.10983374E-01 0.17917242E+03</pdfrwt>
<totfact> 0.34977455E+03</totfact>
</mgrwt>
</event>
<event>
 6    1  0.6101889E-006  0.1459406E+03  0.7546771E-02  0.1214950E+00
          3   -1    0    0  501    0  0.00000000000E+00  0.00000000000E+00  0.12203469716E+03  0.12203469716E+03  0.00000000000E+00 0. -1.
         -3   -1    0    0    0  501 -0.00000000000E+00 -0.00000000000E+00 -0.14517370728E+03  0.14517370728E+03  0.00000000000E+00 0.  1.
          5    1    1    2  502    0 -0.36454087961E+02 -0.41108450580E+02 -0.10163230566E+02  0.56073046053E+02  0.47000000000E+01 0. -1.
         -5    1    1    2    0  502 -0.23933327046E+02  0.86133546934E+02  0.80628811937E+01  0.89882657416E+02  0.47000000000E+01 0. -1.
        -11    1    1    2    0    0  0.50005287840E+02 -0.72378464659E+02 -0.55476311095E+01  0.88147303812E+02  0.00000000000E+00 0. -1.
         11    1    1    2    0    0  0.10382127167E+02  0.27353368305E+02 -0.15491029636E+02  0.33105397163E+02  0.00000000000E+00 0.  1.
<mgrwt>
<rscale>  0 0.13880192E+03</rscale>
<asrwt>0</asrwt>
<pdfrwt beam="1">  1        3 0.18774569E-01 0.14594059E+03</pdfrwt>
<pdfrwt beam="2">  1       -3 0.22334417E-01 0.14594059E+03</pdfrwt>
<totfact> 0.10778078E+03</totfact>
</mgrwt>
</event>
<event>
 6    1  0.6101889E-006  0.1341917E+03  0.7546771E-02  0.1234089E+00
         -1   -1    0    0    0  501 -0.00000000000E+00  0.00000000000E+00  0.14581348922E+02  0.14581348922E+02  0.00000000000E+00 0.  1.
          1   -1    0    0  501    0  0.00000000000E+00 -0.00000000000E+00 -0.10735226599E+04  0.10735226599E+04  0.00000000000E+00 0. -1.
          5    1    1    2  502    0  0.16245220600E+02  0.69781228027E+02 -0.53149955188E+03  0.53632750315E+03  0.47000000000E+01 0. -1.
         -5    1    1    2    0  502  0.28045473080E+02 -0.49268810235E+02 -0.23181252801E+03  0.23869039018E+03  0.47000000000E+01 0. -1.
        -11    1    1    2    0    0 -0.49209613970E+02  0.11994869658E+02 -0.25883011791E+03  0.26373944139E+03  0.00000000000E+00 0. -1.
         11    1    1    2    0    0  0.49189202906E+01 -0.32507287450E+02 -0.36799113129E+02  0.49346674064E+02  0.00000000000E+00 0.  1.
<mgrwt>
<rscale>  0 0.12562954E+03</rscale>
<asrwt>0</asrwt>
<pdfrwt beam="2">  1        1 0.16515734E+00 0.13419167E+03</pdfrwt>
<pdfrwt beam="1">  1       -1 0.22432844E-02 0.13419167E+03</pdfrwt>
<totfact> 0.79185087E+03</totfact>
</mgrwt>
</event>
<event>
 6    1  0.6101889E-006  0.2990853E+03  0.7546771E-02  0.1085699E+00
          1   -1    0    0  501    0  0.00000000000E+00  0.00000000000E+00  0.39031349617E+03  0.39031349617E+03  0.00000000000E+00 0. -1.
         -1   -1    0    0    0  501 -0.00000000000E+00 -0.00000000000E+00 -0.57294998371E+02  0.57294998371E+02  0.00000000000E+00 0.  1.
          5    1    1    2  502    0 -0.62953707244E+01  0.17152051383E+02 -0.87688607801E+01  0.20804025538E+02  0.47000000000E+01 0.  1.
         -5    1    1    2    0  502  0.62746634412E+02  0.50968919534E+02  0.27131092578E+03  0.28313720938E+03  0.47000000000E+01 0.  1.
        -11    1    1    2    0    0 -0.67710579675E+02 -0.31939355264E+02  0.74430277426E+02  0.10556851430E+03  0.00000000000E+00 0.  1.
         11    1    1    2    0    0  0.11259315987E+02 -0.36181615653E+02 -0.39538446238E+01  0.38098745321E+02  0.00000000000E+00 0. -1.
<mgrwt>
<rscale>  0 0.29908535E+03</rscale>
<asrwt>0</asrwt>
<pdfrwt beam="1">  1        1 0.60048229E-01 0.29908535E+03</pdfrwt>
<pdfrwt beam="2">  1       -1 0.88146154E-02 0.29908535E+03</pdfrwt>
<totfact> 0.46277143E+03</totfact>
</mgrwt>
</event>
<event>
 6    1  0.6101889E-006  0.1333327E+03  0.7546771E-02  0.1233845E+00
          2   -1    0    0  501    0  0.00000000000E+00  0.00000000000E+00  0.53554670685E+03  0.53554670685E+03  0.00000000000E+00 0. -1.
         -2   -1    0    0    0  501 -0.00000000000E+00 -0.00000000000E+00 -0.28119480236E+02  0.28119480236E+02  0.00000000000E+00 0.  1.
          5    1    1    2  502    0  0.47013096067E+02  0.23056295600E+02  0.19974730667E+03  0.20654999514E+03  0.47000000000E+01 0. -1.
         -5    1    1    2    0  502 -0.72957163542E+02  0.15411763684E+02  0.14580557721E+03  0.16383414332E+03  0.47000000000E+01 0. -1.
        -11    1    1    2    0    0  0.47988326873E+02 -0.22736733244E+02  0.35115930866E+02  0.63662918212E+02  0.00000000000E+00 0.  1.
         11    1    1    2    0    0 -0.22044259399E+02 -0.15731326040E+02  0.12675841187E+03  0.12961913042E+03  0.00000000000E+00 0. -1.
<mgrwt>
<rscale>  0 0.12578665E+03</rscale>
<asrwt>0</asrwt>
<pdfrwt beam="1">  1        2 0.82391794E-01 0.13333272E+03</pdfrwt>
<pdfrwt beam="2">  1       -2 0.43260743E-02 0.13333272E+03</pdfrwt>
<totfact> 0.13309525E+04</totfact>
</mgrwt>
</event>
<event>
 6    1  0.6101889E-006  0.2095154E+03  0.7546771E-02  0.1146334E+00
          1   -1    0    0  501    0  0.00000000000E+00  0.00000000000E+00  0.13449377247E+04  0.13449377247E+04  0.00000000000E+00 0. -1.
         -1   -1    0    0    0  501 -0.00000000000E+00 -0.00000000000E+00 -0.29903224512E+02  0.29903224512E+02  0.00000000000E+00 0.  1.
          5    1    1    2  502    0 -0.12294858430E+03 -0.66540954847E+02  0.66142769009E+03  0.67605675226E+03  0.47000000000E+01 0. -1.
         -5    1    1    2    0  502  0.11180754444E+02 -0.54884985486E+02  0.11294461006E+03  0.12615841567E+03  0.47000000000E+01 0.  1.
        -11    1    1    2    0    0 -0.10535772716E+02 -0.54656017278E+01  0.24897924406E+02  0.27582275989E+02  0.00000000000E+00 0. -1.
         11    1    1    2    0    0  0.12230360258E+03  0.12689154206E+03  0.51576427559E+03  0.54504350526E+03  0.00000000000E+00 0.  1.
<mgrwt>
<rscale>  0 0.20408913E+03</rscale>
<asrwt>0</asrwt>
<pdfrwt beam="1">  1        1 0.20691345E+00 0.20951543E+03</pdfrwt>
<pdfrwt beam="2">  1       -1 0.46004971E-02 0.20951543E+03</pdfrwt>
<totfact> 0.18143782E+03</totfact>
</mgrwt>
</event>
<event>
 6    1  0.6101889E-006  0.1748131E+03  0.7546771E-02  0.1178803E+00
          1   -1    0    0  501    0  0.00000000000E+00  0.00000000000E+00  0.84341725841E+03  0.84341725841E+03  0.00000000000E+00 0. -1.
         -1   -1    0    0    0  501 -0.00000000000E+00 -0.00000000000E+00 -0.33076713409E+02  0.33076713409E+02  0.00000000000E+00 0.  1.
          5    1    1    2  502    0  0.22107949596E+02 -0.73371285258E+02  0.11113741322E+03  0.13507672469E+03  0.47000000000E+01 0. -1.
         -5    1    1    2    0  502 -0.41706357488E+02 -0.47251778971E+02  0.40401829137E+03  0.40893155984E+03  0.47000000000E+01 0. -1.
        -11    1    1    2    0    0  0.45966056584E+02  0.88216552230E+02  0.13977249336E+03  0.17155578785E+03  0.00000000000E+00 0.  1.
         11    1    1    2    0    0 -0.26367648691E+02  0.32406511999E+02  0.15541234705E+03  0.16092989944E+03  0.00000000000E+00 0. -1.
<mgrwt>
<rscale>  0 0.16908760E+03</rscale>
<asrwt>0</asrwt>
<pdfrwt beam="1">  1        1 0.12975649E+00 0.17481308E+03</pdfrwt>
<pdfrwt beam="2">  1       -1 0.50887258E-02 0.17481308E+03</pdfrwt>
<totfact> 0.35860689E+03</totfact>
</mgrwt>
</event>
<event>
 6    1  0.6101889E-006  0.1382215E+03  0.7546771E-02  0.1227375E+00
          2   -1    0    0  501    0  0.00000000000E+00  0.00000000000E+00  0.37254427018E+03  0.37254427018E+03  0.00000000000E+00 0.  1.
         -2   -1    0    0    0  501 -0.00000000000E+00 -0.00000000000E+00 -0.43303036971E+02  0.43303036971E+02  0.00000000000E+00 0. -1.
          5    1    1    2  502    0  0.25895521631E+02 -0.32707465471E+02  0.10109800382E+03  0.10946804426E+03  0.47000000000E+01 0.  1.
         -5    1    1    2    0  502 -0.18110297896E+02  0.91203714482E+02  0.13202183261E+03  0.16154861408E+03  0.47000000000E+01 0.  1.
        -11    1    1    2    0    0  0.15349275781E+02 -0.36360442576E+01 -0.13054526812E+02  0.20475393895E+02  0.00000000000E+00 0. -1.
         11    1    1    2    0    0 -0.23134499516E+02 -0.54860204753E+02  0.10917592358E+03  0.12435525491E+03  0.00000000000E+00 0.  1.
<mgrwt>
<rscale>  0 0.13005419E+03</rscale>
<asrwt>0</asrwt>
<pdfrwt beam="1">  1        2 0.57314501E-01 0.13822146E+03</pdfrwt>
<pdfrwt beam="2">  1       -2 0.66620059E-02 0.13822146E+03</pdfrwt>
<totfact> 0.10311794E+04</totfact>
</mgrwt>
</event>
<event>
 6    1  0.6101889E-006  0.1885042E+03  0.7546771E-02  0.1168903E+00
          2   -1    0    0  501    0  0.00000000000E+00  0.00000000000E+00  0.14494078131E+04  0.14494078131E+04  0.00000000000E+00 0. -1.
         -2   -1    0    0    0  501 -0.00000000000E+00 -0.00000000000E+00 -0.32404326393E+02  0.32404326393E+02  0.00000000000E+00 0.  1.
          5    1    1    2  502    0 -0.14551722697E+01 -0.37102059543E+02  0.95420471297E+03  0.95493842974E+03  0.47000000000E+01 0. -1.
         -5    1    1    2    0  502  0.35772768349E+02 -0.77279562700E+02  0.25533860588E+03  0.26920571209E+03  0.47000000000E+01 0.  1.
        -11    1    1    2    0    0 -0.49779864995E+02  0.82791631532E+02  0.19942369228E+03  0.22159038393E+03  0.00000000000E+00 0.  1.
         11    1    1    2    0    0  0.15462268915E+02  0.31589990710E+02  0.80364755864E+01  0.36077613736E+02  0.00000000000E+00 0. -1.
<mgrwt>
<rscale>  0 0.17886848E+03</rscale>
<asrwt>0</asrwt>
<pdfrwt beam="1">  1        2 0.22298577E+00 0.18850422E+03</pdfrwt>
<pdfrwt beam="2">  1       -2 0.49852821E-02 0.18850422E+03</pdfrwt>
<totfact> 0.28522296E+03</totfact>
</mgrwt>
</event>
<event>
 6    1  0.6101889E-006  0.3398747E+03  0.7546771E-02  0.1066849E+00
          2   -1    0    0  501    0  0.00000000000E+00  0.00000000000E+00  0.22343429914E+03  0.22343429914E+03  0.00000000000E+00 0. -1.
         -2   -1    0    0    0  501 -0.00000000000E+00 -0.00000000000E+00 -0.12924916276E+03  0.12924916276E+03  0.00000000000E+00 0.  1.
          5    1    1    2  502    0 -0.93580513543E+02  0.38920186464E+02  0.13750481443E+03  0.17088521709E+03  0.47000000000E+01 0. -1.
         -5    1    1    2    0  502  0.38883573012E+01 -0.91608802109E+01 -0.21450032448E+02  0.24108814586E+02  0.47000000000E+01 0. -1.
        -11    1    1    2    0    0  0.90830399752E+02  0.28744128791E+02 -0.26799360210E+02  0.98967631914E+02  0.00000000000E+00 0.  1.
         11    1    1    2    0    0 -0.11382435109E+01 -0.58503435044E+02  0.49297146152E+01  0.58721798307E+02  0.00000000000E+00 0. -1.
<mgrwt>
<rscale>  0 0.33987466E+03</rscale>
<asrwt>0</asrwt>
<pdfrwt beam="1">  1        2 0.34374508E-01 0.33987466E+03</pdfrwt>
<pdfrwt beam="2">  1       -2 0.19884487E-01 0.33987466E+03</pdfrwt>
<totfact> 0.32124311E+03</totfact>
</mgrwt>
</event>
<event>
 6    1  0.6101889E-006  0.1599290E+03  0.7546771E-02  0.1196238E+00
          1   -1    0    0  501    0  0.00000000000E+00  0.00000000000E+00  0.14469783043E+04  0.14469783043E+04  0.00000000000E+00 0. -1.
         -1   -1    0    0    0  501 -0.00000000000E+00 -0.00000000000E+00 -0.24258686378E+02  0.24258686378E+02  0.00000000000E+00 0.  1.
          5    1    1    2  502    0  0.20016164776E+02  0.44024491080E+02  0.10143211826E+04  0.10154842953E+04  0.47000000000E+01 0.  1.
         -5    1    1    2    0  502  0.55922713435E+02  0.20660020545E+02  0.18430704345E+03  0.19376625762E+03  0.47000000000E+01 0.  1.
        -11    1    1    2    0    0 -0.75117215828E+02 -0.29545443381E+02  0.79912191984E+02  0.11358471625E+03  0.00000000000E+00 0.  1.
         11    1    1    2    0    0 -0.82166238285E+00 -0.35139068244E+02  0.14417919997E+03  0.14840172152E+03  0.00000000000E+00 0. -1.
<mgrwt>
<rscale>  0 0.15349930E+03</rscale>
<asrwt>0</asrwt>
<pdfrwt beam="1">  1        1 0.22261198E+00 0.15992897E+03</pdfrwt>
<pdfrwt beam="2">  1       -1 0.37321067E-02 0.15992897E+03</pdfrwt>
<totfact> 0.21138613E+03</totfact>
</mgrwt>
</event>
<event>
 6    1  0.6101889E-006  0.1426044E+03  0.7546771E-02  0.1225958E+00
          1   -1    0    0  501    0  0.00000000000E+00  0.00000000000E+00  0.14543144855E+04  0.14543144855E+04  0.00000000000E+00 0. -1.
         -1   -1    0    0    0  501 -0.00000000000E+00 -0.00000000000E+00 -0.11054859308E+02  0.11054859308E+02  0.00000000000E+00 0.  1.
          5    1    1    2  502    0  0.36801956456E+02  0.36311184892E+02  0.56787769466E+03  0.57024560695E+03  0.47000000000E+01 0. -1.
         -5    1    1    2    0  502 -0.81708053489E+02  0.15593398207E+02  0.46107762715E+03  0.46854458521E+03  0.47000000000E+01 0. -1.
        -11    1    1    2    0    0 -0.12588541410E+02 -0.67971146152E+01  0.15334248257E+02  0.20971678797E+02  0.00000000000E+00 0.  1.
         11    1    1    2    0    0  0.57494638444E+02 -0.45107468484E+02  0.39897005609E+03  0.40560747382E+03  0.00000000000E+00 0. -1.
<mgrwt>
<rscale>  0 0.13101428E+03</rscale>
<asrwt>0</asrwt>
<pdfrwt beam="1">  1        1 0.22374054E+00 0.14260438E+03</pdfrwt>
<pdfrwt beam="2">  1       -1 0.17007487E-02 0.14260438E+03</pdfrwt>
<totfact> 0.65405550E+03</totfact>
</mgrwt>
</event>
<event>
 6    1  0.6101889E-006  0.1355356E+03  0.7546771E-02  0.1232157E+00
          1   -1    0    0  501    0  0.00000000000E+00  0.00000000000E+00  0.43702102679E+03  0.43702102679E+03  0.00000000000E+00 0. -1.
         -1   -1    0    0    0  501 -0.00000000000E+00 -0.00000000000E+00 -0.38592206137E+02  0.38592206137E+02  0.00000000000E+00 0.  1.
          5    1    1    2  502    0  0.16066831271E+02 -0.44422829983E+02  0.10297081667E+03  0.11338699210E+03  0.47000000000E+01 0.  1.
         -5    1    1    2    0  502  0.15015468888E+02  0.86530590012E+02  0.20954839127E+03  0.22725673939E+03  0.47000000000E+01 0.  1.
        -11    1    1    2    0    0 -0.55647498033E+02 -0.95473578231E+01  0.72796916567E+02  0.92125930880E+02  0.00000000000E+00 0.  1.
         11    1    1    2    0    0  0.24565197873E+02 -0.32560402205E+02  0.13112696145E+02  0.42843570562E+02  0.00000000000E+00 0. -1.
<mgrwt>
<rscale>  0 0.12688204E+03</rscale>
<asrwt>0</asrwt>
<pdfrwt beam="1">  1        1 0.67234001E-01 0.13553559E+03</pdfrwt>
<pdfrwt beam="2">  1       -1 0.59372628E-02 0.13553559E+03</pdfrwt>
<totfact> 0.70090740E+03</totfact>
</mgrwt>
</event>
<event>
 6    1  0.6101889E-006  0.1531288E+03  0.7546771E-02  0.1205321E+00
          2   -1    0    0  501    0  0.00000000000E+00  0.00000000000E+00  0.46772629329E+03  0.46772629329E+03  0.00000000000E+00 0. -1.
         -2   -1    0    0    0  501 -0.00000000000E+00 -0.00000000000E+00 -0.49739910400E+02  0.49739910400E+02  0.00000000000E+00 0.  1.
          5    1    1    2  502    0 -0.56933106035E+02  0.91939429366E+02  0.30695120968E+03  0.32547714568E+03  0.47000000000E+01 0.  1.
         -5    1    1    2    0  502 -0.50519419124E+01 -0.28841911141E+02  0.20624741152E+02  0.36122678513E+02  0.47000000000E+01 0.  1.
        -11    1    1    2    0    0  0.23388230389E+02 -0.80958837149E+02  0.63819723022E+02  0.10570856011E+03  0.00000000000E+00 0. -1.
         11    1    1    2    0    0  0.38596817559E+02  0.17861318923E+02  0.26590709039E+02  0.50157819396E+02  0.00000000000E+00 0.  1.
<mgrwt>
<rscale>  0 0.14612154E+03</rscale>
<asrwt>0</asrwt>
<pdfrwt beam="1">  1        2 0.71957888E-01 0.15312880E+03</pdfrwt>
<pdfrwt beam="2">  1       -2 0.76522942E-02 0.15312880E+03</pdfrwt>
<totfact> 0.65681990E+03</totfact>
</mgrwt>
</event>
<event>
 6    1  0.6101889E-006  0.1595352E+03  0.7546771E-02  0.1196917E+00
         -2   -1    0    0    0  501 -0.00000000000E+00  0.00000000000E+00  0.10082367647E+03  0.10082367647E+03  0.00000000000E+00 0.  1.
          2   -1    0    0  501    0  0.00000000000E+00 -0.00000000000E+00 -0.42879144736E+03  0.42879144736E+03  0.00000000000E+00 0. -1.
          5    1    1    2  502    0 -0.21034437110E+02 -0.22164463496E+02 -0.99120361525E+02  0.10382989481E+03  0.47000000000E+01 0. -1.
         -5    1    1    2    0  502  0.11646918233E+03  0.48968301069E+02 -0.25857514562E+03  0.28783009028E+03  0.47000000000E+01 0. -1.
        -11    1    1    2    0    0 -0.71788001306E+02 -0.14931755310E+02  0.62140266141E+02  0.96113927837E+02  0.00000000000E+00 0.  1.
         11    1    1    2    0    0 -0.23646743917E+02 -0.11872082262E+02 -0.32412529891E+02  0.41841210894E+02  0.00000000000E+00 0. -1.
<mgrwt>
<rscale>  0 0.15293101E+03</rscale>
<asrwt>0</asrwt>
<pdfrwt beam="2">  1        2 0.65967914E-01 0.15953516E+03</pdfrwt>
<pdfrwt beam="1">  1       -2 0.15511335E-01 0.15953516E+03</pdfrwt>
<totfact> 0.23508823E+03</totfact>
</mgrwt>
</event>
<event>
 6    1  0.6101889E-006  0.1336246E+03  0.7546771E-02  0.1234059E+00
          1   -1    0    0  501    0  0.00000000000E+00  0.00000000000E+00  0.26353629295E+03  0.26353629295E+03  0.00000000000E+00 0. -1.
         -1   -1    0    0    0  501 -0.00000000000E+00 -0.00000000000E+00 -0.54769157353E+02  0.54769157353E+02  0.00000000000E+00 0.  1.
          5    1    1    2  502    0 -0.62784311923E+02  0.24379643964E+02  0.12970650823E+03  0.14622621222E+03  0.47000000000E+01 0. -1.
         -5    1    1    2    0  502  0.18161836436E+02 -0.41157733679E+02  0.85161863259E+01  0.46026370418E+02  0.47000000000E+01 0. -1.
        -11    1    1    2    0    0 -0.14707184212E+02 -0.21584443065E+02  0.42817567030E+02  0.50155094419E+02  0.00000000000E+00 0. -1.
         11    1    1    2    0    0  0.59329659698E+02  0.38362532780E+02  0.27726874014E+02  0.75897773247E+02  0.00000000000E+00 0.  1.
<mgrwt>
<rscale>  0 0.12564840E+03</rscale>
<asrwt>0</asrwt>
<pdfrwt beam="1">  1        1 0.40544044E-01 0.13362463E+03</pdfrwt>
<pdfrwt beam="2">  1       -1 0.84260244E-02 0.13362463E+03</pdfrwt>
<totfact> 0.77853411E+03</totfact>
</mgrwt>
</event>
<event>
 6    1  0.6101889E-006  0.2074607E+03  0.7546771E-02  0.1147693E+00
          1   -1    0    0  501    0  0.00000000000E+00  0.00000000000E+00  0.44452729353E+03  0.44452729353E+03  0.00000000000E+00 0. -1.
         -1   -1    0    0    0  501 -0.00000000000E+00 -0.00000000000E+00 -0.88421959287E+02  0.88421959287E+02  0.00000000000E+00 0.  1.
          5    1    1    2  502    0  0.24949079864E+02  0.44504175480E+02  0.14870927199E+03  0.15728832060E+03  0.47000000000E+01 0.  1.
         -5    1    1    2    0  502  0.11158424554E+03  0.49165975179E+02  0.56338010870E+02  0.13440386317E+03  0.47000000000E+01 0.  1.
        -11    1    1    2    0    0 -0.36293309666E+02 -0.20041464507E+02  0.97293170769E+02  0.10575833634E+03  0.00000000000E+00 0. -1.
         11    1    1    2    0    0 -0.10024001573E+03 -0.73628686152E+02  0.53764880617E+02  0.13549873271E+03  0.00000000000E+00 0.  1.
<mgrwt>
<rscale>  0 0.20244473E+03</rscale>
<asrwt>0</asrwt>
<pdfrwt beam="1">  1        1 0.68388813E-01 0.20746070E+03</pdfrwt>
<pdfrwt beam="2">  1       -1 0.13603379E-01 0.20746070E+03</pdfrwt>
<totfact> 0.19681647E+03</totfact>
</mgrwt>
</event>
<event>
 6    1  0.6101889E-006  0.1820083E+03  0.7546771E-02  0.1186031E+00
         -2   -1    0    0    0  501 -0.00000000000E+00  0.00000000000E+00  0.11616153395E+03  0.11616153395E+03  0.00000000000E+00 0.  1.
          2   -1    0    0  501    0  0.00000000000E+00 -0.00000000000E+00 -0.19108785464E+03  0.19108785464E+03  0.00000000000E+00 0. -1.
          5    1    1    2  502    0 -0.19256157878E+02  0.85048985883E+02 -0.80109049152E+02  0.11850603095E+03  0.47000000000E+01 0. -1.
         -5    1    1    2    0  502 -0.40582093079E+02 -0.53802450780E+02  0.24416615601E+02  0.71832242802E+02  0.47000000000E+01 0.  1.
        -11    1    1    2    0    0 -0.14632787099E+02 -0.33080727457E+02 -0.22051626014E+02  0.42364220720E+02  0.00000000000E+00 0.  1.
         11    1    1    2    0    0  0.74471038055E+02  0.18341923533E+01  0.28177388742E+01  0.74546894120E+02  0.00000000000E+00 0. -1.
<mgrwt>
<rscale>  0 0.16238381E+03</rscale>
<asrwt>0</asrwt>
<pdfrwt beam="2">  1        2 0.29398131E-01 0.18200827E+03</pdfrwt>
<pdfrwt beam="1">  1       -2 0.17871006E-01 0.18200827E+03</pdfrwt>
<totfact> 0.44535970E+03</totfact>
</mgrwt>
</event>
<event>
 6    1  0.6101889E-006  0.1300825E+03  0.7546771E-02  0.1242861E+00
          3   -1    0    0  501    0  0.00000000000E+00  0.00000000000E+00  0.13866550973E+03  0.13866550973E+03  0.00000000000E+00 0. -1.
         -3   -1    0    0    0  501 -0.00000000000E+00 -0.00000000000E+00 -0.14615362403E+03  0.14615362403E+03  0.00000000000E+00 0.  1.
          5    1    1    2  502    0 -0.51447743055E+02  0.18742897337E+02 -0.62978566525E+01  0.55316538797E+02  0.47000000000E+01 0. -1.
         -5    1    1    2    0  502  0.40678670883E+02 -0.13176824671E+02  0.88942448802E+02  0.98798948234E+02  0.47000000000E+01 0.  1.
        -11    1    1    2    0    0  0.51755670444E+02 -0.11986234876E+02 -0.52559017688E+02  0.74731315993E+02  0.00000000000E+00 0.  1.
         11    1    1    2    0    0 -0.40986598272E+02  0.64201622103E+01 -0.37573688757E+02  0.55972330731E+02  0.00000000000E+00 0. -1.
<mgrwt>
<rscale>  0 0.12014338E+03</rscale>
<asrwt>0</asrwt>
<pdfrwt beam="1">  1        3 0.21333155E-01 0.13008249E+03</pdfrwt>
<pdfrwt beam="2">  1       -3 0.22485173E-01 0.13008249E+03</pdfrwt>
<totfact> 0.83534889E+02</totfact>
</mgrwt>
</event>
<event>
 6    1  0.6101889E-006  0.1842842E+03  0.7546771E-02  0.1169666E+00
          2   -1    0    0  501    0  0.00000000000E+00  0.00000000000E+00  0.24690855374E+03  0.24690855374E+03  0.00000000000E+00 0. -1.
         -2   -1    0    0    0  501 -0.00000000000E+00 -0.00000000000E+00 -0.13058110320E+03  0.13058110320E+03  0.00000000000E+00 0.  1.
          5    1    1    2  502    0  0.22978202693E+02  0.16096869388E+02 -0.13624002133E+02  0.31540615676E+02  0.47000000000E+01 0. -1.
         -5    1    1    2    0  502  0.70641330425E+02 -0.11391026107E+03  0.12772958740E+03  0.18520983407E+03  0.47000000000E+01 0. -1.
        -11    1    1    2    0    0 -0.10999185343E+03  0.89448621079E+02 -0.23599342724E+01  0.14179151217E+03  0.00000000000E+00 0.  1.
         11    1    1    2    0    0  0.16372320313E+02  0.83647705990E+01  0.45817995528E+01  0.18947695025E+02  0.00000000000E+00 0. -1.
<mgrwt>
<rscale>  0 0.17808863E+03</rscale>
<asrwt>0</asrwt>
<pdfrwt beam="1">  1        2 0.37985931E-01 0.18428422E+03</pdfrwt>
<pdfrwt beam="2">  1       -2 0.20089400E-01 0.18428422E+03</pdfrwt>
<totfact> 0.27688272E+03</totfact>
</mgrwt>
</event>
<event>
 6    1  0.6101889E-006  0.4410788E+03  0.7546771E-02  0.1030416E+00
         -1   -1    0    0    0  501 -0.00000000000E+00  0.00000000000E+00  0.87714807548E+02  0.87714807548E+02  0.00000000000E+00 0.  1.
          1   -1    0    0  501    0  0.00000000000E+00 -0.00000000000E+00 -0.55449745568E+03  0.55449745568E+03  0.00000000000E+00 0. -1.
          5    1    1    2  502    0  0.12823252726E+03 -0.62081729137E+02 -0.24081711493E+03  0.27984405476E+03  0.47000000000E+01 0. -1.
         -5    1    1    2    0  502  0.15637861250E+02  0.30259637036E+02 -0.17947510792E+03  0.18273913839E+03  0.47000000000E+01 0. -1.
        -11    1    1    2    0    0 -0.86367104840E+02  0.57471957145E+02 -0.52698625547E+02  0.11635913282E+03  0.00000000000E+00 0. -1.
         11    1    1    2    0    0 -0.57503283674E+02 -0.25649865045E+02  0.62082002599E+01  0.63269937258E+02  0.00000000000E+00 0.  1.
<mgrwt>
<rscale>  0 0.44107885E+03</rscale>
<asrwt>0</asrwt>
<pdfrwt beam="2">  1        1 0.85307299E-01 0.44107885E+03</pdfrwt>
<pdfrwt beam="1">  1       -1 0.13494586E-01 0.44107885E+03</pdfrwt>
<totfact> 0.14975924E+03</totfact>
</mgrwt>
</event>
<event>
 6    1  0.6101889E-006  0.1382324E+03  0.7546771E-02  0.1227303E+00
          2   -1    0    0  501    0  0.00000000000E+00  0.00000000000E+00  0.66814594598E+03  0.66814594598E+03  0.00000000000E+00 0. -1.
         -2   -1    0    0    0  501 -0.00000000000E+00 -0.00000000000E+00 -0.25547324004E+02  0.25547324004E+02  0.00000000000E+00 0.  1.
          5    1    1    2  502    0 -0.38689060166E+02  0.29772311136E+02  0.24617510227E+03  0.25101295756E+03  0.47000000000E+01 0. -1.
         -5    1    1    2    0  502  0.12070491236E+02 -0.82451225323E+02  0.22322388050E+03  0.23831678946E+03  0.47000000000E+01 0. -1.
        -11    1    1    2    0    0  0.41408226329E+02 -0.10891241322E+02  0.60289275832E+02  0.73946312454E+02  0.00000000000E+00 0.  1.
         11    1    1    2    0    0 -0.14789657400E+02  0.63570155510E+02  0.11291036338E+03  0.13041721050E+03  0.00000000000E+00 0. -1.
<mgrwt>
<rscale>  0 0.13010307E+03</rscale>
<asrwt>0</asrwt>
<pdfrwt beam="1">  1        2 0.10279167E+00 0.13823240E+03</pdfrwt>
<pdfrwt beam="2">  1       -2 0.39303581E-02 0.13823240E+03</pdfrwt>
<totfact> 0.11964812E+04</totfact>
</mgrwt>
</event>
<event>
 6    1  0.6101889E-006  0.1416143E+03  0.7546771E-02  0.1222229E+00
         -2   -1    0    0    0  501 -0.00000000000E+00  0.00000000000E+00  0.55983572964E+02  0.55983572964E+02  0.00000000000E+00 0. -1.
          2   -1    0    0  501    0  0.00000000000E+00 -0.00000000000E+00 -0.35963427511E+03  0.35963427511E+03  0.00000000000E+00 0.  1.
          5    1    1    2  502    0  0.70350660381E+02  0.15084363696E+02 -0.20299724506E+03  0.21542220161E+03  0.47000000000E+01 0.  1.
         -5    1    1    2    0  502 -0.16407593800E+02 -0.54038855777E+02 -0.55479330652E+02  0.79306072893E+02  0.47000000000E+01 0.  1.
        -11    1    1    2    0    0 -0.30854545827E+02  0.15841402277E+01 -0.65550369126E+02  0.72466291412E+02  0.00000000000E+00 0.  1.
         11    1    1    2    0    0 -0.23088520754E+02  0.37370351854E+02  0.20376242697E+02  0.48423282156E+02  0.00000000000E+00 0. -1.
<mgrwt>
<rscale>  0 0.13358656E+03</rscale>
<asrwt>0</asrwt>
<pdfrwt beam="2">  1        2 0.55328351E-01 0.14161432E+03</pdfrwt>
<pdfrwt beam="1">  1       -2 0.86128572E-02 0.14161432E+03</pdfrwt>
<totfact> 0.72211782E+03</totfact>
</mgrwt>
</event>
<event>
 6    1  0.6101889E-006  0.1276162E+03  0.7546771E-02  0.1251067E+00
         -1   -1    0    0    0  501 -0.00000000000E+00  0.00000000000E+00  0.74024949728E+02  0.74024949728E+02  0.00000000000E+00 0.  1.
          1   -1    0    0  501    0  0.00000000000E+00 -0.00000000000E+00 -0.21076091121E+03  0.21076091121E+03  0.00000000000E+00 0. -1.
          5    1    1    2  502    0 -0.24083746970E+02  0.37392456718E+02 -0.13706517887E+01  0.44745853147E+02  0.47000000000E+01 0. -1.
         -5    1    1    2    0  502 -0.73745232217E+00 -0.30385709110E+02 -0.15056319356E+03  0.15367238011E+03  0.47000000000E+01 0. -1.
        -11    1    1    2    0    0  0.58226505516E+01  0.24952415356E+02  0.35674083381E+02  0.43922278135E+02  0.00000000000E+00 0.  1.
         11    1    1    2    0    0  0.18998548741E+02 -0.31959162964E+02 -0.20476199520E+02  0.42445349550E+02  0.00000000000E+00 0. -1.
<mgrwt>
<rscale>  0 0.11529478E+03</rscale>
<asrwt>0</asrwt>
<pdfrwt beam="2">  1        1 0.32424756E-01 0.12761623E+03</pdfrwt>
<pdfrwt beam="1">  1       -1 0.11388454E-01 0.12761623E+03</pdfrwt>
<totfact> 0.64649875E+03</totfact>
</mgrwt>
</event>
<event>
 6    1  0.6101889E-006  0.1483084E+03  0.7546771E-02  0.1212472E+00
         -2   -1    0    0    0  501 -0.00000000000E+00  0.00000000000E+00  0.22881529482E+02  0.22881529482E+02  0.00000000000E+00 0.  1.
          2   -1    0    0  501    0  0.00000000000E+00 -0.00000000000E+00 -0.80982814172E+03  0.80982814172E+03  0.00000000000E+00 0. -1.
          5    1    1    2  502    0 -0.40650160947E+02  0.40145458550E+02 -0.29655076794E+03  0.30204062871E+03  0.47000000000E+01 0.  1.
         -5    1    1    2    0  502 -0.30195872898E+02 -0.76915393593E+02 -0.20818639325E+03  0.22403444567E+03  0.47000000000E+01 0.  1.
        -11    1    1    2    0    0  0.12821935889E+02  0.57035817533E+02 -0.13593729002E+03  0.14797443475E+03  0.00000000000E+00 0.  1.
         11    1    1    2    0    0  0.58024097956E+02 -0.20265882490E+02 -0.14627216102E+03  0.15866016207E+03  0.00000000000E+00 0. -1.
<mgrwt>
<rscale>  0 0.14063843E+03</rscale>
<asrwt>0</asrwt>
<pdfrwt beam="2">  1        2 0.12458892E+00 0.14830840E+03</pdfrwt>
<pdfrwt beam="1">  1       -2 0.35202361E-02 0.14830840E+03</pdfrwt>
<totfact> 0.11214585E+04</totfact>
</mgrwt>
</event>
<event>
 6    1  0.6101889E-006  0.1361716E+03  0.7546771E-02  0.1237220E+00
          1   -1    0    0  501    0  0.00000000000E+00  0.00000000000E+00  0.47050503856E+03  0.47050503856E+03  0.00000000000E+00 0. -1.
         -1   -1    0    0    0  501 -0.00000000000E+00 -0.00000000000E+00 -0.56044008962E+02  0.56044008962E+02  0.00000000000E+00 0.  1.
          5    1    1    2  502    0 -0.41499205028E+02  0.26576794407E+02  0.29760936546E+03  0.30169841635E+03  0.47000000000E+01 0. -1.
         -5    1    1    2    0  502  0.58440239033E+02 -0.31009646136E+02  0.11446127552E+03  0.13228882525E+03  0.47000000000E+01 0.  1.
        -11    1    1    2    0    0  0.23276706922E+01 -0.42077310637E+02  0.25378067222E+01  0.42217988870E+02  0.00000000000E+00 0.  1.
         11    1    1    2    0    0 -0.19268704697E+02  0.46510162367E+02 -0.14741809868E+00  0.50343817060E+02  0.00000000000E+00 0. -1.
<mgrwt>
<rscale>  0 0.12363366E+03</rscale>
<asrwt>0</asrwt>
<pdfrwt beam="1">  1        1 0.72385388E-01 0.13617163E+03</pdfrwt>
<pdfrwt beam="2">  1       -1 0.86221555E-02 0.13617163E+03</pdfrwt>
<totfact> 0.36429252E+03</totfact>
</mgrwt>
</event>
<event>
 6    1  0.6101889E-006  0.1402493E+03  0.7546771E-02  0.1224970E+00
         -2   -1    0    0    0  501 -0.00000000000E+00  0.00000000000E+00  0.39080461742E+02  0.39080461742E+02  0.00000000000E+00 0.  1.
          2   -1    0    0  501    0  0.00000000000E+00 -0.00000000000E+00 -0.62169634907E+03  0.62169634907E+03  0.00000000000E+00 0. -1.
          5    1    1    2  502    0  0.70335476393E+02 -0.25684582295E+02 -0.49319010734E+03  0.49886405862E+03  0.47000000000E+01 0. -1.
         -5    1    1    2    0  502 -0.20987796338E+02 -0.14451713140E+02 -0.18868375700E+02  0.32053786194E+02  0.47000000000E+01 0. -1.
        -11    1    1    2    0    0 -0.38748253300E+02  0.36676516876E+02 -0.91622586159E+02  0.10602496083E+03  0.00000000000E+00 0. -1.
         11    1    1    2    0    0 -0.10599426755E+02  0.34597785586E+01  0.21065181870E+02  0.23834005170E+02  0.00000000000E+00 0.  1.
<mgrwt>
<rscale>  0 0.13168929E+03</rscale>
<asrwt>0</asrwt>
<pdfrwt beam="2">  1        2 0.95645581E-01 0.14024931E+03</pdfrwt>
<pdfrwt beam="1">  1       -2 0.60123794E-02 0.14024931E+03</pdfrwt>
<totfact> 0.68792236E+03</totfact>
</mgrwt>
</event>
<event>
 6    1  0.6101889E-006  0.1551494E+03  0.7546771E-02  0.1202383E+00
          1   -1    0    0  501    0  0.00000000000E+00  0.00000000000E+00  0.39328654954E+02  0.39328654954E+02  0.00000000000E+00 0. -1.
         -1   -1    0    0    0  501 -0.00000000000E+00 -0.00000000000E+00 -0.51784044003E+03  0.51784044003E+03  0.00000000000E+00 0.  1.
          5    1    1    2  502    0  0.53964046171E+02  0.13188607505E+02 -0.78191853456E+02  0.96031836356E+02  0.47000000000E+01 0. -1.
         -5    1    1    2    0  502 -0.59808977462E+02  0.78534958202E+02 -0.17144824342E+03  0.19789250521E+03  0.47000000000E+01 0. -1.
        -11    1    1    2    0    0  0.46361518952E+02 -0.41536754799E+02 -0.14201503623E+03  0.15505793419E+03  0.00000000000E+00 0.  1.
         11    1    1    2    0    0 -0.40516587662E+02 -0.50186810908E+02 -0.86856651963E+02  0.10818681923E+03  0.00000000000E+00 0. -1.
<mgrwt>
<rscale>  0 0.14845621E+03</rscale>
<asrwt>0</asrwt>
<pdfrwt beam="1">  1        1 0.60505627E-02 0.15514941E+03</pdfrwt>
<pdfrwt beam="2">  1       -1 0.79667755E-01 0.15514941E+03</pdfrwt>
<totfact> 0.20529489E+03</totfact>
</mgrwt>
</event>
<event>
 6    1  0.6101889E-006  0.2532607E+03  0.7546771E-02  0.1113648E+00
         -1   -1    0    0    0  501 -0.00000000000E+00  0.00000000000E+00  0.10319808093E+03  0.10319808093E+03  0.00000000000E+00 0.  1.
          1   -1    0    0  501    0  0.00000000000E+00 -0.00000000000E+00 -0.59132922644E+03  0.59132922644E+03  0.00000000000E+00 0. -1.
          5    1    1    2  502    0  0.99189408844E+02  0.12468872229E+03 -0.12590370405E+03  0.20312471289E+03  0.47000000000E+01 0.  1.
         -5    1    1    2    0  502 -0.14197441019E+02  0.78535108163E+02 -0.15971729187E+03  0.17860860524E+03  0.47000000000E+01 0.  1.
        -11    1    1    2    0    0 -0.40204380506E+02 -0.26180129555E+02 -0.13207173831E+02  0.49761640206E+02  0.00000000000E+00 0.  1.
         11    1    1    2    0    0 -0.44787587319E+02 -0.17704370090E+03 -0.18930297576E+03  0.26303234903E+03  0.00000000000E+00 0. -1.
<mgrwt>
<rscale>  0 0.24945819E+03</rscale>
<asrwt>0</asrwt>
<pdfrwt beam="2">  1        1 0.90973727E-01 0.25326068E+03</pdfrwt>
<pdfrwt beam="1">  1       -1 0.15876628E-01 0.25326068E+03</pdfrwt>
<totfact> 0.10546293E+03</totfact>
</mgrwt>
</event>
<event>
 6    1  0.6101889E-006  0.1376866E+03  0.7546771E-02  0.1228514E+00
          1   -1    0    0  501    0  0.00000000000E+00  0.00000000000E+00  0.12274480995E+03  0.12274480995E+03  0.00000000000E+00 0. -1.
         -1   -1    0    0    0  501 -0.00000000000E+00 -0.00000000000E+00 -0.12870768918E+03  0.12870768918E+03  0.00000000000E+00 0.  1.
          5    1    1    2  502    0  0.79510052476E+02  0.15553179141E+02  0.56725973631E+02  0.99013513778E+02  0.47000000000E+01 0. -1.
         -5    1    1    2    0  502 -0.25312628271E+02  0.43374584662E+01 -0.31554467222E+02  0.40955061929E+02  0.47000000000E+01 0. -1.
        -11    1    1    2    0    0  0.10705029650E+02  0.21347872948E+02  0.80218217412E+01  0.25192835555E+02  0.00000000000E+00 0. -1.
         11    1    1    2    0    0 -0.64902453855E+02 -0.41238510556E+02 -0.39156207384E+02  0.86291087871E+02  0.00000000000E+00 0.  1.
<mgrwt>
<rscale>  0 0.12928959E+03</rscale>
<asrwt>0</asrwt>
<pdfrwt beam="1">  1        1 0.18883817E-01 0.13768659E+03</pdfrwt>
<pdfrwt beam="2">  1       -1 0.19801183E-01 0.13768659E+03</pdfrwt>
<totfact> 0.53824684E+03</totfact>
</mgrwt>
</event>
<event>
 6    1  0.6101889E-006  0.1301840E+03  0.7546771E-02  0.1243691E+00
         -2   -1    0    0    0  501 -0.00000000000E+00  0.00000000000E+00  0.95666149754E+01  0.95666149754E+01  0.00000000000E+00 0.  1.
          2   -1    0    0  501    0  0.00000000000E+00 -0.00000000000E+00 -0.15375002841E+04  0.15375002841E+04  0.00000000000E+00 0. -1.
          5    1    1    2  502    0  0.79424844566E+02 -0.21530732090E+02 -0.67060074946E+03  0.67564734406E+03  0.47000000000E+01 0.  1.
         -5    1    1    2    0  502 -0.45690121663E+02  0.78664698964E+01 -0.50179449330E+03  0.50395364080E+03  0.47000000000E+01 0.  1.
        -11    1    1    2    0    0  0.25304001093E+02  0.19981528212E+01 -0.50187891091E+02  0.56241528234E+02  0.00000000000E+00 0.  1.
         11    1    1    2    0    0 -0.59038723996E+02  0.11666109372E+02 -0.30535053525E+03  0.31122438596E+03  0.00000000000E+00 0. -1.
<mgrwt>
<rscale>  0 0.11964085E+03</rscale>
<asrwt>0</asrwt>
<pdfrwt beam="2">  1        2 0.23653843E+00 0.13018402E+03</pdfrwt>
<pdfrwt beam="1">  1       -2 0.14717874E-02 0.13018402E+03</pdfrwt>
<totfact> 0.15282006E+04</totfact>
</mgrwt>
</event>
<event>
 6    1  0.6101889E-006  0.1623980E+03  0.7546771E-02  0.1193233E+00
         -1   -1    0    0    0  501 -0.00000000000E+00  0.00000000000E+00  0.11170403308E+03  0.11170403308E+03  0.00000000000E+00 0.  1.
          1   -1    0    0  501    0  0.00000000000E+00 -0.00000000000E+00 -0.21472737127E+03  0.21472737127E+03  0.00000000000E+00 0. -1.
          5    1    1    2  502    0 -0.88175559703E+00 -0.57266244439E+02  0.28134577889E+02  0.63983159644E+02  0.47000000000E+01 0. -1.
         -5    1    1    2    0  502 -0.88351797447E+02  0.44960166943E+01 -0.44781194738E+02  0.99265803178E+02  0.47000000000E+01 0. -1.
        -11    1    1    2    0    0 -0.43984064293E+01  0.39132296589E+02 -0.45321955719E+02  0.60039672598E+02  0.00000000000E+00 0. -1.
         11    1    1    2    0    0  0.93631959474E+02  0.13637931156E+02 -0.41054765620E+02  0.10314276892E+03  0.00000000000E+00 0.  1.
<mgrwt>
<rscale>  0 0.15604736E+03</rscale>
<asrwt>0</asrwt>
<pdfrwt beam="2">  1        1 0.33034980E-01 0.16239801E+03</pdfrwt>
<pdfrwt beam="1">  1       -1 0.17185236E-01 0.16239801E+03</pdfrwt>
<totfact> 0.33679246E+03</totfact>
</mgrwt>
</event>
<event>
 6    1  0.6101889E-006  0.1286894E+03  0.7546771E-02  0.1243365E+00
          1   -1    0    0  501    0  0.00000000000E+00  0.00000000000E+00  0.49998092213E+03  0.49998092213E+03  0.00000000000E+00 0. -1.
         -1   -1    0    0    0  501 -0.00000000000E+00 -0.00000000000E+00 -0.36320625186E+02  0.36320625186E+02  0.00000000000E+00 0.  1.
          5    1    1    2  502    0 -0.39427372914E+02 -0.29585543132E+02  0.92314901637E+02  0.10475663779E+03  0.47000000000E+01 0.  1.
         -5    1    1    2    0  502  0.67189714853E+02  0.16804238093E+02  0.30837006698E+03  0.31608705827E+03  0.47000000000E+01 0.  1.
        -11    1    1    2    0    0  0.19096051710E+02  0.10468498553E+02 -0.13584331153E+02  0.25666762666E+02  0.00000000000E+00 0.  1.
         11    1    1    2    0    0 -0.46858393649E+02  0.23128064863E+01  0.76559659484E+02  0.89791088587E+02  0.00000000000E+00 0. -1.
<mgrwt>
<rscale>  0 0.11983770E+03</rscale>
<asrwt>0</asrwt>
<pdfrwt beam="1">  1        1 0.76920137E-01 0.12868944E+03</pdfrwt>
<pdfrwt beam="2">  1       -1 0.55877889E-02 0.12868944E+03</pdfrwt>
<totfact> 0.64295982E+03</totfact>
</mgrwt>
</event>
<event>
 6    1  0.6101889E-006  0.1429628E+03  0.7546771E-02  0.1219443E+00
          2   -1    0    0  501    0  0.00000000000E+00  0.00000000000E+00  0.20376385259E+04  0.20376385259E+04  0.00000000000E+00 0. -1.
         -2   -1    0    0    0  501 -0.00000000000E+00 -0.00000000000E+00 -0.11848775263E+02  0.11848775263E+02  0.00000000000E+00 0.  1.
          5    1    1    2  502    0 -0.27164535465E+02 -0.16408033629E+02  0.14266953146E+04  0.14270559717E+04  0.47000000000E+01 0. -1.
         -5    1    1    2    0  502 -0.40495688179E+02  0.31762891447E+02  0.22705726447E+03  0.23286449575E+03  0.47000000000E+01 0. -1.
        -11    1    1    2    0    0  0.10176831795E+02 -0.48169586558E+02  0.14989769941E+03  0.15777578162E+03  0.00000000000E+00 0.  1.
         11    1    1    2    0    0  0.57483391849E+02  0.32814728740E+02  0.22213947220E+03  0.23179105218E+03  0.00000000000E+00 0. -1.
<mgrwt>
<rscale>  0 0.13555176E+03</rscale>
<asrwt>0</asrwt>
<pdfrwt beam="1">  1        2 0.31348257E+00 0.14296281E+03</pdfrwt>
<pdfrwt beam="2">  1       -2 0.18228901E-02 0.14296281E+03</pdfrwt>
<totfact> 0.62377969E+03</totfact>
</mgrwt>
</event>
<event>
 6    1  0.6101889E-006  0.1788311E+03  0.7546771E-02  0.1174650E+00
         -2   -1    0    0    0  501 -0.00000000000E+00  0.00000000000E+00  0.41048461661E+02  0.41048461661E+02  0.00000000000E+00 0.  1.
          2   -1    0    0  501    0  0.00000000000E+00 -0.00000000000E+00 -0.83562459631E+03  0.83562459631E+03  0.00000000000E+00 0. -1.
          5    1    1    2  502    0 -0.65459803509E+02  0.58766367453E+01 -0.10539640590E+03  0.12429808169E+03  0.47000000000E+01 0. -1.
         -5    1    1    2    0  502 -0.44512069800E+02 -0.71176967157E+02 -0.49774315101E+03  0.50479482901E+03  0.47000000000E+01 0. -1.
        -11    1    1    2    0    0  0.99319398540E+01  0.12599585015E+02  0.82965983208E+01  0.18061741763E+02  0.00000000000E+00 0.  1.
         11    1    1    2    0    0  0.10003993346E+03  0.52700745396E+02 -0.19973317605E+03  0.22951840551E+03  0.00000000000E+00 0. -1.
<mgrwt>
<rscale>  0 0.17310314E+03</rscale>
<asrwt>0</asrwt>
<pdfrwt beam="2">  1        2 0.12855764E+00 0.17883111E+03</pdfrwt>
<pdfrwt beam="1">  1       -2 0.63151477E-02 0.17883111E+03</pdfrwt>
<totfact> 0.45129855E+03</totfact>
</mgrwt>
</event>
<event>
 6    1  0.6101889E-006  0.1898125E+03  0.7546771E-02  0.1163469E+00
          1   -1    0    0  501    0  0.00000000000E+00  0.00000000000E+00  0.14400672707E+04  0.14400672707E+04  0.00000000000E+00 0. -1.
         -1   -1    0    0    0  501 -0.00000000000E+00 -0.00000000000E+00 -0.25219920942E+02  0.25219920942E+02  0.00000000000E+00 0.  1.
          5    1    1    2  502    0  0.95811631810E+02 -0.76235191910E+01  0.29568374893E+03  0.31094847840E+03  0.47000000000E+01 0.  1.
         -5    1    1    2    0  502  0.33708726857E+02 -0.52603114970E+02  0.69044784600E+03  0.69328470632E+03  0.47000000000E+01 0.  1.
        -11    1    1    2    0    0 -0.86954212454E+02  0.13969186255E+02  0.34674387711E+03  0.35775339207E+03  0.00000000000E+00 0. -1.
         11    1    1    2    0    0 -0.42566146214E+02  0.46257447906E+02  0.81971877677E+02  0.10330061481E+03  0.00000000000E+00 0.  1.
<mgrwt>
<rscale>  0 0.18455159E+03</rscale>
<asrwt>0</asrwt>
<pdfrwt beam="1">  1        1 0.22154875E+00 0.18981245E+03</pdfrwt>
<pdfrwt beam="2">  1       -1 0.38799890E-02 0.18981245E+03</pdfrwt>
<totfact> 0.20186942E+03</totfact>
</mgrwt>
</event>
<event>
 6    1  0.6101889E-006  0.2125594E+03  0.7546771E-02  0.1143263E+00
          2   -1    0    0  501    0  0.00000000000E+00  0.00000000000E+00  0.56998244891E+03  0.56998244891E+03  0.00000000000E+00 0.  1.
         -2   -1    0    0    0  501 -0.00000000000E+00 -0.00000000000E+00 -0.16691035609E+03  0.16691035609E+03  0.00000000000E+00 0. -1.
          5    1    1    2  502    0  0.34221556875E+02  0.19509129450E+02  0.17051477841E+03  0.17506884572E+03  0.47000000000E+01 0.  1.
         -5    1    1    2    0  502 -0.65666687712E+02  0.14951083355E+03  0.31169951574E+03  0.35191516213E+03  0.47000000000E+01 0.  1.
        -11    1    1    2    0    0 -0.54758947242E+01 -0.45856700801E+02  0.17157229140E+02  0.49266549941E+02  0.00000000000E+00 0.  1.
         11    1    1    2    0    0  0.36921025561E+02 -0.12316326220E+03 -0.96299430463E+02  0.16064224722E+03  0.00000000000E+00 0. -1.
<mgrwt>
<rscale>  0 0.20787115E+03</rscale>
<asrwt>0</asrwt>
<pdfrwt beam="1">  1        2 0.87689607E-01 0.21255945E+03</pdfrwt>
<pdfrwt beam="2">  1       -2 0.25678517E-01 0.21255945E+03</pdfrwt>
<totfact> 0.72901925E+02</totfact>
</mgrwt>
</event>
<event>
 6    1  0.6101889E-006  0.1303136E+03  0.7546771E-02  0.1240629E+00
         -2   -1    0    0    0  501 -0.00000000000E+00  0.00000000000E+00  0.30606398974E+03  0.30606398974E+03  0.00000000000E+00 0.  1.
          2   -1    0    0  501    0  0.00000000000E+00 -0.00000000000E+00 -0.48660242274E+02  0.48660242274E+02  0.00000000000E+00 0. -1.
          5    1    1    2  502    0  0.25371777614E+02 -0.35048174294E+02  0.11066046099E+03  0.11891143447E+03  0.47000000000E+01 0.  1.
         -5    1    1    2    0  502 -0.22321065870E+02 -0.16596860721E+01 -0.27429892575E+02  0.35713772499E+02  0.47000000000E+01 0.  1.
        -11    1    1    2    0    0 -0.27881614993E+02  0.56460343316E+02  0.13976157851E+03  0.15329205344E+03  0.00000000000E+00 0.  1.
         11    1    1    2    0    0  0.24830903248E+02 -0.19752482950E+02  0.34411600541E+02  0.46806971602E+02  0.00000000000E+00 0. -1.
<mgrwt>
<rscale>  0 0.12150868E+03</rscale>
<asrwt>0</asrwt>
<pdfrwt beam="2">  1        2 0.74861913E-02 0.13031357E+03</pdfrwt>
<pdfrwt beam="1">  1       -2 0.47086766E-01 0.13031357E+03</pdfrwt>
<totfact> 0.38164599E+03</totfact>
</mgrwt>
</event>
<event>
 6    1  0.6101889E-006  0.1363586E+03  0.7546771E-02  0.1236522E+00
          1   -1    0    0  501    0  0.00000000000E+00  0.00000000000E+00  0.16561334150E+04  0.16561334150E+04  0.00000000000E+00 0. -1.
         -1   -1    0    0    0  501 -0.00000000000E+00 -0.00000000000E+00 -0.10076637961E+02  0.10076637961E+02  0.00000000000E+00 0.  1.
          5    1    1    2  502    0  0.38281267601E+02  0.42473503128E+02  0.12012039921E+04  0.12025733136E+04  0.47000000000E+01 0. -1.
         -5    1    1    2    0  502 -0.20632007941E+02 -0.30435659946E+02  0.11864844198E+03  0.12430427158E+03  0.47000000000E+01 0.  1.
        -11    1    1    2    0    0 -0.11557939724E+02  0.39475279098E+02  0.12759900899E+03  0.13406487507E+03  0.00000000000E+00 0. -1.
         11    1    1    2    0    0 -0.60913199351E+01 -0.51513122280E+02  0.19860533402E+03  0.20526759278E+03  0.00000000000E+00 0.  1.
<mgrwt>
<rscale>  0 0.12407487E+03</rscale>
<asrwt>0</asrwt>
<pdfrwt beam="1">  1        1 0.25478954E+00 0.13635864E+03</pdfrwt>
<pdfrwt beam="2">  1       -1 0.15502533E-02 0.13635864E+03</pdfrwt>
<totfact> 0.55272937E+03</totfact>
</mgrwt>
</event>
<event>
 6    1  0.6101889E-006  0.1420913E+03  0.7546771E-02  0.1221159E+00
         -2   -1    0    0    0  501 -0.00000000000E+00  0.00000000000E+00  0.15570199156E+02  0.15570199156E+02  0.00000000000E+00 0.  1.
          2   -1    0    0  501    0  0.00000000000E+00 -0.00000000000E+00 -0.12535468118E+04  0.12535468118E+04  0.00000000000E+00 0. -1.
          5    1    1    2  502    0 -0.31554831815E+02 -0.22792961868E+02 -0.31668869238E+03  0.31910663484E+03  0.47000000000E+01 0. -1.
         -5    1    1    2    0  502  0.98411437162E+02  0.25293424446E+02 -0.61512910109E+03  0.62348253327E+03  0.47000000000E+01 0. -1.
        -11    1    1    2    0    0 -0.64811911406E+02  0.29109805639E+02 -0.26629986013E+03  0.27561491279E+03  0.00000000000E+00 0.  1.
         11    1    1    2    0    0 -0.20446939409E+01 -0.31610268216E+02 -0.39858959017E+02  0.50912930027E+02  0.00000000000E+00 0. -1.
<mgrwt>
<rscale>  0 0.13433695E+03</rscale>
<asrwt>0</asrwt>
<pdfrwt beam="2">  1        2 0.19285334E+00 0.14209131E+03</pdfrwt>
<pdfrwt beam="1">  1       -2 0.23954155E-02 0.14209131E+03</pdfrwt>
<totfact> 0.10713378E+04</totfact>
</mgrwt>
</event>
<event>
 6    1  0.6101889E-006  0.1317928E+03  0.7546771E-02  0.1237560E+00
         -2   -1    0    0    0  501 -0.00000000000E+00  0.00000000000E+00  0.17487797309E+02  0.17487797309E+02  0.00000000000E+00 0.  1.
          2   -1    0    0  501    0  0.00000000000E+00 -0.00000000000E+00 -0.79982113844E+03  0.79982113844E+03  0.00000000000E+00 0. -1.
          5    1    1    2  502    0  0.25845190825E+02 -0.20840668752E+02 -0.46981922436E+02  0.57720866232E+02  0.47000000000E+01 0. -1.
         -5    1    1    2    0  502 -0.61238253496E+02  0.43015103613E+02 -0.46208797367E+03  0.46813225508E+03  0.47000000000E+01 0. -1.
        -11    1    1    2    0    0  0.51874377667E+02 -0.47832484347E+02 -0.20080488209E+03  0.21284148629E+03  0.00000000000E+00 0.  1.
         11    1    1    2    0    0 -0.16481314996E+02  0.25658049485E+02 -0.72458562932E+02  0.78614328145E+02  0.00000000000E+00 0. -1.
<mgrwt>
<rscale>  0 0.12341957E+03</rscale>
<asrwt>0</asrwt>
<pdfrwt beam="2">  1        2 0.12304939E+00 0.13179281E+03</pdfrwt>
<pdfrwt beam="1">  1       -2 0.26904307E-02 0.13179281E+03</pdfrwt>
<totfact> 0.16786338E+04</totfact>
</mgrwt>
</event>
<event>
 6    1  0.6101889E-006  0.1939554E+03  0.7546771E-02  0.1160161E+00
         -1   -1    0    0    0  501 -0.00000000000E+00  0.00000000000E+00  0.38059705776E+02  0.38059705776E+02  0.00000000000E+00 0.  1.
          1   -1    0    0  501    0  0.00000000000E+00 -0.00000000000E+00 -0.88255106934E+03  0.88255106934E+03  0.00000000000E+00 0. -1.
          5    1    1    2  502    0 -0.56943126659E+02 -0.76801679598E+02 -0.12121837988E+03  0.15445712442E+03  0.47000000000E+01 0.  1.
         -5    1    1    2    0  502 -0.50255539585E+02 -0.25679193052E+02 -0.35918619490E+03  0.36362322921E+03  0.47000000000E+01 0.  1.
        -11    1    1    2    0    0  0.72494287942E+02  0.96306834325E+02 -0.33749445847E+03  0.35837541437E+03  0.00000000000E+00 0. -1.
         11    1    1    2    0    0  0.34704378301E+02  0.61740383253E+01 -0.26592330307E+02  0.44155007119E+02  0.00000000000E+00 0.  1.
<mgrwt>
<rscale>  0 0.18812728E+03</rscale>
<asrwt>0</asrwt>
<pdfrwt beam="2">  1        1 0.13577708E+00 0.19395540E+03</pdfrwt>
<pdfrwt beam="1">  1       -1 0.58553395E-02 0.19395540E+03</pdfrwt>
<totfact> 0.27136878E+03</totfact>
</mgrwt>
</event>
<event>
 6    1  0.6101889E-006  0.1346834E+03  0.7546771E-02  0.1233098E+00
          1   -1    0    0  501    0  0.00000000000E+00  0.00000000000E+00  0.18652703575E+02  0.18652703575E+02  0.00000000000E+00 0. -1.
         -1   -1    0    0    0  501 -0.00000000000E+00 -0.00000000000E+00 -0.76390708031E+03  0.76390708031E+03  0.00000000000E+00 0.  1.
          5    1    1    2  502    0 -0.17710354553E+02 -0.79275853688E+02 -0.38692970318E+03  0.39539221394E+03  0.47000000000E+01 0.  1.
         -5    1    1    2    0  502  0.66392257097E+01  0.30379042429E+02 -0.32905547151E+02  0.45517365589E+02  0.47000000000E+01 0.  1.
        -11    1    1    2    0    0  0.13717029306E+02  0.71266845618E+02 -0.29501455468E+03  0.30381031524E+03  0.00000000000E+00 0.  1.
         11    1    1    2    0    0 -0.26459004627E+01 -0.22370034359E+02 -0.30404571728E+02  0.37839889118E+02  0.00000000000E+00 0. -1.
<mgrwt>
<rscale>  0 0.12627005E+03</rscale>
<asrwt>0</asrwt>
<pdfrwt beam="1">  1        1 0.28696464E-02 0.13468341E+03</pdfrwt>
<pdfrwt beam="2">  1       -1 0.11752418E+00 0.13468341E+03</pdfrwt>
<totfact> 0.24373124E+03</totfact>
</mgrwt>
</event>
<event>
 6    1  0.6101889E-006  0.1257821E+03  0.7546771E-02  0.1244923E+00
         -1   -1    0    0    0  501 -0.00000000000E+00  0.00000000000E+00  0.14304533183E+02  0.14304533183E+02  0.00000000000E+00 0.  1.
          1   -1    0    0  501    0  0.00000000000E+00 -0.00000000000E+00 -0.12978754156E+04  0.12978754156E+04  0.00000000000E+00 0. -1.
          5    1    1    2  502    0 -0.20278660151E+02 -0.28395384557E+02 -0.77758713939E+03  0.77838382002E+03  0.47000000000E+01 0. -1.
         -5    1    1    2    0  502  0.59711070712E+02  0.12888958112E+02 -0.27801078595E+03  0.28468161920E+03  0.47000000000E+01 0.  1.
        -11    1    1    2    0    0  0.15272890303E+02  0.20955591231E+02 -0.16787003170E+02  0.30890151464E+02  0.00000000000E+00 0.  1.
         11    1    1    2    0    0 -0.54705300864E+02 -0.54491647857E+01 -0.21118595386E+03  0.21822435805E+03  0.00000000000E+00 0. -1.
<mgrwt>
<rscale>  0 0.11889980E+03</rscale>
<asrwt>0</asrwt>
<pdfrwt beam="2">  1        1 0.19967316E+00 0.12578215E+03</pdfrwt>
<pdfrwt beam="1">  1       -1 0.22006973E-02 0.12578215E+03</pdfrwt>
<totfact> 0.56937794E+03</totfact>
</mgrwt>
</event>
<event>
 6    1  0.6101889E-006  0.1381393E+03  0.7546771E-02  0.1226654E+00
          1   -1    0    0  501    0  0.00000000000E+00  0.00000000000E+00  0.32565892308E+03  0.32565892308E+03  0.00000000000E+00 0.  1.
         -1   -1    0    0    0  501 -0.00000000000E+00 -0.00000000000E+00 -0.48729130729E+02  0.48729130729E+02  0.00000000000E+00 0. -1.
          5    1    1    2  502    0  0.32419078899E+02 -0.44404621139E+01  0.11564270909E+03  0.12027485417E+03  0.47000000000E+01 0.  1.
         -5    1    1    2    0  502 -0.81301123882E+02 -0.28228933163E+02  0.69483486838E+02  0.11071038955E+03  0.47000000000E+01 0.  1.
        -11    1    1    2    0    0 -0.16978310167E+02 -0.11561308841E+02  0.49282306367E+02  0.53391690356E+02  0.00000000000E+00 0.  1.
         11    1    1    2    0    0  0.65860355150E+02  0.44230704118E+02  0.42521290063E+02  0.90011119735E+02  0.00000000000E+00 0. -1.
<mgrwt>
<rscale>  0 0.13054178E+03</rscale>
<asrwt>0</asrwt>
<pdfrwt beam="1">  1        1 0.50101371E-01 0.13813933E+03</pdfrwt>
<pdfrwt beam="2">  1       -1 0.74967896E-02 0.13813933E+03</pdfrwt>
<totfact> 0.71616031E+03</totfact>
</mgrwt>
</event>
<event>
 6    1  0.6101889E-006  0.1939607E+03  0.7546771E-02  0.1160617E+00
         -2   -1    0    0    0  501 -0.00000000000E+00  0.00000000000E+00  0.60813012997E+03  0.60813012997E+03  0.00000000000E+00 0.  1.
          2   -1    0    0  501    0  0.00000000000E+00 -0.00000000000E+00 -0.66422644758E+02  0.66422644758E+02  0.00000000000E+00 0. -1.
          5    1    1    2  502    0  0.47134301244E+02  0.58475370564E+02  0.28319852861E+02  0.80405941214E+02  0.47000000000E+01 0.  1.
         -5    1    1    2    0  502  0.10090404024E+03 -0.49507925933E+02  0.11407663804E+03  0.16021307504E+03  0.47000000000E+01 0.  1.
        -11    1    1    2    0    0 -0.53436683708E+02 -0.56429159887E+01  0.55177612651E+02  0.77018767871E+02  0.00000000000E+00 0. -1.
         11    1    1    2    0    0 -0.94601657777E+02 -0.33245286425E+01  0.34413338165E+03  0.35691499060E+03  0.00000000000E+00 0.  1.
<mgrwt>
<rscale>  0 0.18762992E+03</rscale>
<asrwt>0</asrwt>
<pdfrwt beam="2">  1        2 0.10218869E-01 0.19396069E+03</pdfrwt>
<pdfrwt beam="1">  1       -2 0.93558478E-01 0.19396069E+03</pdfrwt>
<totfact> 0.61948684E+02</totfact>
</mgrwt>
</event>
<event>
 6    1  0.6101889E-006  0.1768841E+03  0.7546771E-02  0.1176670E+00
         -2   -1    0    0    0  501 -0.00000000000E+00  0.00000000000E+00  0.11476454960E+03  0.11476454960E+03  0.00000000000E+00 0.  1.
          2   -1    0    0  501    0  0.00000000000E+00 -0.00000000000E+00 -0.26177883836E+03  0.26177883836E+03  0.00000000000E+00 0. -1.
          5    1    1    2  502    0  0.33273284492E+02  0.51495145870E+02 -0.14198625575E+03  0.15472895117E+03  0.47000000000E+01 0.  1.
         -5    1    1    2    0  502  0.17773592151E+02  0.62772008196E+02  0.97350475836E+01  0.66129318327E+02  0.47000000000E+01 0.  1.
        -11    1    1    2    0    0 -0.18364172278E+02 -0.53301447577E+02 -0.52372026826E+02  0.76948790316E+02  0.00000000000E+00 0. -1.
         11    1    1    2    0    0 -0.32682704365E+02 -0.60965706489E+02  0.37608946237E+02  0.78736328143E+02  0.00000000000E+00 0.  1.
<mgrwt>
<rscale>  0 0.17113469E+03</rscale>
<asrwt>0</asrwt>
<pdfrwt beam="2">  1        2 0.40273667E-01 0.17688412E+03</pdfrwt>
<pdfrwt beam="1">  1       -2 0.17656085E-01 0.17688412E+03</pdfrwt>
<totfact> 0.32286224E+03</totfact>
</mgrwt>
</event>
<event>
 6    1  0.6101889E-006  0.1315970E+03  0.7546771E-02  0.1239629E+00
         -1   -1    0    0    0  501 -0.00000000000E+00  0.00000000000E+00  0.31884907944E+03  0.31884907944E+03  0.00000000000E+00 0.  1.
          1   -1    0    0  501    0  0.00000000000E+00 -0.00000000000E+00 -0.41243666880E+02  0.41243666880E+02  0.00000000000E+00 0. -1.
          5    1    1    2  502    0  0.53278128985E+02 -0.13461551120E+02  0.56426252077E+02  0.78903639397E+02  0.47000000000E+01 0. -1.
         -5    1    1    2    0  502 -0.52682931196E+02  0.54598640198E+02  0.96659956789E+02  0.12297048425E+03  0.47000000000E+01 0. -1.
        -11    1    1    2    0    0  0.16898512844E+02 -0.15758737313E+02 -0.61926236274E+01  0.23921666443E+02  0.00000000000E+00 0. -1.
         11    1    1    2    0    0 -0.17493710633E+02 -0.25378351765E+02  0.13071182732E+03  0.13429695622E+03  0.00000000000E+00 0.  1.
<mgrwt>
<rscale>  0 0.12212662E+03</rscale>
<asrwt>0</asrwt>
<pdfrwt beam="2">  1        1 0.63451797E-02 0.13159702E+03</pdfrwt>
<pdfrwt beam="1">  1       -1 0.49053703E-01 0.13159702E+03</pdfrwt>
<totfact> 0.48498547E+03</totfact>
</mgrwt>
</event>
<event>
 6    1  0.6101889E-006  0.2369883E+03  0.7546771E-02  0.1125977E+00
         -2   -1    0    0    0  501 -0.00000000000E+00  0.00000000000E+00  0.65321260340E+03  0.65321260340E+03  0.00000000000E+00 0.  1.
          2   -1    0    0  501    0  0.00000000000E+00 -0.00000000000E+00 -0.13524966382E+03  0.13524966382E+03  0.00000000000E+00 0. -1.
          5    1    1    2  502    0  0.23381550030E+02  0.90153875057E+02  0.10740056471E+02  0.93871491320E+02  0.47000000000E+01 0. -1.
         -5    1    1    2    0  502 -0.12090268612E+03  0.76812008609E+02 -0.93439045448E+00  0.14331959832E+03  0.47000000000E+01 0.  1.
        -11    1    1    2    0    0  0.68078742559E+02 -0.39551755298E+02  0.14060766856E+03  0.16115077720E+03  0.00000000000E+00 0. -1.
         11    1    1    2    0    0  0.29442393530E+02 -0.12741412837E+03  0.36754960501E+03  0.39012040037E+03  0.00000000000E+00 0.  1.
<mgrwt>
<rscale>  0 0.23094381E+03</rscale>
<asrwt>0</asrwt>
<pdfrwt beam="2">  1        2 0.20807641E-01 0.23698832E+03</pdfrwt>
<pdfrwt beam="1">  1       -2 0.10049424E+00 0.23698832E+03</pdfrwt>
<totfact> 0.22592746E+02</totfact>
</mgrwt>
</event>
<event>
 6    1  0.6101889E-006  0.1299301E+03  0.7546771E-02  0.1239142E+00
         -1   -1    0    0    0  501 -0.00000000000E+00  0.00000000000E+00  0.62612933468E+02  0.62612933468E+02  0.00000000000E+00 0.  1.
          1   -1    0    0  501    0  0.00000000000E+00 -0.00000000000E+00 -0.41094640336E+03  0.41094640336E+03  0.00000000000E+00 0. -1.
          5    1    1    2  502    0 -0.37874744517E+02 -0.36497029230E+02 -0.12705831823E+03  0.13759518758E+03  0.47000000000E+01 0. -1.
         -5    1    1    2    0  502  0.29017090123E+02  0.70829603654E+02 -0.22058479513E+03  0.23353493554E+03  0.47000000000E+01 0. -1.
        -11    1    1    2    0    0  0.51952647793E+02 -0.27532524669E+02 -0.12795863311E+00  0.58797397058E+02  0.00000000000E+00 0.  1.
         11    1    1    2    0    0 -0.43094993399E+02 -0.68000497548E+01 -0.56239789795E+00  0.43631816650E+02  0.00000000000E+00 0. -1.
<mgrwt>
<rscale>  0 0.12242944E+03</rscale>
<asrwt>0</asrwt>
<pdfrwt beam="2">  1        1 0.63222525E-01 0.12993011E+03</pdfrwt>
<pdfrwt beam="1">  1       -1 0.96327588E-02 0.12993011E+03</pdfrwt>
<totfact> 0.36511631E+03</totfact>
</mgrwt>
</event>
<event>
 6    1  0.6101889E-006  0.2582981E+03  0.7546771E-02  0.1108170E+00
          1   -1    0    0  501    0  0.00000000000E+00  0.00000000000E+00  0.14027213663E+03  0.14027213663E+03  0.00000000000E+00 0. -1.
         -1   -1    0    0    0  501 -0.00000000000E+00 -0.00000000000E+00 -0.11890797709E+03  0.11890797709E+03  0.00000000000E+00 0.  1.
          5    1    1    2  502    0 -0.23452203534E+02  0.80137959738E+02  0.71233083020E+02  0.10985599919E+03  0.47000000000E+01 0. -1.
         -5    1    1    2    0  502  0.24488335653E+02 -0.20830717279E+02 -0.19458083978E+02  0.37872211415E+02  0.47000000000E+01 0. -1.
        -11    1    1    2    0    0  0.66416885366E+01 -0.28609260584E+02  0.30791866720E+02  0.42552801012E+02  0.00000000000E+00 0. -1.
         11    1    1    2    0    0 -0.76778206554E+01 -0.30697981875E+02 -0.61202706222E+02  0.68899102099E+02  0.00000000000E+00 0.  1.
<mgrwt>
<rscale>  0 0.25829809E+03</rscale>
<asrwt>0</asrwt>
<pdfrwt beam="1">  1        1 0.21580329E-01 0.25829809E+03</pdfrwt>
<pdfrwt beam="2">  1       -1 0.18293535E-01 0.25829809E+03</pdfrwt>
<totfact> 0.53404601E+03</totfact>
</mgrwt>
</event>
<event>
 6    1  0.6101889E-006  0.1469765E+03  0.7546771E-02  0.1214107E+00
         -3   -1    0    0    0  501 -0.00000000000E+00  0.00000000000E+00  0.37590596421E+03  0.37590596421E+03  0.00000000000E+00 0.  1.
          3   -1    0    0  501    0  0.00000000000E+00 -0.00000000000E+00 -0.65033108126E+02  0.65033108126E+02  0.00000000000E+00 0. -1.
          5    1    1    2  502    0  0.12833637852E+02  0.21364672334E+02  0.66941316404E+02  0.71584784182E+02  0.47000000000E+01 0.  1.
         -5    1    1    2    0  502 -0.81539438977E+02  0.14091327012E+02 -0.15140470440E+02  0.84253008557E+02  0.47000000000E+01 0.  1.
        -11    1    1    2    0    0  0.82733188874E+02 -0.30985040855E+02  0.25493464100E+03  0.26980831062E+03  0.00000000000E+00 0.  1.
         11    1    1    2    0    0 -0.14027387748E+02 -0.44709584906E+01  0.41373691182E+01  0.15292968975E+02  0.00000000000E+00 0. -1.
<mgrwt>
<rscale>  0 0.13942345E+03</rscale>
<asrwt>0</asrwt>
<pdfrwt beam="2">  1        3 0.10005094E-01 0.14697649E+03</pdfrwt>
<pdfrwt beam="1">  1       -3 0.57831686E-01 0.14697649E+03</pdfrwt>
<totfact> 0.51349365E+02</totfact>
</mgrwt>
</event>
<event>
 6    1  0.6101889E-006  0.2522732E+03  0.7546771E-02  0.1111877E+00
          2   -1    0    0  501    0  0.00000000000E+00  0.00000000000E+00  0.85755210334E+03  0.85755210334E+03  0.00000000000E+00 0.  1.
         -2   -1    0    0    0  501 -0.00000000000E+00 -0.00000000000E+00 -0.18553325238E+02  0.18553325238E+02  0.00000000000E+00 0. -1.
          5    1    1    2  502    0 -0.41221776473E+02 -0.44370922521E+02  0.80444213634E+02  0.10080364640E+03  0.47000000000E+01 0. -1.
         -5    1    1    2    0  502  0.15808048852E+02 -0.14157804396E+02  0.37840831417E+03  0.37903203040E+03  0.47000000000E+01 0. -1.
        -11    1    1    2    0    0  0.48783093746E+02  0.11038008543E+02  0.10793547405E+03  0.11896089453E+03  0.00000000000E+00 0. -1.
         11    1    1    2    0    0 -0.23369366125E+02  0.47490718373E+02  0.27221077625E+03  0.27730885725E+03  0.00000000000E+00 0.  1.
<mgrwt>
<rscale>  0 0.25227321E+03</rscale>
<asrwt>0</asrwt>
<pdfrwt beam="1">  1        2 0.13193106E+00 0.25227321E+03</pdfrwt>
<pdfrwt beam="2">  1       -2 0.28543584E-02 0.25227321E+03</pdfrwt>
<totfact> 0.14669133E+04</totfact>
</mgrwt>
</event>
<event>
 6    1  0.6101889E-006  0.1460084E+03  0.7546771E-02  0.1215303E+00
          1   -1    0    0  501    0  0.00000000000E+00  0.00000000000E+00  0.72294454554E+03  0.72294454554E+03  0.00000000000E+00 0. -1.
         -1   -1    0    0    0  501 -0.00000000000E+00 -0.00000000000E+00 -0.25089807612E+02  0.25089807612E+02  0.00000000000E+00 0.  1.
          5    1    1    2  502    0  0.39028739732E+02  0.25649949464E+01  0.59712595704E+02  0.71536744474E+02  0.47000000000E+01 0. -1.
         -5    1    1    2    0  502 -0.64087823355E+02  0.68595727290E+02  0.39564522131E+03  0.40665692427E+03  0.47000000000E+01 0. -1.
        -11    1    1    2    0    0  0.41990576651E+02 -0.61992039588E+02  0.23876232426E+03  0.25022723470E+03  0.00000000000E+00 0. -1.
         11    1    1    2    0    0 -0.16931493028E+02 -0.91686826479E+01  0.37345966547E+01  0.19613449717E+02  0.00000000000E+00 0.  1.
<mgrwt>
<rscale>  0 0.13854317E+03</rscale>
<asrwt>0</asrwt>
<pdfrwt beam="1">  1        1 0.11122222E+00 0.14600837E+03</pdfrwt>
<pdfrwt beam="2">  1       -1 0.38599709E-02 0.14600837E+03</pdfrwt>
<totfact> 0.67526070E+03</totfact>
</mgrwt>
</event>
<event>
 6    1  0.6101889E-006  0.3836758E+03  0.7546771E-02  0.1049583E+00
          1   -1    0    0  501    0  0.00000000000E+00  0.00000000000E+00  0.34257322536E+03  0.34257322536E+03  0.00000000000E+00 0. -1.
         -1   -1    0    0    0  501 -0.00000000000E+00 -0.00000000000E+00 -0.10742748920E+03  0.10742748920E+03  0.00000000000E+00 0.  1.
          5    1    1    2  502    0  0.34430725764E+02  0.22046406442E+02  0.11972251043E+03  0.12659813749E+03  0.47000000000E+01 0. -1.
         -5    1    1    2    0  502 -0.67380395773E+02 -0.34150820404E+02  0.18699783587E+03  0.20173417382E+03  0.47000000000E+01 0.  1.
        -11    1    1    2    0    0  0.98667206753E+01  0.48672450252E+02 -0.18011805432E+02  0.52827878297E+02  0.00000000000E+00 0.  1.
         11    1    1    2    0    0  0.23082949334E+02 -0.36568036291E+02 -0.53562804697E+02  0.68840524948E+02  0.00000000000E+00 0. -1.
<mgrwt>
<rscale>  0 0.38367581E+03</rscale>
<asrwt>0</asrwt>
<pdfrwt beam="1">  1        1 0.52703573E-01 0.38367581E+03</pdfrwt>
<pdfrwt beam="2">  1       -1 0.16527306E-01 0.38367581E+03</pdfrwt>
<totfact> 0.20434155E+03</totfact>
</mgrwt>
</event>
<event>
 6    1  0.6101889E-006  0.1480902E+03  0.7546771E-02  0.1212878E+00
          2   -1    0    0  501    0  0.00000000000E+00  0.00000000000E+00  0.80670466536E+02  0.80670466536E+02  0.00000000000E+00 0. -1.
         -2   -1    0    0    0  501 -0.00000000000E+00 -0.00000000000E+00 -0.23624099692E+03  0.23624099692E+03  0.00000000000E+00 0.  1.
          5    1    1    2  502    0 -0.45445734153E+01 -0.49112793922E+02  0.39510293068E+02  0.63370915511E+02  0.47000000000E+01 0. -1.
         -5    1    1    2    0  502 -0.15391895714E+02 -0.27673393413E+02 -0.86125545428E+02  0.91882679173E+02  0.47000000000E+01 0. -1.
        -11    1    1    2    0    0  0.48080263923E+00  0.27978085889E+02  0.11491097843E+02  0.30249789930E+02  0.00000000000E+00 0. -1.
         11    1    1    2    0    0  0.19455666490E+02  0.48808101446E+02 -0.12044637586E+03  0.13140807884E+03  0.00000000000E+00 0.  1.
<mgrwt>
<rscale>  0 0.14033541E+03</rscale>
<asrwt>0</asrwt>
<pdfrwt beam="1">  1        2 0.12410841E-01 0.14809016E+03</pdfrwt>
<pdfrwt beam="2">  1       -2 0.36344768E-01 0.14809016E+03</pdfrwt>
<totfact> 0.33808197E+03</totfact>
</mgrwt>
</event>
<event>
 6    1  0.6101889E-006  0.1303867E+03  0.7546771E-02  0.1241809E+00
          2   -1    0    0  501    0  0.00000000000E+00  0.00000000000E+00  0.11626038869E+04  0.11626038869E+04  0.00000000000E+00 0. -1.
         -2   -1    0    0    0  501 -0.00000000000E+00 -0.00000000000E+00 -0.11346135053E+02  0.11346135053E+02  0.00000000000E+00 0.  1.
          5    1    1    2  502    0  0.12587961787E+02 -0.15922586783E+02  0.70247767240E+03  0.70278656488E+03  0.47000000000E+01 0. -1.
         -5    1    1    2    0  502 -0.32855327108E+02 -0.15136825017E+02  0.56112943591E+02  0.66927934597E+02  0.47000000000E+01 0. -1.
        -11    1    1    2    0    0 -0.19771086383E+02  0.48465808143E+02  0.21742151345E+03  0.22363350582E+03  0.00000000000E+00 0.  1.
         11    1    1    2    0    0  0.40038451703E+02 -0.17406396344E+02  0.17524562245E+03  0.18060201670E+03  0.00000000000E+00 0. -1.
<mgrwt>
<rscale>  0 0.12078408E+03</rscale>
<asrwt>0</asrwt>
<pdfrwt beam="1">  1        2 0.17886204E+00 0.13038669E+03</pdfrwt>
<pdfrwt beam="2">  1       -2 0.17455602E-02 0.13038669E+03</pdfrwt>
<totfact> 0.18952332E+04</totfact>
</mgrwt>
</event>
<event>
 6    1  0.6101889E-006  0.1426023E+03  0.7546771E-02  0.1220019E+00
         -1   -1    0    0    0  501 -0.00000000000E+00  0.00000000000E+00  0.10628621478E+02  0.10628621478E+02  0.00000000000E+00 0.  1.
          1   -1    0    0  501    0  0.00000000000E+00 -0.00000000000E+00 -0.20402558422E+04  0.20402558422E+04  0.00000000000E+00 0. -1.
          5    1    1    2  502    0 -0.37618736957E+01  0.47342795715E+02 -0.18579365753E+03  0.19182509006E+03  0.47000000000E+01 0.  1.
         -5    1    1    2    0  502 -0.27201937628E+02  0.13936390759E+02 -0.14068980957E+04  0.14072379010E+04  0.47000000000E+01 0.  1.
        -11    1    1    2    0    0 -0.20491284958E+02 -0.49089688134E+02 -0.30637902264E+03  0.31096269190E+03  0.00000000000E+00 0. -1.
         11    1    1    2    0    0  0.51455096282E+02 -0.12189498340E+02 -0.13055644480E+03  0.14085878064E+03  0.00000000000E+00 0.  1.
<mgrwt>
<rscale>  0 0.13514194E+03</rscale>
<asrwt>0</asrwt>
<pdfrwt beam="2">  1        1 0.31388546E+00 0.14260234E+03</pdfrwt>
<pdfrwt beam="1">  1       -1 0.16351728E-02 0.14260234E+03</pdfrwt>
<totfact> 0.29170921E+03</totfact>
</mgrwt>
</event>
<event>
 6    1  0.6101889E-006  0.1959534E+03  0.7546771E-02  0.1156056E+00
          4   -1    0    0  501    0  0.00000000000E+00  0.00000000000E+00  0.10597808135E+04  0.10597808135E+04  0.00000000000E+00 0. -1.
         -4   -1    0    0    0  501 -0.00000000000E+00 -0.00000000000E+00 -0.39053899341E+02  0.39053899341E+02  0.00000000000E+00 0.  1.
          5    1    1    2  502    0 -0.97485962971E+02 -0.51683589052E+02  0.24691197108E+03  0.27048533752E+03  0.47000000000E+01 0. -1.
         -5    1    1    2    0  502 -0.18771885040E+02 -0.44527887343E+02  0.47748518828E+03  0.47994719652E+03  0.47000000000E+01 0. -1.
        -11    1    1    2    0    0  0.11062695227E+03  0.60088566331E+02  0.14186453832E+03  0.18966946408E+03  0.00000000000E+00 0.  1.
         11    1    1    2    0    0  0.56308957392E+01  0.36122910064E+02  0.15446521647E+03  0.15873271471E+03  0.00000000000E+00 0. -1.
<mgrwt>
<rscale>  0 0.19269170E+03</rscale>
<asrwt>0</asrwt>
<pdfrwt beam="1">  1        4 0.16304318E+00 0.19595342E+03</pdfrwt>
<pdfrwt beam="2">  1       -4 0.60082930E-02 0.19595342E+03</pdfrwt>
<totfact> 0.80274867E+01</totfact>
</mgrwt>
</event>
<event>
 6    1  0.6101889E-006  0.1360710E+03  0.7546771E-02  0.1230890E+00
         -1   -1    0    0    0  501 -0.00000000000E+00  0.00000000000E+00  0.29034908831E+02  0.29034908831E+02  0.00000000000E+00 0.  1.
          1   -1    0    0  501    0  0.00000000000E+00 -0.00000000000E+00 -0.61052037463E+03  0.61052037463E+03  0.00000000000E+00 0. -1.
          5    1    1    2  502    0 -0.57637523551E+02 -0.26285089440E+02 -0.95793711562E+02  0.11494135558E+03  0.47000000000E+01 0.  1.
         -5    1    1    2    0  502  0.19987955928E+02 -0.12084553113E+02 -0.35855126484E+03  0.35934197406E+03  0.47000000000E+01 0.  1.
        -11    1    1    2    0    0 -0.17437055350E+02 -0.19182086973E+02 -0.30548475473E+02  0.40065105936E+02  0.00000000000E+00 0. -1.
         11    1    1    2    0    0  0.55086622973E+02  0.57551729526E+02 -0.96592013926E+02  0.12520684788E+03  0.00000000000E+00 0.  1.
<mgrwt>
<rscale>  0 0.12771271E+03</rscale>
<asrwt>0</asrwt>
<pdfrwt beam="2">  1        1 0.93926216E-01 0.13607101E+03</pdfrwt>
<pdfrwt beam="1">  1       -1 0.44669088E-02 0.13607101E+03</pdfrwt>
<totfact> 0.68827541E+03</totfact>
</mgrwt>
</event>
<event>
 6    1  0.6101889E-006  0.1409489E+03  0.7546771E-02  0.1224408E+00
          2   -1    0    0  501    0  0.00000000000E+00  0.00000000000E+00  0.14158047613E+04  0.14158047613E+04  0.00000000000E+00 0. -1.
         -2   -1    0    0    0  501 -0.00000000000E+00 -0.00000000000E+00 -0.12174943938E+02  0.12174943938E+02  0.00000000000E+00 0.  1.
          5    1    1    2  502    0  0.30913241109E+02 -0.30280103420E+02  0.52170936802E+03  0.52352198408E+03  0.47000000000E+01 0. -1.
         -5    1    1    2    0  502 -0.88253001689E+02 -0.64244176851E+00  0.48202381319E+03  0.49005923266E+03  0.47000000000E+01 0. -1.
        -11    1    1    2    0    0  0.35807625319E+02 -0.23894169241E+02  0.10159789560E+03  0.11034151415E+03  0.00000000000E+00 0.  1.
         11    1    1    2    0    0  0.21532135261E+02  0.54816714429E+02  0.29829874061E+03  0.30405697440E+03  0.00000000000E+00 0. -1.
<mgrwt>
<rscale>  0 0.13207538E+03</rscale>
<asrwt>0</asrwt>
<pdfrwt beam="1">  1        2 0.21781599E+00 0.14094887E+03</pdfrwt>
<pdfrwt beam="2">  1       -2 0.18730694E-02 0.14094887E+03</pdfrwt>
<totfact> 0.12537749E+04</totfact>
</mgrwt>
</event>
<event>
 6    1  0.6101889E-006  0.1207299E+03  0.7546771E-02  0.1283653E+00
          1   -1    0    0  501    0  0.00000000000E+00  0.00000000000E+00  0.79981146576E+02  0.79981146576E+02  0.00000000000E+00 0. -1.
         -1   -1    0    0    0  501 -0.00000000000E+00 -0.00000000000E+00 -0.11727728530E+03  0.11727728530E+03  0.00000000000E+00 0.  1.
          5    1    1    2  502    0  0.17204787054E+02  0.43995326930E+02  0.42317265435E+02  0.63595868130E+02  0.47000000000E+01 0. -1.
         -5    1    1    2    0  502 -0.93289391086E+01 -0.50902496930E+02 -0.26217807081E+02  0.58202720785E+02  0.47000000000E+01 0.  1.
        -11    1    1    2    0    0  0.12037379694E+02 -0.50082204571E+01  0.39285791406E+01  0.13616699898E+02  0.00000000000E+00 0. -1.
         11    1    1    2    0    0 -0.19913227639E+02  0.11915390457E+02 -0.57324176219E+02  0.61843143064E+02  0.00000000000E+00 0.  1.
<mgrwt>
<rscale>  0 0.98420384E+02</rscale>
<asrwt>0</asrwt>
<pdfrwt beam="1">  1        1 0.12304792E-01 0.12072988E+03</pdfrwt>
<pdfrwt beam="2">  1       -1 0.18042659E-01 0.12072988E+03</pdfrwt>
<totfact> 0.10745277E+04</totfact>
</mgrwt>
</event>
<event>
 6    1  0.6101889E-006  0.1899956E+03  0.7546771E-02  0.1163359E+00
          2   -1    0    0  501    0  0.00000000000E+00  0.00000000000E+00  0.65260736955E+03  0.65260736955E+03  0.00000000000E+00 0. -1.
         -2   -1    0    0    0  501 -0.00000000000E+00 -0.00000000000E+00 -0.49808748698E+02  0.49808748698E+02  0.00000000000E+00 0.  1.
          5    1    1    2  502    0  0.56351805804E+02 -0.12198398427E+03  0.16251823377E+03  0.21092625428E+03  0.47000000000E+01 0. -1.
         -5    1    1    2    0  502  0.11701617283E+02 -0.38824722880E+01  0.18225625869E+03  0.18273323526E+03  0.47000000000E+01 0. -1.
        -11    1    1    2    0    0 -0.58661979369E+02  0.13915596560E+03  0.21482025381E+03  0.26258970283E+03  0.00000000000E+00 0. -1.
         11    1    1    2    0    0 -0.93914437177E+01 -0.13289509042E+02  0.43203874583E+02  0.46166925874E+02  0.00000000000E+00 0.  1.
<mgrwt>
<rscale>  0 0.18466959E+03</rscale>
<asrwt>0</asrwt>
<pdfrwt beam="1">  1        2 0.10040113E+00 0.18999564E+03</pdfrwt>
<pdfrwt beam="2">  1       -2 0.76628849E-02 0.18999564E+03</pdfrwt>
<totfact> 0.45445168E+03</totfact>
</mgrwt>
</event>
<event>
 6    1  0.6101889E-006  0.1537154E+03  0.7546771E-02  0.1204346E+00
         -1   -1    0    0    0  501 -0.00000000000E+00  0.00000000000E+00  0.26981808646E+02  0.26981808646E+02  0.00000000000E+00 0.  1.
          1   -1    0    0  501    0  0.00000000000E+00 -0.00000000000E+00 -0.12059921684E+04  0.12059921684E+04  0.00000000000E+00 0. -1.
          5    1    1    2  502    0 -0.33338990053E+02 -0.44616057255E+02 -0.44471860153E+03  0.44821736397E+03  0.47000000000E+01 0. -1.
         -5    1    1    2    0  502 -0.47154142648E+02  0.83667683731E+02 -0.56114891453E+03  0.56932766379E+03  0.47000000000E+01 0. -1.
        -11    1    1    2    0    0  0.44927260382E+02  0.18345972005E+02 -0.29720454349E+02  0.56906404041E+02  0.00000000000E+00 0.  1.
         11    1    1    2    0    0  0.35565872320E+02 -0.57397598480E+02 -0.14342238933E+03  0.15852254523E+03  0.00000000000E+00 0. -1.
<mgrwt>
<rscale>  0 0.14689150E+03</rscale>
<asrwt>0</asrwt>
<pdfrwt beam="2">  1        1 0.18553725E+00 0.15371540E+03</pdfrwt>
<pdfrwt beam="1">  1       -1 0.41510477E-02 0.15371540E+03</pdfrwt>
<totfact> 0.26191316E+03</totfact>
</mgrwt>
</event>
<event>
 6    1  0.6101889E-006  0.1357687E+03  0.7546771E-02  0.1229248E+00
         -2   -1    0    0    0  501 -0.00000000000E+00  0.00000000000E+00  0.37261372390E+02  0.37261372390E+02  0.00000000000E+00 0.  1.
          2   -1    0    0  501    0  0.00000000000E+00 -0.00000000000E+00 -0.55808642187E+03  0.55808642187E+03  0.00000000000E+00 0. -1.
          5    1    1    2  502    0  0.38348883572E+02  0.72670536214E+02 -0.18241065754E+03  0.20011841916E+03  0.47000000000E+01 0.  1.
         -5    1    1    2    0  502 -0.32848451050E+02 -0.20223342119E+02 -0.25305471756E+03  0.25602106238E+03  0.47000000000E+01 0.  1.
        -11    1    1    2    0    0 -0.39608733391E+02 -0.47647718280E+02 -0.19622492963E+02  0.64993838541E+02  0.00000000000E+00 0.  1.
         11    1    1    2    0    0  0.34108300869E+02 -0.47994758146E+01 -0.65737181419E+02  0.74214474176E+02  0.00000000000E+00 0. -1.
<mgrwt>
<rscale>  0 0.12879975E+03</rscale>
<asrwt>0</asrwt>
<pdfrwt beam="2">  1        2 0.85859447E-01 0.13576868E+03</pdfrwt>
<pdfrwt beam="1">  1       -2 0.57325190E-02 0.13576868E+03</pdfrwt>
<totfact> 0.83413230E+03</totfact>
</mgrwt>
</event>
<event>
 6    1  0.6101889E-006  0.1455449E+03  0.7546771E-02  0.1216909E+00
          2   -1    0    0  501    0  0.00000000000E+00  0.00000000000E+00  0.49285410691E+03  0.49285410691E+03  0.00000000000E+00 0.  1.
         -2   -1    0    0    0  501 -0.00000000000E+00 -0.00000000000E+00 -0.59570517750E+02  0.59570517750E+02  0.00000000000E+00 0. -1.
          5    1    1    2  502    0 -0.96382040905E+02  0.33869979806E+01  0.39755741363E+03  0.40911484537E+03  0.47000000000E+01 0. -1.
         -5    1    1    2    0  502  0.21855003053E+02 -0.18999066177E+01  0.11805291588E+02  0.25351641231E+02  0.47000000000E+01 0. -1.
        -11    1    1    2    0    0  0.68840799286E+02 -0.35961701498E+02  0.28472899742E+02  0.82722461525E+02  0.00000000000E+00 0.  1.
         11    1    1    2    0    0  0.56862385655E+01  0.34474610135E+02 -0.45520158055E+01  0.35235676535E+02  0.00000000000E+00 0. -1.
<mgrwt>
<rscale>  0 0.13737253E+03</rscale>
<asrwt>0</asrwt>
<pdfrwt beam="1">  1        2 0.75823706E-01 0.14554485E+03</pdfrwt>
<pdfrwt beam="2">  1       -2 0.91646954E-02 0.14554485E+03</pdfrwt>
<totfact> 0.46745536E+03</totfact>
</mgrwt>
</event>
<event>
 6    1  0.6101889E-006  0.1251136E+03  0.7546771E-02  0.1248346E+00
         -2   -1    0    0    0  501 -0.00000000000E+00  0.00000000000E+00  0.25281515406E+02  0.25281515406E+02  0.00000000000E+00 0.  1.
          2   -1    0    0  501    0  0.00000000000E+00 -0.00000000000E+00 -0.69560195468E+03  0.69560195468E+03  0.00000000000E+00 0. -1.
          5    1    1    2  502    0 -0.23000527114E+02 -0.55212041596E+02 -0.30646711343E+03  0.31228444629E+03  0.47000000000E+01 0.  1.
         -5    1    1    2    0  502  0.28127645906E+02  0.57620324839E+02 -0.25929974902E+03  0.26715111106E+03  0.47000000000E+01 0.  1.
        -11    1    1    2    0    0 -0.30524519306E+02  0.18951848083E+01  0.31143040602E+01  0.30741452374E+02  0.00000000000E+00 0.  1.
         11    1    1    2    0    0  0.25397400514E+02 -0.43034680515E+01 -0.10766788088E+03  0.11070646035E+03  0.00000000000E+00 0. -1.
<mgrwt>
<rscale>  0 0.11687340E+03</rscale>
<asrwt>0</asrwt>
<pdfrwt beam="2">  1        2 0.10701568E+00 0.12511364E+03</pdfrwt>
<pdfrwt beam="1">  1       -2 0.38894642E-02 0.12511364E+03</pdfrwt>
<totfact> 0.11510590E+04</totfact>
</mgrwt>
</event>
<event>
 6    1  0.6101889E-006  0.1546730E+03  0.7546771E-02  0.1203348E+00
          1   -1    0    0  501    0  0.00000000000E+00  0.00000000000E+00  0.51451903834E+03  0.51451903834E+03  0.00000000000E+00 0. -1.
         -1   -1    0    0    0  501 -0.00000000000E+00 -0.00000000000E+00 -0.11998573602E+03  0.11998573602E+03  0.00000000000E+00 0.  1.
          5    1    1    2  502    0 -0.55797977879E+01  0.24245597121E+02  0.23976489115E+03  0.24109806335E+03  0.47000000000E+01 0. -1.
         -5    1    1    2    0  502 -0.60957716807E+02 -0.86457753989E+02  0.22372950929E+03  0.24752327121E+03  0.47000000000E+01 0. -1.
        -11    1    1    2    0    0  0.43011407399E+02  0.83387882222E+02 -0.64638379427E+02  0.11393700085E+03  0.00000000000E+00 0.  1.
         11    1    1    2    0    0  0.23526107196E+02 -0.21175725354E+02 -0.43227186925E+01  0.31946438941E+02  0.00000000000E+00 0. -1.
<mgrwt>
<rscale>  0 0.14768387E+03</rscale>
<asrwt>0</asrwt>
<pdfrwt beam="1">  1        1 0.79156774E-01 0.15467304E+03</pdfrwt>
<pdfrwt beam="2">  1       -1 0.18459344E-01 0.15467304E+03</pdfrwt>
<totfact> 0.99771819E+02</totfact>
</mgrwt>
</event>
<event>
 6    1  0.6101889E-006  0.1319594E+03  0.7546771E-02  0.1237524E+00
         -1   -1    0    0    0  501 -0.00000000000E+00  0.00000000000E+00  0.40280557107E+02  0.40280557107E+02  0.00000000000E+00 0.  1.
          1   -1    0    0  501    0  0.00000000000E+00 -0.00000000000E+00 -0.35609813821E+03  0.35609813821E+03  0.00000000000E+00 0. -1.
          5    1    1    2  502    0 -0.23872288855E+02 -0.44994533627E+02 -0.89380882843E+02  0.10298265121E+03  0.47000000000E+01 0.  1.
         -5    1    1    2    0  502  0.66132814211E+02  0.46141539963E+02 -0.13389988018E+03  0.15637729610E+03  0.47000000000E+01 0.  1.
        -11    1    1    2    0    0 -0.21598300885E+01 -0.18583857928E+02 -0.91380230323E+02  0.93275780004E+02  0.00000000000E+00 0. -1.
         11    1    1    2    0    0 -0.40100695267E+02  0.17436851591E+02 -0.11565877570E+01  0.43742968001E+02  0.00000000000E+00 0.  1.
<mgrwt>
<rscale>  0 0.12344235E+03</rscale>
<asrwt>0</asrwt>
<pdfrwt beam="2">  1        1 0.54784329E-01 0.13195940E+03</pdfrwt>
<pdfrwt beam="1">  1       -1 0.61970088E-02 0.13195940E+03</pdfrwt>
<totfact> 0.84955574E+03</totfact>
</mgrwt>
</event>
<event>
 6    1  0.6101889E-006  0.1492301E+03  0.7546771E-02  0.1211876E+00
         -4   -1    0    0    0  501 -0.00000000000E+00  0.00000000000E+00  0.57458783938E+02  0.57458783938E+02  0.00000000000E+00 0.  1.
          4   -1    0    0  501    0  0.00000000000E+00 -0.00000000000E+00 -0.32501252020E+03  0.32501252020E+03  0.00000000000E+00 0. -1.
          5    1    1    2  502    0 -0.29324465557E+02  0.83970887036E+02 -0.68372390605E+02  0.11228494087E+03  0.47000000000E+01 0. -1.
         -5    1    1    2    0  502  0.46106168068E+02 -0.42016762058E+01 -0.11551491502E+03  0.12453601250E+03  0.47000000000E+01 0. -1.
        -11    1    1    2    0    0  0.67333789551E+01 -0.78189676317E+02 -0.91749238374E+02  0.12073477799E+03  0.00000000000E+00 0. -1.
         11    1    1    2    0    0 -0.23515081467E+02 -0.15795345139E+01  0.80828077387E+01  0.24915572773E+02  0.00000000000E+00 0.  1.
<mgrwt>
<rscale>  0 0.14108527E+03</rscale>
<asrwt>0</asrwt>
<pdfrwt beam="2">  1        4 0.50001927E-01 0.14923010E+03</pdfrwt>
<pdfrwt beam="1">  1       -4 0.88398127E-02 0.14923010E+03</pdfrwt>
<totfact> 0.61182990E+02</totfact>
</mgrwt>
</event>
<event>
 6    1  0.6101889E-006  0.1412889E+03  0.7546771E-02  0.1222280E+00
          1   -1    0    0  501    0  0.00000000000E+00  0.00000000000E+00  0.24677347838E+02  0.24677347838E+02  0.00000000000E+00 0. -1.
         -1   -1    0    0    0  501 -0.00000000000E+00 -0.00000000000E+00 -0.65650852904E+03  0.65650852904E+03  0.00000000000E+00 0.  1.
          5    1    1    2  502    0 -0.22765675250E+02 -0.32658007308E+02 -0.26440753130E+02  0.48021087420E+02  0.47000000000E+01 0. -1.
         -5    1    1    2    0  502  0.64671719129E+02 -0.18167387314E+02 -0.30381654082E+03  0.31118975833E+03  0.47000000000E+01 0. -1.
        -11    1    1    2    0    0 -0.22348453735E+02  0.74929023082E+02 -0.24827327682E+03  0.26029489404E+03  0.00000000000E+00 0.  1.
         11    1    1    2    0    0 -0.19557590144E+02 -0.24103628460E+02 -0.53300610431E+02  0.61680137075E+02  0.00000000000E+00 0. -1.
<mgrwt>
<rscale>  0 0.13355085E+03</rscale>
<asrwt>0</asrwt>
<pdfrwt beam="1">  1        1 0.37965153E-02 0.14128889E+03</pdfrwt>
<pdfrwt beam="2">  1       -1 0.10100131E+00 0.14128889E+03</pdfrwt>
<totfact> 0.23392287E+03</totfact>
</mgrwt>
</event>
<event>
 6    1  0.6101889E-006  0.2228425E+03  0.7546771E-02  0.1151390E+00
         -1   -1    0    0    0  501 -0.00000000000E+00  0.00000000000E+00  0.42667259375E+02  0.42667259375E+02  0.00000000000E+00 0.  1.
          1   -1    0    0  501    0  0.00000000000E+00 -0.00000000000E+00 -0.77455182331E+03  0.77455182331E+03  0.00000000000E+00 0. -1.
          5    1    1    2  502    0 -0.76075653909E+02  0.50622376881E+02 -0.50585722282E+03  0.51406590049E+03  0.47000000000E+01 0. -1.
         -5    1    1    2    0  502 -0.10702007904E+02  0.80761624375E+01  0.17612971447E+02  0.22628834174E+02  0.47000000000E+01 0.  1.
        -11    1    1    2    0    0  0.20823657088E+02  0.19726115784E+02 -0.10031686339E+03  0.10433703761E+03  0.00000000000E+00 0. -1.
         11    1    1    2    0    0  0.65954004726E+02 -0.78424655102E+02 -0.14332344917E+03  0.17618731041E+03  0.00000000000E+00 0.  1.
<mgrwt>
<rscale>  0 0.19805546E+03</rscale>
<asrwt>0</asrwt>
<pdfrwt beam="2">  1        1 0.11916182E+00 0.22284252E+03</pdfrwt>
<pdfrwt beam="1">  1       -1 0.65641937E-02 0.22284252E+03</pdfrwt>
<totfact> 0.28062761E+03</totfact>
</mgrwt>
</event>
<event>
 6    1  0.6101889E-006  0.2970755E+03  0.7546771E-02  0.1088256E+00
         -1   -1    0    0    0  501 -0.00000000000E+00  0.00000000000E+00  0.85325742175E+02  0.85325742175E+02  0.00000000000E+00 0.  1.
          1   -1    0    0  501    0  0.00000000000E+00 -0.00000000000E+00 -0.10028235270E+04  0.10028235270E+04  0.00000000000E+00 0. -1.
          5    1    1    2  502    0 -0.38909988983E+02  0.15221127634E+03 -0.31307915420E+03  0.35031829339E+03  0.47000000000E+01 0.  1.
         -5    1    1    2    0  502 -0.12194316854E+03  0.64015758023E+02 -0.20833943614E+03  0.24979104123E+03  0.47000000000E+01 0.  1.
        -11    1    1    2    0    0  0.55164993711E+02 -0.16197588692E+02 -0.10097013647E+03  0.11619168159E+03  0.00000000000E+00 0.  1.
         11    1    1    2    0    0  0.10568816381E+03 -0.20002944567E+03 -0.29510905797E+03  0.37184825292E+03  0.00000000000E+00 0. -1.
<mgrwt>
<rscale>  0 0.29404535E+03</rscale>
<asrwt>0</asrwt>
<pdfrwt beam="2">  1        1 0.15428054E+00 0.29707552E+03</pdfrwt>
<pdfrwt beam="1">  1       -1 0.13127037E-01 0.29707552E+03</pdfrwt>
<totfact> 0.63357973E+02</totfact>
</mgrwt>
</event>
<event>
 6    1  0.6101889E-006  0.1390241E+03  0.7546771E-02  0.1225489E+00
         -1   -1    0    0    0  501 -0.00000000000E+00  0.00000000000E+00  0.85572766814E+02  0.85572766814E+02  0.00000000000E+00 0.  1.
          1   -1    0    0  501    0  0.00000000000E+00 -0.00000000000E+00 -0.18494452328E+03  0.18494452328E+03  0.00000000000E+00 0. -1.
          5    1    1    2  502    0  0.51547287845E+02  0.75918857702E+02  0.20734049009E+00  0.91885411405E+02  0.47000000000E+01 0.  1.
         -5    1    1    2    0  502 -0.76373886126E+01 -0.33797138954E+02 -0.39145995723E+02  0.52488811069E+02  0.47000000000E+01 0.  1.
        -11    1    1    2    0    0 -0.26624721055E+02 -0.39475729412E+02  0.14042019347E+02  0.49642595533E+02  0.00000000000E+00 0.  1.
         11    1    1    2    0    0 -0.17285178177E+02 -0.26459893363E+01 -0.74475120577E+02  0.76500472084E+02  0.00000000000E+00 0. -1.
<mgrwt>
<rscale>  0 0.13133439E+03</rscale>
<asrwt>0</asrwt>
<pdfrwt beam="2">  1        1 0.28453003E-01 0.13902409E+03</pdfrwt>
<pdfrwt beam="1">  1       -1 0.13165041E-01 0.13902409E+03</pdfrwt>
<totfact> 0.61142212E+03</totfact>
</mgrwt>
</event>
<event>
 6    1  0.6101889E-006  0.1269619E+03  0.7546771E-02  0.1248017E+00
         -2   -1    0    0    0  501 -0.00000000000E+00  0.00000000000E+00  0.36322901549E+02  0.36322901549E+02  0.00000000000E+00 0.  1.
          2   -1    0    0  501    0  0.00000000000E+00 -0.00000000000E+00 -0.34300455346E+03  0.34300455346E+03  0.00000000000E+00 0. -1.
          5    1    1    2  502    0  0.25662689819E+02  0.56784025378E+02 -0.54037056933E+02  0.82614119307E+02  0.47000000000E+01 0.  1.
         -5    1    1    2    0  502 -0.73875699282E+01 -0.44117804291E+02 -0.16042764202E+03  0.16661355038E+03  0.47000000000E+01 0.  1.
        -11    1    1    2    0    0 -0.33322049656E+02  0.20338073140E+02 -0.10092908348E+02  0.40321991658E+02  0.00000000000E+00 0.  1.
         11    1    1    2    0    0  0.15046929766E+02 -0.33004294227E+02 -0.82124044612E+02  0.89777793670E+02  0.00000000000E+00 0. -1.
<mgrwt>
<rscale>  0 0.11706630E+03</rscale>
<asrwt>0</asrwt>
<pdfrwt beam="2">  1        2 0.52769930E-01 0.12696190E+03</pdfrwt>
<pdfrwt beam="1">  1       -2 0.55881388E-02 0.12696190E+03</pdfrwt>
<totfact> 0.14599693E+04</totfact>
</mgrwt>
</event>
<event>
 6    1  0.6101889E-006  0.2715618E+03  0.7546771E-02  0.1100389E+00
         -2   -1    0    0    0  501 -0.00000000000E+00  0.00000000000E+00  0.39272141371E+02  0.39272141371E+02  0.00000000000E+00 0.  1.
          2   -1    0    0  501    0  0.00000000000E+00 -0.00000000000E+00 -0.46945387479E+03  0.46945387479E+03  0.00000000000E+00 0. -1.
          5    1    1    2  502    0 -0.18743155959E+02 -0.81988819637E+02 -0.53647642846E+02  0.99868073095E+02  0.47000000000E+01 0.  1.
         -5    1    1    2    0  502  0.42061717182E+01  0.23260100273E+01 -0.16241371058E+03  0.16255277785E+03  0.47000000000E+01 0.  1.
        -11    1    1    2    0    0 -0.20185035509E+02  0.66750330900E+02 -0.75317922914E+02  0.10264420025E+03  0.00000000000E+00 0.  1.
         11    1    1    2    0    0  0.34722019750E+02  0.12912478709E+02 -0.13880245707E+03  0.14366096495E+03  0.00000000000E+00 0. -1.
<mgrwt>
<rscale>  0 0.27156185E+03</rscale>
<asrwt>0</asrwt>
<pdfrwt beam="2">  1        2 0.72223677E-01 0.27156185E+03</pdfrwt>
<pdfrwt beam="1">  1       -2 0.60418676E-02 0.27156185E+03</pdfrwt>
<totfact> 0.97199093E+03</totfact>
</mgrwt>
</event>
<event>
 6    1  0.6101889E-006  0.3676086E+03  0.7546771E-02  0.1056632E+00
         -2   -1    0    0    0  501 -0.00000000000E+00  0.00000000000E+00  0.55292659553E+03  0.55292659553E+03  0.00000000000E+00 0.  1.
          2   -1    0    0  501    0  0.00000000000E+00 -0.00000000000E+00 -0.24460070443E+03  0.24460070443E+03  0.00000000000E+00 0. -1.
          5    1    1    2  502    0  0.12099096936E+03  0.31432405561E+03  0.20089561856E+03  0.39219837602E+03  0.47000000000E+01 0. -1.
         -5    1    1    2    0  502 -0.24448440341E+02  0.17626023955E+02  0.23272550821E+02  0.38368015029E+02  0.47000000000E+01 0. -1.
        -11    1    1    2    0    0 -0.35784034396E+02 -0.71665259408E+02 -0.15714019336E+02  0.81629265140E+02  0.00000000000E+00 0. -1.
         11    1    1    2    0    0 -0.60758494620E+02 -0.26028482015E+03  0.99871741057E+02  0.28533164376E+03  0.00000000000E+00 0.  1.
<mgrwt>
<rscale>  0 0.36497330E+03</rscale>
<asrwt>0</asrwt>
<pdfrwt beam="2">  1        2 0.37630878E-01 0.36760855E+03</pdfrwt>
<pdfrwt beam="1">  1       -2 0.85065630E-01 0.36760855E+03</pdfrwt>
<totfact> 0.16989667E+02</totfact>
</mgrwt>
</event>
<event>
 6    1  0.6101889E-006  0.1284453E+03  0.7546771E-02  0.1244456E+00
          4   -1    0    0  501    0  0.00000000000E+00  0.00000000000E+00  0.22872145619E+03  0.22872145619E+03  0.00000000000E+00 0. -1.
         -4   -1    0    0    0  501 -0.00000000000E+00 -0.00000000000E+00 -0.54737701500E+02  0.54737701500E+02  0.00000000000E+00 0.  1.
          5    1    1    2  502    0  0.34528557957E+02 -0.94803019085E+01 -0.16169587021E+02  0.39568206723E+02  0.47000000000E+01 0. -1.
         -5    1    1    2    0  502 -0.15580448013E+02  0.32158477114E+02  0.12091402574E+03  0.12617135028E+03  0.47000000000E+01 0. -1.
        -11    1    1    2    0    0 -0.13334348580E+02 -0.50457170623E+02  0.72349783097E+02  0.89208867460E+02  0.00000000000E+00 0. -1.
         11    1    1    2    0    0 -0.56137613634E+01  0.27778995417E+02 -0.31104671327E+01  0.28510733221E+02  0.00000000000E+00 0.  1.
<mgrwt>
<rscale>  0 0.11917980E+03</rscale>
<asrwt>0</asrwt>
<pdfrwt beam="1">  1        4 0.35187916E-01 0.12844533E+03</pdfrwt>
<pdfrwt beam="2">  1       -4 0.84211850E-02 0.12844533E+03</pdfrwt>
<totfact> 0.12913872E+03</totfact>
</mgrwt>
</event>
<event>
 6    1  0.6101889E-006  0.1419816E+03  0.7546771E-02  0.1221983E+00
         -2   -1    0    0    0  501 -0.00000000000E+00  0.00000000000E+00  0.16606230280E+02  0.16606230280E+02  0.00000000000E+00 0.  1.
          2   -1    0    0  501    0  0.00000000000E+00 -0.00000000000E+00 -0.14437249790E+04  0.14437249790E+04  0.00000000000E+00 0. -1.
          5    1    1    2  502    0  0.60504071537E+02 -0.34598811142E+02 -0.31222218123E+03  0.31994155850E+03  0.47000000000E+01 0.  1.
         -5    1    1    2    0  502  0.68308553218E+01  0.35099103546E+02 -0.87458733006E+03  0.87533062071E+03  0.47000000000E+01 0.  1.
        -11    1    1    2    0    0 -0.28310117156E+02 -0.40685353489E+02 -0.69979474408E+02  0.85754810712E+02  0.00000000000E+00 0.  1.
         11    1    1    2    0    0 -0.39024809703E+02  0.40185061085E+02 -0.17032976301E+03  0.17930421934E+03  0.00000000000E+00 0. -1.
<mgrwt>
<rscale>  0 0.13375851E+03</rscale>
<asrwt>0</asrwt>
<pdfrwt beam="2">  1        2 0.22211163E+00 0.14198157E+03</pdfrwt>
<pdfrwt beam="1">  1       -2 0.25548036E-02 0.14198157E+03</pdfrwt>
<totfact> 0.77132010E+03</totfact>
</mgrwt>
</event>
<event>
 6    1  0.6101889E-006  0.1315361E+03  0.7546771E-02  0.1237547E+00
         -1   -1    0    0    0  501 -0.00000000000E+00  0.00000000000E+00  0.47022016710E+02  0.47022016710E+02  0.00000000000E+00 0.  1.
          1   -1    0    0  501    0  0.00000000000E+00 -0.00000000000E+00 -0.42237504679E+03  0.42237504679E+03  0.00000000000E+00 0. -1.
          5    1    1    2  502    0  0.32228123917E+02  0.17304362060E+02 -0.33845795500E+02  0.50057175216E+02  0.47000000000E+01 0.  1.
         -5    1    1    2    0  502 -0.72248924595E+02 -0.85794411615E+01 -0.30084190415E+03  0.30955040818E+03  0.47000000000E+01 0.  1.
        -11    1    1    2    0    0  0.40051001977E+02 -0.47642690451E+02 -0.18173100751E+02  0.64839573593E+02  0.00000000000E+00 0. -1.
         11    1    1    2    0    0 -0.30201299254E-01  0.38917769553E+02 -0.22492229684E+02  0.44949906510E+02  0.00000000000E+00 0.  1.
<mgrwt>
<rscale>  0 0.12342789E+03</rscale>
<asrwt>0</asrwt>
<pdfrwt beam="2">  1        1 0.64980775E-01 0.13153615E+03</pdfrwt>
<pdfrwt beam="1">  1       -1 0.72341565E-02 0.13153615E+03</pdfrwt>
<totfact> 0.54385242E+03</totfact>
</mgrwt>
</event>
<event>
 6    1  0.6101889E-006  0.1611638E+03  0.7546771E-02  0.1197380E+00
         -1   -1    0    0    0  501 -0.00000000000E+00  0.00000000000E+00  0.42143560670E+02  0.42143560670E+02  0.00000000000E+00 0.  1.
          1   -1    0    0  501    0  0.00000000000E+00 -0.00000000000E+00 -0.50604488856E+03  0.50604488856E+03  0.00000000000E+00 0. -1.
          5    1    1    2  502    0 -0.28658619804E+02  0.49231233097E+02 -0.26243838625E+03  0.26859081775E+03  0.47000000000E+01 0.  1.
         -5    1    1    2    0  502  0.16153383069E+02  0.51723983653E+02 -0.22691932452E+02  0.58934845956E+02  0.47000000000E+01 0.  1.
        -11    1    1    2    0    0 -0.14703722379E+02 -0.50342334708E+02 -0.14457719052E+03  0.15379568959E+03  0.00000000000E+00 0. -1.
         11    1    1    2    0    0  0.27208959113E+02 -0.50612882041E+02 -0.34193818665E+02  0.66867095940E+02  0.00000000000E+00 0.  1.
<mgrwt>
<rscale>  0 0.15254475E+03</rscale>
<asrwt>0</asrwt>
<pdfrwt beam="2">  1        1 0.77853057E-01 0.16116377E+03</pdfrwt>
<pdfrwt beam="1">  1       -1 0.64836250E-02 0.16116377E+03</pdfrwt>
<totfact> 0.51320674E+03</totfact>
</mgrwt>
</event>
<event>
 6    1  0.6101889E-006  0.1342997E+03  0.7546771E-02  0.1234159E+00
          2   -1    0    0  501    0  0.00000000000E+00  0.00000000000E+00  0.30629804061E+03  0.30629804061E+03  0.00000000000E+00 0. -1.
         -2   -1    0    0    0  501 -0.00000000000E+00 -0.00000000000E+00 -0.47768766740E+02  0.47768766740E+02  0.00000000000E+00 0.  1.
          5    1    1    2  502    0 -0.12893813451E+02 -0.60670090114E+02  0.19190372510E+03  0.20173309091E+03  0.47000000000E+01 0.  1.
         -5    1    1    2    0  502 -0.10596422711E+02  0.17628606256E+02 -0.10824672663E+02  0.23713191920E+02  0.47000000000E+01 0.  1.
        -11    1    1    2    0    0 -0.12832735853E+02  0.22812037635E+01 -0.15849571391E+02  0.20520524198E+02  0.00000000000E+00 0.  1.
         11    1    1    2    0    0  0.36322972015E+02  0.40760280094E+02  0.93299792824E+02  0.10810000033E+03  0.00000000000E+00 0. -1.
<mgrwt>
<rscale>  0 0.12558435E+03</rscale>
<asrwt>0</asrwt>
<pdfrwt beam="1">  1        2 0.47122774E-01 0.13429968E+03</pdfrwt>
<pdfrwt beam="2">  1       -2 0.73490412E-02 0.13429968E+03</pdfrwt>
<totfact> 0.10900621E+04</totfact>
</mgrwt>
</event>
<event>
 6    1  0.6101889E-006  0.1305697E+03  0.7546771E-02  0.1241069E+00
         -2   -1    0    0    0  501 -0.00000000000E+00  0.00000000000E+00  0.21945335236E+02  0.21945335236E+02  0.00000000000E+00 0.  1.
          2   -1    0    0  501    0  0.00000000000E+00 -0.00000000000E+00 -0.59044391614E+03  0.59044391614E+03  0.00000000000E+00 0. -1.
          5    1    1    2  502    0  0.47236794978E+02  0.42286161975E+02 -0.29281615259E+03  0.29963782056E+03  0.47000000000E+01 0.  1.
         -5    1    1    2    0  502 -0.40772529233E+02 -0.51282555914E+01 -0.38614483539E+02  0.56585037638E+02  0.47000000000E+01 0.  1.
        -11    1    1    2    0    0 -0.38819646399E+02 -0.15121801774E+02 -0.19201244804E+03  0.19648006015E+03  0.00000000000E+00 0.  1.
         11    1    1    2    0    0  0.32355380654E+02 -0.22036104609E+02 -0.45055496743E+02  0.59686333028E+02  0.00000000000E+00 0. -1.
<mgrwt>
<rscale>  0 0.12123788E+03</rscale>
<asrwt>0</asrwt>
<pdfrwt beam="2">  1        2 0.90837507E-01 0.13056974E+03</pdfrwt>
<pdfrwt beam="1">  1       -2 0.33762061E-02 0.13056974E+03</pdfrwt>
<totfact> 0.17200658E+04</totfact>
</mgrwt>
</event>
<event>
 6    1  0.6101889E-006  0.1411816E+03  0.7546771E-02  0.1222780E+00
         -1   -1    0    0    0  501 -0.00000000000E+00  0.00000000000E+00  0.10254117095E+03  0.10254117095E+03  0.00000000000E+00 0.  1.
          1   -1    0    0  501    0  0.00000000000E+00 -0.00000000000E+00 -0.30115046800E+03  0.30115046800E+03  0.00000000000E+00 0. -1.
          5    1    1    2  502    0  0.45133008471E+02 -0.83542233281E+02 -0.18475780733E+03  0.20778313350E+03  0.47000000000E+01 0. -1.
         -5    1    1    2    0  502 -0.40538530449E+02  0.18072842308E+02 -0.60095872842E+02  0.74857224185E+02  0.47000000000E+01 0. -1.
        -11    1    1    2    0    0  0.93638190741E+01  0.65419615552E+01 -0.25036549886E+02  0.27519215084E+02  0.00000000000E+00 0. -1.
         11    1    1    2    0    0 -0.13958297097E+02  0.58927429418E+02  0.71280933011E+02  0.93532066194E+02  0.00000000000E+00 0.  1.
<mgrwt>
<rscale>  0 0.13320235E+03</rscale>
<asrwt>0</asrwt>
<pdfrwt beam="2">  1        1 0.46330841E-01 0.14118161E+03</pdfrwt>
<pdfrwt beam="1">  1       -1 0.15775565E-01 0.14118161E+03</pdfrwt>
<totfact> 0.25192034E+03</totfact>
</mgrwt>
</event>
<event>
 6    1  0.6101889E-006  0.1306603E+03  0.7546771E-02  0.1239232E+00
          2   -1    0    0  501    0  0.00000000000E+00  0.00000000000E+00  0.41301712141E+03  0.41301712141E+03  0.00000000000E+00 0. -1.
         -2   -1    0    0    0  501 -0.00000000000E+00 -0.00000000000E+00 -0.32936437986E+02  0.32936437986E+02  0.00000000000E+00 0.  1.
          5    1    1    2  502    0 -0.41821172159E+02 -0.69265582553E+02  0.15183353287E+03  0.17211113581E+03  0.47000000000E+01 0.  1.
         -5    1    1    2    0  502  0.23677995350E+02  0.35685040163E+02  0.33133544867E+02  0.54350633397E+02  0.47000000000E+01 0.  1.
        -11    1    1    2    0    0 -0.25349349453E+02  0.30424041679E+02  0.32793278121E+02  0.51416057022E+02  0.00000000000E+00 0.  1.
         11    1    1    2    0    0  0.43492526262E+02  0.31565007114E+01  0.16232032757E+03  0.16807573317E+03  0.00000000000E+00 0. -1.
<mgrwt>
<rscale>  0 0.12237347E+03</rscale>
<asrwt>0</asrwt>
<pdfrwt beam="1">  1        2 0.63541092E-01 0.13066030E+03</pdfrwt>
<pdfrwt beam="2">  1       -2 0.50671446E-02 0.13066030E+03</pdfrwt>
<totfact> 0.13916373E+04</totfact>
</mgrwt>
</event>
<event>
 6    1  0.6101889E-006  0.1289826E+03  0.7546771E-02  0.1242319E+00
          2   -1    0    0  501    0  0.00000000000E+00  0.00000000000E+00  0.13914196580E+03  0.13914196580E+03  0.00000000000E+00 0. -1.
         -2   -1    0    0    0  501 -0.00000000000E+00 -0.00000000000E+00 -0.93042049335E+02  0.93042049335E+02  0.00000000000E+00 0.  1.
          5    1    1    2  502    0  0.20332005904E+02 -0.47148332951E+02  0.66037710286E+02  0.83782008474E+02  0.47000000000E+01 0.  1.
         -5    1    1    2    0  502 -0.31975535446E+02  0.17562277223E+02 -0.32943597715E+02  0.49378528519E+02  0.47000000000E+01 0.  1.
        -11    1    1    2    0    0  0.81660033793E+01 -0.29514219304E+02  0.23876561132E+02  0.38831210692E+02  0.00000000000E+00 0. -1.
         11    1    1    2    0    0  0.34775261625E+01  0.59100275033E+02 -0.10870757242E+02  0.60192267445E+02  0.00000000000E+00 0.  1.
<mgrwt>
<rscale>  0 0.12047258E+03</rscale>
<asrwt>0</asrwt>
<pdfrwt beam="1">  1        2 0.21406456E-01 0.12898259E+03</pdfrwt>
<pdfrwt beam="2">  1       -2 0.14314161E-01 0.12898259E+03</pdfrwt>
<totfact> 0.89235029E+03</totfact>
</mgrwt>
</event>
<event>
 6    1  0.6101889E-006  0.2331976E+03  0.7546771E-02  0.1127331E+00
          2   -1    0    0  501    0  0.00000000000E+00  0.00000000000E+00  0.19065412745E+03  0.19065412745E+03  0.00000000000E+00 0. -1.
         -2   -1    0    0    0  501 -0.00000000000E+00 -0.00000000000E+00 -0.26604097789E+03  0.26604097789E+03  0.00000000000E+00 0.  1.
          5    1    1    2  502    0 -0.74375167278E+02  0.28945531233E+02  0.16079857526E+02  0.81548519938E+02  0.47000000000E+01 0.  1.
         -5    1    1    2    0  502 -0.11399104793E+03 -0.86164806526E+02 -0.63423370134E+02  0.15640635144E+03  0.47000000000E+01 0.  1.
        -11    1    1    2    0    0  0.42842163215E+02  0.40000380282E+02  0.23856152918E+02  0.63281888433E+02  0.00000000000E+00 0. -1.
         11    1    1    2    0    0  0.14552405199E+03  0.17218895011E+02 -0.51899490754E+02  0.15545834553E+03  0.00000000000E+00 0.  1.
<mgrwt>
<rscale>  0 0.22902111E+03</rscale>
<asrwt>0</asrwt>
<pdfrwt beam="1">  1        2 0.29331404E-01 0.23319758E+03</pdfrwt>
<pdfrwt beam="2">  1       -2 0.40929381E-01 0.23319758E+03</pdfrwt>
<totfact> 0.10228256E+03</totfact>
</mgrwt>
</event>
<event>
 6    1  0.6101889E-006  0.2882209E+03  0.7546771E-02  0.1091282E+00
         -2   -1    0    0    0  501 -0.00000000000E+00  0.00000000000E+00  0.52910768302E+02  0.52910768302E+02  0.00000000000E+00 0.  1.
          2   -1    0    0  501    0  0.00000000000E+00 -0.00000000000E+00 -0.39250639260E+03  0.39250639260E+03  0.00000000000E+00 0. -1.
          5    1    1    2  502    0  0.24214727690E+02  0.11113538808E+02 -0.13698163809E+03  0.13962780151E+03  0.47000000000E+01 0. -1.
         -5    1    1    2    0  502 -0.91732102223E+02 -0.43007882787E+02 -0.13499170827E+03  0.16884699542E+03  0.47000000000E+01 0. -1.
        -11    1    1    2    0    0  0.20481036540E+02  0.27834879066E+02 -0.80839177148E+02  0.87916016245E+02  0.00000000000E+00 0. -1.
         11    1    1    2    0    0  0.47036337993E+02  0.40594649132E+01  0.13216899205E+02  0.49026347731E+02  0.00000000000E+00 0.  1.
<mgrwt>
<rscale>  0 0.28822085E+03</rscale>
<asrwt>0</asrwt>
<pdfrwt beam="2">  1        2 0.60385599E-01 0.28822085E+03</pdfrwt>
<pdfrwt beam="1">  1       -2 0.81401182E-02 0.28822085E+03</pdfrwt>
<totfact> 0.74677564E+03</totfact>
</mgrwt>
</event>
<event>
 6    1  0.6101889E-006  0.1306389E+03  0.7546771E-02  0.1239477E+00
          2   -1    0    0  501    0  0.00000000000E+00  0.00000000000E+00  0.75685887134E+03  0.75685887134E+03  0.00000000000E+00 0. -1.
         -2   -1    0    0    0  501 -0.00000000000E+00 -0.00000000000E+00 -0.17588569195E+02  0.17588569195E+02  0.00000000000E+00 0.  1.
          5    1    1    2  502    0  0.46323554406E+02  0.51512136945E+02  0.17146740556E+03  0.18499333262E+03  0.47000000000E+01 0. -1.
         -5    1    1    2    0  502 -0.86720058649E+01 -0.56252504175E+02  0.24067514100E+03  0.24735836635E+03  0.47000000000E+01 0. -1.
        -11    1    1    2    0    0 -0.67170747128E+01  0.43573533704E+02  0.95198668836E+02  0.10491214649E+03  0.00000000000E+00 0. -1.
         11    1    1    2    0    0 -0.30934473828E+02 -0.38833166474E+02  0.23192908675E+03  0.23718359507E+03  0.00000000000E+00 0.  1.
<mgrwt>
<rscale>  0 0.12222108E+03</rscale>
<asrwt>0</asrwt>
<pdfrwt beam="1">  1        2 0.11643980E+00 0.13063886E+03</pdfrwt>
<pdfrwt beam="2">  1       -2 0.27059343E-02 0.13063886E+03</pdfrwt>
<totfact> 0.17802473E+04</totfact>
</mgrwt>
</event>
<event>
 6    1  0.6101889E-006  0.1329492E+03  0.7546771E-02  0.1236021E+00
         -2   -1    0    0    0  501 -0.00000000000E+00  0.00000000000E+00  0.10135637360E+03  0.10135637360E+03  0.00000000000E+00 0. -1.
          2   -1    0    0  501    0  0.00000000000E+00 -0.00000000000E+00 -0.20026922248E+03  0.20026922248E+03  0.00000000000E+00 0.  1.
          5    1    1    2  502    0  0.26258601432E+02 -0.79548867162E+02 -0.62838001927E+02  0.10482481053E+03  0.47000000000E+01 0.  1.
         -5    1    1    2    0  502 -0.25827053649E+02  0.34277250203E+02 -0.75969006667E+02  0.87380470104E+02  0.47000000000E+01 0.  1.
        -11    1    1    2    0    0 -0.40663744368E+02  0.40332168920E+02  0.79723353747E+01  0.57825444980E+02  0.00000000000E+00 0.  1.
         11    1    1    2    0    0  0.40232196585E+02  0.49394480394E+01  0.31921824338E+02  0.51594870462E+02  0.00000000000E+00 0. -1.
<mgrwt>
<rscale>  0 0.12439288E+03</rscale>
<asrwt>0</asrwt>
<pdfrwt beam="2">  1        2 0.30810649E-01 0.13294918E+03</pdfrwt>
<pdfrwt beam="1">  1       -2 0.15593288E-01 0.13294918E+03</pdfrwt>
<totfact> 0.52119697E+03</totfact>
</mgrwt>
</event>
<event>
 6    1  0.6101889E-006  0.1312795E+03  0.7546771E-02  0.1238569E+00
         -3   -1    0    0    0  501 -0.00000000000E+00  0.00000000000E+00  0.13894325230E+02  0.13894325230E+02  0.00000000000E+00 0.  1.
          3   -1    0    0  501    0  0.00000000000E+00 -0.00000000000E+00 -0.13012281375E+04  0.13012281375E+04  0.00000000000E+00 0. -1.
          5    1    1    2  502    0 -0.55117832976E+02  0.71110388685E+01 -0.57801530633E+03  0.58069985943E+03  0.47000000000E+01 0.  1.
         -5    1    1    2    0  502  0.64249730299E+02  0.31948783879E+02 -0.46060497241E+03  0.46618428035E+03  0.47000000000E+01 0.  1.
        -11    1    1    2    0    0  0.15534636174E+02 -0.53924261245E+02 -0.83964041622E+02  0.10099064886E+03  0.00000000000E+00 0.  1.
         11    1    1    2    0    0 -0.24666533496E+02  0.14864438497E+02 -0.16474949191E+03  0.16724767409E+03  0.00000000000E+00 0. -1.
<mgrwt>
<rscale>  0 0.12278699E+03</rscale>
<asrwt>0</asrwt>
<pdfrwt beam="2">  1        3 0.20018904E+00 0.13127954E+03</pdfrwt>
<pdfrwt beam="1">  1       -3 0.21375874E-02 0.13127954E+03</pdfrwt>
<totfact> 0.32249959E+02</totfact>
</mgrwt>
</event>
<event>
 6    1  0.6101889E-006  0.1619061E+03  0.7546771E-02  0.1194159E+00
          2   -1    0    0  501    0  0.00000000000E+00  0.00000000000E+00  0.12165741434E+03  0.12165741434E+03  0.00000000000E+00 0. -1.
         -2   -1    0    0    0  501 -0.00000000000E+00 -0.00000000000E+00 -0.18477360890E+03  0.18477360890E+03  0.00000000000E+00 0.  1.
          5    1    1    2  502    0  0.32616667009E+01 -0.17445301887E+02 -0.57529699338E+02  0.60388188692E+02  0.47000000000E+01 0.  1.
         -5    1    1    2    0  502  0.95612436711E+02 -0.11138866155E+02  0.36134972469E+02  0.10292540322E+03  0.47000000000E+01 0.  1.
        -11    1    1    2    0    0 -0.76998965817E+02  0.35902000980E+02 -0.67512566038E+02  0.10851608629E+03  0.00000000000E+00 0.  1.
         11    1    1    2    0    0 -0.21875137594E+02 -0.73178329387E+01  0.25791098347E+02  0.34601345026E+02  0.00000000000E+00 0. -1.
<mgrwt>
<rscale>  0 0.15525630E+03</rscale>
<asrwt>0</asrwt>
<pdfrwt beam="1">  1        2 0.18716525E-01 0.16190613E+03</pdfrwt>
<pdfrwt beam="2">  1       -2 0.28426709E-01 0.16190613E+03</pdfrwt>
<totfact> 0.32855635E+03</totfact>
</mgrwt>
</event>
<event>
 6    1  0.6101889E-006  0.1465928E+03  0.7546771E-02  0.1214547E+00
          2   -1    0    0  501    0  0.00000000000E+00  0.00000000000E+00  0.26506743544E+03  0.26506743544E+03  0.00000000000E+00 0. -1.
         -2   -1    0    0    0  501 -0.00000000000E+00 -0.00000000000E+00 -0.68330707268E+02  0.68330707268E+02  0.00000000000E+00 0.  1.
          5    1    1    2  502    0 -0.16839664179E+02  0.12152033134E+02 -0.22132484310E+02  0.30711285559E+02  0.47000000000E+01 0.  1.
         -5    1    1    2    0  502  0.88616214147E+02  0.14360614955E+02  0.10298326265E+03  0.13669931623E+03  0.47000000000E+01 0.  1.
        -11    1    1    2    0    0 -0.73201488308E+02 -0.14643551513E+02  0.12849881110E+03  0.14860967649E+03  0.00000000000E+00 0. -1.
         11    1    1    2    0    0  0.14249383404E+01 -0.11869096576E+02 -0.12612861270E+02  0.17377864432E+02  0.00000000000E+00 0.  1.
<mgrwt>
<rscale>  0 0.13909861E+03</rscale>
<asrwt>0</asrwt>
<pdfrwt beam="1">  1        2 0.40779605E-01 0.14659284E+03</pdfrwt>
<pdfrwt beam="2">  1       -2 0.10512417E-01 0.14659284E+03</pdfrwt>
<totfact> 0.73234983E+03</totfact>
</mgrwt>
</event>
<event>
 6    1  0.6101889E-006  0.1445865E+03  0.7546771E-02  0.1217959E+00
         -2   -1    0    0    0  501 -0.00000000000E+00  0.00000000000E+00  0.24721683790E+03  0.24721683790E+03  0.00000000000E+00 0.  1.
          2   -1    0    0  501    0  0.00000000000E+00 -0.00000000000E+00 -0.68663774536E+02  0.68663774536E+02  0.00000000000E+00 0. -1.
          5    1    1    2  502    0 -0.62685781554E+02 -0.72428637052E+02  0.60390065864E+02  0.11333342282E+03  0.47000000000E+01 0. -1.
         -5    1    1    2    0  502 -0.50956066636E+01  0.46269650065E+02  0.50807727914E+02  0.69067799590E+02  0.47000000000E+01 0. -1.
        -11    1    1    2    0    0  0.50036006864E+02  0.48183977245E+02  0.76899416458E+02  0.10362826785E+03  0.00000000000E+00 0.  1.
         11    1    1    2    0    0  0.17745381354E+02 -0.22024990258E+02 -0.95441468732E+01  0.29851122170E+02  0.00000000000E+00 0. -1.
<mgrwt>
<rscale>  0 0.13661413E+03</rscale>
<asrwt>0</asrwt>
<pdfrwt beam="2">  1        2 0.10563658E-01 0.14458650E+03</pdfrwt>
<pdfrwt beam="1">  1       -2 0.38033359E-01 0.14458650E+03</pdfrwt>
<totfact> 0.37695591E+03</totfact>
</mgrwt>
</event>
<event>
 6    1  0.6101889E-006  0.1259147E+03  0.7546771E-02  0.1248811E+00
          2   -1    0    0  501    0  0.00000000000E+00  0.00000000000E+00  0.93935837112E+03  0.93935837112E+03  0.00000000000E+00 0. -1.
         -2   -1    0    0    0  501 -0.00000000000E+00 -0.00000000000E+00 -0.12976412766E+02  0.12976412766E+02  0.00000000000E+00 0.  1.
          5    1    1    2  502    0  0.39534972061E+02 -0.31527409350E+02  0.53220774527E+03  0.53462525725E+03  0.47000000000E+01 0.  1.
         -5    1    1    2    0  502 -0.24423527571E+02  0.30685386856E+02  0.67928338620E+02  0.78577674012E+02  0.47000000000E+01 0.  1.
        -11    1    1    2    0    0  0.10819455904E+02 -0.35452379079E+02  0.71774959183E+02  0.80781040933E+02  0.00000000000E+00 0.  1.
         11    1    1    2    0    0 -0.25930900394E+02  0.36294401574E+02  0.25447091527E+03  0.25835081169E+03  0.00000000000E+00 0. -1.
<mgrwt>
<rscale>  0 0.11660189E+03</rscale>
<asrwt>0</asrwt>
<pdfrwt beam="1">  1        2 0.14451662E+00 0.12591472E+03</pdfrwt>
<pdfrwt beam="2">  1       -2 0.19963719E-02 0.12591472E+03</pdfrwt>
<totfact> 0.21012226E+04</totfact>
</mgrwt>
</event>
<event>
 6    1  0.6101889E-006  0.1304963E+03  0.7546771E-02  0.1237497E+00
         -3   -1    0    0    0  501 -0.00000000000E+00  0.00000000000E+00  0.18979135373E+02  0.18979135373E+02  0.00000000000E+00 0.  1.
          3   -1    0    0  501    0  0.00000000000E+00 -0.00000000000E+00 -0.75301800696E+03  0.75301800696E+03  0.00000000000E+00 0. -1.
          5    1    1    2  502    0 -0.22260084515E+02  0.30450226011E+02 -0.43983335600E+03  0.44147276096E+03  0.47000000000E+01 0.  1.
         -5    1    1    2    0  502 -0.15018813817E+02 -0.34254982364E+02 -0.36721779721E+02  0.52626492294E+02  0.47000000000E+01 0.  1.
        -11    1    1    2    0    0 -0.82429364876E+01  0.36848778119E+02 -0.48440412656E+02  0.61418661896E+02  0.00000000000E+00 0.  1.
         11    1    1    2    0    0  0.45521834820E+02 -0.33044021765E+02 -0.20904332321E+03  0.21647922718E+03  0.00000000000E+00 0. -1.
<mgrwt>
<rscale>  0 0.12345904E+03</rscale>
<asrwt>0</asrwt>
<pdfrwt beam="2">  1        3 0.11584891E+00 0.13049626E+03</pdfrwt>
<pdfrwt beam="1">  1       -3 0.29198673E-02 0.13049626E+03</pdfrwt>
<totfact> 0.78777933E+02</totfact>
</mgrwt>
</event>
<event>
 6    1  0.6101889E-006  0.3080581E+03  0.7546771E-02  0.1100488E+00
          2   -1    0    0  501    0  0.00000000000E+00  0.00000000000E+00  0.14399088044E+04  0.14399088044E+04  0.00000000000E+00 0. -1.
         -2   -1    0    0    0  501 -0.00000000000E+00 -0.00000000000E+00 -0.42407219785E+02  0.42407219785E+02  0.00000000000E+00 0.  1.
          5    1    1    2  502    0  0.52980716880E+02 -0.34569454320E+02  0.81043250347E+03  0.81291139506E+03  0.47000000000E+01 0. -1.
         -5    1    1    2    0  502  0.29562025716E+02 -0.10402470212E+03  0.96866151416E+02  0.14525905585E+03  0.47000000000E+01 0.  1.
        -11    1    1    2    0    0 -0.53964364250E+02  0.11866196396E+03  0.45974031934E+03  0.47786397178E+03  0.00000000000E+00 0.  1.
         11    1    1    2    0    0 -0.28578378346E+02  0.19932192480E+02  0.30462610390E+02  0.46281601503E+02  0.00000000000E+00 0. -1.
<mgrwt>
<rscale>  0 0.27138824E+03</rscale>
<asrwt>0</asrwt>
<pdfrwt beam="1">  1        2 0.22152439E+00 0.30805805E+03</pdfrwt>
<pdfrwt beam="2">  1       -2 0.65241888E-02 0.30805805E+03</pdfrwt>
<totfact> 0.19101486E+03</totfact>
</mgrwt>
</event>
<event>
 6    1  0.6101889E-006  0.1263263E+03  0.7546771E-02  0.1249524E+00
         -1   -1    0    0    0  501 -0.00000000000E+00  0.00000000000E+00  0.43619058800E+02  0.43619058800E+02  0.00000000000E+00 0.  1.
          1   -1    0    0  501    0  0.00000000000E+00 -0.00000000000E+00 -0.27149289086E+03  0.27149289086E+03  0.00000000000E+00 0. -1.
          5    1    1    2  502    0  0.22063858226E+02 -0.61357866023E+02 -0.11999446703E+03  0.13664685756E+03  0.47000000000E+01 0. -1.
         -5    1    1    2    0  502 -0.79811321487E+01  0.49527996030E+02 -0.26975134114E+02  0.57153028980E+02  0.47000000000E+01 0. -1.
        -11    1    1    2    0    0 -0.12323181078E+02 -0.21816566932E+02  0.79476145650E+01  0.26286649879E+02  0.00000000000E+00 0.  1.
         11    1    1    2    0    0 -0.17595449992E+01  0.33646436925E+02 -0.88851845477E+02  0.95025413238E+02  0.00000000000E+00 0. -1.
<mgrwt>
<rscale>  0 0.11618646E+03</rscale>
<asrwt>0</asrwt>
<pdfrwt beam="2">  1        1 0.41768137E-01 0.12632629E+03</pdfrwt>
<pdfrwt beam="1">  1       -1 0.67106245E-02 0.12632629E+03</pdfrwt>
<totfact> 0.10520454E+04</totfact>
</mgrwt>
</event>
<event>
 6    1  0.6101889E-006  0.1221557E+03  0.7546771E-02  0.1252634E+00
         -1   -1    0    0    0  501 -0.00000000000E+00  0.00000000000E+00  0.87862819290E+02  0.87862819290E+02  0.00000000000E+00 0.  1.
          1   -1    0    0  501    0  0.00000000000E+00 -0.00000000000E+00 -0.14055262833E+03  0.14055262833E+03  0.00000000000E+00 0. -1.
          5    1    1    2  502    0  0.19021572707E+02  0.47035666679E+02 -0.73813305705E+02  0.89692074718E+02  0.47000000000E+01 0. -1.
         -5    1    1    2    0  502  0.17049888806E+01 -0.40709587890E+02  0.17778173626E+02  0.44702695564E+02  0.47000000000E+01 0.  1.
        -11    1    1    2    0    0 -0.44497521832E+02 -0.24872160506E+02  0.25119759042E+02  0.56830063450E+02  0.00000000000E+00 0.  1.
         11    1    1    2    0    0  0.23770960244E+02  0.18546081718E+02 -0.21774436001E+02  0.37190613885E+02  0.00000000000E+00 0. -1.
<mgrwt>
<rscale>  0 0.11439905E+03</rscale>
<asrwt>0</asrwt>
<pdfrwt beam="2">  1        1 0.21623481E-01 0.12215571E+03</pdfrwt>
<pdfrwt beam="1">  1       -1 0.13517357E-01 0.12215571E+03</pdfrwt>
<totfact> 0.82037528E+03</totfact>
</mgrwt>
</event>
<event>
 6    1  0.7420893E-006  0.1357227E+03  0.7546771E-02  0.1231270E+00
         -2   -1    0    0    0  501 -0.00000000000E+00  0.00000000000E+00  0.73036704654E+02  0.73036704654E+02  0.00000000000E+00 0.  1.
          2   -1    0    0  501    0  0.00000000000E+00 -0.00000000000E+00 -0.20077779888E+03  0.20077779888E+03  0.00000000000E+00 0. -1.
          5    1    1    2  502    0  0.15286372862E+01 -0.38338000304E+02  0.27439005330E+02  0.47403881832E+02  0.47000000000E+01 0. -1.
         -5    1    1    2    0  502  0.94193507729E+00 -0.14483480316E+02 -0.11086301330E+03  0.11190780206E+03  0.47000000000E+01 0. -1.
        -11    1    1    2    0    0  0.70241064227E+01  0.39103914004E+02  0.22483561626E+02  0.45650462263E+02  0.00000000000E+00 0.  1.
         11    1    1    2    0    0 -0.94946787862E+01  0.13717566617E+02 -0.66800647880E+02  0.68852357377E+02  0.00000000000E+00 0. -1.
<mgrwt>
<rscale>  0 0.12746283E+03</rscale>
<asrwt>0</asrwt>
<pdfrwt beam="2">  1        2 0.30888893E-01 0.13572269E+03</pdfrwt>
<pdfrwt beam="1">  1       -2 0.11236416E-01 0.13572269E+03</pdfrwt>
<totfact> 0.88284468E+03</totfact>
</mgrwt>
</event>
<event>
 6    1  0.6101889E-006  0.2749449E+03  0.7546771E-02  0.1098482E+00
          1   -1    0    0  501    0  0.00000000000E+00  0.00000000000E+00  0.31110008962E+02  0.31110008962E+02  0.00000000000E+00 0. -1.
         -1   -1    0    0    0  501 -0.00000000000E+00 -0.00000000000E+00 -0.60747883354E+03  0.60747883354E+03  0.00000000000E+00 0.  1.
          5    1    1    2  502    0  0.28465398072E+02  0.10442344903E+02 -0.17765020026E+02  0.35454300035E+02  0.47000000000E+01 0.  1.
         -5    1    1    2    0  502 -0.87469325726E+02 -0.59820320219E+02 -0.21485000913E+03  0.23960795078E+03  0.47000000000E+01 0.  1.
        -11    1    1    2    0    0  0.29320320500E+01  0.52728221962E+02 -0.23791242888E+03  0.24370306937E+03  0.00000000000E+00 0.  1.
         11    1    1    2    0    0  0.56071895604E+02 -0.33502466450E+01 -0.10584136654E+03  0.11982352231E+03  0.00000000000E+00 0. -1.
<mgrwt>
<rscale>  0 0.27494488E+03</rscale>
<asrwt>0</asrwt>
<pdfrwt beam="1">  1        1 0.47861555E-02 0.27494488E+03</pdfrwt>
<pdfrwt beam="2">  1       -1 0.93458277E-01 0.27494488E+03</pdfrwt>
<totfact> 0.20682743E+03</totfact>
</mgrwt>
</event>
<event>
 6    1  0.6101889E-006  0.2962052E+03  0.7546771E-02  0.1087153E+00
         -2   -1    0    0    0  501 -0.00000000000E+00  0.00000000000E+00  0.26923666852E+03  0.26923666852E+03  0.00000000000E+00 0.  1.
          2   -1    0    0  501    0  0.00000000000E+00 -0.00000000000E+00 -0.81468793132E+02  0.81468793132E+02  0.00000000000E+00 0. -1.
          5    1    1    2  502    0 -0.45146038375E+02 -0.63298814705E+02  0.89415138811E+02  0.11858356451E+03  0.47000000000E+01 0.  1.
         -5    1    1    2    0  502 -0.89224018779E+01 -0.83107360246E+01 -0.40713515675E+02  0.42759302464E+02  0.47000000000E+01 0.  1.
        -11    1    1    2    0    0  0.30177253573E+01  0.76940343076E+02  0.78257876011E+02  0.10978714960E+03  0.00000000000E+00 0. -1.
         11    1    1    2    0    0  0.51050714895E+02 -0.53307923462E+01  0.60808376240E+02  0.79575445077E+02  0.00000000000E+00 0.  1.
<mgrwt>
<rscale>  0 0.29620524E+03</rscale>
<asrwt>0</asrwt>
<pdfrwt beam="2">  1        2 0.12533661E-01 0.29620524E+03</pdfrwt>
<pdfrwt beam="1">  1       -2 0.41421026E-01 0.29620524E+03</pdfrwt>
<totfact> 0.26957966E+03</totfact>
</mgrwt>
</event>
<event>
 6    1  0.6101889E-006  0.1564678E+03  0.7546771E-02  0.1201008E+00
          2   -1    0    0  501    0  0.00000000000E+00  0.00000000000E+00  0.29238317683E+03  0.29238317683E+03  0.00000000000E+00 0. -1.
         -2   -1    0    0    0  501 -0.00000000000E+00 -0.00000000000E+00 -0.10326346189E+03  0.10326346189E+03  0.00000000000E+00 0.  1.
          5    1    1    2  502    0  0.20496300012E+02  0.44315632283E+02  0.19089612950E+02  0.52635319904E+02  0.47000000000E+01 0.  1.
         -5    1    1    2    0  502  0.73605024789E+02 -0.42742165075E+02  0.19243630744E+03  0.21047188594E+03  0.47000000000E+01 0.  1.
        -11    1    1    2    0    0 -0.39893575112E+02 -0.64498276407E+01  0.34980024678E+02  0.53448103224E+02  0.00000000000E+00 0. -1.
         11    1    1    2    0    0 -0.54207749689E+02  0.48763604330E+01 -0.57386230134E+02  0.79091329654E+02  0.00000000000E+00 0.  1.
<mgrwt>
<rscale>  0 0.14956537E+03</rscale>
<asrwt>0</asrwt>
<pdfrwt beam="1">  1        2 0.44982027E-01 0.15646785E+03</pdfrwt>
<pdfrwt beam="2">  1       -2 0.15886687E-01 0.15646785E+03</pdfrwt>
<totfact> 0.34012943E+03</totfact>
</mgrwt>
</event>
<event>
 6    1  0.6101889E-006  0.1259988E+03  0.7546771E-02  0.1248903E+00
          1   -1    0    0  501    0  0.00000000000E+00  0.00000000000E+00  0.52421092188E+03  0.52421092188E+03  0.00000000000E+00 0. -1.
         -1   -1    0    0    0  501 -0.00000000000E+00 -0.00000000000E+00 -0.22758189650E+02  0.22758189650E+02  0.00000000000E+00 0.  1.
          5    1    1    2  502    0 -0.38773814529E+02  0.57935070988E+02  0.17491498606E+03  0.18835398454E+03  0.47000000000E+01 0.  1.
         -5    1    1    2    0  502  0.25280132707E+02 -0.49732423858E+02  0.12638773353E+03  0.13823294933E+03  0.47000000000E+01 0.  1.
        -11    1    1    2    0    0  0.28808017588E+02 -0.38311418397E+02  0.16419325044E+03  0.17104704074E+03  0.00000000000E+00 0.  1.
         11    1    1    2    0    0 -0.15314335766E+02  0.30108771267E+02  0.35956762196E+02  0.49335136918E+02  0.00000000000E+00 0. -1.
<mgrwt>
<rscale>  0 0.11654805E+03</rscale>
<asrwt>0</asrwt>
<pdfrwt beam="1">  1        1 0.80647825E-01 0.12599880E+03</pdfrwt>
<pdfrwt beam="2">  1       -1 0.35012604E-02 0.12599880E+03</pdfrwt>
<totfact> 0.12003054E+04</totfact>
</mgrwt>
</event>
<event>
 6    1  0.6101889E-006  0.1294262E+03  0.7546771E-02  0.1245436E+00
          1   -1    0    0  501    0  0.00000000000E+00  0.00000000000E+00  0.27405493283E+03  0.27405493283E+03  0.00000000000E+00 0. -1.
         -1   -1    0    0    0  501 -0.00000000000E+00 -0.00000000000E+00 -0.75311607808E+02  0.75311607808E+02  0.00000000000E+00 0.  1.
          5    1    1    2  502    0 -0.20404515126E+02  0.42561469617E+02  0.59944379421E+02  0.76441098616E+02  0.47000000000E+01 0.  1.
         -5    1    1    2    0  502  0.23640603875E+02 -0.75947871528E+02  0.16045743150E+03  0.17915254580E+03  0.47000000000E+01 0.  1.
        -11    1    1    2    0    0 -0.20443348917E+02 -0.67272282331E+01 -0.40787031662E+02  0.46116895672E+02  0.00000000000E+00 0.  1.
         11    1    1    2    0    0  0.17207260168E+02  0.40113630144E+02  0.19128545760E+02  0.47656000553E+02  0.00000000000E+00 0. -1.
<mgrwt>
<rscale>  0 0.11859326E+03</rscale>
<asrwt>0</asrwt>
<pdfrwt beam="1">  1        1 0.42162297E-01 0.12942624E+03</pdfrwt>
<pdfrwt beam="2">  1       -1 0.11586401E-01 0.12942624E+03</pdfrwt>
<totfact> 0.45559430E+03</totfact>
</mgrwt>
</event>
<event>
 6    1  0.6101889E-006  0.2466027E+03  0.7546771E-02  0.1115471E+00
          2   -1    0    0  501    0  0.00000000000E+00  0.00000000000E+00  0.48429680024E+03  0.48429680024E+03  0.00000000000E+00 0. -1.
         -2   -1    0    0    0  501 -0.00000000000E+00 -0.00000000000E+00 -0.31392365555E+02  0.31392365555E+02  0.00000000000E+00 0.  1.
          5    1    1    2  502    0 -0.46063400379E+02 -0.69254614507E+02  0.12486617228E+03  0.15010559438E+03  0.47000000000E+01 0. -1.
         -5    1    1    2    0  502 -0.29516364090E+01  0.41649337742E+02  0.16919738370E+03  0.17433652555E+03  0.47000000000E+01 0. -1.
        -11    1    1    2    0    0  0.65762400985E+01  0.47122589491E+02  0.35519148174E+02  0.59375039042E+02  0.00000000000E+00 0.  1.
         11    1    1    2    0    0  0.42438796689E+02 -0.19517312727E+02  0.12332173053E+03  0.13187200682E+03  0.00000000000E+00 0. -1.
<mgrwt>
<rscale>  0 0.24660269E+03</rscale>
<asrwt>0</asrwt>
<pdfrwt beam="1">  1        2 0.74507195E-01 0.24660269E+03</pdfrwt>
<pdfrwt beam="2">  1       -2 0.48295951E-02 0.24660269E+03</pdfrwt>
<totfact> 0.13153854E+04</totfact>
</mgrwt>
</event>
<event>
 6    1  0.6101889E-006  0.3053677E+03  0.7546771E-02  0.1082588E+00
         -1   -1    0    0    0  501 -0.00000000000E+00  0.00000000000E+00  0.18334455988E+03  0.18334455988E+03  0.00000000000E+00 0.  1.
          1   -1    0    0  501    0  0.00000000000E+00 -0.00000000000E+00 -0.12715050390E+03  0.12715050390E+03  0.00000000000E+00 0. -1.
          5    1    1    2  502    0  0.17238985523E+02 -0.10818415908E+02 -0.34514229378E+02  0.40342815646E+02  0.47000000000E+01 0. -1.
         -5    1    1    2    0  502 -0.34589642639E+01  0.11503679739E+03  0.43855144346E+02  0.12325093457E+03  0.47000000000E+01 0. -1.
        -11    1    1    2    0    0 -0.99761674513E+01 -0.37815827637E+02  0.66849120621E+02  0.77449116617E+02  0.00000000000E+00 0.  1.
         11    1    1    2    0    0 -0.38038538080E+01 -0.66402553840E+02 -0.19995979602E+02  0.69452196945E+02  0.00000000000E+00 0. -1.
<mgrwt>
<rscale>  0 0.30536767E+03</rscale>
<asrwt>0</asrwt>
<pdfrwt beam="2">  1        1 0.19561616E-01 0.30536767E+03</pdfrwt>
<pdfrwt beam="1">  1       -1 0.28206855E-01 0.30536767E+03</pdfrwt>
<totfact> 0.29820191E+03</totfact>
</mgrwt>
</event>
<event>
 6    1  0.6101889E-006  0.1949911E+03  0.7546771E-02  0.1158463E+00
          3   -1    0    0  501    0  0.00000000000E+00  0.00000000000E+00  0.32448601438E+03  0.32448601438E+03  0.00000000000E+00 0. -1.
         -3   -1    0    0    0  501 -0.00000000000E+00 -0.00000000000E+00 -0.10910950334E+03  0.10910950334E+03  0.00000000000E+00 0.  1.
          5    1    1    2  502    0  0.10921474627E+03 -0.46038366786E+02  0.14748601818E+03  0.18926597047E+03  0.47000000000E+01 0. -1.
         -5    1    1    2    0  502  0.40298179333E+02  0.39733209598E+02  0.26864697376E+01  0.56850490958E+02  0.47000000000E+01 0. -1.
        -11    1    1    2    0    0 -0.93161090545E+02 -0.22107111522E+02  0.77500488919E+02  0.12318294912E+03  0.00000000000E+00 0. -1.
         11    1    1    2    0    0 -0.56351835055E+02  0.28412268710E+02 -0.12296465794E+02  0.64296107179E+02  0.00000000000E+00 0.  1.
<mgrwt>
<rscale>  0 0.18999859E+03</rscale>
<asrwt>0</asrwt>
<pdfrwt beam="1">  1        3 0.49920925E-01 0.19499112E+03</pdfrwt>
<pdfrwt beam="2">  1       -3 0.16786078E-01 0.19499112E+03</pdfrwt>
<totfact> 0.29824087E+02</totfact>
</mgrwt>
</event>
<event>
 6    1  0.6101889E-006  0.1364789E+03  0.7546771E-02  0.1230048E+00
          3   -1    0    0  501    0  0.00000000000E+00  0.00000000000E+00  0.13565973725E+03  0.13565973725E+03  0.00000000000E+00 0. -1.
         -3   -1    0    0    0  501 -0.00000000000E+00 -0.00000000000E+00 -0.11323657232E+03  0.11323657232E+03  0.00000000000E+00 0.  1.
          5    1    1    2  502    0 -0.55729924816E+02 -0.36835329494E+02  0.91019349228E+01  0.67584030941E+02  0.47000000000E+01 0. -1.
         -5    1    1    2    0  502  0.66035991429E+02 -0.16964219136E+02  0.27937158940E+02  0.73831644602E+02  0.47000000000E+01 0. -1.
        -11    1    1    2    0    0 -0.33772835236E+02 -0.10996404643E+02 -0.15024314209E+02  0.38564949532E+02  0.00000000000E+00 0. -1.
         11    1    1    2    0    0  0.23466768624E+02  0.64795953272E+02  0.40838527754E+00  0.68915684489E+02  0.00000000000E+00 0.  1.
<mgrwt>
<rscale>  0 0.12826805E+03</rscale>
<asrwt>0</asrwt>
<pdfrwt beam="1">  1        3 0.20870729E-01 0.13647893E+03</pdfrwt>
<pdfrwt beam="2">  1       -3 0.17421011E-01 0.13647893E+03</pdfrwt>
<totfact> 0.13706155E+03</totfact>
</mgrwt>
</event>
<event>
 6    1  0.6101889E-006  0.1461477E+03  0.7546771E-02  0.1213831E+00
         -1   -1    0    0    0  501 -0.00000000000E+00  0.00000000000E+00  0.57220487983E+02  0.57220487983E+02  0.00000000000E+00 0.  1.
          1   -1    0    0  501    0  0.00000000000E+00 -0.00000000000E+00 -0.73491630484E+03  0.73491630484E+03  0.00000000000E+00 0. -1.
          5    1    1    2  502    0  0.42654862960E+02  0.62631262467E+02 -0.17569269771E+03  0.19139520997E+03  0.47000000000E+01 0. -1.
         -5    1    1    2    0  502 -0.18966694325E+02  0.92876535839E+01 -0.47567632556E+03  0.47616809290E+03  0.47000000000E+01 0. -1.
        -11    1    1    2    0    0  0.20021138130E+02 -0.21880092325E+02 -0.46486547978E+02  0.55141486696E+02  0.00000000000E+00 0. -1.
         11    1    1    2    0    0 -0.43709306765E+02 -0.50038823726E+02  0.20159754391E+02  0.69432003247E+02  0.00000000000E+00 0.  1.
<mgrwt>
<rscale>  0 0.13962721E+03</rscale>
<asrwt>0</asrwt>
<pdfrwt beam="2">  1        1 0.11306404E+00 0.14614773E+03</pdfrwt>
<pdfrwt beam="1">  1       -1 0.88031522E-02 0.14614773E+03</pdfrwt>
<totfact> 0.19274383E+03</totfact>
</mgrwt>
</event>
<event>
 6    1  0.6101889E-006  0.1548850E+03  0.7546771E-02  0.1202578E+00
         -1   -1    0    0    0  501 -0.00000000000E+00  0.00000000000E+00  0.23795680491E+02  0.23795680491E+02  0.00000000000E+00 0.  1.
          1   -1    0    0  501    0  0.00000000000E+00 -0.00000000000E+00 -0.86009419259E+03  0.86009419259E+03  0.00000000000E+00 0. -1.
          5    1    1    2  502    0  0.65300047271E+01 -0.72267970884E+02 -0.27239238884E+03  0.28193084982E+03  0.47000000000E+01 0.  1.
         -5    1    1    2    0  502 -0.74031662066E+02  0.10561812741E+02 -0.14386135637E+03  0.16220486655E+03  0.47000000000E+01 0.  1.
        -11    1    1    2    0    0 -0.25799031677E+00  0.10957760223E+02  0.30431836063E+00  0.10965020646E+02  0.00000000000E+00 0.  1.
         11    1    1    2    0    0  0.67759647656E+02  0.50748397921E+02 -0.42034908525E+03  0.42878913607E+03  0.00000000000E+00 0. -1.
<mgrwt>
<rscale>  0 0.14829985E+03</rscale>
<asrwt>0</asrwt>
<pdfrwt beam="2">  1        1 0.13232216E+00 0.15488497E+03</pdfrwt>
<pdfrwt beam="1">  1       -1 0.36608746E-02 0.15488497E+03</pdfrwt>
<totfact> 0.56362256E+03</totfact>
</mgrwt>
</event>
<event>
 6    1  0.6101889E-006  0.1365716E+03  0.7546771E-02  0.1228915E+00
         -3   -1    0    0    0  501 -0.00000000000E+00  0.00000000000E+00  0.26869177072E+02  0.26869177072E+02  0.00000000000E+00 0.  1.
          3   -1    0    0  501    0  0.00000000000E+00 -0.00000000000E+00 -0.58489075935E+03  0.58489075935E+03  0.00000000000E+00 0. -1.
          5    1    1    2  502    0  0.45732883813E+02 -0.60899507436E+02 -0.11698395101E+03  0.13966954379E+03  0.47000000000E+01 0. -1.
         -5    1    1    2    0  502 -0.14834883946E+01  0.28192907594E+02 -0.25484969123E+03  0.25645174185E+03  0.47000000000E+01 0. -1.
        -11    1    1    2    0    0 -0.13849215516E+01 -0.27297624776E+02 -0.92250773575E+02  0.96214778238E+02  0.00000000000E+00 0. -1.
         11    1    1    2    0    0 -0.42864473867E+02  0.60004224618E+02 -0.93937166460E+02  0.11942387255E+03  0.00000000000E+00 0.  1.
<mgrwt>
<rscale>  0 0.12902154E+03</rscale>
<asrwt>0</asrwt>
<pdfrwt beam="2">  1        3 0.89983199E-01 0.13657165E+03</pdfrwt>
<pdfrwt beam="1">  1       -3 0.41337193E-02 0.13657165E+03</pdfrwt>
<totfact> 0.82110046E+02</totfact>
</mgrwt>
</event>
<event>
 6    1  0.6101889E-006  0.1509497E+03  0.7546771E-02  0.1207936E+00
          1   -1    0    0  501    0  0.00000000000E+00  0.00000000000E+00  0.56408852420E+03  0.56408852420E+03  0.00000000000E+00 0. -1.
         -1   -1    0    0    0  501 -0.00000000000E+00 -0.00000000000E+00 -0.34152231692E+02  0.34152231692E+02  0.00000000000E+00 0.  1.
          5    1    1    2  502    0 -0.85604513723E+02  0.53444154159E+02  0.25137480676E+03  0.27091658099E+03  0.47000000000E+01 0. -1.
         -5    1    1    2    0  502  0.41947602544E+02  0.19044760802E+02  0.67190231046E+02  0.81602214560E+02  0.47000000000E+01 0. -1.
        -11    1    1    2    0    0 -0.24592822656E+02 -0.17010008894E+02  0.96615048337E+02  0.10113661500E+03  0.00000000000E+00 0. -1.
         11    1    1    2    0    0  0.68249733836E+02 -0.55478906066E+02  0.11475620637E+03  0.14458534534E+03  0.00000000000E+00 0.  1.
<mgrwt>
<rscale>  0 0.14408434E+03</rscale>
<asrwt>0</asrwt>
<pdfrwt beam="1">  1        1 0.86782844E-01 0.15094972E+03</pdfrwt>
<pdfrwt beam="2">  1       -1 0.52541899E-02 0.15094972E+03</pdfrwt>
<totfact> 0.60603004E+03</totfact>
</mgrwt>
</event>
<event>
 6    1  0.6101889E-006  0.1392303E+03  0.7546771E-02  0.1225163E+00
         -2   -1    0    0    0  501 -0.00000000000E+00  0.00000000000E+00  0.22654681391E+03  0.22654681391E+03  0.00000000000E+00 0.  1.
          2   -1    0    0  501    0  0.00000000000E+00 -0.00000000000E+00 -0.76288647005E+02  0.76288647005E+02  0.00000000000E+00 0. -1.
          5    1    1    2  502    0 -0.31017486822E+02 -0.11899184574E+02 -0.45754873167E+02  0.56738642043E+02  0.47000000000E+01 0. -1.
         -5    1    1    2    0  502 -0.23864694602E+02 -0.15444517394E+02  0.82314848245E+02  0.87211702240E+02  0.47000000000E+01 0. -1.
        -11    1    1    2    0    0 -0.13795197688E+02  0.28856732159E+02  0.71338663253E+02  0.78180709545E+02  0.00000000000E+00 0.  1.
         11    1    1    2    0    0  0.68677379112E+02 -0.15130301904E+01  0.42359528571E+02  0.80704407085E+02  0.00000000000E+00 0. -1.
<mgrwt>
<rscale>  0 0.13155709E+03</rscale>
<asrwt>0</asrwt>
<pdfrwt beam="2">  1        2 0.11736715E-01 0.13923028E+03</pdfrwt>
<pdfrwt beam="1">  1       -2 0.34853356E-01 0.13923028E+03</pdfrwt>
<totfact> 0.38934728E+03</totfact>
</mgrwt>
</event>
<event>
 6    1  0.6101889E-006  0.1283319E+03  0.7546771E-02  0.1246173E+00
          2   -1    0    0  501    0  0.00000000000E+00  0.00000000000E+00  0.11155747408E+03  0.11155747408E+03  0.00000000000E+00 0. -1.
         -2   -1    0    0    0  501 -0.00000000000E+00 -0.00000000000E+00 -0.10912159082E+03  0.10912159082E+03  0.00000000000E+00 0.  1.
          5    1    1    2  502    0  0.20004108989E+02  0.24951150750E+02 -0.54164916496E+02  0.63076560458E+02  0.47000000000E+01 0. -1.
         -5    1    1    2    0  502  0.54804412091E+01 -0.38809822829E+02  0.51984176402E+02  0.65273901217E+02  0.47000000000E+01 0. -1.
        -11    1    1    2    0    0 -0.11388724362E+02 -0.33786250768E+02  0.19267637630E+02  0.40527221017E+02  0.00000000000E+00 0. -1.
         11    1    1    2    0    0 -0.14095825836E+02  0.47644922847E+02 -0.14651014280E+02  0.51801382207E+02  0.00000000000E+00 0.  1.
<mgrwt>
<rscale>  0 0.11815422E+03</rscale>
<asrwt>0</asrwt>
<pdfrwt beam="1">  1        2 0.17162688E-01 0.12833193E+03</pdfrwt>
<pdfrwt beam="2">  1       -2 0.16787937E-01 0.12833193E+03</pdfrwt>
<totfact> 0.88278644E+03</totfact>
</mgrwt>
</event>
<event>
 6    1  0.6101889E-006  0.1471135E+03  0.7546771E-02  0.1209915E+00
          1   -1    0    0  501    0  0.00000000000E+00  0.00000000000E+00  0.14753895176E+03  0.14753895176E+03  0.00000000000E+00 0. -1.
         -1   -1    0    0    0  501 -0.00000000000E+00 -0.00000000000E+00 -0.14743026413E+03  0.14743026413E+03  0.00000000000E+00 0.  1.
          5    1    1    2  502    0 -0.51948075708E+01 -0.70408424069E+02  0.38452769590E+02  0.80529731744E+02  0.47000000000E+01 0. -1.
         -5    1    1    2    0  502  0.72579969593E+02  0.14130140633E+02  0.12383558285E+02  0.75119607136E+02  0.47000000000E+01 0.  1.
        -11    1    1    2    0    0 -0.10835507304E+02  0.20655781720E+02  0.27742488245E+02  0.36245209214E+02  0.00000000000E+00 0. -1.
         11    1    1    2    0    0 -0.56549654718E+02  0.35622501716E+02 -0.78470128487E+02  0.10307466780E+03  0.00000000000E+00 0.  1.
<mgrwt>
<rscale>  0 0.14256787E+03</rscale>
<asrwt>0</asrwt>
<pdfrwt beam="1">  1        1 0.22698300E-01 0.14711351E+03</pdfrwt>
<pdfrwt beam="2">  1       -1 0.22681579E-01 0.14711351E+03</pdfrwt>
<totfact> 0.34338022E+03</totfact>
</mgrwt>
</event>
<event>
 6    1  0.6101889E-006  0.1273441E+03  0.7546771E-02  0.1245571E+00
         -2   -1    0    0    0  501 -0.00000000000E+00  0.00000000000E+00  0.42552692003E+02  0.42552692003E+02  0.00000000000E+00 0.  1.
          2   -1    0    0  501    0  0.00000000000E+00 -0.00000000000E+00 -0.29197560856E+03  0.29197560856E+03  0.00000000000E+00 0. -1.
          5    1    1    2  502    0  0.51148326788E+02  0.14517505081E+02 -0.26415256518E+02  0.59554723272E+02  0.47000000000E+01 0. -1.
         -5    1    1    2    0  502 -0.49380298079E+02 -0.38801134635E+02 -0.11227388120E+03  0.12873016852E+03  0.47000000000E+01 0. -1.
        -11    1    1    2    0    0 -0.38404514072E+02  0.99126790958E+01 -0.14425933353E+02  0.42205159176E+02  0.00000000000E+00 0.  1.
         11    1    1    2    0    0  0.36636485363E+02  0.14370950458E+02 -0.96307845490E+02  0.10403824960E+03  0.00000000000E+00 0. -1.
<mgrwt>
<rscale>  0 0.11851252E+03</rscale>
<asrwt>0</asrwt>
<pdfrwt beam="2">  1        2 0.44919326E-01 0.12734411E+03</pdfrwt>
<pdfrwt beam="1">  1       -2 0.65465678E-02 0.12734411E+03</pdfrwt>
<totfact> 0.13624644E+04</totfact>
</mgrwt>
</event>
<event>
 6    1  0.6101889E-006  0.1449988E+03  0.7546771E-02  0.1217887E+00
          1   -1    0    0  501    0  0.00000000000E+00  0.00000000000E+00  0.93442034212E+03  0.93442034212E+03  0.00000000000E+00 0. -1.
         -1   -1    0    0    0  501 -0.00000000000E+00 -0.00000000000E+00 -0.22215228382E+02  0.22215228382E+02  0.00000000000E+00 0.  1.
          5    1    1    2  502    0  0.32299140328E+02  0.29836626341E+02  0.15072074778E+03  0.15707416257E+03  0.47000000000E+01 0.  1.
         -5    1    1    2    0  502 -0.18163928861E+01 -0.96696501923E+02  0.55595286913E+03  0.56432188994E+03  0.47000000000E+01 0.  1.
        -11    1    1    2    0    0 -0.16670053352E+02  0.85817454219E+00 -0.22010498009E+01  0.16836619689E+02  0.00000000000E+00 0.  1.
         11    1    1    2    0    0 -0.13812694089E+02  0.66001701040E+02  0.20773254663E+03  0.21840289830E+03  0.00000000000E+00 0. -1.
<mgrwt>
<rscale>  0 0.13666561E+03</rscale>
<asrwt>0</asrwt>
<pdfrwt beam="1">  1        1 0.14375695E+00 0.14499884E+03</pdfrwt>
<pdfrwt beam="2">  1       -1 0.34177282E-02 0.14499884E+03</pdfrwt>
<totfact> 0.54462362E+03</totfact>
</mgrwt>
</event>
<event>
 6    1  0.6101889E-006  0.3223071E+03  0.7546771E-02  0.1074592E+00
          1   -1    0    0  501    0  0.00000000000E+00  0.00000000000E+00  0.12459879450E+03  0.12459879450E+03  0.00000000000E+00 0. -1.
         -1   -1    0    0    0  501 -0.00000000000E+00 -0.00000000000E+00 -0.20843271152E+03  0.20843271152E+03  0.00000000000E+00 0.  1.
          5    1    1    2  502    0  0.57450518755E+02 -0.10852402995E+03 -0.31385788144E+01  0.12292260923E+03  0.47000000000E+01 0. -1.
         -5    1    1    2    0  502  0.20955468440E+02  0.19361015842E+02 -0.49539378233E+02  0.57360444452E+02  0.47000000000E+01 0. -1.
        -11    1    1    2    0    0 -0.50101102205E+02  0.43454969515E+02 -0.61981921749E+02  0.90775621405E+02  0.00000000000E+00 0.  1.
         11    1    1    2    0    0 -0.28304884990E+02  0.45708044595E+02  0.30825961782E+02  0.61972830941E+02  0.00000000000E+00 0. -1.
<mgrwt>
<rscale>  0 0.32230709E+03</rscale>
<asrwt>0</asrwt>
<pdfrwt beam="1">  1        1 0.19169045E-01 0.32230709E+03</pdfrwt>
<pdfrwt beam="2">  1       -1 0.32066571E-01 0.32230709E+03</pdfrwt>
<totfact> 0.24618524E+03</totfact>
</mgrwt>
</event>
<event>
 6    1  0.6101889E-006  0.2510739E+03  0.7546771E-02  0.1115101E+00
          2   -1    0    0  501    0  0.00000000000E+00  0.00000000000E+00  0.53933262355E+03  0.53933262355E+03  0.00000000000E+00 0. -1.
         -2   -1    0    0    0  501 -0.00000000000E+00 -0.00000000000E+00 -0.18670988088E+03  0.18670988088E+03  0.00000000000E+00 0.  1.
          5    1    1    2  502    0 -0.13376355406E+03 -0.14050124072E+03  0.40983980810E+03  0.45345787604E+03  0.47000000000E+01 0.  1.
         -5    1    1    2    0  502 -0.28407552425E+02 -0.47915846749E+01  0.24860189427E+01  0.29295368383E+02  0.47000000000E+01 0.  1.
        -11    1    1    2    0    0  0.99816980044E+02  0.57981280672E+02  0.91635980502E+01  0.11579822945E+03  0.00000000000E+00 0.  1.
         11    1    1    2    0    0  0.62354126446E+02  0.87311544718E+02 -0.68866682426E+02  0.12749103056E+03  0.00000000000E+00 0. -1.
<mgrwt>
<rscale>  0 0.24717819E+03</rscale>
<asrwt>0</asrwt>
<pdfrwt beam="1">  1        2 0.82974249E-01 0.25107391E+03</pdfrwt>
<pdfrwt beam="2">  1       -2 0.28724597E-01 0.25107391E+03</pdfrwt>
<totfact> 0.63506374E+02</totfact>
</mgrwt>
</event>
<event>
 6    1  0.6101889E-006  0.2223245E+03  0.7546771E-02  0.1135421E+00
          1   -1    0    0  501    0  0.00000000000E+00  0.00000000000E+00  0.67684807835E+02  0.67684807835E+02  0.00000000000E+00 0. -1.
         -1   -1    0    0    0  501 -0.00000000000E+00 -0.00000000000E+00 -0.69211354608E+03  0.69211354608E+03  0.00000000000E+00 0.  1.
          5    1    1    2  502    0 -0.37210796574E+02 -0.19357206420E+03 -0.36631145475E+03  0.41600596066E+03  0.47000000000E+01 0. -1.
         -5    1    1    2    0  502 -0.12225203895E+02  0.16486264268E+02 -0.16779344497E+02  0.26923761282E+02  0.47000000000E+01 0. -1.
        -11    1    1    2    0    0  0.71768228565E+02  0.10864891732E+03 -0.18080043117E+03  0.22280947416E+03  0.00000000000E+00 0.  1.
         11    1    1    2    0    0 -0.22332228096E+02  0.68436882621E+02 -0.60537507828E+02  0.94059157814E+02  0.00000000000E+00 0. -1.
<mgrwt>
<rscale>  0 0.21794920E+03</rscale>
<asrwt>0</asrwt>
<pdfrwt beam="1">  1        1 0.10413047E-01 0.22232449E+03</pdfrwt>
<pdfrwt beam="2">  1       -1 0.10647901E+00 0.22232449E+03</pdfrwt>
<totfact> 0.53122685E+02</totfact>
</mgrwt>
</event>
<event>
 6    1  0.6101889E-006  0.1731723E+03  0.7546771E-02  0.1181092E+00
         -2   -1    0    0    0  501 -0.00000000000E+00  0.00000000000E+00  0.26031184760E+02  0.26031184760E+02  0.00000000000E+00 0.  1.
          2   -1    0    0  501    0  0.00000000000E+00 -0.00000000000E+00 -0.10423231224E+04  0.10423231224E+04  0.00000000000E+00 0. -1.
          5    1    1    2  502    0  0.74374863053E+02  0.54773571825E+01 -0.25679534103E+03  0.26744636635E+03  0.47000000000E+01 0. -1.
         -5    1    1    2    0  502 -0.12375784049E+02  0.97051276820E+02 -0.39451518750E+03  0.40649284561E+03  0.47000000000E+01 0. -1.
        -11    1    1    2    0    0 -0.33384378109E+02 -0.34812036920E+02 -0.27017179802E+03  0.27444342780E+03  0.00000000000E+00 0. -1.
         11    1    1    2    0    0 -0.28614700895E+02 -0.67716597083E+02 -0.94809611131E+02  0.11997166745E+03  0.00000000000E+00 0.  1.
<mgrwt>
<rscale>  0 0.16692563E+03</rscale>
<asrwt>0</asrwt>
<pdfrwt beam="2">  1        2 0.16035740E+00 0.17317233E+03</pdfrwt>
<pdfrwt beam="1">  1       -2 0.40047976E-02 0.17317233E+03</pdfrwt>
<totfact> 0.66653566E+03</totfact>
</mgrwt>
</event>
<event>
 6    1  0.6126356E-006  0.1927888E+03  0.7546771E-02  0.1160875E+00
          1   -1    0    0  501    0  0.00000000000E+00  0.00000000000E+00  0.14728359555E+03  0.14728359555E+03  0.00000000000E+00 0. -1.
         -1   -1    0    0    0  501 -0.00000000000E+00 -0.00000000000E+00 -0.22600097320E+03  0.22600097320E+03  0.00000000000E+00 0.  1.
          5    1    1    2  502    0 -0.98317809908E+02 -0.70105761709E+02 -0.39497615704E+02  0.12713520841E+03  0.47000000000E+01 0. -1.
         -5    1    1    2    0  502  0.34252522836E+02 -0.61946888061E+02 -0.77896101894E+01  0.71368202219E+02  0.47000000000E+01 0. -1.
        -11    1    1    2    0    0  0.76650065346E+02  0.58007713375E+02 -0.25444931396E+02  0.99436270356E+02  0.00000000000E+00 0. -1.
         11    1    1    2    0    0 -0.12584778273E+02  0.74044936395E+02 -0.59852203642E+01  0.75344887768E+02  0.00000000000E+00 0.  1.
<mgrwt>
<rscale>  0 0.18734862E+03</rscale>
<asrwt>0</asrwt>
<pdfrwt beam="1">  1        1 0.22659015E-01 0.19278880E+03</pdfrwt>
<pdfrwt beam="2">  1       -1 0.34769381E-01 0.19278880E+03</pdfrwt>
<totfact> 0.16999261E+03</totfact>
</mgrwt>
</event>
<event>
 6    1  0.6101889E-006  0.1433060E+03  0.7546771E-02  0.1226109E+00
         -2   -1    0    0    0  501 -0.00000000000E+00  0.00000000000E+00  0.15395441504E+03  0.15395441504E+03  0.00000000000E+00 0.  1.
          2   -1    0    0  501    0  0.00000000000E+00 -0.00000000000E+00 -0.10296526113E+03  0.10296526113E+03  0.00000000000E+00 0. -1.
          5    1    1    2  502    0  0.71777201101E+02  0.49888902977E+02  0.61172801981E+01  0.87751811122E+02  0.47000000000E+01 0. -1.
         -5    1    1    2    0  502 -0.53677241868E+02 -0.99774604232E+01 -0.93504927032E+01  0.55590626232E+02  0.47000000000E+01 0.  1.
        -11    1    1    2    0    0 -0.29926946199E+02 -0.41796384358E+02  0.74210386399E+02  0.90275917629E+02  0.00000000000E+00 0.  1.
         11    1    1    2    0    0  0.11826986965E+02  0.18849418044E+01 -0.19988019986E+02  0.23301321191E+02  0.00000000000E+00 0. -1.
<mgrwt>
<rscale>  0 0.13091190E+03</rscale>
<asrwt>0</asrwt>
<pdfrwt beam="2">  1        2 0.15840809E-01 0.14330597E+03</pdfrwt>
<pdfrwt beam="1">  1       -2 0.23685295E-01 0.14330597E+03</pdfrwt>
<totfact> 0.54538901E+03</totfact>
</mgrwt>
</event>
<event>
 6    1  0.6101889E-006  0.1291027E+03  0.7546771E-02  0.1242962E+00
          4   -1    0    0  501    0  0.00000000000E+00  0.00000000000E+00  0.72286279917E+02  0.72286279917E+02  0.00000000000E+00 0. -1.
         -4   -1    0    0    0  501 -0.00000000000E+00 -0.00000000000E+00 -0.28668874574E+03  0.28668874574E+03  0.00000000000E+00 0.  1.
          5    1    1    2  502    0 -0.52249997155E+02  0.42515488667E+02  0.27152190934E+02  0.72780220196E+02  0.47000000000E+01 0. -1.
         -5    1    1    2    0  502  0.44008228417E+02 -0.11463155017E+02 -0.33130037024E+02  0.56460760220E+02  0.47000000000E+01 0.  1.
        -11    1    1    2    0    0  0.24884596729E+02  0.25690310953E+02 -0.58476198194E+02  0.68547071319E+02  0.00000000000E+00 0. -1.
         11    1    1    2    0    0 -0.16642827992E+02 -0.56742644603E+02 -0.14994842154E+03  0.16118697392E+03  0.00000000000E+00 0.  1.
<mgrwt>
<rscale>  0 0.12008169E+03</rscale>
<asrwt>0</asrwt>
<pdfrwt beam="1">  1        4 0.11120966E-01 0.12910266E+03</pdfrwt>
<pdfrwt beam="2">  1       -4 0.44105960E-01 0.12910266E+03</pdfrwt>
<totfact> 0.52041185E+02</totfact>
</mgrwt>
</event>
<event>
 6    1  0.6101889E-006  0.1871957E+03  0.7546771E-02  0.1165899E+00
          2   -1    0    0  501    0  0.00000000000E+00  0.00000000000E+00  0.24164486720E+03  0.24164486720E+03  0.00000000000E+00 0. -1.
         -2   -1    0    0    0  501 -0.00000000000E+00 -0.00000000000E+00 -0.13033360063E+03  0.13033360063E+03  0.00000000000E+00 0.  1.
          5    1    1    2  502    0 -0.60502020109E+02  0.66804447279E+02  0.10075617627E+03  0.13526723798E+03  0.47000000000E+01 0.  1.
         -5    1    1    2    0  502 -0.54375440759E+02  0.12070359614E+02 -0.31699488846E+02  0.64259860971E+02  0.47000000000E+01 0.  1.
        -11    1    1    2    0    0  0.11856289362E+02 -0.61354076989E+02  0.11693480867E+02  0.63573829956E+02  0.00000000000E+00 0. -1.
         11    1    1    2    0    0  0.10302117151E+03 -0.17520729904E+02  0.30561098273E+02  0.10887753892E+03  0.00000000000E+00 0.  1.
<mgrwt>
<rscale>  0 0.18198160E+03</rscale>
<asrwt>0</asrwt>
<pdfrwt beam="1">  1        2 0.37176133E-01 0.18719572E+03</pdfrwt>
<pdfrwt beam="2">  1       -2 0.20051323E-01 0.18719572E+03</pdfrwt>
<totfact> 0.28448585E+03</totfact>
</mgrwt>
</event>
<event>
 6    1  0.6101889E-006  0.1395963E+03  0.7546771E-02  0.1231204E+00
         -1   -1    0    0    0  501 -0.00000000000E+00  0.00000000000E+00  0.42054436273E+02  0.42054436273E+02  0.00000000000E+00 0. -1.
          1   -1    0    0  501    0  0.00000000000E+00 -0.00000000000E+00 -0.36275008009E+03  0.36275008009E+03  0.00000000000E+00 0.  1.
          5    1    1    2  502    0 -0.52695624348E+02 -0.63722096890E+02 -0.21291798766E+03  0.22845895458E+03  0.47000000000E+01 0.  1.
         -5    1    1    2    0  502  0.42034344705E+02  0.24944387392E+01 -0.30710287448E+02  0.52328960572E+02  0.47000000000E+01 0.  1.
        -11    1    1    2    0    0 -0.26589122204E+02  0.10483252808E+02 -0.45155780312E+02  0.53440850523E+02  0.00000000000E+00 0.  1.
         11    1    1    2    0    0  0.37250401847E+02  0.50744405343E+02 -0.31911588393E+02  0.70575750688E+02  0.00000000000E+00 0. -1.
<mgrwt>
<rscale>  0 0.12750614E+03</rscale>
<asrwt>0</asrwt>
<pdfrwt beam="2">  1        1 0.55807703E-01 0.13959626E+03</pdfrwt>
<pdfrwt beam="1">  1       -1 0.64699135E-02 0.13959626E+03</pdfrwt>
<totfact> 0.78136124E+03</totfact>
</mgrwt>
</event>
<event>
 6    1  0.6101889E-006  0.1484295E+03  0.7546771E-02  0.1213228E+00
          1   -1    0    0  501    0  0.00000000000E+00  0.00000000000E+00  0.42844865833E+03  0.42844865833E+03  0.00000000000E+00 0. -1.
         -1   -1    0    0    0  501 -0.00000000000E+00 -0.00000000000E+00 -0.41416210231E+02  0.41416210231E+02  0.00000000000E+00 0.  1.
          5    1    1    2  502    0 -0.47021955315E+02 -0.73348521890E+01  0.19344315423E+03  0.19926667624E+03  0.47000000000E+01 0. -1.
         -5    1    1    2    0  502  0.80423155132E+01 -0.62573565277E+02  0.32641421443E+02  0.71187655560E+02  0.47000000000E+01 0. -1.
        -11    1    1    2    0    0  0.10160007429E+02  0.27009129606E+02 -0.15438459343E+01  0.28898136502E+02  0.00000000000E+00 0.  1.
         11    1    1    2    0    0  0.28819632373E+02  0.42899287860E+02  0.16249171836E+03  0.17051240026E+03  0.00000000000E+00 0. -1.
<mgrwt>
<rscale>  0 0.14007540E+03</rscale>
<asrwt>0</asrwt>
<pdfrwt beam="1">  1        1 0.65915175E-01 0.14842948E+03</pdfrwt>
<pdfrwt beam="2">  1       -1 0.63717249E-02 0.14842948E+03</pdfrwt>
<totfact> 0.65045712E+03</totfact>
</mgrwt>
</event>
<event>
 6    1  0.6101889E-006  0.1351450E+03  0.7546771E-02  0.1232135E+00
         -2   -1    0    0    0  501 -0.00000000000E+00  0.00000000000E+00  0.43604148717E+02  0.43604148717E+02  0.00000000000E+00 0. -1.
          2   -1    0    0  501    0  0.00000000000E+00 -0.00000000000E+00 -0.33090299236E+03  0.33090299236E+03  0.00000000000E+00 0.  1.
          5    1    1    2  502    0  0.51620489125E+02 -0.74724445086E+02 -0.12070288006E+03  0.15112806770E+03  0.47000000000E+01 0.  1.
         -5    1    1    2    0  502 -0.12447829606E+02  0.41539578429E+02 -0.44524613262E+02  0.62329898316E+02  0.47000000000E+01 0.  1.
        -11    1    1    2    0    0 -0.21585479586E+02 -0.31012321723E+02 -0.53365682297E+02  0.65388019351E+02  0.00000000000E+00 0. -1.
         11    1    1    2    0    0 -0.17587179933E+02  0.64197188380E+02 -0.68705668025E+02  0.95661155714E+02  0.00000000000E+00 0.  1.
<mgrwt>
<rscale>  0 0.12689622E+03</rscale>
<asrwt>0</asrwt>
<pdfrwt beam="2">  1        2 0.50908153E-01 0.13514503E+03</pdfrwt>
<pdfrwt beam="1">  1       -2 0.67083305E-02 0.13514503E+03</pdfrwt>
<totfact> 0.11554160E+04</totfact>
</mgrwt>
</event>
<event>
 6    1  0.6101889E-006  0.1251555E+03  0.7546771E-02  0.1252999E+00
         -2   -1    0    0    0  501 -0.00000000000E+00  0.00000000000E+00  0.15219042139E+03  0.15219042139E+03  0.00000000000E+00 0.  1.
          2   -1    0    0  501    0  0.00000000000E+00 -0.00000000000E+00 -0.74305153454E+02  0.74305153454E+02  0.00000000000E+00 0. -1.
          5    1    1    2  502    0  0.21561230547E+02  0.21979297175E+02  0.72182438443E+02  0.78615333025E+02  0.47000000000E+01 0.  1.
         -5    1    1    2    0  502 -0.25505343471E+02 -0.26749927731E+02 -0.35852293273E+02  0.51706461028E+02  0.47000000000E+01 0.  1.
        -11    1    1    2    0    0  0.32725235030E+02 -0.15596163091E+02 -0.62358714123E+01  0.36784064528E+02  0.00000000000E+00 0. -1.
         11    1    1    2    0    0 -0.28781122107E+02  0.20366793647E+02  0.47790994173E+02  0.59389716259E+02  0.00000000000E+00 0.  1.
<mgrwt>
<rscale>  0 0.11419133E+03</rscale>
<asrwt>0</asrwt>
<pdfrwt beam="2">  1        2 0.11431562E-01 0.12515547E+03</pdfrwt>
<pdfrwt beam="1">  1       -2 0.23413911E-01 0.12515547E+03</pdfrwt>
<totfact> 0.81087050E+03</totfact>
</mgrwt>
</event>
<event>
 6    1  0.6101889E-006  0.1503573E+03  0.7546771E-02  0.1209598E+00
          1   -1    0    0  501    0  0.00000000000E+00  0.00000000000E+00  0.28481185460E+03  0.28481185460E+03  0.00000000000E+00 0. -1.
         -1   -1    0    0    0  501 -0.00000000000E+00 -0.00000000000E+00 -0.10338312578E+03  0.10338312578E+03  0.00000000000E+00 0.  1.
          5    1    1    2  502    0  0.15286932933E+02  0.29382679846E+02  0.17080929510E+03  0.17405440956E+03  0.47000000000E+01 0.  1.
         -5    1    1    2    0  502  0.68186418673E+02 -0.33442485153E+02  0.43217849459E+02  0.87508056866E+02  0.47000000000E+01 0.  1.
        -11    1    1    2    0    0 -0.22875030545E+02  0.40378970797E+02  0.48698490849E+01  0.46663087502E+02  0.00000000000E+00 0. -1.
         11    1    1    2    0    0 -0.60598321060E+02 -0.36319165491E+02 -0.37468264828E+02  0.79969426448E+02  0.00000000000E+00 0.  1.
<mgrwt>
<rscale>  0 0.14280960E+03</rscale>
<asrwt>0</asrwt>
<pdfrwt beam="1">  1        1 0.43817208E-01 0.15035726E+03</pdfrwt>
<pdfrwt beam="2">  1       -1 0.15905096E-01 0.15035726E+03</pdfrwt>
<totfact> 0.26716307E+03</totfact>
</mgrwt>
</event>
<event>
 6    1  0.6101889E-006  0.1503907E+03  0.7546771E-02  0.1209100E+00
          1   -1    0    0  501    0  0.00000000000E+00  0.00000000000E+00  0.80585666178E+03  0.80585666178E+03  0.00000000000E+00 0. -1.
         -1   -1    0    0    0  501 -0.00000000000E+00 -0.00000000000E+00 -0.23812050951E+02  0.23812050951E+02  0.00000000000E+00 0.  1.
          5    1    1    2  502    0  0.40421912266E+02  0.82237654533E+02  0.27253118749E+03  0.28756269050E+03  0.47000000000E+01 0.  1.
         -5    1    1    2    0  502  0.34835552548E+02 -0.45790682557E+02  0.21716153643E+03  0.22470319364E+03  0.47000000000E+01 0.  1.
        -11    1    1    2    0    0 -0.71595670584E+02  0.13169849736E+02  0.15298715854E+03  0.16942389343E+03  0.00000000000E+00 0.  1.
         11    1    1    2    0    0 -0.36617942303E+01 -0.49616821713E+02  0.13936472838E+03  0.14797893515E+03  0.00000000000E+00 0. -1.
<mgrwt>
<rscale>  0 0.14319017E+03</rscale>
<asrwt>0</asrwt>
<pdfrwt beam="1">  1        1 0.12397793E+00 0.15039073E+03</pdfrwt>
<pdfrwt beam="2">  1       -1 0.36633931E-02 0.15039073E+03</pdfrwt>
<totfact> 0.62165975E+03</totfact>
</mgrwt>
</event>
<event>
 6    1  0.6101889E-006  0.1211187E+03  0.7546771E-02  0.1253937E+00
          2   -1    0    0  501    0  0.00000000000E+00  0.00000000000E+00  0.60193941113E+03  0.60193941113E+03  0.00000000000E+00 0. -1.
         -2   -1    0    0    0  501 -0.00000000000E+00 -0.00000000000E+00 -0.22217128721E+02  0.22217128721E+02  0.00000000000E+00 0.  1.
          5    1    1    2  502    0  0.43567386395E+02  0.35114317989E+01  0.38977186614E+03  0.39224309420E+03  0.47000000000E+01 0. -1.
         -5    1    1    2    0  502 -0.37768344960E+02  0.61179868960E+01  0.45842104283E+02  0.59895460344E+02  0.47000000000E+01 0.  1.
        -11    1    1    2    0    0 -0.49598367703E+02 -0.38719342378E+01  0.75413846417E+02  0.90345106038E+02  0.00000000000E+00 0.  1.
         11    1    1    2    0    0  0.43799326269E+02 -0.57574844570E+01  0.68694465563E+02  0.81672879267E+02  0.00000000000E+00 0. -1.
<mgrwt>
<rscale>  0 0.11366070E+03</rscale>
<asrwt>0</asrwt>
<pdfrwt beam="1">  1        2 0.92606051E-01 0.12111871E+03</pdfrwt>
<pdfrwt beam="2">  1       -2 0.34180203E-02 0.12111871E+03</pdfrwt>
<totfact> 0.16424915E+04</totfact>
</mgrwt>
</event>
<event>
 6    1  0.6101889E-006  0.1291860E+03  0.7546771E-02  0.1236443E+00
         -2   -1    0    0    0  501 -0.00000000000E+00  0.00000000000E+00  0.21340769100E+02  0.21340769100E+02  0.00000000000E+00 0.  1.
          2   -1    0    0  501    0  0.00000000000E+00 -0.00000000000E+00 -0.67125697282E+03  0.67125697282E+03  0.00000000000E+00 0. -1.
          5    1    1    2  502    0 -0.32252714145E+02  0.84987865794E+01 -0.24970555123E+03  0.25196709955E+03  0.47000000000E+01 0.  1.
         -5    1    1    2    0  502  0.63575149857E+02 -0.17686550332E+02 -0.91785827395E+02  0.11314301504E+03  0.47000000000E+01 0.  1.
        -11    1    1    2    0    0  0.25682876006E+01 -0.44425879702E+02 -0.16012233694E+03  0.16619090732E+03  0.00000000000E+00 0. -1.
         11    1    1    2    0    0 -0.33890723313E+02  0.53613643455E+02 -0.14830248816E+03  0.16129672001E+03  0.00000000000E+00 0.  1.
<mgrwt>
<rscale>  0 0.12412513E+03</rscale>
<asrwt>0</asrwt>
<pdfrwt beam="2">  1        2 0.10327029E+00 0.12918604E+03</pdfrwt>
<pdfrwt beam="1">  1       -2 0.32831958E-02 0.12918604E+03</pdfrwt>
<totfact> 0.15451960E+04</totfact>
</mgrwt>
</event>
<event>
 6    1  0.6101889E-006  0.1258595E+03  0.7546771E-02  0.1246397E+00
         -2   -1    0    0    0  501 -0.00000000000E+00  0.00000000000E+00  0.17158985439E+03  0.17158985439E+03  0.00000000000E+00 0.  1.
          2   -1    0    0  501    0  0.00000000000E+00 -0.00000000000E+00 -0.75254157133E+02  0.75254157133E+02  0.00000000000E+00 0. -1.
          5    1    1    2  502    0 -0.14124320577E+02 -0.16867079046E+02 -0.42227335431E+02  0.47845926106E+02  0.47000000000E+01 0.  1.
         -5    1    1    2    0  502  0.19011042921E+02  0.30725657528E+02  0.73202641683E+02  0.81769202839E+02  0.47000000000E+01 0.  1.
        -11    1    1    2    0    0  0.38533272733E+02 -0.10763736233E+02  0.61711891672E+02  0.73546099141E+02  0.00000000000E+00 0.  1.
         11    1    1    2    0    0 -0.43419995077E+02 -0.30948422501E+01  0.36484993287E+01  0.43682783432E+02  0.00000000000E+00 0. -1.
<mgrwt>
<rscale>  0 0.11802169E+03</rscale>
<asrwt>0</asrwt>
<pdfrwt beam="2">  1        2 0.11577563E-01 0.12585949E+03</pdfrwt>
<pdfrwt beam="1">  1       -2 0.26398439E-01 0.12585949E+03</pdfrwt>
<totfact> 0.64825974E+03</totfact>
</mgrwt>
</event>
<event>
 6    1  0.6101889E-006  0.1353536E+03  0.7546771E-02  0.1233491E+00
         -1   -1    0    0    0  501 -0.00000000000E+00  0.00000000000E+00  0.59179890166E+02  0.59179890166E+02  0.00000000000E+00 0.  1.
          1   -1    0    0  501    0  0.00000000000E+00 -0.00000000000E+00 -0.24899414255E+03  0.24899414255E+03  0.00000000000E+00 0. -1.
          5    1    1    2  502    0  0.15247979222E+02  0.30381811391E+02 -0.37200860163E+01  0.34517884838E+02  0.47000000000E+01 0. -1.
         -5    1    1    2    0  502 -0.16409894727E+02 -0.82306916351E+02 -0.13700364947E+03  0.16073519556E+03  0.47000000000E+01 0. -1.
        -11    1    1    2    0    0  0.30194714509E+02  0.59091513952E+02 -0.49865685343E+02  0.83006712862E+02  0.00000000000E+00 0.  1.
         11    1    1    2    0    0 -0.29032799003E+02 -0.71664089914E+01  0.77516844914E+00  0.29914239451E+02  0.00000000000E+00 0. -1.
<mgrwt>
<rscale>  0 0.12601552E+03</rscale>
<asrwt>0</asrwt>
<pdfrwt beam="2">  1        1 0.38306791E-01 0.13535359E+03</pdfrwt>
<pdfrwt beam="1">  1       -1 0.91045985E-02 0.13535359E+03</pdfrwt>
<totfact> 0.74328912E+03</totfact>
</mgrwt>
</event>
<event>
 6    1  0.6101889E-006  0.1291960E+03  0.7546771E-02  0.1242788E+00
         -1   -1    0    0    0  501 -0.00000000000E+00  0.00000000000E+00  0.30036738489E+03  0.30036738489E+03  0.00000000000E+00 0.  1.
          1   -1    0    0  501    0  0.00000000000E+00 -0.00000000000E+00 -0.49847312403E+02  0.49847312403E+02  0.00000000000E+00 0. -1.
          5    1    1    2  502    0  0.33120861239E+02 -0.37943032921E+02  0.41235764764E+02  0.65262113758E+02  0.47000000000E+01 0. -1.
         -5    1    1    2    0  502 -0.65754051128E+02  0.39659306458E+02  0.32694169020E+02  0.83590995426E+02  0.47000000000E+01 0. -1.
        -11    1    1    2    0    0  0.43433838833E+02 -0.33116555130E+00  0.18343003199E+03  0.18850247919E+03  0.00000000000E+00 0.  1.
         11    1    1    2    0    0 -0.10800648944E+02 -0.13851079856E+01 -0.68398932921E+01  0.12859108911E+02  0.00000000000E+00 0. -1.
<mgrwt>
<rscale>  0 0.12018779E+03</rscale>
<asrwt>0</asrwt>
<pdfrwt beam="2">  1        1 0.76688175E-02 0.12919603E+03</pdfrwt>
<pdfrwt beam="1">  1       -1 0.46210366E-01 0.12919603E+03</pdfrwt>
<totfact> 0.41795363E+03</totfact>
</mgrwt>
</event>
<event>
 6    1  0.6101889E-006  0.1386185E+03  0.7546771E-02  0.1228611E+00
         -1   -1    0    0    0  501 -0.00000000000E+00  0.00000000000E+00  0.52094399768E+03  0.52094399768E+03  0.00000000000E+00 0.  1.
          1   -1    0    0  501    0  0.00000000000E+00 -0.00000000000E+00 -0.71143027371E+02  0.71143027371E+02  0.00000000000E+00 0. -1.
          5    1    1    2  502    0 -0.68404020080E+02  0.29783717015E+02  0.21379444751E+02  0.77751851555E+02  0.47000000000E+01 0. -1.
         -5    1    1    2    0  502  0.32529121421E+02 -0.50027685576E+02 -0.12504843817E+02  0.61150422594E+02  0.47000000000E+01 0.  1.
        -11    1    1    2    0    0  0.17198202696E+02  0.55883694815E+02  0.33102398717E+03  0.33614824944E+03  0.00000000000E+00 0. -1.
         11    1    1    2    0    0  0.18676695963E+02 -0.35639726253E+02  0.10990238221E+03  0.11703650147E+03  0.00000000000E+00 0.  1.
<mgrwt>
<rscale>  0 0.12922422E+03</rscale>
<asrwt>0</asrwt>
<pdfrwt beam="2">  1        1 0.10945081E-01 0.13861848E+03</pdfrwt>
<pdfrwt beam="1">  1       -1 0.80145228E-01 0.13861848E+03</pdfrwt>
<totfact> 0.91181050E+02</totfact>
</mgrwt>
</event>
<event>
 6    1  0.6101889E-006  0.1261568E+03  0.7546771E-02  0.1246204E+00
         -2   -1    0    0    0  501 -0.00000000000E+00  0.00000000000E+00  0.84118328749E+02  0.84118328749E+02  0.00000000000E+00 0.  1.
          2   -1    0    0  501    0  0.00000000000E+00 -0.00000000000E+00 -0.16622628924E+03  0.16622628924E+03  0.00000000000E+00 0. -1.
          5    1    1    2  502    0 -0.22307156831E+02  0.35721122194E+02  0.16533373032E+02  0.45486813919E+02  0.47000000000E+01 0.  1.
         -5    1    1    2    0  502  0.67762011630E+01 -0.28798148096E+02 -0.10348232070E+03  0.10773082630E+03  0.47000000000E+01 0.  1.
        -11    1    1    2    0    0 -0.14907662805E+02  0.20665286233E+02  0.37021154962E+02  0.44942834581E+02  0.00000000000E+00 0.  1.
         11    1    1    2    0    0  0.30438618473E+02 -0.27588260331E+02 -0.32180167784E+02  0.52184143198E+02  0.00000000000E+00 0. -1.
<mgrwt>
<rscale>  0 0.11813615E+03</rscale>
<asrwt>0</asrwt>
<pdfrwt beam="2">  1        2 0.25573275E-01 0.12615675E+03</pdfrwt>
<pdfrwt beam="1">  1       -2 0.12941281E-01 0.12615675E+03</pdfrwt>
<totfact> 0.86065852E+03</totfact>
</mgrwt>
</event>
<event>
 6    1  0.6101889E-006  0.1261356E+03  0.7546771E-02  0.1248398E+00
          2   -1    0    0  501    0  0.00000000000E+00  0.00000000000E+00  0.13962423904E+04  0.13962423904E+04  0.00000000000E+00 0. -1.
         -2   -1    0    0    0  501 -0.00000000000E+00 -0.00000000000E+00 -0.90431284641E+01  0.90431284641E+01  0.00000000000E+00 0.  1.
          5    1    1    2  502    0  0.56762526095E+01 -0.62777158027E+02  0.30475643126E+03  0.31124229116E+03  0.47000000000E+01 0.  1.
         -5    1    1    2    0  502  0.34730726774E+01  0.48604086493E+02  0.64471943545E+03  0.64657533196E+03  0.47000000000E+01 0.  1.
        -11    1    1    2    0    0  0.41249935627E+02  0.38791607571E+01  0.19712381732E+03  0.20143089244E+03  0.00000000000E+00 0. -1.
         11    1    1    2    0    0 -0.50399260914E+02  0.10293910777E+02  0.24059957793E+03  0.24603700331E+03  0.00000000000E+00 0.  1.
<mgrwt>
<rscale>  0 0.11684301E+03</rscale>
<asrwt>0</asrwt>
<pdfrwt beam="1">  1        2 0.21480635E+00 0.12613555E+03</pdfrwt>
<pdfrwt beam="2">  1       -2 0.13912516E-02 0.12613555E+03</pdfrwt>
<totfact> 0.19599628E+04</totfact>
</mgrwt>
</event>
<event>
 6    1  0.6101889E-006  0.4014771E+03  0.7546771E-02  0.1044063E+00
          2   -1    0    0  501    0  0.00000000000E+00  0.00000000000E+00  0.76589481223E+03  0.76589481223E+03  0.00000000000E+00 0. -1.
         -2   -1    0    0    0  501 -0.00000000000E+00 -0.00000000000E+00 -0.20601218668E+03  0.20601218668E+03  0.00000000000E+00 0.  1.
          5    1    1    2  502    0  0.85433457834E+02  0.14748437281E+03  0.65554033952E+02  0.18267440245E+03  0.47000000000E+01 0. -1.
         -5    1    1    2    0  502  0.49352836751E+02  0.20943390626E+03  0.23628778388E+03  0.31961268810E+03  0.47000000000E+01 0. -1.
        -11    1    1    2    0    0 -0.10188922291E+03 -0.33105649932E+03  0.24957141811E+03  0.42692588610E+03  0.00000000000E+00 0. -1.
         11    1    1    2    0    0 -0.32897071675E+02 -0.25861779756E+02  0.84693896175E+01  0.42694022268E+02  0.00000000000E+00 0.  1.
<mgrwt>
<rscale>  0 0.39918184E+03</rscale>
<asrwt>0</asrwt>
<pdfrwt beam="1">  1        2 0.11782997E+00 0.40147707E+03</pdfrwt>
<pdfrwt beam="2">  1       -2 0.31694183E-01 0.40147707E+03</pdfrwt>
<totfact> 0.34572146E+02</totfact>
</mgrwt>
</event>
<event>
 6    1  0.6101889E-006  0.1502887E+03  0.7546771E-02  0.1208674E+00
          1   -1    0    0  501    0  0.00000000000E+00  0.00000000000E+00  0.78812393803E+03  0.78812393803E+03  0.00000000000E+00 0. -1.
         -1   -1    0    0    0  501 -0.00000000000E+00 -0.00000000000E+00 -0.25114843414E+02  0.25114843414E+02  0.00000000000E+00 0.  1.
          5    1    1    2  502    0 -0.55995881269E+02 -0.48377214848E+02  0.18181229963E+03  0.19635095094E+03  0.47000000000E+01 0. -1.
         -5    1    1    2    0  502  0.60301763821E+02 -0.34948094759E+02  0.31723752355E+03  0.32483751075E+03  0.47000000000E+01 0. -1.
        -11    1    1    2    0    0  0.30535606606E+02  0.98353956412E+01  0.14116568464E+03  0.14476501234E+03  0.00000000000E+00 0.  1.
         11    1    1    2    0    0 -0.34841489158E+02  0.73489913966E+02  0.12279358679E+03  0.14728530741E+03  0.00000000000E+00 0. -1.
<mgrwt>
<rscale>  0 0.14351622E+03</rscale>
<asrwt>0</asrwt>
<pdfrwt beam="1">  1        1 0.12124982E+00 0.15028868E+03</pdfrwt>
<pdfrwt beam="2">  1       -1 0.38638227E-02 0.15028868E+03</pdfrwt>
<totfact> 0.59448916E+03</totfact>
</mgrwt>
</event>
<event>
 6    1  0.6101889E-006  0.1457489E+03  0.7546771E-02  0.1216035E+00
         -1   -1    0    0    0  501 -0.00000000000E+00  0.00000000000E+00  0.92355114395E+02  0.92355114395E+02  0.00000000000E+00 0.  1.
          1   -1    0    0  501    0  0.00000000000E+00 -0.00000000000E+00 -0.19875671807E+03  0.19875671807E+03  0.00000000000E+00 0. -1.
          5    1    1    2  502    0 -0.66760830245E+02  0.32682509925E+01 -0.11983584892E+03  0.13729679751E+03  0.47000000000E+01 0. -1.
         -5    1    1    2    0  502 -0.53793178925E+01 -0.23617544276E+02  0.26159539866E+02  0.35960213912E+02  0.47000000000E+01 0. -1.
        -11    1    1    2    0    0  0.25593622560E+02 -0.34350664415E+02  0.69211304441E+01  0.43392438375E+02  0.00000000000E+00 0.  1.
         11    1    1    2    0    0  0.46546525578E+02  0.54699957698E+02 -0.19646425071E+02  0.74462382675E+02  0.00000000000E+00 0. -1.
<mgrwt>
<rscale>  0 0.13800797E+03</rscale>
<asrwt>0</asrwt>
<pdfrwt beam="2">  1        1 0.30577956E-01 0.14574890E+03</pdfrwt>
<pdfrwt beam="1">  1       -1 0.14208479E-01 0.14574890E+03</pdfrwt>
<totfact> 0.49772229E+03</totfact>
</mgrwt>
</event>
<event>
 6    1  0.6101889E-006  0.4067688E+03  0.7546771E-02  0.1041461E+00
         -1   -1    0    0    0  501 -0.00000000000E+00  0.00000000000E+00  0.82350248915E+02  0.82350248915E+02  0.00000000000E+00 0.  1.
          1   -1    0    0  501    0  0.00000000000E+00 -0.00000000000E+00 -0.50230838504E+03  0.50230838504E+03  0.00000000000E+00 0. -1.
          5    1    1    2  502    0 -0.15024688052E+03  0.11364001456E+03 -0.23370206904E+03  0.30021146728E+03  0.47000000000E+01 0. -1.
         -5    1    1    2    0  502  0.18829703768E+02 -0.81523404062E+01 -0.32849965435E+02  0.39015748451E+02  0.47000000000E+01 0. -1.
        -11    1    1    2    0    0  0.55334728675E+02 -0.31922928008E+02 -0.11737690602E+03  0.13363511364E+03  0.00000000000E+00 0. -1.
         11    1    1    2    0    0  0.76082448080E+02 -0.73564746144E+02 -0.36029195635E+02  0.11179630459E+03  0.00000000000E+00 0.  1.
<mgrwt>
<rscale>  0 0.40676883E+03</rscale>
<asrwt>0</asrwt>
<pdfrwt beam="2">  1        1 0.77278211E-01 0.40676883E+03</pdfrwt>
<pdfrwt beam="1">  1       -1 0.12669269E-01 0.40676883E+03</pdfrwt>
<totfact> 0.18948140E+03</totfact>
</mgrwt>
</event>
<event>
 6    1  0.6101889E-006  0.1386970E+03  0.7546771E-02  0.1229090E+00
          2   -1    0    0  501    0  0.00000000000E+00  0.00000000000E+00  0.31943861618E+03  0.31943861618E+03  0.00000000000E+00 0. -1.
         -2   -1    0    0    0  501 -0.00000000000E+00 -0.00000000000E+00 -0.46125748640E+02  0.46125748640E+02  0.00000000000E+00 0.  1.
          5    1    1    2  502    0 -0.10468258365E+02 -0.65429799300E+02  0.15536877785E+02  0.68221167103E+02  0.47000000000E+01 0.  1.
         -5    1    1    2    0  502 -0.23931218429E+02  0.16147610158E+02  0.12830626233E+03  0.13159800714E+03  0.47000000000E+01 0.  1.
        -11    1    1    2    0    0  0.58638921411E+02  0.35235572998E+02  0.60585808276E+02  0.91382213112E+02  0.00000000000E+00 0.  1.
         11    1    1    2    0    0 -0.24239444617E+02  0.14046616144E+02  0.68883919153E+02  0.74362977470E+02  0.00000000000E+00 0. -1.
<mgrwt>
<rscale>  0 0.12890482E+03</rscale>
<asrwt>0</asrwt>
<pdfrwt beam="1">  1        2 0.49144401E-01 0.13869698E+03</pdfrwt>
<pdfrwt beam="2">  1       -2 0.70962692E-02 0.13869698E+03</pdfrwt>
<totfact> 0.11027666E+04</totfact>
</mgrwt>
</event>
<event>
 6    1  0.6101889E-006  0.1511033E+03  0.7546771E-02  0.1210267E+00
         -1   -1    0    0    0  501 -0.00000000000E+00  0.00000000000E+00  0.14288651349E+03  0.14288651349E+03  0.00000000000E+00 0.  1.
          1   -1    0    0  501    0  0.00000000000E+00 -0.00000000000E+00 -0.12778063264E+03  0.12778063264E+03  0.00000000000E+00 0. -1.
          5    1    1    2  502    0 -0.31444802647E+02 -0.14374347289E+02 -0.17813468675E+02  0.39176614705E+02  0.47000000000E+01 0.  1.
         -5    1    1    2    0  502  0.10755612961E+03 -0.23229331180E+02  0.20030072684E+02  0.11194291695E+03  0.47000000000E+01 0.  1.
        -11    1    1    2    0    0 -0.26664595544E+02  0.32961232390E+01 -0.33943140575E+02  0.43289743312E+02  0.00000000000E+00 0. -1.
         11    1    1    2    0    0 -0.49446731419E+02  0.34307555231E+02  0.46832417418E+02  0.76257871169E+02  0.00000000000E+00 0.  1.
<mgrwt>
<rscale>  0 0.14230032E+03</rscale>
<asrwt>0</asrwt>
<pdfrwt beam="2">  1        1 0.19658559E-01 0.15110327E+03</pdfrwt>
<pdfrwt beam="1">  1       -1 0.21982541E-01 0.15110327E+03</pdfrwt>
<totfact> 0.43435525E+03</totfact>
</mgrwt>
</event>
<event>
 6    1  0.6101889E-006  0.1757431E+03  0.7546771E-02  0.1177597E+00
          4   -1    0    0  501    0  0.00000000000E+00  0.00000000000E+00  0.30857003469E+03  0.30857003469E+03  0.00000000000E+00 0. -1.
         -4   -1    0    0    0  501 -0.00000000000E+00 -0.00000000000E+00 -0.90428246060E+02  0.90428246060E+02  0.00000000000E+00 0.  1.
          5    1    1    2  502    0 -0.30871353736E+02 -0.89666640405E+02  0.63558532700E+02  0.11425814615E+03  0.47000000000E+01 0.  1.
         -5    1    1    2    0  502  0.74689205609E+02 -0.25834479046E+02  0.81436989129E+02  0.11357803899E+03  0.47000000000E+01 0.  1.
        -11    1    1    2    0    0 -0.10471046303E+02  0.56728721890E+02  0.84829602169E+02  0.10258582798E+03  0.00000000000E+00 0. -1.
         11    1    1    2    0    0 -0.33346805570E+02  0.58772397561E+02 -0.11683335369E+02  0.68576267630E+02  0.00000000000E+00 0.  1.
<mgrwt>
<rscale>  0 0.17024053E+03</rscale>
<asrwt>0</asrwt>
<pdfrwt beam="1">  1        4 0.47472313E-01 0.17574307E+03</pdfrwt>
<pdfrwt beam="2">  1       -4 0.13912038E-01 0.17574307E+03</pdfrwt>
<totfact> 0.32302619E+02</totfact>
</mgrwt>
</event>
<event>
 6    1  0.6101889E-006  0.2043551E+03  0.7546771E-02  0.1150061E+00
         -1   -1    0    0    0  501 -0.00000000000E+00  0.00000000000E+00  0.10979785778E+03  0.10979785778E+03  0.00000000000E+00 0.  1.
          1   -1    0    0  501    0  0.00000000000E+00 -0.00000000000E+00 -0.39349910749E+03  0.39349910749E+03  0.00000000000E+00 0. -1.
          5    1    1    2  502    0  0.54484231824E+02 -0.17025203266E+02 -0.14935636731E+03  0.15996188146E+03  0.47000000000E+01 0.  1.
         -5    1    1    2    0  502  0.93236544819E+02  0.82696912161E+02 -0.84729607950E+02  0.15077476259E+03  0.47000000000E+01 0.  1.
        -11    1    1    2    0    0 -0.14352458609E+03 -0.26782732076E+02 -0.31067984453E+02  0.14927103271E+03  0.00000000000E+00 0.  1.
         11    1    1    2    0    0 -0.41961905563E+01 -0.38888976820E+02 -0.18547290000E+02  0.43289288509E+02  0.00000000000E+00 0. -1.
<mgrwt>
<rscale>  0 0.19961887E+03</rscale>
<asrwt>0</asrwt>
<pdfrwt beam="2">  1        1 0.60538324E-01 0.20435513E+03</pdfrwt>
<pdfrwt beam="1">  1       -1 0.16891978E-01 0.20435513E+03</pdfrwt>
<totfact> 0.16329948E+03</totfact>
</mgrwt>
</event>
<event>
 6    1  0.6101889E-006  0.1665268E+03  0.7546771E-02  0.1188584E+00
         -1   -1    0    0    0  501 -0.00000000000E+00  0.00000000000E+00  0.64203308777E+03  0.64203308777E+03  0.00000000000E+00 0.  1.
          1   -1    0    0  501    0  0.00000000000E+00 -0.00000000000E+00 -0.38854986083E+02  0.38854986083E+02  0.00000000000E+00 0. -1.
          5    1    1    2  502    0 -0.72948342618E+02 -0.54366430617E+02  0.19495237018E+03  0.21518756030E+03  0.47000000000E+01 0.  1.
         -5    1    1    2    0  502  0.41142796397E+02 -0.50969353417E+02  0.57756728530E+02  0.87455899593E+02  0.47000000000E+01 0.  1.
        -11    1    1    2    0    0  0.50243052205E+02  0.10953142647E+03  0.27147145223E+03  0.29701556702E+03  0.00000000000E+00 0. -1.
         11    1    1    2    0    0 -0.18437505984E+02 -0.41956424327E+01  0.78997550742E+02  0.81229046933E+02  0.00000000000E+00 0.  1.
<mgrwt>
<rscale>  0 0.16009975E+03</rscale>
<asrwt>0</asrwt>
<pdfrwt beam="2">  1        1 0.59776906E-02 0.16652680E+03</pdfrwt>
<pdfrwt beam="1">  1       -1 0.98774313E-01 0.16652680E+03</pdfrwt>
<totfact> 0.13262250E+03</totfact>
</mgrwt>
</event>
<event>
 6    1  0.6101889E-006  0.1275876E+03  0.7546771E-02  0.1245119E+00
          1   -1    0    0  501    0  0.00000000000E+00  0.00000000000E+00  0.52117228509E+03  0.52117228509E+03  0.00000000000E+00 0. -1.
         -1   -1    0    0    0  501 -0.00000000000E+00 -0.00000000000E+00 -0.24310783097E+02  0.24310783097E+02  0.00000000000E+00 0.  1.
          5    1    1    2  502    0  0.29646032615E+02  0.61220151461E+02  0.22856051172E+03  0.23851371389E+03  0.47000000000E+01 0.  1.
         -5    1    1    2    0  502 -0.55946495695E+01 -0.52564511488E+02  0.87616287542E+02  0.10243550075E+03  0.47000000000E+01 0.  1.
        -11    1    1    2    0    0 -0.28297620852E+02 -0.43467180629E+02  0.62302387018E+02  0.81066260342E+02  0.00000000000E+00 0.  1.
         11    1    1    2    0    0  0.42462378074E+01  0.34811540655E+02  0.11838231571E+03  0.12346759320E+03  0.00000000000E+00 0. -1.
<mgrwt>
<rscale>  0 0.11878289E+03</rscale>
<asrwt>0</asrwt>
<pdfrwt beam="1">  1        1 0.80180343E-01 0.12758761E+03</pdfrwt>
<pdfrwt beam="2">  1       -1 0.37401209E-02 0.12758761E+03</pdfrwt>
<totfact> 0.10993578E+04</totfact>
</mgrwt>
</event>
<event>
 6    1  0.6101889E-006  0.1725047E+03  0.7546771E-02  0.1177404E+00
          1   -1    0    0  501    0  0.00000000000E+00  0.00000000000E+00  0.40794934450E+03  0.40794934450E+03  0.00000000000E+00 0. -1.
         -1   -1    0    0    0  501 -0.00000000000E+00 -0.00000000000E+00 -0.16857348665E+03  0.16857348665E+03  0.00000000000E+00 0.  1.
          5    1    1    2  502    0 -0.11918511172E+02  0.83813943416E+02  0.82185692694E+02  0.11808220062E+03  0.47000000000E+01 0. -1.
         -5    1    1    2    0  502 -0.48371270173E+02  0.18646820224E+02  0.25962338748E+03  0.26479025097E+03  0.47000000000E+01 0. -1.
        -11    1    1    2    0    0  0.21504020542E+02 -0.82975872205E+02 -0.11945508928E+03  0.14702699284E+03  0.00000000000E+00 0.  1.
         11    1    1    2    0    0  0.38785760803E+02 -0.19484891435E+02  0.17021866959E+02  0.46623386729E+02  0.00000000000E+00 0. -1.
<mgrwt>
<rscale>  0 0.17042646E+03</rscale>
<asrwt>0</asrwt>
<pdfrwt beam="1">  1        1 0.62761437E-01 0.17250469E+03</pdfrwt>
<pdfrwt beam="2">  1       -1 0.25934383E-01 0.17250469E+03</pdfrwt>
<totfact> 0.77498094E+02</totfact>
</mgrwt>
</event>
<event>
 6    1  0.6101889E-006  0.3904512E+03  0.7546771E-02  0.1047137E+00
          2   -1    0    0  501    0  0.00000000000E+00  0.00000000000E+00  0.10321532403E+04  0.10321532403E+04  0.00000000000E+00 0. -1.
         -2   -1    0    0    0  501 -0.00000000000E+00 -0.00000000000E+00 -0.36925751590E+02  0.36925751590E+02  0.00000000000E+00 0.  1.
          5    1    1    2  502    0  0.13370036904E+03 -0.30263842873E+02  0.60561344947E+03  0.62095203442E+03  0.47000000000E+01 0. -1.
         -5    1    1    2    0  502 -0.87259458619E+01 -0.46070547790E+02  0.10151641522E+03  0.11192099921E+03  0.47000000000E+01 0. -1.
        -11    1    1    2    0    0 -0.63361871205E+02  0.22502803026E+02  0.48173067308E+02  0.82714855258E+02  0.00000000000E+00 0.  1.
         11    1    1    2    0    0 -0.61612551975E+02  0.53831587637E+02  0.23992455668E+03  0.25349110297E+03  0.00000000000E+00 0. -1.
<mgrwt>
<rscale>  0 0.39045120E+03</rscale>
<asrwt>0</asrwt>
<pdfrwt beam="1">  1        2 0.15879278E+00 0.39045120E+03</pdfrwt>
<pdfrwt beam="2">  1       -2 0.56808856E-02 0.39045120E+03</pdfrwt>
<totfact> 0.40567612E+03</totfact>
</mgrwt>
</event>
<event>
 6    1  0.6101889E-006  0.1261411E+03  0.7546771E-02  0.1249229E+00
         -2   -1    0    0    0  501 -0.00000000000E+00  0.00000000000E+00  0.33292983321E+02  0.33292983321E+02  0.00000000000E+00 0.  1.
          2   -1    0    0  501    0  0.00000000000E+00 -0.00000000000E+00 -0.58340385594E+03  0.58340385594E+03  0.00000000000E+00 0. -1.
          5    1    1    2  502    0  0.11018835228E+02 -0.52266983169E+02 -0.14343847302E+03  0.15313372522E+03  0.47000000000E+01 0.  1.
         -5    1    1    2    0  502 -0.93911663328E+00  0.65864774257E+02 -0.34978666895E+03  0.35596608575E+03  0.47000000000E+01 0.  1.
        -11    1    1    2    0    0  0.11137339170E+02  0.17923661213E+02  0.15270479267E+02  0.26047754071E+02  0.00000000000E+00 0.  1.
         11    1    1    2    0    0 -0.21217057765E+02 -0.31521452301E+02 -0.72156209913E+02  0.81549274211E+02  0.00000000000E+00 0. -1.
<mgrwt>
<rscale>  0 0.11635783E+03</rscale>
<asrwt>0</asrwt>
<pdfrwt beam="2">  1        2 0.89754440E-01 0.12614110E+03</pdfrwt>
<pdfrwt beam="1">  1       -2 0.51219974E-02 0.12614110E+03</pdfrwt>
<totfact> 0.93580282E+03</totfact>
</mgrwt>
</event>
<event>
 6    1  0.6101889E-006  0.1397982E+03  0.7546771E-02  0.1228488E+00
          2   -1    0    0  501    0  0.00000000000E+00  0.00000000000E+00  0.66454622558E+03  0.66454622558E+03  0.00000000000E+00 0. -1.
         -2   -1    0    0    0  501 -0.00000000000E+00 -0.00000000000E+00 -0.22066765942E+02  0.22066765942E+02  0.00000000000E+00 0.  1.
          5    1    1    2  502    0  0.69817200783E+02  0.37111246062E+02  0.11965806558E+03  0.14349853228E+03  0.47000000000E+01 0.  1.
         -5    1    1    2    0  502 -0.91477086010E+01 -0.21739097264E+02  0.25947976536E+03  0.26059184092E+03  0.47000000000E+01 0.  1.
        -11    1    1    2    0    0 -0.51607348903E+02 -0.45345452438E+02  0.20648620897E+03  0.21761452850E+03  0.00000000000E+00 0. -1.
         11    1    1    2    0    0 -0.90621432795E+01  0.29973303639E+02  0.56855419723E+02  0.64908089817E+02  0.00000000000E+00 0.  1.
<mgrwt>
<rscale>  0 0.12930658E+03</rscale>
<asrwt>0</asrwt>
<pdfrwt beam="1">  1        2 0.10223787E+00 0.13979819E+03</pdfrwt>
<pdfrwt beam="2">  1       -2 0.33948876E-02 0.13979819E+03</pdfrwt>
<totfact> 0.14970091E+04</totfact>
</mgrwt>
</event>
<event>
 6    1  0.6101889E-006  0.2763228E+03  0.7546771E-02  0.1099761E+00
         -2   -1    0    0    0  501 -0.00000000000E+00  0.00000000000E+00  0.60409935194E+02  0.60409935194E+02  0.00000000000E+00 0.  1.
          2   -1    0    0  501    0  0.00000000000E+00 -0.00000000000E+00 -0.11998354149E+04  0.11998354149E+04  0.00000000000E+00 0. -1.
          5    1    1    2  502    0 -0.47903429089E+02  0.17793526362E+03 -0.46671800681E+03  0.50180024356E+03  0.47000000000E+01 0.  1.
         -5    1    1    2    0  502 -0.72978574909E+02  0.36809180070E+02 -0.10458647588E+03  0.13282021333E+03  0.47000000000E+01 0.  1.
        -11    1    1    2    0    0  0.27755242682E+02 -0.98924622950E+02 -0.14946557084E+03  0.18137362374E+03  0.00000000000E+00 0.  1.
         11    1    1    2    0    0  0.93126761317E+02 -0.11581982074E+03 -0.41865542621E+03  0.44425126949E+03  0.00000000000E+00 0. -1.
<mgrwt>
<rscale>  0 0.27267086E+03</rscale>
<asrwt>0</asrwt>
<pdfrwt beam="2">  1        2 0.18459006E+00 0.27632284E+03</pdfrwt>
<pdfrwt beam="1">  1       -2 0.92938364E-02 0.27632284E+03</pdfrwt>
<totfact> 0.14913269E+03</totfact>
</mgrwt>
</event>
<event>
 6    1  0.6101889E-006  0.1320476E+03  0.7546771E-02  0.1238281E+00
          1   -1    0    0  501    0  0.00000000000E+00  0.00000000000E+00  0.89663603266E+03  0.89663603266E+03  0.00000000000E+00 0. -1.
         -1   -1    0    0    0  501 -0.00000000000E+00 -0.00000000000E+00 -0.15515925533E+02  0.15515925533E+02  0.00000000000E+00 0.  1.
          5    1    1    2  502    0  0.52928288126E+02 -0.45023433148E+02  0.28571973207E+03  0.29408564826E+03  0.47000000000E+01 0.  1.
         -5    1    1    2    0  502 -0.13237736482E+02  0.60299193473E+02  0.30308223792E+03  0.30934149955E+03  0.47000000000E+01 0.  1.
        -11    1    1    2    0    0 -0.58354717451E+02  0.80633256308E+01  0.11826223538E+03  0.13212208970E+03  0.00000000000E+00 0.  1.
         11    1    1    2    0    0  0.18664165807E+02 -0.23339085956E+02  0.17405590176E+03  0.17660272069E+03  0.00000000000E+00 0. -1.
<mgrwt>
<rscale>  0 0.12296700E+03</rscale>
<asrwt>0</asrwt>
<pdfrwt beam="1">  1        1 0.13794396E+00 0.13204758E+03</pdfrwt>
<pdfrwt beam="2">  1       -1 0.23870662E-02 0.13204758E+03</pdfrwt>
<totfact> 0.97649880E+03</totfact>
</mgrwt>
</event>
<event>
 6    1  0.6101889E-006  0.1363541E+03  0.7546771E-02  0.1229827E+00
         -2   -1    0    0    0  501 -0.00000000000E+00  0.00000000000E+00  0.38740276353E+02  0.38740276353E+02  0.00000000000E+00 0.  1.
          2   -1    0    0  501    0  0.00000000000E+00 -0.00000000000E+00 -0.44337591465E+03  0.44337591465E+03  0.00000000000E+00 0. -1.
          5    1    1    2  502    0  0.38588926345E+02 -0.23750042111E+02 -0.12391873657E+03  0.13202694047E+03  0.47000000000E+01 0. -1.
         -5    1    1    2    0  502 -0.44564536146E+02  0.77933416926E+02 -0.18767285975E+03  0.20809326669E+03  0.47000000000E+01 0. -1.
        -11    1    1    2    0    0  0.38981681035E+02 -0.29145732389E+02 -0.87597252785E+02  0.10021139590E+03  0.00000000000E+00 0. -1.
         11    1    1    2    0    0 -0.33006071235E+02 -0.25037642426E+02 -0.54467891869E+01  0.41784587937E+02  0.00000000000E+00 0.  1.
<mgrwt>
<rscale>  0 0.12841479E+03</rscale>
<asrwt>0</asrwt>
<pdfrwt beam="2">  1        2 0.68211681E-01 0.13635407E+03</pdfrwt>
<pdfrwt beam="1">  1       -2 0.59600424E-02 0.13635407E+03</pdfrwt>
<totfact> 0.10127446E+04</totfact>
</mgrwt>
</event>
<event>
 6    1  0.6101889E-006  0.1322990E+03  0.7546771E-02  0.1237447E+00
         -1   -1    0    0    0  501 -0.00000000000E+00  0.00000000000E+00  0.36058513541E+02  0.36058513541E+02  0.00000000000E+00 0.  1.
          1   -1    0    0  501    0  0.00000000000E+00 -0.00000000000E+00 -0.45941828412E+03  0.45941828412E+03  0.00000000000E+00 0. -1.
          5    1    1    2  502    0 -0.26838640318E+01  0.63098258282E+02 -0.29306934139E+03  0.29983382429E+03  0.47000000000E+01 0.  1.
         -5    1    1    2    0  502  0.32123645147E+02 -0.31304117694E+02 -0.47355565278E+02  0.65395075693E+02  0.47000000000E+01 0.  1.
        -11    1    1    2    0    0  0.32155651727E+02 -0.25817934196E+01 -0.26602230042E+02  0.41813039096E+02  0.00000000000E+00 0.  1.
         11    1    1    2    0    0 -0.61595432842E+02 -0.29212347169E+02 -0.56332633870E+02  0.88434858584E+02  0.00000000000E+00 0. -1.
<mgrwt>
<rscale>  0 0.12349066E+03</rscale>
<asrwt>0</asrwt>
<pdfrwt beam="2">  1        1 0.70679728E-01 0.13229903E+03</pdfrwt>
<pdfrwt beam="1">  1       -1 0.55474643E-02 0.13229903E+03</pdfrwt>
<totfact> 0.72624817E+03</totfact>
</mgrwt>
</event>
<event>
 6    1  0.6101889E-006  0.1478004E+03  0.7546771E-02  0.1212430E+00
         -2   -1    0    0    0  501 -0.00000000000E+00  0.00000000000E+00  0.19695014693E+02  0.19695014693E+02  0.00000000000E+00 0.  1.
          2   -1    0    0  501    0  0.00000000000E+00 -0.00000000000E+00 -0.96565588322E+03  0.96565588322E+03  0.00000000000E+00 0. -1.
          5    1    1    2  502    0 -0.18349137779E+02  0.59676757575E+02 -0.50279478459E+03  0.50667809472E+03  0.47000000000E+01 0. -1.
         -5    1    1    2    0  502 -0.52686664764E+02 -0.25415251592E+02 -0.12228094881E+03  0.13563384570E+03  0.47000000000E+01 0. -1.
        -11    1    1    2    0    0  0.59024410409E+02  0.11037241032E+02 -0.25631355378E+03  0.26325337522E+03  0.00000000000E+00 0. -1.
         11    1    1    2    0    0  0.12011392133E+02 -0.45298747014E+02 -0.64571581346E+02  0.79785582279E+02  0.00000000000E+00 0.  1.
<mgrwt>
<rscale>  0 0.14067035E+03</rscale>
<asrwt>0</asrwt>
<pdfrwt beam="2">  1        2 0.14856241E+00 0.14780039E+03</pdfrwt>
<pdfrwt beam="1">  1       -2 0.30300029E-02 0.14780039E+03</pdfrwt>
<totfact> 0.11126724E+04</totfact>
</mgrwt>
</event>
<event>
 6    1  0.6101889E-006  0.1426824E+03  0.7546771E-02  0.1218772E+00
         -2   -1    0    0    0  501 -0.00000000000E+00  0.00000000000E+00  0.61250922936E+02  0.61250922936E+02  0.00000000000E+00 0. -1.
          2   -1    0    0  501    0  0.00000000000E+00 -0.00000000000E+00 -0.32983469411E+03  0.32983469411E+03  0.00000000000E+00 0.  1.
          5    1    1    2  502    0 -0.68711863502E+02 -0.18796849014E+02 -0.80256207035E+02  0.10741410748E+03  0.47000000000E+01 0.  1.
         -5    1    1    2    0  502  0.46881459839E+02 -0.46447800996E+02 -0.14265974956E+03  0.15725509098E+03  0.47000000000E+01 0.  1.
        -11    1    1    2    0    0  0.20553225778E+02  0.19175160436E+02 -0.69184008867E+02  0.74676294435E+02  0.00000000000E+00 0.  1.
         11    1    1    2    0    0  0.12771778852E+01  0.46069489573E+02  0.23516194290E+02  0.51740124147E+02  0.00000000000E+00 0. -1.
<mgrwt>
<rscale>  0 0.13603080E+03</rscale>
<asrwt>0</asrwt>
<pdfrwt beam="2">  1        2 0.50743799E-01 0.14268238E+03</pdfrwt>
<pdfrwt beam="1">  1       -2 0.94232189E-02 0.14268238E+03</pdfrwt>
<totfact> 0.68841601E+03</totfact>
</mgrwt>
</event>
<event>
 6    1  0.6101889E-006  0.2012411E+03  0.7546771E-02  0.1153231E+00
         -2   -1    0    0    0  501 -0.00000000000E+00  0.00000000000E+00  0.25827955553E+02  0.25827955553E+02  0.00000000000E+00 0.  1.
          2   -1    0    0  501    0  0.00000000000E+00 -0.00000000000E+00 -0.18899182260E+04  0.18899182260E+04  0.00000000000E+00 0. -1.
          5    1    1    2  502    0 -0.50777950488E+02 -0.33038193130E+02 -0.47862272748E+03  0.48246422429E+03  0.47000000000E+01 0. -1.
         -5    1    1    2    0  502  0.65090058440E+02 -0.12401795142E+03 -0.97163442970E+03  0.98168870981E+03  0.47000000000E+01 0. -1.
        -11    1    1    2    0    0 -0.42366222510E+02  0.67202898425E+02 -0.12789690838E+03  0.15056143443E+03  0.00000000000E+00 0.  1.
         11    1    1    2    0    0  0.28054114558E+02  0.89853246130E+02 -0.28593620491E+03  0.30103181304E+03  0.00000000000E+00 0. -1.
<mgrwt>
<rscale>  0 0.19591628E+03</rscale>
<asrwt>0</asrwt>
<pdfrwt beam="2">  1        2 0.29075672E+00 0.20124113E+03</pdfrwt>
<pdfrwt beam="1">  1       -2 0.39735307E-02 0.20124113E+03</pdfrwt>
<totfact> 0.23623285E+03</totfact>
</mgrwt>
</event>
<event>
 6    1  0.6101889E-006  0.1318104E+03  0.7546771E-02  0.1236272E+00
         -1   -1    0    0    0  501 -0.00000000000E+00  0.00000000000E+00  0.22176775272E+03  0.22176775272E+03  0.00000000000E+00 0.  1.
          1   -1    0    0  501    0  0.00000000000E+00 -0.00000000000E+00 -0.66596827773E+02  0.66596827773E+02  0.00000000000E+00 0. -1.
          5    1    1    2  502    0 -0.41556591537E+02  0.80084621484E+01  0.85049882880E+02  0.95113922977E+02  0.47000000000E+01 0. -1.
         -5    1    1    2    0  502  0.17703877931E+02  0.26342079277E+02 -0.33529662337E+02  0.46407549934E+02  0.47000000000E+01 0. -1.
        -11    1    1    2    0    0 -0.16906418466E+02  0.82728793995E+01  0.81820234089E+02  0.83957240458E+02  0.00000000000E+00 0.  1.
         11    1    1    2    0    0  0.40759132071E+02 -0.42623420825E+02  0.21830470318E+02  0.62885867127E+02  0.00000000000E+00 0. -1.
<mgrwt>
<rscale>  0 0.12423327E+03</rscale>
<asrwt>0</asrwt>
<pdfrwt beam="2">  1        1 0.10245666E-01 0.13181045E+03</pdfrwt>
<pdfrwt beam="1">  1       -1 0.34118115E-01 0.13181045E+03</pdfrwt>
<totfact> 0.48373295E+03</totfact>
</mgrwt>
</event>
<event>
 6    1  0.6101889E-006  0.2385408E+03  0.7546771E-02  0.1120769E+00
          4   -1    0    0  501    0  0.00000000000E+00  0.00000000000E+00  0.33418098691E+02  0.33418098691E+02  0.00000000000E+00 0.  1.
         -4   -1    0    0    0  501 -0.00000000000E+00 -0.00000000000E+00 -0.42568031746E+03  0.42568031746E+03  0.00000000000E+00 0. -1.
          5    1    1    2  502    0  0.18462528656E+02 -0.31789469153E+02 -0.12222488742E+03  0.12772019581E+03  0.47000000000E+01 0. -1.
         -5    1    1    2    0  502 -0.62815410554E+02  0.53531232445E+02 -0.79575923890E+02  0.11474226036E+03  0.47000000000E+01 0. -1.
        -11    1    1    2    0    0  0.23230690199E+01 -0.42501085135E+02 -0.14581291977E+03  0.15189847418E+03  0.00000000000E+00 0. -1.
         11    1    1    2    0    0  0.42029812878E+02  0.20759321843E+02 -0.44648487687E+02  0.64737485792E+02  0.00000000000E+00 0.  1.
<mgrwt>
<rscale>  0 0.23854079E+03</rscale>
<asrwt>0</asrwt>
<pdfrwt beam="1">  1        4 0.51412461E-02 0.23854079E+03</pdfrwt>
<pdfrwt beam="2">  1       -4 0.65489278E-01 0.23854079E+03</pdfrwt>
<totfact> 0.92340214E+02</totfact>
</mgrwt>
</event>
<event>
 6    1  0.6101889E-006  0.1986338E+03  0.7546771E-02  0.1155171E+00
         -1   -1    0    0    0  501 -0.00000000000E+00  0.00000000000E+00  0.21431605089E+02  0.21431605089E+02  0.00000000000E+00 0.  1.
          1   -1    0    0  501    0  0.00000000000E+00 -0.00000000000E+00 -0.16850773943E+04  0.16850773943E+04  0.00000000000E+00 0. -1.
          5    1    1    2  502    0  0.98843798267E+02  0.23058585790E+02 -0.62403672561E+03  0.63225447388E+03  0.47000000000E+01 0. -1.
         -5    1    1    2    0  502  0.45139358417E+02 -0.78734427959E+02 -0.33297514027E+03  0.34515388721E+03  0.47000000000E+01 0. -1.
        -11    1    1    2    0    0 -0.74217707211E+02  0.63660477806E+02 -0.53139118531E+03  0.54031242474E+03  0.00000000000E+00 0.  1.
         11    1    1    2    0    0 -0.69765449473E+02 -0.79846356376E+01 -0.17524273800E+03  0.18878821353E+03  0.00000000000E+00 0. -1.
<mgrwt>
<rscale>  0 0.19369420E+03</rscale>
<asrwt>0</asrwt>
<pdfrwt beam="2">  1        1 0.25924285E+00 0.19863382E+03</pdfrwt>
<pdfrwt beam="1">  1       -1 0.32971678E-02 0.19863382E+03</pdfrwt>
<totfact> 0.17759526E+03</totfact>
</mgrwt>
</event>
<event>
 6    1  0.6101889E-006  0.1298228E+03  0.7546771E-02  0.1241888E+00
          1   -1    0    0  501    0  0.00000000000E+00  0.00000000000E+00  0.20932537994E+03  0.20932537994E+03  0.00000000000E+00 0. -1.
         -1   -1    0    0    0  501 -0.00000000000E+00 -0.00000000000E+00 -0.61951143699E+02  0.61951143699E+02  0.00000000000E+00 0.  1.
          5    1    1    2  502    0 -0.44103168298E+01  0.51149220605E+02  0.57931662089E+02  0.77549088553E+02  0.47000000000E+01 0.  1.
         -5    1    1    2    0  502 -0.24961700465E+02 -0.70262705643E+02  0.37641469928E+02  0.83659455848E+02  0.47000000000E+01 0.  1.
        -11    1    1    2    0    0 -0.30831149154E+02 -0.49433783575E+01  0.94283977516E+01  0.32617348634E+02  0.00000000000E+00 0.  1.
         11    1    1    2    0    0  0.60203166449E+02  0.24056863396E+02  0.42372706468E+02  0.77450630600E+02  0.00000000000E+00 0. -1.
<mgrwt>
<rscale>  0 0.12073593E+03</rscale>
<asrwt>0</asrwt>
<pdfrwt beam="1">  1        1 0.32203904E-01 0.12982285E+03</pdfrwt>
<pdfrwt beam="2">  1       -1 0.95309453E-02 0.12982285E+03</pdfrwt>
<totfact> 0.85688921E+03</totfact>
</mgrwt>
</event>
<event>
 6    1  0.6101889E-006  0.1287008E+03  0.7546771E-02  0.1273428E+00
         -4   -1    0    0    0  501 -0.00000000000E+00  0.00000000000E+00  0.57049233423E+03  0.57049233423E+03  0.00000000000E+00 0.  1.
          4   -1    0    0  501    0  0.00000000000E+00 -0.00000000000E+00 -0.15675642914E+02  0.15675642914E+02  0.00000000000E+00 0. -1.
          5    1    1    2  502    0  0.32077923645E+01 -0.42019110061E+02  0.48960507308E+02  0.64769721460E+02  0.47000000000E+01 0. -1.
         -5    1    1    2    0  502 -0.53243035046E+02  0.48449818889E+02  0.26253836131E+03  0.27226951150E+03  0.47000000000E+01 0.  1.
        -11    1    1    2    0    0  0.29636378514E+02  0.45888404316E+01  0.15051685775E+03  0.15347539495E+03  0.00000000000E+00 0.  1.
         11    1    1    2    0    0  0.20398864167E+02 -0.11019549260E+02  0.92800964938E+02  0.95653349228E+02  0.00000000000E+00 0. -1.
<mgrwt>
<rscale>  0 0.10333834E+03</rscale>
<asrwt>0</asrwt>
<pdfrwt beam="2">  1        4 0.24116378E-02 0.12870081E+03</pdfrwt>
<pdfrwt beam="1">  1       -4 0.87768035E-01 0.12870081E+03</pdfrwt>
<totfact> 0.14313487E+03</totfact>
</mgrwt>
</event>
<event>
 6    1  0.6101889E-006  0.1773021E+03  0.7546771E-02  0.1176535E+00
         -2   -1    0    0    0  501 -0.00000000000E+00  0.00000000000E+00  0.34822999931E+02  0.34822999931E+02  0.00000000000E+00 0.  1.
          2   -1    0    0  501    0  0.00000000000E+00 -0.00000000000E+00 -0.79190249237E+03  0.79190249237E+03  0.00000000000E+00 0. -1.
          5    1    1    2  502    0  0.40935468236E+02  0.38968005695E+02 -0.36423531978E+03  0.36862403096E+03  0.47000000000E+01 0.  1.
         -5    1    1    2    0  502  0.49270939781E+02  0.48632135351E+02 -0.62138488049E+02  0.93145004121E+02  0.47000000000E+01 0.  1.
        -11    1    1    2    0    0 -0.15902536494E+02 -0.72054890014E+02 -0.11865938707E+03  0.13973134216E+03  0.00000000000E+00 0. -1.
         11    1    1    2    0    0 -0.74303871522E+02 -0.15545251033E+02 -0.21204629755E+03  0.22522511507E+03  0.00000000000E+00 0.  1.
<mgrwt>
<rscale>  0 0.17126512E+03</rscale>
<asrwt>0</asrwt>
<pdfrwt beam="2">  1        2 0.12183115E+00 0.17730205E+03</pdfrwt>
<pdfrwt beam="1">  1       -2 0.53573846E-02 0.17730205E+03</pdfrwt>
<totfact> 0.62045547E+03</totfact>
</mgrwt>
</event>
<event>
 6    1  0.6547908E-006  0.2893228E+03  0.7546771E-02  0.1092359E+00
          1   -1    0    0  501    0  0.00000000000E+00  0.00000000000E+00  0.19735860451E+03  0.19735860451E+03  0.00000000000E+00 0. -1.
         -1   -1    0    0    0  501 -0.00000000000E+00 -0.00000000000E+00 -0.52752030685E+03  0.52752030685E+03  0.00000000000E+00 0.  1.
          5    1    1    2  502    0  0.91948699258E+02  0.19326588302E+03  0.35466804891E+01  0.21410495972E+03  0.47000000000E+01 0. -1.
         -5    1    1    2    0  502  0.74719295816E+02  0.74938496761E+01  0.23662114392E+01  0.75278283102E+02  0.47000000000E+01 0. -1.
        -11    1    1    2    0    0 -0.98746621802E+02 -0.59341481120E+02 -0.10297535774E+03  0.15451935477E+03  0.00000000000E+00 0. -1.
         11    1    1    2    0    0 -0.67921373272E+02 -0.14141825157E+03 -0.23309923653E+03  0.28097631376E+03  0.00000000000E+00 0.  1.
<mgrwt>
<rscale>  0 0.28618296E+03</rscale>
<asrwt>0</asrwt>
<pdfrwt beam="1">  1        1 0.30362862E-01 0.28932283E+03</pdfrwt>
<pdfrwt beam="2">  1       -1 0.81156970E-01 0.28932283E+03</pdfrwt>
<totfact> 0.23725413E+02</totfact>
</mgrwt>
</event>
<event>
 6    1  0.6101889E-006  0.3037089E+03  0.7546771E-02  0.1083401E+00
         -2   -1    0    0    0  501 -0.00000000000E+00  0.00000000000E+00  0.19658663159E+03  0.19658663159E+03  0.00000000000E+00 0.  1.
          2   -1    0    0  501    0  0.00000000000E+00 -0.00000000000E+00 -0.11730083984E+03  0.11730083984E+03  0.00000000000E+00 0. -1.
          5    1    1    2  502    0 -0.69730675423E+02  0.87582329853E+02 -0.19559678472E+02  0.11374402235E+03  0.47000000000E+01 0.  1.
         -5    1    1    2    0  502  0.15860590655E+02  0.26700164614E+01  0.49550875658E+02  0.52307423970E+02  0.47000000000E+01 0.  1.
        -11    1    1    2    0    0  0.75179731146E+02 -0.44210393592E+02  0.41210790588E+02  0.96461806626E+02  0.00000000000E+00 0.  1.
         11    1    1    2    0    0 -0.21309646378E+02 -0.46041952722E+02  0.80838039773E+01  0.51374218495E+02  0.00000000000E+00 0. -1.
<mgrwt>
<rscale>  0 0.30370892E+03</rscale>
<asrwt>0</asrwt>
<pdfrwt beam="2">  1        2 0.18046283E-01 0.30370892E+03</pdfrwt>
<pdfrwt beam="1">  1       -2 0.30244097E-01 0.30370892E+03</pdfrwt>
<totfact> 0.31519305E+03</totfact>
</mgrwt>
</event>
<event>
 6    1  0.6101889E-006  0.3122376E+03  0.7546771E-02  0.1079278E+00
          1   -1    0    0  501    0  0.00000000000E+00  0.00000000000E+00  0.13187727425E+03  0.13187727425E+03  0.00000000000E+00 0. -1.
         -1   -1    0    0    0  501 -0.00000000000E+00 -0.00000000000E+00 -0.18481639272E+03  0.18481639272E+03  0.00000000000E+00 0.  1.
          5    1    1    2  502    0  0.11418884580E+02 -0.11182147204E+03  0.58907773487E+02  0.12699074104E+03  0.47000000000E+01 0. -1.
         -5    1    1    2    0  502 -0.20685275137E+01  0.16537233079E+02 -0.28516300378E+02  0.33362078341E+02  0.47000000000E+01 0. -1.
        -11    1    1    2    0    0  0.25931603766E+02  0.17146895104E+02  0.69320264439E+01  0.31851484678E+02  0.00000000000E+00 0. -1.
         11    1    1    2    0    0 -0.35281960832E+02  0.78137343853E+02 -0.90262618019E+02  0.12448936290E+03  0.00000000000E+00 0.  1.
<mgrwt>
<rscale>  0 0.31223762E+03</rscale>
<asrwt>0</asrwt>
<pdfrwt beam="1">  1        1 0.20288812E-01 0.31223762E+03</pdfrwt>
<pdfrwt beam="2">  1       -1 0.28433291E-01 0.31223762E+03</pdfrwt>
<totfact> 0.28075165E+03</totfact>
</mgrwt>
</event>
<event>
 6    1  0.6101889E-006  0.1632556E+03  0.7546771E-02  0.1192263E+00
          1   -1    0    0  501    0  0.00000000000E+00  0.00000000000E+00  0.41501897888E+03  0.41501897888E+03  0.00000000000E+00 0. -1.
         -1   -1    0    0    0  501 -0.00000000000E+00 -0.00000000000E+00 -0.60814006481E+02  0.60814006481E+02  0.00000000000E+00 0.  1.
          5    1    1    2  502    0 -0.30125849621E+02  0.38007174241E+02  0.18206527124E+03  0.18847271713E+03  0.47000000000E+01 0. -1.
         -5    1    1    2    0  502  0.66304801534E+02  0.60574787704E+02  0.80442625831E+02  0.12065959416E+03  0.47000000000E+01 0. -1.
        -11    1    1    2    0    0  0.11117860180E+02 -0.62256311189E+02  0.77322834709E+01  0.63712191184E+02  0.00000000000E+00 0.  1.
         11    1    1    2    0    0 -0.47296812092E+02 -0.36325650756E+02  0.83964791853E+02  0.10298848289E+03  0.00000000000E+00 0. -1.
<mgrwt>
<rscale>  0 0.15688175E+03</rscale>
<asrwt>0</asrwt>
<pdfrwt beam="1">  1        1 0.63849072E-01 0.16325560E+03</pdfrwt>
<pdfrwt beam="2">  1       -1 0.93560012E-02 0.16325560E+03</pdfrwt>
<totfact> 0.38088710E+03</totfact>
</mgrwt>
</event>
<event>
 6    1  0.8199100E-006  0.3660477E+03  0.7546771E-02  0.1057203E+00
          1   -1    0    0  501    0  0.00000000000E+00  0.00000000000E+00  0.20603274765E+04  0.20603274765E+04  0.00000000000E+00 0. -1.
         -1   -1    0    0    0  501 -0.00000000000E+00 -0.00000000000E+00 -0.82476856962E+02  0.82476856962E+02  0.00000000000E+00 0.  1.
          5    1    1    2  502    0 -0.11372050751E+03 -0.27120313666E+03  0.12401978482E+04  0.12745965196E+04  0.47000000000E+01 0.  1.
         -5    1    1    2    0  502  0.33334330906E+02 -0.63317139113E+02  0.27639006964E+03  0.28554123751E+03  0.47000000000E+01 0.  1.
        -11    1    1    2    0    0  0.32470109282E+02  0.15421032940E+03  0.28675196296E+03  0.32720302864E+03  0.00000000000E+00 0. -1.
         11    1    1    2    0    0  0.47916067318E+02  0.18030994638E+03  0.17451073879E+03  0.25546354774E+03  0.00000000000E+00 0.  1.
<mgrwt>
<rscale>  0 0.36350987E+03</rscale>
<asrwt>0</asrwt>
<pdfrwt beam="1">  1        1 0.31697342E+00 0.36604769E+03</pdfrwt>
<pdfrwt beam="2">  1       -1 0.12688749E-01 0.36604769E+03</pdfrwt>
<totfact> 0.12702132E+02</totfact>
</mgrwt>
</event>
<event>
 6    1  0.6101889E-006  0.2402637E+03  0.7546771E-02  0.1121594E+00
         -1   -1    0    0    0  501 -0.00000000000E+00  0.00000000000E+00  0.27664219820E+03  0.27664219820E+03  0.00000000000E+00 0.  1.
          1   -1    0    0  501    0  0.00000000000E+00 -0.00000000000E+00 -0.33265213227E+03  0.33265213227E+03  0.00000000000E+00 0. -1.
          5    1    1    2  502    0 -0.12595010211E+03 -0.15943686934E+03 -0.20490874205E+03  0.28860565846E+03  0.47000000000E+01 0. -1.
         -5    1    1    2    0  502 -0.26230704322E+02  0.21807897292E+02 -0.16768537869E+02  0.38300236237E+02  0.47000000000E+01 0. -1.
        -11    1    1    2    0    0  0.79155675339E+02  0.53335099787E+02  0.13746313884E+03  0.16735103331E+03  0.00000000000E+00 0.  1.
         11    1    1    2    0    0  0.73025131094E+02  0.84293872261E+02  0.28204207012E+02  0.11503740246E+03  0.00000000000E+00 0. -1.
<mgrwt>
<rscale>  0 0.23731561E+03</rscale>
<asrwt>0</asrwt>
<pdfrwt beam="2">  1        1 0.51177251E-01 0.24026370E+03</pdfrwt>
<pdfrwt beam="1">  1       -1 0.42560338E-01 0.24026370E+03</pdfrwt>
<totfact> 0.42714143E+02</totfact>
</mgrwt>
</event>
<event>
 6    1  0.6101889E-006  0.1389701E+03  0.7546771E-02  0.1226300E+00
         -1   -1    0    0    0  501 -0.00000000000E+00  0.00000000000E+00  0.17745923980E+03  0.17745923980E+03  0.00000000000E+00 0.  1.
          1   -1    0    0  501    0  0.00000000000E+00 -0.00000000000E+00 -0.13200334898E+03  0.13200334898E+03  0.00000000000E+00 0. -1.
          5    1    1    2  502    0  0.17072392507E+02  0.55476030185E+02  0.88277695895E+01  0.58898862697E+02  0.47000000000E+01 0. -1.
         -5    1    1    2    0  502 -0.57510988178E+02 -0.10143193643E+02 -0.74583202477E+02  0.94842723655E+02  0.47000000000E+01 0. -1.
        -11    1    1    2    0    0 -0.62456948861E+01  0.21083867041E+02  0.59309427727E+01  0.22775298816E+02  0.00000000000E+00 0. -1.
         11    1    1    2    0    0  0.46684290557E+02 -0.66416703582E+02  0.10528038093E+03  0.13294570361E+03  0.00000000000E+00 0.  1.
<mgrwt>
<rscale>  0 0.13078203E+03</rscale>
<asrwt>0</asrwt>
<pdfrwt beam="2">  1        1 0.20308207E-01 0.13897013E+03</pdfrwt>
<pdfrwt beam="1">  1       -1 0.27301422E-01 0.13897013E+03</pdfrwt>
<totfact> 0.29069603E+03</totfact>
</mgrwt>
</event>
<event>
 6    1  0.6101889E-006  0.1251427E+03  0.7546771E-02  0.1250377E+00
         -1   -1    0    0    0  501 -0.00000000000E+00  0.00000000000E+00  0.35553908141E+03  0.35553908141E+03  0.00000000000E+00 0.  1.
          1   -1    0    0  501    0  0.00000000000E+00 -0.00000000000E+00 -0.40680537384E+02  0.40680537384E+02  0.00000000000E+00 0. -1.
          5    1    1    2  502    0  0.32808348718E+02  0.47526345930E+02  0.18091293653E+02  0.60700298262E+02  0.47000000000E+01 0.  1.
         -5    1    1    2    0  502 -0.28379801882E+02 -0.51626675073E+02  0.73847519295E+02  0.94584738938E+02  0.47000000000E+01 0.  1.
        -11    1    1    2    0    0 -0.32006102780E+02  0.21563404030E+02  0.19245093269E+03  0.19628227761E+03  0.00000000000E+00 0.  1.
         11    1    1    2    0    0  0.27577555944E+02 -0.17463074887E+02  0.30468798389E+02  0.44652303990E+02  0.00000000000E+00 0. -1.
<mgrwt>
<rscale>  0 0.11569263E+03</rscale>
<asrwt>0</asrwt>
<pdfrwt beam="2">  1        1 0.62585445E-02 0.12514271E+03</pdfrwt>
<pdfrwt beam="1">  1       -1 0.54698318E-01 0.12514271E+03</pdfrwt>
<totfact> 0.40317245E+03</totfact>
</mgrwt>
</event>
<event>
 6    1  0.6101889E-006  0.1295523E+03  0.7546771E-02  0.1241385E+00
         -1   -1    0    0    0  501 -0.00000000000E+00  0.00000000000E+00  0.23434681203E+02  0.23434681203E+02  0.00000000000E+00 0.  1.
          1   -1    0    0  501    0  0.00000000000E+00 -0.00000000000E+00 -0.91412645205E+03  0.91412645205E+03  0.00000000000E+00 0. -1.
          5    1    1    2  502    0 -0.14752653355E+02 -0.30891377318E+02 -0.52731255103E+02  0.63044375152E+02  0.47000000000E+01 0. -1.
         -5    1    1    2    0  502  0.25218687293E+02 -0.15275747725E+01 -0.72100615196E+03  0.72146398166E+03  0.47000000000E+01 0. -1.
        -11    1    1    2    0    0 -0.32274090241E+02  0.34447266736E+01 -0.20055936826E+01  0.32519308861E+02  0.00000000000E+00 0.  1.
         11    1    1    2    0    0  0.21808056304E+02  0.28974225417E+02 -0.11494877010E+03  0.12053346757E+03  0.00000000000E+00 0. -1.
<mgrwt>
<rscale>  0 0.12104355E+03</rscale>
<asrwt>0</asrwt>
<pdfrwt beam="2">  1        1 0.14063483E+00 0.12955226E+03</pdfrwt>
<pdfrwt beam="1">  1       -1 0.36053358E-02 0.12955226E+03</pdfrwt>
<totfact> 0.51935121E+03</totfact>
</mgrwt>
</event>
<event>
 6    1  0.6101889E-006  0.1417770E+03  0.7546771E-02  0.1230386E+00
         -1   -1    0    0    0  501 -0.00000000000E+00  0.00000000000E+00  0.13839227530E+03  0.13839227530E+03  0.00000000000E+00 0.  1.
          1   -1    0    0  501    0  0.00000000000E+00 -0.00000000000E+00 -0.11241691427E+03  0.11241691427E+03  0.00000000000E+00 0. -1.
          5    1    1    2  502    0 -0.26218801276E+02 -0.64566278322E+02 -0.47487664375E+02  0.84459446508E+02  0.47000000000E+01 0. -1.
         -5    1    1    2    0  502  0.23781479020E+02  0.49084227974E+02  0.23066982975E+02  0.59405352316E+02  0.47000000000E+01 0.  1.
        -11    1    1    2    0    0 -0.25967615771E+02 -0.26933407845E+02  0.40147679360E+02  0.54877697519E+02  0.00000000000E+00 0. -1.
         11    1    1    2    0    0  0.28404938028E+02  0.42415458193E+02  0.10248363078E+02  0.52066693229E+02  0.00000000000E+00 0.  1.
<mgrwt>
<rscale>  0 0.12804476E+03</rscale>
<asrwt>0</asrwt>
<pdfrwt beam="2">  1        1 0.17294910E-01 0.14177698E+03</pdfrwt>
<pdfrwt beam="1">  1       -1 0.21291119E-01 0.14177698E+03</pdfrwt>
<totfact> 0.53692210E+03</totfact>
</mgrwt>
</event>
<event>
 6    1  0.6101889E-006  0.2141294E+03  0.7546771E-02  0.1141933E+00
         -2   -1    0    0    0  501 -0.00000000000E+00  0.00000000000E+00  0.39720884499E+02  0.39720884499E+02  0.00000000000E+00 0.  1.
          2   -1    0    0  501    0  0.00000000000E+00 -0.00000000000E+00 -0.10605064741E+04  0.10605064741E+04  0.00000000000E+00 0. -1.
          5    1    1    2  502    0  0.28869393255E+02  0.99865571960E+02 -0.31287325792E+03  0.32972464247E+03  0.47000000000E+01 0. -1.
         -5    1    1    2    0  502 -0.84305512405E+02  0.64917648040E+02 -0.21530335531E+03  0.24020688012E+03  0.47000000000E+01 0. -1.
        -11    1    1    2    0    0  0.19670332405E+02 -0.84423553988E+02 -0.36603944062E+03  0.37616370177E+03  0.00000000000E+00 0. -1.
         11    1    1    2    0    0  0.35765786745E+02 -0.80359666012E+02 -0.12656953576E+03  0.15413213424E+03  0.00000000000E+00 0.  1.
<mgrwt>
<rscale>  0 0.20953684E+03</rscale>
<asrwt>0</asrwt>
<pdfrwt beam="2">  1        2 0.16315482E+00 0.21412941E+03</pdfrwt>
<pdfrwt beam="1">  1       -2 0.61109061E-02 0.21412941E+03</pdfrwt>
<totfact> 0.34502505E+03</totfact>
</mgrwt>
</event>
<event>
 6    1  0.6101889E-006  0.1285922E+03  0.7546771E-02  0.1244177E+00
          1   -1    0    0  501    0  0.00000000000E+00  0.00000000000E+00  0.26713813791E+03  0.26713813791E+03  0.00000000000E+00 0. -1.
         -1   -1    0    0    0  501 -0.00000000000E+00 -0.00000000000E+00 -0.47300096934E+02  0.47300096934E+02  0.00000000000E+00 0.  1.
          5    1    1    2  502    0 -0.72359488078E+02  0.13668121976E+02  0.62599540138E+02  0.96765208101E+02  0.47000000000E+01 0. -1.
         -5    1    1    2    0  502  0.46309925369E+02 -0.28844083454E+02  0.50283348290E+02  0.74344437944E+02  0.47000000000E+01 0. -1.
        -11    1    1    2    0    0 -0.10396623626E+02  0.43766717266E+02  0.31964462827E+02  0.55184619297E+02  0.00000000000E+00 0. -1.
         11    1    1    2    0    0  0.36446186335E+02 -0.28590755789E+02  0.74990689721E+02  0.88143969503E+02  0.00000000000E+00 0.  1.
<mgrwt>
<rscale>  0 0.11934746E+03</rscale>
<asrwt>0</asrwt>
<pdfrwt beam="1">  1        1 0.41098174E-01 0.12859224E+03</pdfrwt>
<pdfrwt beam="2">  1       -1 0.72769381E-02 0.12859224E+03</pdfrwt>
<totfact> 0.95200063E+03</totfact>
</mgrwt>
</event>
<event>
 6    1  0.6101889E-006  0.1554528E+03  0.7546771E-02  0.1202937E+00
          1   -1    0    0  501    0  0.00000000000E+00  0.00000000000E+00  0.43376534388E+03  0.43376534388E+03  0.00000000000E+00 0. -1.
         -1   -1    0    0    0  501 -0.00000000000E+00 -0.00000000000E+00 -0.47141306306E+02  0.47141306306E+02  0.00000000000E+00 0.  1.
          5    1    1    2  502    0  0.38771275899E+02  0.89088072984E+02  0.85196377329E+02  0.12930742165E+03  0.47000000000E+01 0.  1.
         -5    1    1    2    0  502 -0.52914170961E+02  0.22368776855E+01  0.93345222803E+02  0.10742594533E+03  0.47000000000E+01 0.  1.
        -11    1    1    2    0    0 -0.29133410845E+02 -0.75105891253E+02  0.14636392071E+03  0.16706899118E+03  0.00000000000E+00 0. -1.
         11    1    1    2    0    0  0.43276305908E+02 -0.16219059417E+02  0.61718516732E+02  0.77104292027E+02  0.00000000000E+00 0.  1.
<mgrwt>
<rscale>  0 0.14801190E+03</rscale>
<asrwt>0</asrwt>
<pdfrwt beam="1">  1        1 0.66733127E-01 0.15545284E+03</pdfrwt>
<pdfrwt beam="2">  1       -1 0.72525090E-02 0.15545284E+03</pdfrwt>
<totfact> 0.52851461E+03</totfact>
</mgrwt>
</event>
<event>
 6    1  0.6101889E-006  0.1435201E+03  0.7546771E-02  0.1218905E+00
         -2   -1    0    0    0  501 -0.00000000000E+00  0.00000000000E+00  0.13894463168E+03  0.13894463168E+03  0.00000000000E+00 0.  1.
          2   -1    0    0  501    0  0.00000000000E+00 -0.00000000000E+00 -0.12207099770E+03  0.12207099770E+03  0.00000000000E+00 0. -1.
          5    1    1    2  502    0 -0.10006065836E+03 -0.31215502675E+02  0.56899291052E+01  0.10507620212E+03  0.47000000000E+01 0.  1.
         -5    1    1    2    0  502  0.36887873985E+02 -0.15191934712E+00 -0.10004694730E+02  0.38508729443E+02  0.47000000000E+01 0.  1.
        -11    1    1    2    0    0  0.43224747004E+02  0.64015704574E+02  0.14380414876E+02  0.78569622104E+02  0.00000000000E+00 0.  1.
         11    1    1    2    0    0  0.19948037376E+02 -0.32648282552E+02  0.68079847297E+01  0.38861075703E+02  0.00000000000E+00 0. -1.
<mgrwt>
<rscale>  0 0.13593558E+03</rscale>
<asrwt>0</asrwt>
<pdfrwt beam="2">  1        2 0.18780153E-01 0.14352009E+03</pdfrwt>
<pdfrwt beam="1">  1       -2 0.21376097E-01 0.14352009E+03</pdfrwt>
<totfact> 0.53483266E+03</totfact>
</mgrwt>
</event>
<event>
 6    1  0.6101889E-006  0.1587121E+03  0.7546771E-02  0.1197904E+00
          1   -1    0    0  501    0  0.00000000000E+00  0.00000000000E+00  0.27708087884E+03  0.27708087884E+03  0.00000000000E+00 0. -1.
         -1   -1    0    0    0  501 -0.00000000000E+00 -0.00000000000E+00 -0.77905040548E+02  0.77905040548E+02  0.00000000000E+00 0.  1.
          5    1    1    2  502    0  0.11951281949E+03 -0.10399364448E+02  0.63658635304E+02  0.13588956049E+03  0.47000000000E+01 0.  1.
         -5    1    1    2    0  502 -0.23551787286E+02 -0.84599506022E+01  0.60424988500E+02  0.65570776142E+02  0.47000000000E+01 0.  1.
        -11    1    1    2    0    0 -0.94201509429E+02  0.37126404718E+02  0.85415844757E+02  0.13246947136E+03  0.00000000000E+00 0.  1.
         11    1    1    2    0    0 -0.17595227702E+01 -0.18267089668E+02 -0.10323630268E+02  0.21056111399E+02  0.00000000000E+00 0. -1.
<mgrwt>
<rscale>  0 0.15211037E+03</rscale>
<asrwt>0</asrwt>
<pdfrwt beam="1">  1        1 0.42627827E-01 0.15871207E+03</pdfrwt>
<pdfrwt beam="2">  1       -1 0.11985391E-01 0.15871207E+03</pdfrwt>
<totfact> 0.43128036E+03</totfact>
</mgrwt>
</event>
<event>
 6    1  0.6101889E-006  0.1421536E+03  0.7546771E-02  0.1221734E+00
         -2   -1    0    0    0  501 -0.00000000000E+00  0.00000000000E+00  0.89749901188E+02  0.89749901188E+02  0.00000000000E+00 0.  1.
          2   -1    0    0  501    0  0.00000000000E+00 -0.00000000000E+00 -0.18014891820E+03  0.18014891820E+03  0.00000000000E+00 0. -1.
          5    1    1    2  502    0 -0.63719358365E+02 -0.17035163540E+02  0.51309423394E+01  0.66323223659E+02  0.47000000000E+01 0.  1.
         -5    1    1    2    0  502  0.11655194808E+02  0.60317715361E+02 -0.60151640754E+02  0.86106795538E+02  0.47000000000E+01 0.  1.
        -11    1    1    2    0    0  0.60528191136E+02 -0.54617474828E+02 -0.51179446459E+02  0.96260408365E+02  0.00000000000E+00 0. -1.
         11    1    1    2    0    0 -0.84640275791E+01  0.11334923007E+02  0.15801127857E+02  0.21208391830E+02  0.00000000000E+00 0.  1.
<mgrwt>
<rscale>  0 0.13393283E+03</rscale>
<asrwt>0</asrwt>
<pdfrwt beam="2">  1        2 0.27715218E-01 0.14215356E+03</pdfrwt>
<pdfrwt beam="1">  1       -2 0.13807677E-01 0.14215356E+03</pdfrwt>
<totfact> 0.71604118E+03</totfact>
</mgrwt>
</event>
<event>
 6    1  0.6101889E-006  0.1257819E+03  0.7546771E-02  0.1248709E+00
         -1   -1    0    0    0  501 -0.00000000000E+00  0.00000000000E+00  0.31174858203E+02  0.31174858203E+02  0.00000000000E+00 0.  1.
          1   -1    0    0  501    0  0.00000000000E+00 -0.00000000000E+00 -0.48715848014E+03  0.48715848014E+03  0.00000000000E+00 0. -1.
          5    1    1    2  502    0  0.39010984458E+02 -0.22114751179E+02 -0.55737143263E+02  0.71691270509E+02  0.47000000000E+01 0. -1.
         -5    1    1    2    0  502 -0.51862368000E+02  0.16786653020E+02 -0.31725209160E+03  0.32193551615E+03  0.47000000000E+01 0. -1.
        -11    1    1    2    0    0  0.28588438263E+02  0.18589844636E+02  0.48854071732E+01  0.34449213767E+02  0.00000000000E+00 0.  1.
         11    1    1    2    0    0 -0.15737054721E+02 -0.13261746478E+02 -0.87879794245E+02  0.90257337915E+02  0.00000000000E+00 0. -1.
<mgrwt>
<rscale>  0 0.11666113E+03</rscale>
<asrwt>0</asrwt>
<pdfrwt beam="2">  1        1 0.74947460E-01 0.12578187E+03</pdfrwt>
<pdfrwt beam="1">  1       -1 0.47961320E-02 0.12578187E+03</pdfrwt>
<totfact> 0.83233115E+03</totfact>
</mgrwt>
</event>
<event>
 6    1  0.6101889E-006  0.1990640E+03  0.7546771E-02  0.1154797E+00
          1   -1    0    0  501    0  0.00000000000E+00  0.00000000000E+00  0.16257706462E+04  0.16257706462E+04  0.00000000000E+00 0. -1.
         -1   -1    0    0    0  501 -0.00000000000E+00 -0.00000000000E+00 -0.33385531668E+02  0.33385531668E+02  0.00000000000E+00 0.  1.
          5    1    1    2  502    0  0.42410831356E+02 -0.85198527458E+02  0.69006805950E+03  0.69661573657E+03  0.47000000000E+01 0.  1.
         -5    1    1    2    0  502  0.99925807858E+02  0.24025113417E+02  0.61459775531E+03  0.62314915067E+03  0.47000000000E+01 0.  1.
        -11    1    1    2    0    0 -0.90093090746E+02  0.82498559472E+02  0.17614128425E+03  0.21435608070E+03  0.00000000000E+00 0. -1.
         11    1    1    2    0    0 -0.52243548469E+02 -0.21325145431E+02  0.11157801546E+03  0.12503520992E+03  0.00000000000E+00 0.  1.
<mgrwt>
<rscale>  0 0.19411962E+03</rscale>
<asrwt>0</asrwt>
<pdfrwt beam="1">  1        1 0.25011850E+00 0.19906398E+03</pdfrwt>
<pdfrwt beam="2">  1       -1 0.51362369E-02 0.19906398E+03</pdfrwt>
<totfact> 0.10051248E+03</totfact>
</mgrwt>
</event>
<event>
 6    1  0.6101889E-006  0.1177316E+03  0.7546771E-02  0.1254587E+00
          2   -1    0    0  501    0  0.00000000000E+00  0.00000000000E+00  0.13817877995E+04  0.13817877995E+04  0.00000000000E+00 0. -1.
         -2   -1    0    0    0  501 -0.00000000000E+00 -0.00000000000E+00 -0.17958667433E+02  0.17958667433E+02  0.00000000000E+00 0.  1.
          5    1    1    2  502    0  0.14076448260E+02  0.53947168599E+02  0.92884580136E+03  0.93052944934E+03  0.47000000000E+01 0. -1.
         -5    1    1    2    0  502  0.25418478428E+02 -0.40191931658E+02  0.28133854625E+03  0.28536810968E+03  0.47000000000E+01 0.  1.
        -11    1    1    2    0    0 -0.27795398613E+02  0.35372974604E+02  0.43039032079E+02  0.62259053949E+02  0.00000000000E+00 0.  1.
         11    1    1    2    0    0 -0.11699528075E+02 -0.49128211545E+02  0.11060575239E+03  0.12158985397E+03  0.00000000000E+00 0. -1.
<mgrwt>
<rscale>  0 0.11329510E+03</rscale>
<asrwt>0</asrwt>
<pdfrwt beam="1">  1        2 0.21258266E+00 0.11773155E+03</pdfrwt>
<pdfrwt beam="2">  1       -2 0.27628730E-02 0.11773155E+03</pdfrwt>
<totfact> 0.73618944E+03</totfact>
</mgrwt>
</event>
<event>
 6    1  0.6101889E-006  0.1455531E+03  0.7546771E-02  0.1215673E+00
          2   -1    0    0  501    0  0.00000000000E+00  0.00000000000E+00  0.15187256412E+04  0.15187256412E+04  0.00000000000E+00 0. -1.
         -2   -1    0    0    0  501 -0.00000000000E+00 -0.00000000000E+00 -0.16604657108E+02  0.16604657108E+02  0.00000000000E+00 0.  1.
          5    1    1    2  502    0 -0.52832669937E+02 -0.61599459953E+02  0.43874416126E+03  0.44621106387E+03  0.47000000000E+01 0.  1.
         -5    1    1    2    0  502 -0.17855640423E+02  0.37861972115E+02  0.79030265243E+03  0.79142449119E+03  0.47000000000E+01 0.  1.
        -11    1    1    2    0    0  0.43894883314E+01  0.35602836874E+02  0.34405850876E+02  0.49705051814E+02  0.00000000000E+00 0.  1.
         11    1    1    2    0    0  0.66298822029E+02 -0.11865349036E+02  0.23866831951E+03  0.24798969142E+03  0.00000000000E+00 0. -1.
<mgrwt>
<rscale>  0 0.13827251E+03</rscale>
<asrwt>0</asrwt>
<pdfrwt beam="1">  1        2 0.23364999E+00 0.14555307E+03</pdfrwt>
<pdfrwt beam="2">  1       -2 0.25545638E-02 0.14555307E+03</pdfrwt>
<totfact> 0.70534707E+03</totfact>
</mgrwt>
</event>
<event>
 6    1  0.6101889E-006  0.1371038E+03  0.7546771E-02  0.1229208E+00
         -1   -1    0    0    0  501 -0.00000000000E+00  0.00000000000E+00  0.19236561442E+03  0.19236561442E+03  0.00000000000E+00 0.  1.
          1   -1    0    0  501    0  0.00000000000E+00 -0.00000000000E+00 -0.78539498033E+02  0.78539498033E+02  0.00000000000E+00 0. -1.
          5    1    1    2  502    0 -0.26124879590E+02  0.31379882440E+02  0.15992898229E+02  0.44102938103E+02  0.47000000000E+01 0. -1.
         -5    1    1    2    0  502  0.74331208890E+02 -0.60497021259E+02  0.31386264307E+02  0.10095645489E+03  0.47000000000E+01 0. -1.
        -11    1    1    2    0    0  0.22663070105E+02  0.18087211633E+02  0.14156652569E+01  0.29030433675E+02  0.00000000000E+00 0. -1.
         11    1    1    2    0    0 -0.70869399404E+02  0.11029927186E+02  0.65031288591E+02  0.96815285784E+02  0.00000000000E+00 0.  1.
<mgrwt>
<rscale>  0 0.12882631E+03</rscale>
<asrwt>0</asrwt>
<pdfrwt beam="2">  1        1 0.12083000E-01 0.13710377E+03</pdfrwt>
<pdfrwt beam="1">  1       -1 0.29594710E-01 0.13710377E+03</pdfrwt>
<totfact> 0.49643707E+03</totfact>
</mgrwt>
</event>
<event>
 6    1  0.6101889E-006  0.1511044E+03  0.7546771E-02  0.1211414E+00
         -4   -1    0    0    0  501 -0.00000000000E+00  0.00000000000E+00  0.64900393915E+02  0.64900393915E+02  0.00000000000E+00 0.  1.
          4   -1    0    0  501    0  0.00000000000E+00 -0.00000000000E+00 -0.35911932483E+03  0.35911932483E+03  0.00000000000E+00 0. -1.
          5    1    1    2  502    0 -0.65856835221E+02  0.74832882753E+02 -0.14361681033E+03  0.17488556629E+03  0.47000000000E+01 0. -1.
         -5    1    1    2    0  502 -0.13605261404E+02 -0.44937876748E+02 -0.12036090555E+03  0.12928013571E+03  0.47000000000E+01 0. -1.
        -11    1    1    2    0    0 -0.12937668008E+02  0.88755227418E+01 -0.56575231722E+01  0.16678301049E+02  0.00000000000E+00 0.  1.
         11    1    1    2    0    0  0.92399764633E+02 -0.38770528746E+02 -0.24583691858E+02  0.10317571569E+03  0.00000000000E+00 0. -1.
<mgrwt>
<rscale>  0 0.14143274E+03</rscale>
<asrwt>0</asrwt>
<pdfrwt beam="2">  1        4 0.55249127E-01 0.15110440E+03</pdfrwt>
<pdfrwt beam="1">  1       -4 0.99846760E-02 0.15110440E+03</pdfrwt>
<totfact> 0.40698774E+02</totfact>
</mgrwt>
</event>
<event>
 6    1  0.6101889E-006  0.2430053E+03  0.7546771E-02  0.1117807E+00
         -2   -1    0    0    0  501 -0.00000000000E+00  0.00000000000E+00  0.22054239933E+02  0.22054239933E+02  0.00000000000E+00 0.  1.
          2   -1    0    0  501    0  0.00000000000E+00 -0.00000000000E+00 -0.66939037437E+03  0.66939037437E+03  0.00000000000E+00 0. -1.
          5    1    1    2  502    0 -0.60910921144E+02  0.43982289340E+02 -0.33297089998E+03  0.34137412369E+03  0.47000000000E+01 0.  1.
         -5    1    1    2    0  502  0.92599542307E+01 -0.31732480988E+02 -0.25663662098E+02  0.42111882578E+02  0.47000000000E+01 0.  1.
        -11    1    1    2    0    0  0.21030646046E+02 -0.50125241644E+02 -0.10941044428E+03  0.12216985406E+03  0.00000000000E+00 0.  1.
         11    1    1    2    0    0  0.30620320867E+02  0.37875433292E+02 -0.17929112808E+03  0.18578875398E+03  0.00000000000E+00 0. -1.
<mgrwt>
<rscale>  0 0.24300532E+03</rscale>
<asrwt>0</asrwt>
<pdfrwt beam="2">  1        2 0.10298311E+00 0.24300532E+03</pdfrwt>
<pdfrwt beam="1">  1       -2 0.33929607E-02 0.24300532E+03</pdfrwt>
<totfact> 0.15415529E+04</totfact>
</mgrwt>
</event>
<event>
 6    1  0.6101889E-006  0.2676145E+03  0.7546771E-02  0.1104758E+00
         -2   -1    0    0    0  501 -0.00000000000E+00  0.00000000000E+00  0.28255699929E+03  0.28255699929E+03  0.00000000000E+00 0. -1.
          2   -1    0    0  501    0  0.00000000000E+00 -0.00000000000E+00 -0.27395423477E+03  0.27395423477E+03  0.00000000000E+00 0.  1.
          5    1    1    2  502    0  0.15649184319E+03  0.28047709053E+02 -0.16434833698E+02  0.15990173460E+03  0.47000000000E+01 0.  1.
         -5    1    1    2    0  502  0.53927372039E+02  0.80166405057E+02 -0.76722145479E+02  0.12346332071E+03  0.47000000000E+01 0.  1.
        -11    1    1    2    0    0 -0.16736553747E+02 -0.28819519556E+02 -0.11363139608E+02  0.35210763702E+02  0.00000000000E+00 0.  1.
         11    1    1    2    0    0 -0.19368266148E+03 -0.79394594554E+02  0.11312288331E+03  0.23793541504E+03  0.00000000000E+00 0. -1.
<mgrwt>
<rscale>  0 0.26400953E+03</rscale>
<asrwt>0</asrwt>
<pdfrwt beam="2">  1        2 0.42146805E-01 0.26761452E+03</pdfrwt>
<pdfrwt beam="1">  1       -2 0.43470308E-01 0.26761452E+03</pdfrwt>
<totfact> 0.61389507E+02</totfact>
</mgrwt>
</event>
<event>
 6    1  0.6101889E-006  0.1974076E+03  0.7546771E-02  0.1156503E+00
         -2   -1    0    0    0  501 -0.00000000000E+00  0.00000000000E+00  0.21055012711E+03  0.21055012711E+03  0.00000000000E+00 0.  1.
          2   -1    0    0  501    0  0.00000000000E+00 -0.00000000000E+00 -0.17730693514E+03  0.17730693514E+03  0.00000000000E+00 0. -1.
          5    1    1    2  502    0  0.58231672671E+02 -0.18389193307E+02  0.31559890399E+02  0.68899976883E+02  0.47000000000E+01 0. -1.
         -5    1    1    2    0  502  0.18191113711E+02 -0.11391393900E+03 -0.61355328963E+02  0.13074352186E+03  0.47000000000E+01 0. -1.
        -11    1    1    2    0    0 -0.64916481055E+02  0.14557395748E+03  0.60397238945E+02  0.17045161507E+03  0.00000000000E+00 0.  1.
         11    1    1    2    0    0 -0.11506305327E+02 -0.13270825173E+02  0.26413915906E+01  0.17761948445E+02  0.00000000000E+00 0. -1.
<mgrwt>
<rscale>  0 0.19218801E+03</rscale>
<asrwt>0</asrwt>
<pdfrwt beam="2">  1        2 0.27277990E-01 0.19740759E+03</pdfrwt>
<pdfrwt beam="1">  1       -2 0.32392327E-01 0.19740759E+03</pdfrwt>
<totfact> 0.17118221E+03</totfact>
</mgrwt>
</event>
<event>
 6    1  0.6101889E-006  0.3411091E+03  0.7546771E-02  0.1066325E+00
         -1   -1    0    0    0  501 -0.00000000000E+00  0.00000000000E+00  0.36420241426E+03  0.36420241426E+03  0.00000000000E+00 0.  1.
          1   -1    0    0  501    0  0.00000000000E+00 -0.00000000000E+00 -0.79870038936E+02  0.79870038936E+02  0.00000000000E+00 0. -1.
          5    1    1    2  502    0  0.30927902060E+02 -0.17156023816E+02  0.52257915516E+02  0.63275935498E+02  0.47000000000E+01 0.  1.
         -5    1    1    2    0  502 -0.11380702044E+03 -0.84335886291E+02  0.10228968596E+03  0.17478515232E+03  0.47000000000E+01 0.  1.
        -11    1    1    2    0    0  0.25176543980E+01  0.45637447929E+02  0.88874713485E+02  0.99939131146E+02  0.00000000000E+00 0.  1.
         11    1    1    2    0    0  0.80361463977E+02  0.55854462178E+02  0.40910060371E+02  0.10607223424E+03  0.00000000000E+00 0. -1.
<mgrwt>
<rscale>  0 0.34110914E+03</rscale>
<asrwt>0</asrwt>
<pdfrwt beam="2">  1        1 0.12287699E-01 0.34110914E+03</pdfrwt>
<pdfrwt beam="1">  1       -1 0.56031140E-01 0.34110914E+03</pdfrwt>
<totfact> 0.16162522E+03</totfact>
</mgrwt>
</event>
<event>
 6    1  0.6101889E-006  0.3171035E+03  0.7546771E-02  0.1104046E+00
         -2   -1    0    0    0  501 -0.00000000000E+00  0.00000000000E+00  0.28155850320E+02  0.28155850320E+02  0.00000000000E+00 0.  1.
          2   -1    0    0  501    0  0.00000000000E+00 -0.00000000000E+00 -0.21938780761E+04  0.21938780761E+04  0.00000000000E+00 0. -1.
          5    1    1    2  502    0  0.79054254597E+02 -0.16241450710E+02 -0.15484409463E+04  0.15505498425E+04  0.47000000000E+01 0. -1.
         -5    1    1    2    0  502  0.93577508951E+01  0.10499430685E+03 -0.19715536681E+03  0.22361507246E+03  0.47000000000E+01 0.  1.
        -11    1    1    2    0    0  0.24932676181E-01 -0.12713162166E+02 -0.92653190360E+00  0.12746904537E+02  0.00000000000E+00 0. -1.
         11    1    1    2    0    0 -0.88436938168E+02 -0.76039693972E+02 -0.41919938072E+03  0.43512210687E+03  0.00000000000E+00 0.  1.
<mgrwt>
<rscale>  0 0.26522218E+03</rscale>
<asrwt>0</asrwt>
<pdfrwt beam="2">  1        2 0.33751982E+00 0.31710354E+03</pdfrwt>
<pdfrwt beam="1">  1       -2 0.43316678E-02 0.31710354E+03</pdfrwt>
<totfact> 0.14221779E+03</totfact>
</mgrwt>
</event>
<event>
 6    1  0.6101889E-006  0.3360636E+03  0.7546771E-02  0.1068485E+00
         -1   -1    0    0    0  501 -0.00000000000E+00  0.00000000000E+00  0.64097231625E+02  0.64097231625E+02  0.00000000000E+00 0.  1.
          1   -1    0    0  501    0  0.00000000000E+00 -0.00000000000E+00 -0.44049785183E+03  0.44049785183E+03  0.00000000000E+00 0. -1.
          5    1    1    2  502    0  0.27739186154E+01  0.13335895345E+03 -0.27951766962E+03  0.30974912869E+03  0.47000000000E+01 0. -1.
         -5    1    1    2    0  502 -0.13039536232E+02 -0.21720341284E+02 -0.16567095987E+02  0.30632685159E+02  0.47000000000E+01 0. -1.
        -11    1    1    2    0    0  0.34071907973E+02 -0.74374610530E+02 -0.11781425561E+02  0.82651555295E+02  0.00000000000E+00 0.  1.
         11    1    1    2    0    0 -0.23806290357E+02 -0.37264001641E+02 -0.68534429037E+02  0.81561714316E+02  0.00000000000E+00 0. -1.
<mgrwt>
<rscale>  0 0.33606364E+03</rscale>
<asrwt>0</asrwt>
<pdfrwt beam="2">  1        1 0.67768899E-01 0.33606364E+03</pdfrwt>
<pdfrwt beam="1">  1       -1 0.98611128E-02 0.33606364E+03</pdfrwt>
<totfact> 0.33349605E+03</totfact>
</mgrwt>
</event>
<event>
 6    1  0.6101889E-006  0.1281870E+03  0.7546771E-02  0.1243826E+00
          1   -1    0    0  501    0  0.00000000000E+00  0.00000000000E+00  0.16858923371E+03  0.16858923371E+03  0.00000000000E+00 0. -1.
         -1   -1    0    0    0  501 -0.00000000000E+00 -0.00000000000E+00 -0.79895027610E+02  0.79895027610E+02  0.00000000000E+00 0.  1.
          5    1    1    2  502    0  0.21231570792E+02 -0.69290427707E+02  0.46830332054E+02  0.86412458421E+02  0.47000000000E+01 0.  1.
         -5    1    1    2    0  502  0.34517653525E+01  0.55231071279E+02  0.33137709922E+02  0.64672898014E+02  0.47000000000E+01 0.  1.
        -11    1    1    2    0    0 -0.86678559516E+01  0.22019104953E+02  0.48402856487E+02  0.53877724765E+02  0.00000000000E+00 0. -1.
         11    1    1    2    0    0 -0.16015480193E+02 -0.79597485254E+01 -0.39676692361E+02  0.43521180121E+02  0.00000000000E+00 0.  1.
<mgrwt>
<rscale>  0 0.11955945E+03</rscale>
<asrwt>0</asrwt>
<pdfrwt beam="1">  1        1 0.25936805E-01 0.12818696E+03</pdfrwt>
<pdfrwt beam="2">  1       -1 0.12291543E-01 0.12818696E+03</pdfrwt>
<totfact> 0.75907226E+03</totfact>
</mgrwt>
</event>
<event>
 6    1  0.6101889E-006  0.1276767E+03  0.7546771E-02  0.1241656E+00
         -1   -1    0    0    0  501 -0.00000000000E+00  0.00000000000E+00  0.13692370817E+03  0.13692370817E+03  0.00000000000E+00 0. -1.
          1   -1    0    0  501    0  0.00000000000E+00 -0.00000000000E+00 -0.97522033046E+02  0.97522033046E+02  0.00000000000E+00 0.  1.
          5    1    1    2  502    0  0.38805155267E+02 -0.22616294395E+02  0.44773908479E+02  0.63593472369E+02  0.47000000000E+01 0.  1.
         -5    1    1    2    0  502 -0.55326431730E+02  0.25728119326E+01 -0.32970032411E+02  0.64627752912E+02  0.47000000000E+01 0.  1.
        -11    1    1    2    0    0  0.34131212887E+02  0.19331172793E+01  0.57614404729E+02  0.66993255391E+02  0.00000000000E+00 0. -1.
         11    1    1    2    0    0 -0.17609936424E+02  0.18110365183E+02 -0.30016605672E+02  0.39231260545E+02  0.00000000000E+00 0.  1.
<mgrwt>
<rscale>  0 0.12087770E+03</rscale>
<asrwt>0</asrwt>
<pdfrwt beam="2">  1        1 0.15003390E-01 0.12767674E+03</pdfrwt>
<pdfrwt beam="1">  1       -1 0.21065186E-01 0.12767674E+03</pdfrwt>
<totfact> 0.65137045E+03</totfact>
</mgrwt>
</event>
<event>
 6    1  0.6101889E-006  0.1544262E+03  0.7546771E-02  0.1202684E+00
          2   -1    0    0  501    0  0.00000000000E+00  0.00000000000E+00  0.19622078078E+03  0.19622078078E+03  0.00000000000E+00 0. -1.
         -2   -1    0    0    0  501 -0.00000000000E+00 -0.00000000000E+00 -0.11094170468E+03  0.11094170468E+03  0.00000000000E+00 0.  1.
          5    1    1    2  502    0 -0.37334096802E+02 -0.49542312623E+01  0.13032842570E+02  0.40128844699E+02  0.47000000000E+01 0.  1.
         -5    1    1    2    0  502  0.96032237048E+02 -0.64154798705E+02  0.71653584805E+02  0.13599395194E+03  0.47000000000E+01 0.  1.
        -11    1    1    2    0    0 -0.10493318805E+02 -0.99969402342E+01  0.30439753092E+02  0.33713901019E+02  0.00000000000E+00 0. -1.
         11    1    1    2    0    0 -0.48204821440E+02  0.79105970202E+02 -0.29847104368E+02  0.97325787799E+02  0.00000000000E+00 0.  1.
<mgrwt>
<rscale>  0 0.14821437E+03</rscale>
<asrwt>0</asrwt>
<pdfrwt beam="1">  1        2 0.30187812E-01 0.15442619E+03</pdfrwt>
<pdfrwt beam="2">  1       -2 0.17067955E-01 0.15442619E+03</pdfrwt>
<totfact> 0.46306705E+03</totfact>
</mgrwt>
</event>
<event>
 6    1  0.6101889E-006  0.1970291E+03  0.7546771E-02  0.1156522E+00
         -1   -1    0    0    0  501 -0.00000000000E+00  0.00000000000E+00  0.62219941288E+02  0.62219941288E+02  0.00000000000E+00 0.  1.
          1   -1    0    0  501    0  0.00000000000E+00 -0.00000000000E+00 -0.67502229489E+03  0.67502229489E+03  0.00000000000E+00 0. -1.
          5    1    1    2  502    0 -0.38726611297E+02  0.87751539329E+02 -0.19130876888E+03  0.21405891275E+03  0.47000000000E+01 0.  1.
         -5    1    1    2    0  502  0.78733367181E+02  0.59197825199E+02 -0.27592648797E+03  0.29302020814E+03  0.47000000000E+01 0.  1.
        -11    1    1    2    0    0  0.18478480786E+02 -0.19980522962E+02 -0.60966605571E+02  0.66765279487E+02  0.00000000000E+00 0. -1.
         11    1    1    2    0    0 -0.58485236670E+02 -0.12696884157E+03 -0.84600491186E+02  0.16339783581E+03  0.00000000000E+00 0.  1.
<mgrwt>
<rscale>  0 0.19216574E+03</rscale>
<asrwt>0</asrwt>
<pdfrwt beam="2">  1        1 0.10384959E+00 0.19702906E+03</pdfrwt>
<pdfrwt beam="1">  1       -1 0.95722979E-02 0.19702906E+03</pdfrwt>
<totfact> 0.19282395E+03</totfact>
</mgrwt>
</event>
<event>
 6    1  0.6101889E-006  0.1267773E+03  0.7546771E-02  0.1247833E+00
          2   -1    0    0  501    0  0.00000000000E+00  0.00000000000E+00  0.25964453150E+03  0.25964453150E+03  0.00000000000E+00 0. -1.
         -2   -1    0    0    0  501 -0.00000000000E+00 -0.00000000000E+00 -0.46519516040E+02  0.46519516040E+02  0.00000000000E+00 0.  1.
          5    1    1    2  502    0 -0.67943794230E+02 -0.99320044862E+01  0.42227061534E+02  0.80747870642E+02  0.47000000000E+01 0. -1.
         -5    1    1    2    0  502  0.48246761424E+02  0.18065430671E+01  0.91238863557E+02  0.10333263671E+03  0.47000000000E+01 0. -1.
        -11    1    1    2    0    0  0.62357128665E+01 -0.30517032030E+02  0.74613175314E+02  0.80853566954E+02  0.00000000000E+00 0. -1.
         11    1    1    2    0    0  0.13461319939E+02  0.38642493449E+02  0.50459150572E+01  0.41229973239E+02  0.00000000000E+00 0.  1.
<mgrwt>
<rscale>  0 0.11717442E+03</rscale>
<asrwt>0</asrwt>
<pdfrwt beam="1">  1        2 0.39945312E-01 0.12677729E+03</pdfrwt>
<pdfrwt beam="2">  1       -2 0.71568488E-02 0.12677729E+03</pdfrwt>
<totfact> 0.13459592E+04</totfact>
</mgrwt>
</event>
<event>
 6    1  0.6101889E-006  0.3378411E+03  0.7546771E-02  0.1067719E+00
          2   -1    0    0  501    0  0.00000000000E+00  0.00000000000E+00  0.73802803496E+03  0.73802803496E+03  0.00000000000E+00 0. -1.
         -2   -1    0    0    0  501 -0.00000000000E+00 -0.00000000000E+00 -0.38662703437E+02  0.38662703437E+02  0.00000000000E+00 0.  1.
          5    1    1    2  502    0 -0.49143121149E+02 -0.10811466388E+03  0.49254426400E+03  0.50668113138E+03  0.47000000000E+01 0.  1.
         -5    1    1    2    0  502  0.25006150650E+01  0.32416881917E+02  0.93362025069E+02  0.98973052059E+02  0.47000000000E+01 0.  1.
        -11    1    1    2    0    0  0.64976537745E+02  0.40355780728E+02  0.37301555689E+02  0.85099621341E+02  0.00000000000E+00 0.  1.
         11    1    1    2    0    0 -0.18334031661E+02  0.35342001237E+02  0.76157486767E+02  0.85936933614E+02  0.00000000000E+00 0. -1.
<mgrwt>
<rscale>  0 0.33784114E+03</rscale>
<asrwt>0</asrwt>
<pdfrwt beam="1">  1        2 0.11354276E+00 0.33784114E+03</pdfrwt>
<pdfrwt beam="2">  1       -2 0.59481088E-02 0.33784114E+03</pdfrwt>
<totfact> 0.59137047E+03</totfact>
</mgrwt>
</event>
<event>
 6    1  0.6101889E-006  0.1275791E+03  0.7546771E-02  0.1246678E+00
          2   -1    0    0  501    0  0.00000000000E+00  0.00000000000E+00  0.92595981854E+03  0.92595981854E+03  0.00000000000E+00 0. -1.
         -2   -1    0    0    0  501 -0.00000000000E+00 -0.00000000000E+00 -0.13241362223E+02  0.13241362223E+02  0.00000000000E+00 0.  1.
          5    1    1    2  502    0 -0.35505339695E+02 -0.64671752464E+02  0.37230629405E+03  0.37957493503E+03  0.47000000000E+01 0.  1.
         -5    1    1    2    0  502  0.34527676386E+02  0.39218402100E+02  0.19858788964E+03  0.20540078727E+03  0.47000000000E+01 0.  1.
        -11    1    1    2    0    0 -0.40118895104E+02  0.28496450505E+02  0.22580669530E+03  0.23110654919E+03  0.00000000000E+00 0. -1.
         11    1    1    2    0    0  0.41096558414E+02 -0.30431001403E+01  0.11601757732E+03  0.12311890927E+03  0.00000000000E+00 0.  1.
<mgrwt>
<rscale>  0 0.11785488E+03</rscale>
<asrwt>0</asrwt>
<pdfrwt beam="1">  1        2 0.14245531E+00 0.12757910E+03</pdfrwt>
<pdfrwt beam="2">  1       -2 0.20371334E-02 0.12757910E+03</pdfrwt>
<totfact> 0.20818840E+04</totfact>
</mgrwt>
</event>
<event>
 6    1  0.6101889E-006  0.1359338E+03  0.7546771E-02  0.1238271E+00
          2   -1    0    0  501    0  0.00000000000E+00  0.00000000000E+00  0.20154906941E+04  0.20154906941E+04  0.00000000000E+00 0. -1.
         -2   -1    0    0    0  501 -0.00000000000E+00 -0.00000000000E+00 -0.13509976860E+02  0.13509976860E+02  0.00000000000E+00 0.  1.
          5    1    1    2  502    0  0.65456008324E+02  0.24506868689E+02  0.10541333796E+04  0.10564583984E+04  0.47000000000E+01 0. -1.
         -5    1    1    2    0  502 -0.61062457091E+02  0.21574380519E+02  0.77010749772E+03  0.77284003882E+03  0.47000000000E+01 0.  1.
        -11    1    1    2    0    0 -0.16324557308E+02  0.18805618666E+02  0.54290630520E+02  0.59729515543E+02  0.00000000000E+00 0. -1.
         11    1    1    2    0    0  0.11931006075E+02 -0.64886867874E+02  0.12344920942E+03  0.13997271818E+03  0.00000000000E+00 0.  1.
<mgrwt>
<rscale>  0 0.12297358E+03</rscale>
<asrwt>0</asrwt>
<pdfrwt beam="1">  1        2 0.31007525E+00 0.13593379E+03</pdfrwt>
<pdfrwt beam="2">  1       -2 0.20784596E-02 0.13593379E+03</pdfrwt>
<totfact> 0.52882102E+03</totfact>
</mgrwt>
</event>
<event>
 6    1  0.6101889E-006  0.1321364E+03  0.7546771E-02  0.1236758E+00
          1   -1    0    0  501    0  0.00000000000E+00  0.00000000000E+00  0.39175743919E+02  0.39175743919E+02  0.00000000000E+00 0. -1.
         -1   -1    0    0    0  501 -0.00000000000E+00 -0.00000000000E+00 -0.35395395208E+03  0.35395395208E+03  0.00000000000E+00 0.  1.
          5    1    1    2  502    0 -0.33414987708E+02 -0.25866841256E+02 -0.12654848524E+03  0.13350005243E+03  0.47000000000E+01 0. -1.
         -5    1    1    2    0  502  0.65082173658E+02 -0.29829488099E+01 -0.31531109866E+02  0.72531980540E+02  0.47000000000E+01 0. -1.
        -11    1    1    2    0    0 -0.56435407789E+02  0.44759249082E+02 -0.12111736679E+03  0.14091757225E+03  0.00000000000E+00 0. -1.
         11    1    1    2    0    0  0.24768221838E+02 -0.15909459016E+02 -0.35581246255E+02  0.46180090778E+02  0.00000000000E+00 0.  1.
<mgrwt>
<rscale>  0 0.12392591E+03</rscale>
<asrwt>0</asrwt>
<pdfrwt beam="1">  1        1 0.60270378E-02 0.13213645E+03</pdfrwt>
<pdfrwt beam="2">  1       -1 0.54454452E-01 0.13213645E+03</pdfrwt>
<totfact> 0.42936188E+03</totfact>
</mgrwt>
</event>
<event>
 6    1  0.6101889E-006  0.1348188E+03  0.7546771E-02  0.1232343E+00
          2   -1    0    0  501    0  0.00000000000E+00  0.00000000000E+00  0.24214868922E+03  0.24214868922E+03  0.00000000000E+00 0.  1.
         -2   -1    0    0    0  501 -0.00000000000E+00 -0.00000000000E+00 -0.78533221508E+02  0.78533221508E+02  0.00000000000E+00 0. -1.
          5    1    1    2  502    0  0.35958480348E+02 -0.21586711995E+02 -0.41020928320E+01  0.42401834976E+02  0.47000000000E+01 0. -1.
         -5    1    1    2    0  502  0.14963073506E+02  0.90513005387E+01  0.17188284082E+03  0.17283408396E+03  0.47000000000E+01 0. -1.
        -11    1    1    2    0    0  0.16595964678E+01  0.23800529145E+02 -0.35826121124E+02  0.43043354920E+02  0.00000000000E+00 0. -1.
         11    1    1    2    0    0 -0.52581150322E+02 -0.11265117689E+02  0.31660840852E+02  0.62402636877E+02  0.00000000000E+00 0.  1.
<mgrwt>
<rscale>  0 0.12676101E+03</rscale>
<asrwt>0</asrwt>
<pdfrwt beam="1">  1        2 0.37253644E-01 0.13481885E+03</pdfrwt>
<pdfrwt beam="2">  1       -2 0.12082034E-01 0.13481885E+03</pdfrwt>
<totfact> 0.64295065E+03</totfact>
</mgrwt>
</event>
<event>
 6    1  0.6101889E-006  0.1532213E+03  0.7546771E-02  0.1206707E+00
          1   -1    0    0  501    0  0.00000000000E+00  0.00000000000E+00  0.30946468329E+03  0.30946468329E+03  0.00000000000E+00 0. -1.
         -1   -1    0    0    0  501 -0.00000000000E+00 -0.00000000000E+00 -0.11241146773E+03  0.11241146773E+03  0.00000000000E+00 0.  1.
          5    1    1    2  502    0 -0.79092837143E+02  0.82544262475E+02  0.21663044970E+03  0.24498994652E+03  0.47000000000E+01 0. -1.
         -5    1    1    2    0  502  0.29618167938E+02 -0.15575242182E+02  0.29093837544E+02  0.44591091309E+02  0.47000000000E+01 0.  1.
        -11    1    1    2    0    0  0.20934415797E+01  0.19685630498E+02  0.42498394309E+01  0.20247658653E+02  0.00000000000E+00 0. -1.
         11    1    1    2    0    0  0.47381227625E+02 -0.86654650790E+02 -0.52920911116E+02  0.11204745454E+03  0.00000000000E+00 0.  1.
<mgrwt>
<rscale>  0 0.14503751E+03</rscale>
<asrwt>0</asrwt>
<pdfrwt beam="1">  1        1 0.47609951E-01 0.15322125E+03</pdfrwt>
<pdfrwt beam="2">  1       -1 0.17294072E-01 0.15322125E+03</pdfrwt>
<totfact> 0.21121007E+03</totfact>
</mgrwt>
</event>
<event>
 6    1  0.6101889E-006  0.1336097E+03  0.7546771E-02  0.1234448E+00
         -1   -1    0    0    0  501 -0.00000000000E+00  0.00000000000E+00  0.61009478882E+02  0.61009478882E+02  0.00000000000E+00 0.  1.
          1   -1    0    0  501    0  0.00000000000E+00 -0.00000000000E+00 -0.31200056896E+03  0.31200056896E+03  0.00000000000E+00 0. -1.
          5    1    1    2  502    0 -0.15244413247E+02 -0.28644051508E+02 -0.19186597703E+03  0.19464716017E+03  0.47000000000E+01 0. -1.
         -5    1    1    2    0  502 -0.22951487825E+02  0.56330717318E+02 -0.39976499650E+02  0.72939228343E+02  0.47000000000E+01 0. -1.
        -11    1    1    2    0    0 -0.28379855577E+02 -0.23608982941E+02 -0.84454415905E+01  0.37869852941E+02  0.00000000000E+00 0. -1.
         11    1    1    2    0    0  0.66575756649E+02 -0.40776828697E+01 -0.10703171814E+02  0.67553806391E+02  0.00000000000E+00 0.  1.
<mgrwt>
<rscale>  0 0.12539832E+03</rscale>
<asrwt>0</asrwt>
<pdfrwt beam="2">  1        1 0.48000089E-01 0.13360966E+03</pdfrwt>
<pdfrwt beam="1">  1       -1 0.93860735E-02 0.13360966E+03</pdfrwt>
<totfact> 0.53655175E+03</totfact>
</mgrwt>
</event>
<event>
 6    1  0.6101889E-006  0.1660857E+03  0.7546771E-02  0.1193894E+00
          1   -1    0    0  501    0  0.00000000000E+00  0.00000000000E+00  0.28990769340E+03  0.28990769340E+03  0.00000000000E+00 0. -1.
         -1   -1    0    0    0  501 -0.00000000000E+00 -0.00000000000E+00 -0.10009985299E+03  0.10009985299E+03  0.00000000000E+00 0.  1.
          5    1    1    2  502    0 -0.65714076351E+02  0.12248953203E+03  0.18210320583E+03  0.22914120725E+03  0.47000000000E+01 0. -1.
         -5    1    1    2    0  502  0.64731670470E+01 -0.24332175253E+02  0.20300700340E+02  0.32682794839E+02  0.47000000000E+01 0.  1.
        -11    1    1    2    0    0  0.35976246045E+02 -0.12563282603E+02  0.25849944932E+01  0.38194352276E+02  0.00000000000E+00 0. -1.
         11    1    1    2    0    0  0.23264663259E+02 -0.85594074170E+02 -0.15181060257E+02  0.89989192018E+02  0.00000000000E+00 0.  1.
<mgrwt>
<rscale>  0 0.15548215E+03</rscale>
<asrwt>0</asrwt>
<pdfrwt beam="1">  1        1 0.44601183E-01 0.16608572E+03</pdfrwt>
<pdfrwt beam="2">  1       -1 0.15399978E-01 0.16608572E+03</pdfrwt>
<totfact> 0.27607490E+03</totfact>
</mgrwt>
</event>
<event>
 6    1  0.6101889E-006  0.1244773E+03  0.7546771E-02  0.1276239E+00
          2   -1    0    0  501    0  0.00000000000E+00  0.00000000000E+00  0.12057302745E+04  0.12057302745E+04  0.00000000000E+00 0. -1.
         -2   -1    0    0    0  501 -0.00000000000E+00 -0.00000000000E+00 -0.13786478225E+02  0.13786478225E+02  0.00000000000E+00 0.  1.
          5    1    1    2  502    0 -0.10211210744E+02  0.32347280456E+02  0.48977354255E+03  0.49096927435E+03  0.47000000000E+01 0. -1.
         -5    1    1    2    0  502  0.38477913950E+02 -0.75751404893E+02  0.63678376790E+03  0.64244414719E+03  0.47000000000E+01 0.  1.
        -11    1    1    2    0    0 -0.28577976013E+02  0.26195169780E+02  0.43715865222E+02  0.58429140888E+02  0.00000000000E+00 0.  1.
         11    1    1    2    0    0  0.31127280697E+00  0.17208954657E+02  0.21670620635E+02  0.27674190320E+02  0.00000000000E+00 0. -1.
<mgrwt>
<rscale>  0 0.10195444E+03</rscale>
<asrwt>0</asrwt>
<pdfrwt beam="1">  1        2 0.18549688E+00 0.12447735E+03</pdfrwt>
<pdfrwt beam="2">  1       -2 0.21209976E-02 0.12447735E+03</pdfrwt>
<totfact> 0.13487899E+04</totfact>
</mgrwt>
</event>
<event>
 6    1  0.9832865E-006  0.3988726E+03  0.7546771E-02  0.1044171E+00
          1   -1    0    0  501    0  0.00000000000E+00  0.00000000000E+00  0.33268405842E+03  0.33268405842E+03  0.00000000000E+00 0. -1.
         -1   -1    0    0    0  501 -0.00000000000E+00 -0.00000000000E+00 -0.11955741851E+03  0.11955741851E+03  0.00000000000E+00 0.  1.
          5    1    1    2  502    0  0.11986286412E+02  0.18166857953E+02  0.91144501205E+01  0.24059696399E+02  0.47000000000E+01 0. -1.
         -5    1    1    2    0  502 -0.15855071259E+03 -0.89927486088E+02  0.14026655072E+03  0.23004798731E+03  0.47000000000E+01 0. -1.
        -11    1    1    2    0    0  0.95092487147E+02  0.90847172499E+02  0.34642202120E+02  0.13599952952E+03  0.00000000000E+00 0.  1.
         11    1    1    2    0    0  0.51471939030E+02 -0.19086544364E+02  0.29103436951E+02  0.62134263701E+02  0.00000000000E+00 0. -1.
<mgrwt>
<rscale>  0 0.39887265E+03</rscale>
<asrwt>0</asrwt>
<pdfrwt beam="1">  1        1 0.51182163E-01 0.39887265E+03</pdfrwt>
<pdfrwt beam="2">  1       -1 0.18393449E-01 0.39887265E+03</pdfrwt>
<totfact> 0.17842972E+03</totfact>
</mgrwt>
</event>
<event>
 6    1  0.6101889E-006  0.2371176E+03  0.7546771E-02  0.1124502E+00
          2   -1    0    0  501    0  0.00000000000E+00  0.00000000000E+00  0.20340203423E+04  0.20340203423E+04  0.00000000000E+00 0.  1.
         -2   -1    0    0    0  501 -0.00000000000E+00 -0.00000000000E+00 -0.26413124682E+02  0.26413124682E+02  0.00000000000E+00 0. -1.
          5    1    1    2  502    0 -0.18049117375E+02 -0.17287554691E+03  0.91430854230E+03  0.93069539908E+03  0.47000000000E+01 0. -1.
         -5    1    1    2    0  502  0.57262865507E+02 -0.24763886140E+02  0.27624602564E+03  0.28324237413E+03  0.47000000000E+01 0. -1.
        -11    1    1    2    0    0  0.17867027835E+02  0.95390746129E+01  0.38399067694E+02  0.43413281699E+02  0.00000000000E+00 0. -1.
         11    1    1    2    0    0 -0.57080775967E+02  0.18810035844E+03  0.77865358203E+03  0.80308241211E+03  0.00000000000E+00 0.  1.
<mgrwt>
<rscale>  0 0.23306393E+03</rscale>
<asrwt>0</asrwt>
<pdfrwt beam="1">  1        2 0.31292608E+00 0.23711756E+03</pdfrwt>
<pdfrwt beam="2">  1       -2 0.40635592E-02 0.23711756E+03</pdfrwt>
<totfact> 0.19169989E+03</totfact>
</mgrwt>
</event>
<event>
 6    1  0.6101889E-006  0.1251025E+03  0.7546771E-02  0.1250916E+00
          2   -1    0    0  501    0  0.00000000000E+00  0.00000000000E+00  0.33278863331E+02  0.33278863331E+02  0.00000000000E+00 0. -1.
         -2   -1    0    0    0  501 -0.00000000000E+00 -0.00000000000E+00 -0.34948989330E+03  0.34948989330E+03  0.00000000000E+00 0.  1.
          5    1    1    2  502    0  0.20656287669E+02  0.48454354625E+02 -0.35537686106E+02  0.63714392692E+02  0.47000000000E+01 0.  1.
         -5    1    1    2    0  502 -0.21750512575E+02 -0.53426446994E+02 -0.14321450179E+03  0.15446667459E+03  0.47000000000E+01 0.  1.
        -11    1    1    2    0    0  0.21173079607E+02  0.42670651479E+02 -0.67360497289E+02  0.82501638728E+02  0.00000000000E+00 0. -1.
         11    1    1    2    0    0 -0.20078854702E+02 -0.37698559110E+02 -0.70098344779E+02  0.82086050617E+02  0.00000000000E+00 0.  1.
<mgrwt>
<rscale>  0 0.11538188E+03</rscale>
<asrwt>0</asrwt>
<pdfrwt beam="1">  1        2 0.51198249E-02 0.12510249E+03</pdfrwt>
<pdfrwt beam="2">  1       -2 0.53767679E-01 0.12510249E+03</pdfrwt>
<totfact> 0.47624603E+03</totfact>
</mgrwt>
</event>
<event>
 6    1  0.6101889E-006  0.1363097E+03  0.7546771E-02  0.1230010E+00
         -1   -1    0    0    0  501 -0.00000000000E+00  0.00000000000E+00  0.45913233605E+02  0.45913233605E+02  0.00000000000E+00 0.  1.
          1   -1    0    0  501    0  0.00000000000E+00 -0.00000000000E+00 -0.33140244945E+03  0.33140244945E+03  0.00000000000E+00 0. -1.
          5    1    1    2  502    0 -0.21842308257E+02  0.14675572470E+02 -0.16383884395E+03  0.16600516753E+03  0.47000000000E+01 0.  1.
         -5    1    1    2    0  502 -0.37793521690E+01 -0.62579503625E+02 -0.26778284188E+02  0.68334795535E+02  0.47000000000E+01 0.  1.
        -11    1    1    2    0    0  0.40358557656E+02  0.66645531111E+02 -0.89262482205E+02  0.11848303981E+03  0.00000000000E+00 0. -1.
         11    1    1    2    0    0 -0.14736897231E+02 -0.18741599956E+02 -0.56096055031E+01  0.24492680188E+02  0.00000000000E+00 0.  1.
<mgrwt>
<rscale>  0 0.12829350E+03</rscale>
<asrwt>0</asrwt>
<pdfrwt beam="2">  1        1 0.50984992E-01 0.13630968E+03</pdfrwt>
<pdfrwt beam="1">  1       -1 0.70635744E-02 0.13630968E+03</pdfrwt>
<totfact> 0.76564909E+03</totfact>
</mgrwt>
</event>
<event>
 6    1  0.6101889E-006  0.3286620E+03  0.7546771E-02  0.1071730E+00
         -2   -1    0    0    0  501 -0.00000000000E+00  0.00000000000E+00  0.42761660408E+02  0.42761660408E+02  0.00000000000E+00 0.  1.
          2   -1    0    0  501    0  0.00000000000E+00 -0.00000000000E+00 -0.63151596269E+03  0.63151596269E+03  0.00000000000E+00 0. -1.
          5    1    1    2  502    0  0.64334620287E+02  0.78973987355E+02 -0.44908371591E+03  0.46051504638E+03  0.47000000000E+01 0.  1.
         -5    1    1    2    0  502  0.12521338551E+02 -0.28838049653E+02 -0.32688970871E+02  0.45596884142E+02  0.47000000000E+01 0.  1.
        -11    1    1    2    0    0 -0.29129360327E+02 -0.58339183109E+02 -0.99793399768E+02  0.11920865135E+03  0.00000000000E+00 0. -1.
         11    1    1    2    0    0 -0.47726598511E+02  0.82032454073E+01 -0.71882157353E+01  0.48957041231E+02  0.00000000000E+00 0.  1.
<mgrwt>
<rscale>  0 0.32866196E+03</rscale>
<asrwt>0</asrwt>
<pdfrwt beam="2">  1        2 0.97156292E-01 0.32866196E+03</pdfrwt>
<pdfrwt beam="1">  1       -2 0.65787176E-02 0.32866196E+03</pdfrwt>
<totfact> 0.61111195E+03</totfact>
</mgrwt>
</event>
<event>
 6    1  0.6101889E-006  0.1262811E+03  0.7546771E-02  0.1241992E+00
         -4   -1    0    0    0  501 -0.00000000000E+00  0.00000000000E+00  0.21039399146E+02  0.21039399146E+02  0.00000000000E+00 0.  1.
          4   -1    0    0  501    0  0.00000000000E+00 -0.00000000000E+00 -0.82924926384E+03  0.82924926384E+03  0.00000000000E+00 0. -1.
          5    1    1    2  502    0 -0.58064758816E+01 -0.24843769454E+02 -0.60740090463E+03  0.60795466689E+03  0.47000000000E+01 0. -1.
         -5    1    1    2    0  502 -0.69291416771E+01 -0.27438630975E+02 -0.28770282460E+02  0.40628938295E+02  0.47000000000E+01 0.  1.
        -11    1    1    2    0    0  0.25359986259E+02  0.69947336224E+02 -0.89646393328E+02  0.11649993384E+03  0.00000000000E+00 0.  1.
         11    1    1    2    0    0 -0.12624368701E+02 -0.17664935795E+02 -0.82392284275E+02  0.85205123965E+02  0.00000000000E+00 0. -1.
<mgrwt>
<rscale>  0 0.12067257E+03</rscale>
<asrwt>0</asrwt>
<pdfrwt beam="2">  1        4 0.12757679E+00 0.12628109E+03</pdfrwt>
<pdfrwt beam="1">  1       -4 0.32368311E-02 0.12628109E+03</pdfrwt>
<totfact> 0.37601045E+02</totfact>
</mgrwt>
</event>
<event>
 6    1  0.6101889E-006  0.1277763E+03  0.7546771E-02  0.1245779E+00
          2   -1    0    0  501    0  0.00000000000E+00  0.00000000000E+00  0.15770664621E+03  0.15770664621E+03  0.00000000000E+00 0. -1.
         -2   -1    0    0    0  501 -0.00000000000E+00 -0.00000000000E+00 -0.78455255923E+02  0.78455255923E+02  0.00000000000E+00 0.  1.
          5    1    1    2  502    0 -0.29455359689E+02 -0.56976174962E+02  0.86177241266E+01  0.64886500112E+02  0.47000000000E+01 0. -1.
         -5    1    1    2    0  502  0.33893991229E+01  0.61585562730E+02  0.28958176321E+02  0.68300333374E+02  0.47000000000E+01 0. -1.
        -11    1    1    2    0    0 -0.10918288468E+02 -0.15136147005E+02  0.58201863602E+02  0.61120936642E+02  0.00000000000E+00 0. -1.
         11    1    1    2    0    0  0.36984249034E+02  0.10526759237E+02 -0.16526373759E+02  0.41854132009E+02  0.00000000000E+00 0.  1.
<mgrwt>
<rscale>  0 0.11838862E+03</rscale>
<asrwt>0</asrwt>
<pdfrwt beam="1">  1        2 0.24262561E-01 0.12777631E+03</pdfrwt>
<pdfrwt beam="2">  1       -2 0.12070039E-01 0.12777631E+03</pdfrwt>
<totfact> 0.10206568E+04</totfact>
</mgrwt>
</event>
<event>
 6    1  0.6101889E-006  0.2546555E+03  0.7546771E-02  0.1110397E+00
          1   -1    0    0  501    0  0.00000000000E+00  0.00000000000E+00  0.99441471789E+02  0.99441471789E+02  0.00000000000E+00 0. -1.
         -1   -1    0    0    0  501 -0.00000000000E+00 -0.00000000000E+00 -0.16303419072E+03  0.16303419072E+03  0.00000000000E+00 0.  1.
          5    1    1    2  502    0 -0.22464581671E+02 -0.12140520808E+02 -0.44437785908E+02  0.51467042771E+02  0.47000000000E+01 0. -1.
         -5    1    1    2    0  502  0.90698822231E+02  0.33271807952E+01  0.20614629698E+02  0.93190125248E+02  0.47000000000E+01 0. -1.
        -11    1    1    2    0    0 -0.49439849631E+02 -0.16042773989E+02 -0.60977601222E+02  0.80124510479E+02  0.00000000000E+00 0.  1.
         11    1    1    2    0    0 -0.18794390929E+02  0.24856114002E+02  0.21208038501E+02  0.37693984012E+02  0.00000000000E+00 0. -1.
<mgrwt>
<rscale>  0 0.25465553E+03</rscale>
<asrwt>0</asrwt>
<pdfrwt beam="1">  1        1 0.15298688E-01 0.25465553E+03</pdfrwt>
<pdfrwt beam="2">  1       -1 0.25082183E-01 0.25465553E+03</pdfrwt>
<totfact> 0.49737001E+03</totfact>
</mgrwt>
</event>
<event>
 6    1  0.6101889E-006  0.1439386E+03  0.7546771E-02  0.1218836E+00
          1   -1    0    0  501    0  0.00000000000E+00  0.00000000000E+00  0.10226196119E+04  0.10226196119E+04  0.00000000000E+00 0. -1.
         -1   -1    0    0    0  501 -0.00000000000E+00 -0.00000000000E+00 -0.16542294283E+02  0.16542294283E+02  0.00000000000E+00 0.  1.
          5    1    1    2  502    0 -0.59118883196E+02 -0.32785421952E+02  0.24599396724E+03  0.25515690890E+03  0.47000000000E+01 0.  1.
         -5    1    1    2    0  502  0.11283766649E+01  0.74397080205E+02  0.36909254254E+03  0.37654693431E+03  0.47000000000E+01 0.  1.
        -11    1    1    2    0    0  0.66443455387E+02 -0.14423737099E+02  0.35557332748E+03  0.36201542532E+03  0.00000000000E+00 0.  1.
         11    1    1    2    0    0 -0.84529488553E+01 -0.27187921154E+02  0.35417480314E+02  0.45442637609E+02  0.00000000000E+00 0. -1.
<mgrwt>
<rscale>  0 0.13598518E+03</rscale>
<asrwt>0</asrwt>
<pdfrwt beam="1">  1        1 0.15732605E+00 0.14393864E+03</pdfrwt>
<pdfrwt beam="2">  1       -1 0.25449691E-02 0.14393864E+03</pdfrwt>
<totfact> 0.71994798E+03</totfact>
</mgrwt>
</event>
<event>
 6    1  0.6101889E-006  0.2209725E+03  0.7546771E-02  0.1136469E+00
          2   -1    0    0  501    0  0.00000000000E+00  0.00000000000E+00  0.38582756004E+03  0.38582756004E+03  0.00000000000E+00 0. -1.
         -2   -1    0    0    0  501 -0.00000000000E+00 -0.00000000000E+00 -0.13068475561E+03  0.13068475561E+03  0.00000000000E+00 0.  1.
          5    1    1    2  502    0 -0.37451746501E+02 -0.99860952998E+02  0.90748019051E+02  0.14011472518E+03  0.47000000000E+01 0. -1.
         -5    1    1    2    0  502 -0.11317889886E+03 -0.26794530150E+01  0.12508089712E+03  0.16877192729E+03  0.47000000000E+01 0. -1.
        -11    1    1    2    0    0  0.87048604070E+02  0.45727842502E+02  0.65831287538E+02  0.11833111792E+03  0.00000000000E+00 0.  1.
         11    1    1    2    0    0  0.63582041292E+02  0.56812563511E+02 -0.26517399287E+02  0.89294545256E+02  0.00000000000E+00 0. -1.
<mgrwt>
<rscale>  0 0.21656676E+03</rscale>
<asrwt>0</asrwt>
<pdfrwt beam="1">  1        2 0.59358086E-01 0.22097249E+03</pdfrwt>
<pdfrwt beam="2">  1       -2 0.20105347E-01 0.22097249E+03</pdfrwt>
<totfact> 0.17205231E+03</totfact>
</mgrwt>
</event>
<event>
 6    1  0.6101889E-006  0.2441816E+03  0.7546771E-02  0.1117038E+00
         -2   -1    0    0    0  501 -0.00000000000E+00  0.00000000000E+00  0.22815939538E+02  0.22815939538E+02  0.00000000000E+00 0. -1.
          2   -1    0    0  501    0  0.00000000000E+00 -0.00000000000E+00 -0.65332255774E+03  0.65332255774E+03  0.00000000000E+00 0.  1.
          5    1    1    2  502    0 -0.68248989874E+02  0.44500167960E+01 -0.44497643918E+03  0.45022644158E+03  0.47000000000E+01 0.  1.
         -5    1    1    2    0  502  0.28572378426E+02 -0.39210453470E+00 -0.26800728663E+02  0.39457617918E+02  0.47000000000E+01 0.  1.
        -11    1    1    2    0    0  0.15084025936E+02 -0.46149482618E+02 -0.88861285085E+02  0.10126021218E+03  0.00000000000E+00 0. -1.
         11    1    1    2    0    0  0.24592585512E+02  0.42091570357E+02 -0.69868165275E+02  0.85194225603E+02  0.00000000000E+00 0.  1.
<mgrwt>
<rscale>  0 0.24418164E+03</rscale>
<asrwt>0</asrwt>
<pdfrwt beam="2">  1        2 0.10051115E+00 0.24418164E+03</pdfrwt>
<pdfrwt beam="1">  1       -2 0.35101451E-02 0.24418164E+03</pdfrwt>
<totfact> 0.15086678E+04</totfact>
</mgrwt>
</event>
<event>
 6    1  0.6101889E-006  0.1460776E+03  0.7546771E-02  0.1214044E+00
          1   -1    0    0  501    0  0.00000000000E+00  0.00000000000E+00  0.26582802719E+03  0.26582802719E+03  0.00000000000E+00 0. -1.
         -1   -1    0    0    0  501 -0.00000000000E+00 -0.00000000000E+00 -0.82515871830E+02  0.82515871830E+02  0.00000000000E+00 0.  1.
          5    1    1    2  502    0  0.55450533947E+02 -0.35392692771E+02  0.19123680406E+02  0.68667383589E+02  0.47000000000E+01 0.  1.
         -5    1    1    2    0  502  0.19779970198E+02  0.28041387096E+02  0.15401805940E+03  0.15786455978E+03  0.47000000000E+01 0.  1.
        -11    1    1    2    0    0 -0.33471321631E+02 -0.39467731750E+02 -0.15508595203E+02  0.54023585094E+02  0.00000000000E+00 0.  1.
         11    1    1    2    0    0 -0.41759182514E+02  0.46819037426E+02  0.25679010753E+02  0.67788370558E+02  0.00000000000E+00 0. -1.
<mgrwt>
<rscale>  0 0.13946987E+03</rscale>
<asrwt>0</asrwt>
<pdfrwt beam="1">  1        1 0.40896619E-01 0.14607758E+03</pdfrwt>
<pdfrwt beam="2">  1       -1 0.12694750E-01 0.14607758E+03</pdfrwt>
<totfact> 0.41352185E+03</totfact>
</mgrwt>
</event>
<event>
 6    1  0.6101889E-006  0.1390139E+03  0.7546771E-02  0.1225869E+00
         -1   -1    0    0    0  501 -0.00000000000E+00  0.00000000000E+00  0.66710912429E+02  0.66710912429E+02  0.00000000000E+00 0.  1.
          1   -1    0    0  501    0  0.00000000000E+00 -0.00000000000E+00 -0.23396919147E+03  0.23396919147E+03  0.00000000000E+00 0. -1.
          5    1    1    2  502    0  0.46972287253E+02  0.18642450921E+02  0.44500246323E+01  0.50949283266E+02  0.47000000000E+01 0. -1.
         -5    1    1    2    0  502 -0.11906138056E+02 -0.68353132526E+02 -0.84607438375E+02  0.10951901880E+03  0.47000000000E+01 0. -1.
        -11    1    1    2    0    0 -0.54140097080E+02  0.37003107957E+02 -0.95460995818E+02  0.11581529188E+03  0.00000000000E+00 0. -1.
         11    1    1    2    0    0  0.19073947883E+02  0.12707573648E+02  0.83601305198E+01  0.24396509958E+02  0.00000000000E+00 0.  1.
<mgrwt>
<rscale>  0 0.13107493E+03</rscale>
<asrwt>0</asrwt>
<pdfrwt beam="2">  1        1 0.35995259E-01 0.13901390E+03</pdfrwt>
<pdfrwt beam="1">  1       -1 0.10263218E-01 0.13901390E+03</pdfrwt>
<totfact> 0.67005437E+03</totfact>
</mgrwt>
</event>
<event>
 6    1  0.6101889E-006  0.1703893E+03  0.7546771E-02  0.1183424E+00
         -2   -1    0    0    0  501 -0.00000000000E+00  0.00000000000E+00  0.15190267666E+02  0.15190267666E+02  0.00000000000E+00 0.  1.
          2   -1    0    0  501    0  0.00000000000E+00 -0.00000000000E+00 -0.22403477593E+04  0.22403477593E+04  0.00000000000E+00 0. -1.
          5    1    1    2  502    0  0.42105113057E+02  0.71678789877E+02 -0.76798414302E+03  0.77248457809E+03  0.47000000000E+01 0. -1.
         -5    1    1    2    0  502  0.71331784213E+02 -0.48450553761E+02 -0.96432164397E+03  0.96818076960E+03  0.47000000000E+01 0. -1.
        -11    1    1    2    0    0 -0.79763352085E+02 -0.26556905194E+02 -0.46031877761E+03  0.46793251497E+03  0.00000000000E+00 0. -1.
         11    1    1    2    0    0 -0.33673545184E+02  0.33286690777E+01 -0.32532927050E+02  0.46940164311E+02  0.00000000000E+00 0.  1.
<mgrwt>
<rscale>  0 0.16476085E+03</rscale>
<asrwt>0</asrwt>
<pdfrwt beam="2">  1        2 0.34466869E+00 0.17038930E+03</pdfrwt>
<pdfrwt beam="1">  1       -2 0.23369656E-02 0.17038930E+03</pdfrwt>
<totfact> 0.34123094E+03</totfact>
</mgrwt>
</event>
<event>
 6    1  0.6101889E-006  0.2384882E+03  0.7546771E-02  0.1159258E+00
         -1   -1    0    0    0  501 -0.00000000000E+00  0.00000000000E+00  0.15387744011E+03  0.15387744011E+03  0.00000000000E+00 0.  1.
          1   -1    0    0  501    0  0.00000000000E+00 -0.00000000000E+00 -0.42599249172E+03  0.42599249172E+03  0.00000000000E+00 0. -1.
          5    1    1    2  502    0 -0.95926492334E+02 -0.53977367760E+02 -0.80800904908E+02  0.13662475762E+03  0.47000000000E+01 0. -1.
         -5    1    1    2    0  502  0.86130275750E+02  0.30303601932E+02 -0.29159155244E+03  0.30558870421E+03  0.47000000000E+01 0.  1.
        -11    1    1    2    0    0  0.25884775200E+02  0.22724042115E+02  0.11235531587E+03  0.11751646983E+03  0.00000000000E+00 0.  1.
         11    1    1    2    0    0 -0.16088558616E+02  0.94972371330E+00 -0.12077910131E+02  0.20140000164E+02  0.00000000000E+00 0. -1.
<mgrwt>
<rscale>  0 0.18911924E+03</rscale>
<asrwt>0</asrwt>
<pdfrwt beam="2">  1        1 0.65537306E-01 0.23848816E+03</pdfrwt>
<pdfrwt beam="1">  1       -1 0.23673453E-01 0.23848816E+03</pdfrwt>
<totfact> 0.85352307E+02</totfact>
</mgrwt>
</event>
<event>
 6    1  0.6101889E-006  0.1539027E+03  0.7546771E-02  0.1204156E+00
          2   -1    0    0  501    0  0.00000000000E+00  0.00000000000E+00  0.69701781046E+03  0.69701781046E+03  0.00000000000E+00 0. -1.
         -2   -1    0    0    0  501 -0.00000000000E+00 -0.00000000000E+00 -0.30453987179E+02  0.30453987179E+02  0.00000000000E+00 0.  1.
          5    1    1    2  502    0  0.68917164413E+02 -0.29962823587E+01  0.83846398055E+02  0.10867778856E+03  0.47000000000E+01 0.  1.
         -5    1    1    2    0  502  0.20866216011E+02  0.36425364649E+01  0.36840254830E+03  0.36904091187E+03  0.47000000000E+01 0.  1.
        -11    1    1    2    0    0 -0.10336691745E+03  0.39466521565E+01  0.14001290422E+03  0.17408017990E+03  0.00000000000E+00 0.  1.
         11    1    1    2    0    0  0.13583537024E+02 -0.45929062628E+01  0.74301972701E+02  0.75672917304E+02  0.00000000000E+00 0. -1.
<mgrwt>
<rscale>  0 0.14704200E+03</rscale>
<asrwt>0</asrwt>
<pdfrwt beam="1">  1        2 0.10723350E+00 0.15390272E+03</pdfrwt>
<pdfrwt beam="2">  1       -2 0.46852293E-02 0.15390272E+03</pdfrwt>
<totfact> 0.88140429E+03</totfact>
</mgrwt>
</event>
<event>
 6    1  0.6101889E-006  0.1349572E+03  0.7546771E-02  0.1231984E+00
         -1   -1    0    0    0  501 -0.00000000000E+00  0.00000000000E+00  0.90947938617E+01  0.90947938617E+01  0.00000000000E+00 0.  1.
          1   -1    0    0  501    0  0.00000000000E+00 -0.00000000000E+00 -0.19043588182E+04  0.19043588182E+04  0.00000000000E+00 0. -1.
          5    1    1    2  502    0  0.34550749988E+02  0.24159465424E+02 -0.28456617921E+03  0.28771067836E+03  0.47000000000E+01 0.  1.
         -5    1    1    2    0  502 -0.84514507154E+02 -0.14390882947E+02 -0.11431521413E+04  0.11463719761E+04  0.47000000000E+01 0.  1.
        -11    1    1    2    0    0 -0.21893167176E+02  0.18185323529E+02 -0.14133537336E+03  0.14417248185E+03  0.00000000000E+00 0. -1.
         11    1    1    2    0    0  0.71856924342E+02 -0.27953906006E+02 -0.32621033048E+03  0.33519847576E+03  0.00000000000E+00 0.  1.
<mgrwt>
<rscale>  0 0.12699523E+03</rscale>
<asrwt>0</asrwt>
<pdfrwt beam="2">  1        1 0.29297844E+00 0.13495724E+03</pdfrwt>
<pdfrwt beam="1">  1       -1 0.13991983E-02 0.13495724E+03</pdfrwt>
<totfact> 0.44483692E+03</totfact>
</mgrwt>
</event>
<event>
 6    1  0.6101889E-006  0.1653930E+03  0.7546771E-02  0.1193609E+00
          1   -1    0    0  501    0  0.00000000000E+00  0.00000000000E+00  0.29957810323E+03  0.29957810323E+03  0.00000000000E+00 0. -1.
         -1   -1    0    0    0  501 -0.00000000000E+00 -0.00000000000E+00 -0.80473810562E+02  0.80473810562E+02  0.00000000000E+00 0.  1.
          5    1    1    2  502    0 -0.16293916649E+02  0.93532631747E+02  0.16844018543E+03  0.19341155857E+03  0.47000000000E+01 0. -1.
         -5    1    1    2    0  502  0.48543947219E+02  0.87678127158E+01  0.11260464118E+02  0.50816113621E+02  0.47000000000E+01 0.  1.
        -11    1    1    2    0    0 -0.40315579388E+02 -0.11098716672E+03  0.36845466018E+02  0.12369755650E+03  0.00000000000E+00 0. -1.
         11    1    1    2    0    0  0.80655488186E+01  0.86867222607E+01  0.25581771035E+01  0.12126685098E+02  0.00000000000E+00 0.  1.
<mgrwt>
<rscale>  0 0.15572538E+03</rscale>
<asrwt>0</asrwt>
<pdfrwt beam="1">  1        1 0.46088938E-01 0.16539296E+03</pdfrwt>
<pdfrwt beam="2">  1       -1 0.12380586E-01 0.16539296E+03</pdfrwt>
<totfact> 0.37290402E+03</totfact>
</mgrwt>
</event>
<event>
 6    1  0.6101889E-006  0.2284340E+03  0.7546771E-02  0.1130755E+00
         -2   -1    0    0    0  501 -0.00000000000E+00  0.00000000000E+00  0.32651922053E+03  0.32651922053E+03  0.00000000000E+00 0.  1.
          2   -1    0    0  501    0  0.00000000000E+00 -0.00000000000E+00 -0.14876396768E+03  0.14876396768E+03  0.00000000000E+00 0. -1.
          5    1    1    2  502    0  0.24370644487E+02 -0.51514907612E+02 -0.23719227762E+01  0.57231372835E+02  0.47000000000E+01 0. -1.
         -5    1    1    2    0  502  0.16381691051E+03  0.17397437535E+02  0.87131421838E+02  0.18642056130E+03  0.47000000000E+01 0. -1.
        -11    1    1    2    0    0 -0.47752897133E+02 -0.42493115126E+01  0.69099313846E+02  0.84101789558E+02  0.00000000000E+00 0.  1.
         11    1    1    2    0    0 -0.14043465787E+03  0.38366781590E+02  0.23896439948E+02  0.14752946452E+03  0.00000000000E+00 0. -1.
<mgrwt>
<rscale>  0 0.22424767E+03</rscale>
<asrwt>0</asrwt>
<pdfrwt beam="2">  1        2 0.22886764E-01 0.22843400E+03</pdfrwt>
<pdfrwt beam="1">  1       -2 0.50233726E-01 0.22843400E+03</pdfrwt>
<totfact> 0.90280017E+02</totfact>
</mgrwt>
</event>
<event>
 6    1  0.6101889E-006  0.2480281E+03  0.7546771E-02  0.1114557E+00
          1   -1    0    0  501    0  0.00000000000E+00  0.00000000000E+00  0.61476500676E+03  0.61476500676E+03  0.00000000000E+00 0. -1.
         -1   -1    0    0    0  501 -0.00000000000E+00 -0.00000000000E+00 -0.25016860384E+02  0.25016860384E+02  0.00000000000E+00 0.  1.
          5    1    1    2  502    0  0.48301814712E+01 -0.33808163831E+01 -0.78629180297E+01  0.10893853882E+02  0.47000000000E+01 0.  1.
         -5    1    1    2    0  502 -0.45410883995E+02  0.32469352408E+02  0.39549378706E+03  0.39944190170E+03  0.47000000000E+01 0.  1.
        -11    1    1    2    0    0  0.60382118952E+01  0.35119688645E+02  0.62939782756E+02  0.72327510581E+02  0.00000000000E+00 0.  1.
         11    1    1    2    0    0  0.34542490629E+02 -0.64208224669E+02  0.13917749459E+03  0.15711860098E+03  0.00000000000E+00 0. -1.
<mgrwt>
<rscale>  0 0.24802815E+03</rscale>
<asrwt>0</asrwt>
<pdfrwt beam="1">  1        1 0.94579221E-01 0.24802815E+03</pdfrwt>
<pdfrwt beam="2">  1       -1 0.38487482E-02 0.24802815E+03</pdfrwt>
<totfact> 0.87774162E+03</totfact>
</mgrwt>
</event>
<event>
 6    1  0.6101889E-006  0.1267456E+03  0.7546771E-02  0.1238563E+00
          1   -1    0    0  501    0  0.00000000000E+00  0.00000000000E+00  0.96475642872E+02  0.96475642872E+02  0.00000000000E+00 0. -1.
         -1   -1    0    0    0  501 -0.00000000000E+00 -0.00000000000E+00 -0.19377092431E+03  0.19377092431E+03  0.00000000000E+00 0.  1.
          5    1    1    2  502    0  0.30531995065E+02 -0.55675611513E+02  0.71058852742E+01  0.64066840452E+02  0.47000000000E+01 0.  1.
         -5    1    1    2    0  502 -0.10540944664E+02  0.61872904181E+02  0.12888057645E+02  0.64246087944E+02  0.47000000000E+01 0.  1.
        -11    1    1    2    0    0 -0.15430014522E+02  0.44397336483E+02 -0.95930469940E+02  0.10682632587E+03  0.00000000000E+00 0. -1.
         11    1    1    2    0    0 -0.45610358797E+01 -0.50594629151E+02 -0.21358754418E+02  0.55107312922E+02  0.00000000000E+00 0.  1.
<mgrwt>
<rscale>  0 0.12279041E+03</rscale>
<asrwt>0</asrwt>
<pdfrwt beam="1">  1        1 0.14842407E-01 0.12674561E+03</pdfrwt>
<pdfrwt beam="2">  1       -1 0.29810911E-01 0.12674561E+03</pdfrwt>
<totfact> 0.37336530E+03</totfact>
</mgrwt>
</event>
<event>
 6    1  0.6101889E-006  0.1548251E+03  0.7546771E-02  0.1203143E+00
         -1   -1    0    0    0  501 -0.00000000000E+00  0.00000000000E+00  0.28360742455E+03  0.28360742455E+03  0.00000000000E+00 0.  1.
          1   -1    0    0  501    0  0.00000000000E+00 -0.00000000000E+00 -0.77171096439E+02  0.77171096439E+02  0.00000000000E+00 0. -1.
          5    1    1    2  502    0  0.31500062222E+01 -0.25902045905E+02  0.78093845173E+02  0.82471674988E+02  0.47000000000E+01 0.  1.
         -5    1    1    2    0  502 -0.76896170972E+02 -0.28005687852E+02 -0.17446177321E+02  0.83808106800E+02  0.47000000000E+01 0.  1.
        -11    1    1    2    0    0  0.38865605107E+02  0.74091149310E+02  0.12125601135E+03  0.14731956406E+03  0.00000000000E+00 0.  1.
         11    1    1    2    0    0  0.34880559643E+02 -0.20183415553E+02  0.24532648902E+02  0.47179175136E+02  0.00000000000E+00 0. -1.
<mgrwt>
<rscale>  0 0.14784758E+03</rscale>
<asrwt>0</asrwt>
<pdfrwt beam="2">  1        1 0.11872477E-01 0.15482515E+03</pdfrwt>
<pdfrwt beam="1">  1       -1 0.43631911E-01 0.15482515E+03</pdfrwt>
<totfact> 0.26153809E+03</totfact>
</mgrwt>
</event>
<event>
 6    1  0.6101889E-006  0.1318452E+03  0.7546771E-02  0.1238206E+00
         -1   -1    0    0    0  501 -0.00000000000E+00  0.00000000000E+00  0.42118150269E+02  0.42118150269E+02  0.00000000000E+00 0.  1.
          1   -1    0    0  501    0  0.00000000000E+00 -0.00000000000E+00 -0.39784170400E+03  0.39784170400E+03  0.00000000000E+00 0. -1.
          5    1    1    2  502    0 -0.75601306672E+01  0.42824302627E+02 -0.17762971367E+03  0.18293573093E+03  0.47000000000E+01 0. -1.
         -5    1    1    2    0  502 -0.20987192087E+02 -0.73549892958E+02 -0.11716291717E+03  0.13999745764E+03  0.47000000000E+01 0. -1.
        -11    1    1    2    0    0  0.35336577142E+02 -0.16841027444E+02  0.36093182329E+00  0.39146189613E+02  0.00000000000E+00 0.  1.
         11    1    1    2    0    0 -0.67892543871E+01  0.47566617775E+02 -0.61291854715E+02  0.77880476091E+02  0.00000000000E+00 0. -1.
<mgrwt>
<rscale>  0 0.12301384E+03</rscale>
<asrwt>0</asrwt>
<pdfrwt beam="2">  1        1 0.61206415E-01 0.13184517E+03</pdfrwt>
<pdfrwt beam="1">  1       -1 0.64797156E-02 0.13184517E+03</pdfrwt>
<totfact> 0.69176386E+03</totfact>
</mgrwt>
</event>
<event>
 6    1  0.6101889E-006  0.1259540E+03  0.7546771E-02  0.1249086E+00
          2   -1    0    0  501    0  0.00000000000E+00  0.00000000000E+00  0.96511241201E+02  0.96511241201E+02  0.00000000000E+00 0. -1.
         -2   -1    0    0    0  501 -0.00000000000E+00 -0.00000000000E+00 -0.13187750259E+03  0.13187750259E+03  0.00000000000E+00 0.  1.
          5    1    1    2  502    0 -0.24431778557E+02 -0.99635045037E+01 -0.48684583163E+02  0.55573931507E+02  0.47000000000E+01 0.  1.
         -5    1    1    2    0  502  0.34564272590E+02  0.21442583397E+02  0.57633169506E+02  0.70697563959E+02  0.47000000000E+01 0.  1.
        -11    1    1    2    0    0  0.24426163924E+02 -0.41557503188E+01 -0.58899544282E+02  0.63898858060E+02  0.00000000000E+00 0.  1.
         11    1    1    2    0    0 -0.34558657958E+02 -0.73233285739E+01  0.14584696547E+02  0.38218390267E+02  0.00000000000E+00 0. -1.
<mgrwt>
<rscale>  0 0.11644123E+03</rscale>
<asrwt>0</asrwt>
<pdfrwt beam="1">  1        2 0.14847883E-01 0.12595401E+03</pdfrwt>
<pdfrwt beam="2">  1       -2 0.20288847E-01 0.12595401E+03</pdfrwt>
<totfact> 0.75968323E+03</totfact>
</mgrwt>
</event>
<event>
 6    1  0.6101889E-006  0.1329936E+03  0.7546771E-02  0.1233547E+00
          4   -1    0    0  501    0  0.00000000000E+00  0.00000000000E+00  0.25761422340E+02  0.25761422340E+02  0.00000000000E+00 0. -1.
         -4   -1    0    0    0  501 -0.00000000000E+00 -0.00000000000E+00 -0.55931611587E+03  0.55931611587E+03  0.00000000000E+00 0.  1.
          5    1    1    2  502    0 -0.78026485391E+00 -0.15708491652E+02 -0.28816564819E+03  0.28863280534E+03  0.47000000000E+01 0. -1.
         -5    1    1    2    0  502 -0.30516769555E+02 -0.17189348378E+02 -0.83055852073E+01  0.36301786008E+02  0.47000000000E+01 0. -1.
        -11    1    1    2    0    0  0.24314851764E+02  0.50536271096E+02 -0.23436205236E+03  0.24097862623E+03  0.00000000000E+00 0.  1.
         11    1    1    2    0    0  0.69821826446E+01 -0.17638431066E+02 -0.27214077725E+01  0.19164320631E+02  0.00000000000E+00 0. -1.
<mgrwt>
<rscale>  0 0.12597911E+03</rscale>
<asrwt>0</asrwt>
<pdfrwt beam="1">  1        4 0.39632959E-02 0.13299360E+03</pdfrwt>
<pdfrwt beam="2">  1       -4 0.86048630E-01 0.13299360E+03</pdfrwt>
<totfact> 0.69157293E+02</totfact>
</mgrwt>
</event>
<event>
 6    1  0.6101889E-006  0.1274402E+03  0.7546771E-02  0.1244342E+00
         -2   -1    0    0    0  501 -0.00000000000E+00  0.00000000000E+00  0.71413563994E+02  0.71413563994E+02  0.00000000000E+00 0.  1.
          2   -1    0    0  501    0  0.00000000000E+00 -0.00000000000E+00 -0.18335274269E+03  0.18335274269E+03  0.00000000000E+00 0. -1.
          5    1    1    2  502    0  0.31198086043E+02  0.53478554734E+02 -0.24951228687E+02  0.66917338577E+02  0.47000000000E+01 0.  1.
         -5    1    1    2    0  502 -0.75765019840E+01 -0.61133836567E+02 -0.60846346594E+02  0.86712843625E+02  0.47000000000E+01 0.  1.
        -11    1    1    2    0    0  0.20547057259E+02 -0.50408341026E+00  0.25462357614E+02  0.32722581153E+02  0.00000000000E+00 0.  1.
         11    1    1    2    0    0 -0.44168641318E+02  0.81593652435E+01 -0.51603961031E+02  0.68413543332E+02  0.00000000000E+00 0. -1.
<mgrwt>
<rscale>  0 0.11924842E+03</rscale>
<asrwt>0</asrwt>
<pdfrwt beam="2">  1        2 0.28208114E-01 0.12744022E+03</pdfrwt>
<pdfrwt beam="1">  1       -2 0.10986702E-01 0.12744022E+03</pdfrwt>
<totfact> 0.10044845E+04</totfact>
</mgrwt>
</event>
<event>
 6    1  0.6101889E-006  0.3267572E+03  0.7546771E-02  0.1072581E+00
         -1   -1    0    0    0  501 -0.00000000000E+00  0.00000000000E+00  0.21018678769E+02  0.21018678769E+02  0.00000000000E+00 0.  1.
          1   -1    0    0  501    0  0.00000000000E+00 -0.00000000000E+00 -0.12699454197E+04  0.12699454197E+04  0.00000000000E+00 0. -1.
          5    1    1    2  502    0 -0.13916145849E+02  0.29002254252E+02 -0.73739355002E+02  0.80587668679E+02  0.47000000000E+01 0. -1.
         -5    1    1    2    0  502 -0.77093198466E+02 -0.96708363607E+02 -0.76814895042E+03  0.77805576206E+03  0.47000000000E+01 0. -1.
        -11    1    1    2    0    0  0.21810178225E+02  0.72902016451E+02 -0.22375628580E+03  0.23634141260E+03  0.00000000000E+00 0. -1.
         11    1    1    2    0    0  0.69199166090E+02 -0.51959070962E+01 -0.18328214971E+03  0.19597925513E+03  0.00000000000E+00 0.  1.
<mgrwt>
<rscale>  0 0.32675725E+03</rscale>
<asrwt>0</asrwt>
<pdfrwt beam="2">  1        1 0.19537620E+00 0.32675725E+03</pdfrwt>
<pdfrwt beam="1">  1       -1 0.32336432E-02 0.32675725E+03</pdfrwt>
<totfact> 0.34615747E+03</totfact>
</mgrwt>
</event>
<event>
 6    1  0.6101889E-006  0.2912859E+03  0.7546771E-02  0.1089680E+00
         -1   -1    0    0    0  501 -0.00000000000E+00  0.00000000000E+00  0.19899794364E+02  0.19899794364E+02  0.00000000000E+00 0.  1.
          1   -1    0    0  501    0  0.00000000000E+00 -0.00000000000E+00 -0.10659338701E+04  0.10659338701E+04  0.00000000000E+00 0. -1.
          5    1    1    2  502    0 -0.59008074218E+02 -0.76537269145E+02 -0.45472170236E+03  0.46490194987E+03  0.47000000000E+01 0. -1.
         -5    1    1    2    0  502  0.23290934482E+02 -0.97045139093E+01 -0.14289379215E+02  0.29375526848E+02  0.47000000000E+01 0. -1.
        -11    1    1    2    0    0 -0.28607716702E+02  0.43744494954E+02 -0.19884918794E+03  0.20560394412E+03  0.00000000000E+00 0. -1.
         11    1    1    2    0    0  0.64324856438E+02  0.42497288100E+02 -0.37817380620E+03  0.38595224361E+03  0.00000000000E+00 0.  1.
<mgrwt>
<rscale>  0 0.29128587E+03</rscale>
<asrwt>0</asrwt>
<pdfrwt beam="2">  1        1 0.16398985E+00 0.29128587E+03</pdfrwt>
<pdfrwt beam="1">  1       -1 0.30615064E-02 0.29128587E+03</pdfrwt>
<totfact> 0.52344179E+03</totfact>
</mgrwt>
</event>
<event>
 6    1  0.6101889E-006  0.2383822E+03  0.7546771E-02  0.1120875E+00
          2   -1    0    0  501    0  0.00000000000E+00  0.00000000000E+00  0.84839296552E+02  0.84839296552E+02  0.00000000000E+00 0. -1.
         -2   -1    0    0    0  501 -0.00000000000E+00 -0.00000000000E+00 -0.16745205077E+03  0.16745205077E+03  0.00000000000E+00 0.  1.
          5    1    1    2  502    0  0.95512233876E+01  0.69229907911E+01 -0.73369371248E+02  0.74460112187E+02  0.47000000000E+01 0.  1.
         -5    1    1    2    0  502 -0.38056792385E+02  0.55100161673E+01  0.42990353879E+02  0.57870028957E+02  0.47000000000E+01 0.  1.
        -11    1    1    2    0    0  0.47488388417E+02  0.29336713098E+02 -0.82912283429E+01  0.56431677604E+02  0.00000000000E+00 0.  1.
         11    1    1    2    0    0 -0.18982819419E+02 -0.41769720056E+02 -0.43942508505E+02  0.63529528570E+02  0.00000000000E+00 0. -1.
<mgrwt>
<rscale>  0 0.23838217E+03</rscale>
<asrwt>0</asrwt>
<pdfrwt beam="1">  1        2 0.13052200E-01 0.23838217E+03</pdfrwt>
<pdfrwt beam="2">  1       -2 0.25761854E-01 0.23838217E+03</pdfrwt>
<totfact> 0.61141974E+03</totfact>
</mgrwt>
</event>
<event>
 6    1  0.6101889E-006  0.1508470E+03  0.7546771E-02  0.1208539E+00
          4   -1    0    0  501    0  0.00000000000E+00  0.00000000000E+00  0.37150023465E+03  0.37150023465E+03  0.00000000000E+00 0. -1.
         -4   -1    0    0    0  501 -0.00000000000E+00 -0.00000000000E+00 -0.51476660646E+02  0.51476660646E+02  0.00000000000E+00 0.  1.
          5    1    1    2  502    0 -0.34462702363E+02  0.29496546491E+02  0.14890420046E+03  0.15573141951E+03  0.47000000000E+01 0.  1.
         -5    1    1    2    0  502  0.61317922253E+02  0.50552575383E+02  0.50396237712E+02  0.94219537479E+02  0.47000000000E+01 0.  1.
        -11    1    1    2    0    0  0.21730785746E+02 -0.14640941365E+02 -0.13737594449E+01  0.26238739075E+02  0.00000000000E+00 0.  1.
         11    1    1    2    0    0 -0.48586005637E+02 -0.65408180509E+02  0.12209689528E+03  0.14678719923E+03  0.00000000000E+00 0. -1.
<mgrwt>
<rscale>  0 0.14362009E+03</rscale>
<asrwt>0</asrwt>
<pdfrwt beam="1">  1        4 0.57153881E-01 0.15084700E+03</pdfrwt>
<pdfrwt beam="2">  1       -4 0.79194865E-02 0.15084700E+03</pdfrwt>
<totfact> 0.55875530E+02</totfact>
</mgrwt>
</event>
<event>
 6    1  0.6101889E-006  0.2497190E+03  0.7546771E-02  0.1113483E+00
         -1   -1    0    0    0  501 -0.00000000000E+00  0.00000000000E+00  0.51258683576E+02  0.51258683576E+02  0.00000000000E+00 0.  1.
          1   -1    0    0  501    0  0.00000000000E+00 -0.00000000000E+00 -0.30414143213E+03  0.30414143213E+03  0.00000000000E+00 0. -1.
          5    1    1    2  502    0 -0.20184630046E+02  0.62792821317E+02 -0.19883550656E+03  0.20954237368E+03  0.47000000000E+01 0. -1.
         -5    1    1    2    0  502  0.34732220663E+01 -0.36619467876E+02 -0.26094074660E+02  0.45343571004E+02  0.47000000000E+01 0.  1.
        -11    1    1    2    0    0 -0.91989063040E+01 -0.24907078515E+02 -0.56203849575E+02  0.62159915898E+02  0.00000000000E+00 0. -1.
         11    1    1    2    0    0  0.25910314284E+02 -0.12662749257E+01  0.28250682245E+02  0.38354255120E+02  0.00000000000E+00 0.  1.
<mgrwt>
<rscale>  0 0.24971896E+03</rscale>
<asrwt>0</asrwt>
<pdfrwt beam="2">  1        1 0.46790990E-01 0.24971896E+03</pdfrwt>
<pdfrwt beam="1">  1       -1 0.78859512E-02 0.24971896E+03</pdfrwt>
<totfact> 0.74840387E+03</totfact>
</mgrwt>
</event>
<event>
 6    1  0.6101889E-006  0.3354984E+03  0.7546771E-02  0.1068730E+00
         -2   -1    0    0    0  501 -0.00000000000E+00  0.00000000000E+00  0.54665168771E+02  0.54665168771E+02  0.00000000000E+00 0. -1.
          2   -1    0    0  501    0  0.00000000000E+00 -0.00000000000E+00 -0.51476642791E+03  0.51476642791E+03  0.00000000000E+00 0.  1.
          5    1    1    2  502    0  0.15779083623E+02  0.14371905843E+03 -0.20225047719E+03  0.24865939106E+03  0.47000000000E+01 0.  1.
         -5    1    1    2    0  502 -0.11198710694E+02 -0.18833356873E+02 -0.91345098723E+02  0.94053833059E+02  0.47000000000E+01 0.  1.
        -11    1    1    2    0    0 -0.38636723764E+02 -0.45119799362E+02 -0.10414462448E+03  0.11989451833E+03  0.00000000000E+00 0.  1.
         11    1    1    2    0    0  0.34056350836E+02 -0.79765902199E+02 -0.62361058746E+02  0.10682385424E+03  0.00000000000E+00 0. -1.
<mgrwt>
<rscale>  0 0.33549840E+03</rscale>
<asrwt>0</asrwt>
<pdfrwt beam="2">  1        2 0.79194836E-01 0.33549840E+03</pdfrwt>
<pdfrwt beam="1">  1       -2 0.84100259E-02 0.33549840E+03</pdfrwt>
<totfact> 0.52773545E+03</totfact>
</mgrwt>
</event>
<event>
 6    1  0.6101889E-006  0.1688017E+03  0.7546771E-02  0.1185780E+00
          2   -1    0    0  501    0  0.00000000000E+00  0.00000000000E+00  0.60015585752E+02  0.60015585752E+02  0.00000000000E+00 0.  1.
         -2   -1    0    0    0  501 -0.00000000000E+00 -0.00000000000E+00 -0.47210797019E+03  0.47210797019E+03  0.00000000000E+00 0. -1.
          5    1    1    2  502    0  0.38967446797E+02 -0.16432113379E+02  0.11389184928E+02  0.44048607166E+02  0.47000000000E+01 0. -1.
         -5    1    1    2    0  502  0.58261937146E+02  0.74878570748E+02 -0.13545080203E+03  0.16543960665E+03  0.47000000000E+01 0. -1.
        -11    1    1    2    0    0 -0.36231458044E+02  0.17012867138E+02 -0.14022861771E+03  0.14582942579E+03  0.00000000000E+00 0.  1.
         11    1    1    2    0    0 -0.60997925900E+02 -0.75459324507E+02 -0.14780214962E+03  0.17680591633E+03  0.00000000000E+00 0. -1.
<mgrwt>
<rscale>  0 0.16261097E+03</rscale>
<asrwt>0</asrwt>
<pdfrwt beam="1">  1        2 0.92331670E-02 0.16880174E+03</pdfrwt>
<pdfrwt beam="2">  1       -2 0.72631996E-01 0.16880174E+03</pdfrwt>
<totfact> 0.12248855E+03</totfact>
</mgrwt>
</event>
<event>
 6    1  0.6101889E-006  0.1739438E+03  0.7546771E-02  0.1179860E+00
          1   -1    0    0  501    0  0.00000000000E+00  0.00000000000E+00  0.26591914245E+04  0.26591914245E+04  0.00000000000E+00 0. -1.
         -1   -1    0    0    0  501 -0.00000000000E+00 -0.00000000000E+00 -0.24314801482E+02  0.24314801482E+02  0.00000000000E+00 0.  1.
          5    1    1    2  502    0  0.14820680924E+01 -0.77322345909E+02  0.18477808743E+04  0.18494045505E+04  0.47000000000E+01 0. -1.
         -5    1    1    2    0  502 -0.66744608360E+02 -0.24513042708E+02  0.53629921989E+03  0.54101263873E+03  0.47000000000E+01 0. -1.
        -11    1    1    2    0    0  0.44395898742E+02  0.11094374491E+03  0.16129879840E+03  0.20074066037E+03  0.00000000000E+00 0.  1.
         11    1    1    2    0    0  0.20866641525E+02 -0.91083562966E+01  0.89497730415E+02  0.92348376447E+02  0.00000000000E+00 0. -1.
<mgrwt>
<rscale>  0 0.16808466E+03</rscale>
<asrwt>0</asrwt>
<pdfrwt beam="1">  1        1 0.40910614E+00 0.17394379E+03</pdfrwt>
<pdfrwt beam="2">  1       -1 0.37407408E-02 0.17394379E+03</pdfrwt>
<totfact> 0.34518215E+02</totfact>
</mgrwt>
</event>
<event>
 6    1  0.6101889E-006  0.1433852E+03  0.7546771E-02  0.1241899E+00
          1   -1    0    0  501    0  0.00000000000E+00  0.00000000000E+00  0.11585481612E+04  0.11585481612E+04  0.00000000000E+00 0. -1.
         -1   -1    0    0    0  501 -0.00000000000E+00 -0.00000000000E+00 -0.20804049762E+02  0.20804049762E+02  0.00000000000E+00 0.  1.
          5    1    1    2  502    0  0.39016130978E+02  0.71617201471E+01  0.59548191126E+03  0.59682019515E+03  0.47000000000E+01 0. -1.
         -5    1    1    2    0  502 -0.43651515986E+02 -0.77259657503E+02  0.47731777914E+03  0.48551916730E+03  0.47000000000E+01 0. -1.
        -11    1    1    2    0    0  0.37364299811E+01  0.24463061300E+02  0.13319383587E+02  0.28103527471E+02  0.00000000000E+00 0.  1.
         11    1    1    2    0    0  0.89895502697E+00  0.45634876056E+02  0.51625037406E+02  0.68909320995E+02  0.00000000000E+00 0. -1.
<mgrwt>
<rscale>  0 0.12072940E+03</rscale>
<asrwt>0</asrwt>
<pdfrwt beam="1">  1        1 0.17823813E+00 0.14338521E+03</pdfrwt>
<pdfrwt beam="2">  1       -1 0.32006239E-02 0.14338521E+03</pdfrwt>
<totfact> 0.41293815E+03</totfact>
</mgrwt>
</event>
<event>
 6    1  0.6101889E-006  0.3733673E+03  0.7546771E-02  0.1079260E+00
          2   -1    0    0  501    0  0.00000000000E+00  0.00000000000E+00  0.32622362196E+04  0.32622362196E+04  0.00000000000E+00 0. -1.
         -2   -1    0    0    0  501 -0.00000000000E+00 -0.00000000000E+00 -0.28499270099E+02  0.28499270099E+02  0.00000000000E+00 0.  1.
          5    1    1    2  502    0  0.11812887311E+03  0.21382639950E+03  0.24368265412E+04  0.24490450877E+04  0.47000000000E+01 0. -1.
         -5    1    1    2    0  502 -0.50271474962E+02 -0.71694263010E+02  0.28258146656E+03  0.29587440543E+03  0.47000000000E+01 0.  1.
        -11    1    1    2    0    0 -0.34774527585E+02 -0.13978426013E+03  0.35574991399E+03  0.38380582129E+03  0.00000000000E+00 0. -1.
         11    1    1    2    0    0 -0.33082870559E+02 -0.23478763594E+01  0.15857902777E+03  0.16201017528E+03  0.00000000000E+00 0.  1.
<mgrwt>
<rscale>  0 0.31227652E+03</rscale>
<asrwt>0</asrwt>
<pdfrwt beam="1">  1        2 0.50188220E+00 0.37336726E+03</pdfrwt>
<pdfrwt beam="2">  1       -2 0.43845057E-02 0.37336726E+03</pdfrwt>
<totfact> 0.33659904E+02</totfact>
</mgrwt>
</event>
<event>
 6    1  0.6101889E-006  0.2751425E+03  0.7546771E-02  0.1100418E+00
         -1   -1    0    0    0  501 -0.00000000000E+00  0.00000000000E+00  0.28599550188E+03  0.28599550188E+03  0.00000000000E+00 0.  1.
          1   -1    0    0  501    0  0.00000000000E+00 -0.00000000000E+00 -0.30909556612E+03  0.30909556612E+03  0.00000000000E+00 0. -1.
          5    1    1    2  502    0  0.15289249824E+03  0.11775884222E+03 -0.55053044409E+02  0.20073910590E+03  0.47000000000E+01 0. -1.
         -5    1    1    2    0  502  0.84586597093E+01  0.65634183319E+02 -0.85511410895E+02  0.10822978489E+03  0.47000000000E+01 0.  1.
        -11    1    1    2    0    0  0.15963178512E+01 -0.48009647933E+02  0.12200471384E+02  0.49561336013E+02  0.00000000000E+00 0.  1.
         11    1    1    2    0    0 -0.16294747580E+03 -0.13538337761E+03  0.10526391969E+03  0.23656084120E+03  0.00000000000E+00 0. -1.
<mgrwt>
<rscale>  0 0.27151022E+03</rscale>
<asrwt>0</asrwt>
<pdfrwt beam="2">  1        1 0.47553164E-01 0.27514253E+03</pdfrwt>
<pdfrwt beam="1">  1       -1 0.43999308E-01 0.27514253E+03</pdfrwt>
<totfact> 0.44077334E+02</totfact>
</mgrwt>
</event>
<event>
 6    1  0.6101889E-006  0.1509847E+03  0.7546771E-02  0.1207780E+00
         -2   -1    0    0    0  501 -0.00000000000E+00  0.00000000000E+00  0.16932299609E+03  0.16932299609E+03  0.00000000000E+00 0.  1.
          2   -1    0    0  501    0  0.00000000000E+00 -0.00000000000E+00 -0.11481425249E+03  0.11481425249E+03  0.00000000000E+00 0. -1.
          5    1    1    2  502    0 -0.10049530932E+03  0.27504415322E+02 -0.27835041227E+02  0.10794757792E+03  0.47000000000E+01 0. -1.
         -5    1    1    2    0  502  0.16984850012E+02 -0.28849158994E+01  0.39665418261E+02  0.43499922707E+02  0.47000000000E+01 0.  1.
        -11    1    1    2    0    0 -0.14599613703E+02  0.37668321924E+01  0.24769115565E+02  0.28997359034E+02  0.00000000000E+00 0. -1.
         11    1    1    2    0    0  0.98110073012E+02 -0.28386331615E+02  0.17909251008E+02  0.10369238892E+03  0.00000000000E+00 0.  1.
<mgrwt>
<rscale>  0 0.14420515E+03</rscale>
<asrwt>0</asrwt>
<pdfrwt beam="2">  1        2 0.17663731E-01 0.15098473E+03</pdfrwt>
<pdfrwt beam="1">  1       -2 0.26049692E-01 0.15098473E+03</pdfrwt>
<totfact> 0.40843099E+03</totfact>
</mgrwt>
</event>
<event>
 6    1  0.6101889E-006  0.2188261E+03  0.7546771E-02  0.1195824E+00
          1   -1    0    0  501    0  0.00000000000E+00  0.00000000000E+00  0.10905303065E+03  0.10905303065E+03  0.00000000000E+00 0. -1.
         -1   -1    0    0    0  501 -0.00000000000E+00 -0.00000000000E+00 -0.23360138872E+03  0.23360138872E+03  0.00000000000E+00 0.  1.
          5    1    1    2  502    0 -0.39641990119E+01 -0.40249230511E+02  0.95190300960E+02  0.10353259790E+03  0.47000000000E+01 0. -1.
         -5    1    1    2    0  502 -0.17927391105E+02  0.35655087979E+02 -0.10849501999E+03  0.11569760591E+03  0.47000000000E+01 0.  1.
        -11    1    1    2    0    0 -0.68431067506E+01 -0.15305557518E+02 -0.52026841350E+02  0.54661507680E+02  0.00000000000E+00 0. -1.
         11    1    1    2    0    0  0.28734696867E+02  0.19899700050E+02 -0.59216797699E+02  0.68762707886E+02  0.00000000000E+00 0.  1.
<mgrwt>
<rscale>  0 0.15384718E+03</rscale>
<asrwt>0</asrwt>
<pdfrwt beam="1">  1        1 0.16777389E-01 0.21882611E+03</pdfrwt>
<pdfrwt beam="2">  1       -1 0.35938675E-01 0.21882611E+03</pdfrwt>
<totfact> 0.23732844E+03</totfact>
</mgrwt>
</event>
<event>
 6    1  0.6101889E-006  0.1729399E+03  0.7546771E-02  0.1181322E+00
         -2   -1    0    0    0  501 -0.00000000000E+00  0.00000000000E+00  0.32869105554E+03  0.32869105554E+03  0.00000000000E+00 0.  1.
          2   -1    0    0  501    0  0.00000000000E+00 -0.00000000000E+00 -0.79245862897E+02  0.79245862897E+02  0.00000000000E+00 0. -1.
          5    1    1    2  502    0 -0.53727488465E+02 -0.15198671483E+02  0.96206602547E+02  0.11133482387E+03  0.47000000000E+01 0.  1.
         -5    1    1    2    0  502 -0.41237284020E+02  0.87756348551E+02  0.26225487922E+02  0.10055623561E+03  0.47000000000E+01 0.  1.
        -11    1    1    2    0    0  0.78764042907E+02 -0.38310777713E+02  0.13139073224E+03  0.15790824761E+03  0.00000000000E+00 0.  1.
         11    1    1    2    0    0  0.16200729578E+02 -0.34246899354E+02 -0.43776300676E+01  0.38137611347E+02  0.00000000000E+00 0. -1.
<mgrwt>
<rscale>  0 0.16671071E+03</rscale>
<asrwt>0</asrwt>
<pdfrwt beam="2">  1        2 0.12191671E-01 0.17293989E+03</pdfrwt>
<pdfrwt beam="1">  1       -2 0.50567854E-01 0.17293989E+03</pdfrwt>
<totfact> 0.18435613E+03</totfact>
</mgrwt>
</event>
<event>
 6    1  0.6101889E-006  0.1674245E+03  0.7546771E-02  0.1187371E+00
          1   -1    0    0  501    0  0.00000000000E+00  0.00000000000E+00  0.11401403333E+03  0.11401403333E+03  0.00000000000E+00 0. -1.
         -1   -1    0    0    0  501 -0.00000000000E+00 -0.00000000000E+00 -0.21862108179E+03  0.21862108179E+03  0.00000000000E+00 0.  1.
          5    1    1    2  502    0  0.69266685393E+02 -0.39416652069E+02 -0.14657480642E+02  0.81169439474E+02  0.47000000000E+01 0.  1.
         -5    1    1    2    0  502 -0.51658770277E+02 -0.70556199085E+02 -0.13526337225E+02  0.88610708013E+02  0.47000000000E+01 0.  1.
        -11    1    1    2    0    0 -0.18539894238E+02 -0.67131539688E+01 -0.32814260180E+02  0.38282760947E+02  0.00000000000E+00 0.  1.
         11    1    1    2    0    0  0.93197912162E+00  0.11668600512E+03 -0.43608970419E+02  0.12457220668E+03  0.00000000000E+00 0. -1.
<mgrwt>
<rscale>  0 0.16118007E+03</rscale>
<asrwt>0</asrwt>
<pdfrwt beam="1">  1        1 0.17540621E-01 0.16742452E+03</pdfrwt>
<pdfrwt beam="2">  1       -1 0.33634012E-01 0.16742452E+03</pdfrwt>
<totfact> 0.24867556E+03</totfact>
</mgrwt>
</event>
<event>
 6    1  0.6101889E-006  0.2756155E+03  0.7546771E-02  0.1098108E+00
         -2   -1    0    0    0  501 -0.00000000000E+00  0.00000000000E+00  0.32412354542E+02  0.32412354542E+02  0.00000000000E+00 0.  1.
          2   -1    0    0  501    0  0.00000000000E+00 -0.00000000000E+00 -0.58591787749E+03  0.58591787749E+03  0.00000000000E+00 0. -1.
          5    1    1    2  502    0 -0.11132048517E+03  0.71412505198E+01 -0.24143597346E+03  0.26600125405E+03  0.47000000000E+01 0.  1.
         -5    1    1    2    0  502  0.32588441068E+02  0.20076797112E+02 -0.83672591750E+02  0.92131845112E+02  0.47000000000E+01 0.  1.
        -11    1    1    2    0    0  0.31355148618E+02 -0.24007869505E+02 -0.16087107250E+02  0.42641742023E+02  0.00000000000E+00 0.  1.
         11    1    1    2    0    0  0.47376895488E+02 -0.32101781267E+01 -0.21230985049E+03  0.21755539084E+03  0.00000000000E+00 0. -1.
<mgrwt>
<rscale>  0 0.27561551E+03</rscale>
<asrwt>0</asrwt>
<pdfrwt beam="2">  1        2 0.90141204E-01 0.27561551E+03</pdfrwt>
<pdfrwt beam="1">  1       -2 0.49865165E-02 0.27561551E+03</pdfrwt>
<totfact> 0.10151585E+04</totfact>
</mgrwt>
</event>
<event>
 6    1  0.1480853E-005  0.3900812E+03  0.7546771E-02  0.1048130E+00
          1   -1    0    0  501    0  0.00000000000E+00  0.00000000000E+00  0.53726052012E+03  0.53726052012E+03  0.00000000000E+00 0. -1.
         -1   -1    0    0    0  501 -0.00000000000E+00 -0.00000000000E+00 -0.34814257646E+03  0.34814257646E+03  0.00000000000E+00 0.  1.
          5    1    1    2  502    0 -0.33899804377E+03 -0.15782521474E+02  0.21376110589E+03  0.40110430321E+03  0.47000000000E+01 0.  1.
         -5    1    1    2    0  502 -0.30469517009E+02  0.10124752426E+02  0.82726805382E+02  0.88863470600E+02  0.47000000000E+01 0.  1.
        -11    1    1    2    0    0  0.28080604319E+03 -0.37804275935E+01 -0.39963649111E+02  0.28366074592E+03  0.00000000000E+00 0. -1.
         11    1    1    2    0    0  0.88661517590E+02  0.94381966419E+01 -0.67406318501E+02  0.11177457685E+03  0.00000000000E+00 0.  1.
<mgrwt>
<rscale>  0 0.38768377E+03</rscale>
<asrwt>0</asrwt>
<pdfrwt beam="1">  1        1 0.82655465E-01 0.39008119E+03</pdfrwt>
<pdfrwt beam="2">  1       -1 0.53560396E-01 0.39008119E+03</pdfrwt>
<totfact> 0.14735556E+02</totfact>
</mgrwt>
</event>
<event>
 6    1  0.6101889E-006  0.2081786E+03  0.7546771E-02  0.1146717E+00
          1   -1    0    0  501    0  0.00000000000E+00  0.00000000000E+00  0.42809034937E+03  0.42809034937E+03  0.00000000000E+00 0. -1.
         -1   -1    0    0    0  501 -0.00000000000E+00 -0.00000000000E+00 -0.93029613644E+02  0.93029613644E+02  0.00000000000E+00 0.  1.
          5    1    1    2  502    0 -0.52614428246E+02  0.16711998772E+03  0.10774538742E+03  0.20573897751E+03  0.47000000000E+01 0. -1.
         -5    1    1    2    0  502 -0.12608566065E+02 -0.13958842535E+02  0.55570831374E+02  0.58856032169E+02  0.47000000000E+01 0. -1.
        -11    1    1    2    0    0  0.57543720358E+02 -0.13188618736E+03  0.85531783204E+02  0.16739454025E+03  0.00000000000E+00 0.  1.
         11    1    1    2    0    0  0.76792739528E+01 -0.21274957831E+02  0.86212733721E+02  0.89130413074E+02  0.00000000000E+00 0. -1.
<mgrwt>
<rscale>  0 0.20362386E+03</rscale>
<asrwt>0</asrwt>
<pdfrwt beam="1">  1        1 0.65860053E-01 0.20817861E+03</pdfrwt>
<pdfrwt beam="2">  1       -1 0.14312248E-01 0.20817861E+03</pdfrwt>
<totfact> 0.19076514E+03</totfact>
</mgrwt>
</event>
<event>
 6    1  0.6101889E-006  0.1891721E+03  0.7546771E-02  0.1170443E+00
         -1   -1    0    0    0  501 -0.00000000000E+00  0.00000000000E+00  0.18909237665E+03  0.18909237665E+03  0.00000000000E+00 0.  1.
          1   -1    0    0  501    0  0.00000000000E+00 -0.00000000000E+00 -0.17838966193E+03  0.17838966193E+03  0.00000000000E+00 0. -1.
          5    1    1    2  502    0  0.68530640254E+02 -0.27371851260E+02  0.76685651453E+01  0.74340862159E+02  0.47000000000E+01 0. -1.
         -5    1    1    2    0  502 -0.52953387708E+02 -0.86288548112E+02 -0.76437543385E+02  0.12694314808E+03  0.47000000000E+01 0.  1.
        -11    1    1    2    0    0 -0.21741606042E+02  0.57412033909E+02 -0.81129270367E+01  0.61924620758E+02  0.00000000000E+00 0. -1.
         11    1    1    2    0    0  0.61643534958E+01  0.56248365463E+02  0.87584619989E+02  0.10427340759E+03  0.00000000000E+00 0.  1.
<mgrwt>
<rscale>  0 0.17729873E+03</rscale>
<asrwt>0</asrwt>
<pdfrwt beam="2">  1        1 0.27444564E-01 0.18917209E+03</pdfrwt>
<pdfrwt beam="1">  1       -1 0.29091135E-01 0.18917209E+03</pdfrwt>
<totfact> 0.18067849E+03</totfact>
</mgrwt>
</event>
<event>
 6    1  0.6101889E-006  0.2052430E+03  0.7546771E-02  0.1149222E+00
          1   -1    0    0  501    0  0.00000000000E+00  0.00000000000E+00  0.16947222335E+03  0.16947222335E+03  0.00000000000E+00 0. -1.
         -1   -1    0    0    0  501 -0.00000000000E+00 -0.00000000000E+00 -0.37665692448E+03  0.37665692448E+03  0.00000000000E+00 0.  1.
          5    1    1    2  502    0  0.92561097794E+01  0.51721014406E+02  0.86724506086E+02  0.10150846691E+03  0.47000000000E+01 0. -1.
         -5    1    1    2    0  502  0.50606928195E+02  0.99659736087E+02 -0.21358562978E+02  0.11389206465E+03  0.47000000000E+01 0. -1.
        -11    1    1    2    0    0 -0.75161806654E+02 -0.93059924662E+02 -0.22144794657E+03  0.25169155687E+03  0.00000000000E+00 0.  1.
         11    1    1    2    0    0  0.15298768680E+02 -0.58320825832E+02 -0.51102697675E+02  0.79037059399E+02  0.00000000000E+00 0. -1.
<mgrwt>
<rscale>  0 0.20061383E+03</rscale>
<asrwt>0</asrwt>
<pdfrwt beam="1">  1        1 0.26072650E-01 0.20524298E+03</pdfrwt>
<pdfrwt beam="2">  1       -1 0.57947218E-01 0.20524298E+03</pdfrwt>
<totfact> 0.56515758E+02</totfact>
</mgrwt>
</event>
<event>
 6    1  0.6101889E-006  0.1419382E+03  0.7546771E-02  0.1221364E+00
          1   -1    0    0  501    0  0.00000000000E+00  0.00000000000E+00  0.10550425834E+04  0.10550425834E+04  0.00000000000E+00 0. -1.
         -1   -1    0    0    0  501 -0.00000000000E+00 -0.00000000000E+00 -0.15817094391E+02  0.15817094391E+02  0.00000000000E+00 0.  1.
          5    1    1    2  502    0 -0.25175491330E+02 -0.10275161461E+02  0.20631908767E+02  0.34455042680E+02  0.47000000000E+01 0. -1.
         -5    1    1    2    0  502 -0.40668053156E+02 -0.33364694645E+01  0.63685579020E+03  0.63817897967E+03  0.47000000000E+01 0. -1.
        -11    1    1    2    0    0  0.49727174737E+02  0.50897644352E+02  0.20919103899E+03  0.22096210739E+03  0.00000000000E+00 0.  1.
         11    1    1    2    0    0  0.16116369749E+02 -0.37286013427E+02  0.17254675107E+03  0.17726354808E+03  0.00000000000E+00 0. -1.
<mgrwt>
<rscale>  0 0.13419283E+03</rscale>
<asrwt>0</asrwt>
<pdfrwt beam="1">  1        1 0.16231419E+00 0.14193820E+03</pdfrwt>
<pdfrwt beam="2">  1       -1 0.24334000E-02 0.14193820E+03</pdfrwt>
<totfact> 0.72755462E+03</totfact>
</mgrwt>
</event>
<event>
 6    1  0.6101889E-006  0.1379691E+03  0.7546771E-02  0.1228625E+00
         -1   -1    0    0    0  501 -0.00000000000E+00  0.00000000000E+00  0.23090350558E+03  0.23090350558E+03  0.00000000000E+00 0.  1.
          1   -1    0    0  501    0  0.00000000000E+00 -0.00000000000E+00 -0.66224811348E+02  0.66224811348E+02  0.00000000000E+00 0. -1.
          5    1    1    2  502    0 -0.23136719388E+01 -0.38228396142E+02  0.99526497435E+02  0.10674444735E+03  0.47000000000E+01 0. -1.
         -5    1    1    2    0  502  0.34926326047E+02 -0.10064514071E+02 -0.30359556570E+02  0.47591337130E+02  0.47000000000E+01 0. -1.
        -11    1    1    2    0    0  0.16896880717E+02 -0.62153880793E+01 -0.45368907923E+01  0.18566609949E+02  0.00000000000E+00 0. -1.
         11    1    1    2    0    0 -0.49509534825E+02  0.54508298292E+02  0.10004864416E+03  0.12422592249E+03  0.00000000000E+00 0.  1.
<mgrwt>
<rscale>  0 0.12921514E+03</rscale>
<asrwt>0</asrwt>
<pdfrwt beam="2">  1        1 0.10188433E-01 0.13796909E+03</pdfrwt>
<pdfrwt beam="1">  1       -1 0.35523616E-01 0.13796909E+03</pdfrwt>
<totfact> 0.45606150E+03</totfact>
</mgrwt>
</event>
<event>
 6    1  0.6101889E-006  0.3768852E+03  0.7546771E-02  0.1052091E+00
         -2   -1    0    0    0  501 -0.00000000000E+00  0.00000000000E+00  0.69043614746E+02  0.69043614746E+02  0.00000000000E+00 0.  1.
          2   -1    0    0  501    0  0.00000000000E+00 -0.00000000000E+00 -0.51432145787E+03  0.51432145787E+03  0.00000000000E+00 0. -1.
          5    1    1    2  502    0  0.56126931995E+01 -0.22741379175E+02 -0.94154517243E+01  0.25679045599E+02  0.47000000000E+01 0.  1.
         -5    1    1    2    0  502 -0.12222696654E+03  0.19087406292E+02 -0.37903269311E+03  0.39873754887E+03  0.47000000000E+01 0.  1.
        -11    1    1    2    0    0  0.34421611786E+02  0.37215363701E+02 -0.47858703544E+02  0.69715752583E+02  0.00000000000E+00 0.  1.
         11    1    1    2    0    0  0.82192661550E+02 -0.33561390819E+02 -0.89709947474E+01  0.89232725572E+02  0.00000000000E+00 0. -1.
<mgrwt>
<rscale>  0 0.37688520E+03</rscale>
<asrwt>0</asrwt>
<pdfrwt beam="2">  1        2 0.79126374E-01 0.37688520E+03</pdfrwt>
<pdfrwt beam="1">  1       -2 0.10622095E-01 0.37688520E+03</pdfrwt>
<totfact> 0.36498779E+03</totfact>
</mgrwt>
</event>
<event>
 6    1  0.6101889E-006  0.3786219E+03  0.7546771E-02  0.1051444E+00
          1   -1    0    0  501    0  0.00000000000E+00  0.00000000000E+00  0.83137577063E+03  0.83137577063E+03  0.00000000000E+00 0. -1.
         -1   -1    0    0    0  501 -0.00000000000E+00 -0.00000000000E+00 -0.43107629152E+02  0.43107629152E+02  0.00000000000E+00 0.  1.
          5    1    1    2  502    0  0.85652780006E+01  0.22242987849E+02  0.20353199632E+03  0.20497677435E+03  0.47000000000E+01 0.  1.
         -5    1    1    2    0  502  0.50471020456E+02 -0.13161519273E+03  0.42395214387E+03  0.44679681418E+03  0.47000000000E+01 0.  1.
        -11    1    1    2    0    0 -0.65575328967E+01  0.59289494710E+02  0.13165508418E+03  0.14453825310E+03  0.00000000000E+00 0.  1.
         11    1    1    2    0    0 -0.52478765560E+02  0.50082710169E+02  0.29128917109E+02  0.78171558156E+02  0.00000000000E+00 0. -1.
<mgrwt>
<rscale>  0 0.37862191E+03</rscale>
<asrwt>0</asrwt>
<pdfrwt beam="1">  1        1 0.12790395E+00 0.37862191E+03</pdfrwt>
<pdfrwt beam="2">  1       -1 0.66319436E-02 0.37862191E+03</pdfrwt>
<totfact> 0.24963689E+03</totfact>
</mgrwt>
</event>
<event>
 6    1  0.6101889E-006  0.1359878E+03  0.7546771E-02  0.1230639E+00
          2   -1    0    0  501    0  0.00000000000E+00  0.00000000000E+00  0.28772735721E+02  0.28772735721E+02  0.00000000000E+00 0. -1.
         -2   -1    0    0    0  501 -0.00000000000E+00 -0.00000000000E+00 -0.55875017633E+03  0.55875017633E+03  0.00000000000E+00 0.  1.
          5    1    1    2  502    0  0.57503281166E+01 -0.36965498252E+02 -0.16623755354E+03  0.17045975637E+03  0.47000000000E+01 0. -1.
         -5    1    1    2    0  502  0.46972555558E+02  0.46343541847E+02 -0.42372237064E+02  0.78559794554E+02  0.47000000000E+01 0. -1.
        -11    1    1    2    0    0  0.21004153315E+00  0.17281053612E+02 -0.70799990669E+01  0.18676330426E+02  0.00000000000E+00 0. -1.
         11    1    1    2    0    0 -0.52932925208E+02 -0.26659097207E+02 -0.31428765093E+03  0.31982703070E+03  0.00000000000E+00 0.  1.
<mgrwt>
<rscale>  0 0.12787781E+03</rscale>
<asrwt>0</asrwt>
<pdfrwt beam="1">  1        2 0.44265745E-02 0.13598784E+03</pdfrwt>
<pdfrwt beam="2">  1       -2 0.85961570E-01 0.13598784E+03</pdfrwt>
<totfact> 0.21531967E+03</totfact>
</mgrwt>
</event>
<event>
 6    1  0.6101889E-006  0.1273987E+03  0.7546771E-02  0.1245174E+00
         -2   -1    0    0    0  501 -0.00000000000E+00  0.00000000000E+00  0.30773548071E+02  0.30773548071E+02  0.00000000000E+00 0.  1.
          2   -1    0    0  501    0  0.00000000000E+00 -0.00000000000E+00 -0.41476234344E+03  0.41476234344E+03  0.00000000000E+00 0. -1.
          5    1    1    2  502    0 -0.19831704060E+02  0.18901094814E+02 -0.25379315091E+01  0.27911986089E+02  0.47000000000E+01 0.  1.
         -5    1    1    2    0  502  0.28787390499E+02 -0.41807146837E+02 -0.24768076389E+03  0.25287230410E+03  0.47000000000E+01 0.  1.
        -11    1    1    2    0    0  0.19644294172E+02  0.22273955282E+02 -0.13285071769E+03  0.13612986656E+03  0.00000000000E+00 0. -1.
         11    1    1    2    0    0 -0.28599980611E+02  0.63209674049E+00 -0.91938227555E+00  0.28621734766E+02  0.00000000000E+00 0.  1.
<mgrwt>
<rscale>  0 0.11874996E+03</rscale>
<asrwt>0</asrwt>
<pdfrwt beam="2">  1        2 0.63809589E-01 0.12739867E+03</pdfrwt>
<pdfrwt beam="1">  1       -2 0.47343922E-02 0.12739867E+03</pdfrwt>
<totfact> 0.15305261E+04</totfact>
</mgrwt>
</event>
<event>
 6    1  0.6101889E-006  0.1454062E+03  0.7546771E-02  0.1215657E+00
         -3   -1    0    0    0  501 -0.00000000000E+00  0.00000000000E+00  0.53507511211E+03  0.53507511211E+03  0.00000000000E+00 0.  1.
          3   -1    0    0  501    0  0.00000000000E+00 -0.00000000000E+00 -0.38363416166E+02  0.38363416166E+02  0.00000000000E+00 0. -1.
          5    1    1    2  502    0 -0.95453415121E+02  0.20531156950E+02  0.89180096304E+02  0.13231803521E+03  0.47000000000E+01 0. -1.
         -5    1    1    2    0  502  0.37006475192E+02  0.25314672191E+02  0.70156437723E+02  0.83392611113E+02  0.47000000000E+01 0. -1.
        -11    1    1    2    0    0  0.26280152056E+02 -0.65828908114E+02  0.28109303821E+03  0.28989202759E+03  0.00000000000E+00 0.  1.
         11    1    1    2    0    0  0.32166787873E+02  0.19983078973E+02  0.56282123708E+02  0.67835854358E+02  0.00000000000E+00 0. -1.
<mgrwt>
<rscale>  0 0.13828372E+03</rscale>
<asrwt>0</asrwt>
<pdfrwt beam="2">  1        3 0.59020644E-02 0.14540616E+03</pdfrwt>
<pdfrwt beam="1">  1       -3 0.82319242E-01 0.14540616E+03</pdfrwt>
<totfact> 0.57285972E+02</totfact>
</mgrwt>
</event>
<event>
 6    1  0.6101889E-006  0.1333764E+03  0.7546771E-02  0.1234922E+00
          2   -1    0    0  501    0  0.00000000000E+00  0.00000000000E+00  0.78892045130E+02  0.78892045130E+02  0.00000000000E+00 0. -1.
         -2   -1    0    0    0  501 -0.00000000000E+00 -0.00000000000E+00 -0.19498825874E+03  0.19498825874E+03  0.00000000000E+00 0.  1.
          5    1    1    2  502    0 -0.40501474942E+02 -0.64024915100E+01 -0.42601814345E+02  0.59315815391E+02  0.47000000000E+01 0.  1.
         -5    1    1    2    0  502  0.53067513398E+02  0.51162064730E+02  0.18679933240E+02  0.76188895198E+02  0.47000000000E+01 0.  1.
        -11    1    1    2    0    0  0.35629627570E+02 -0.64294403171E+01 -0.13899333414E+02  0.38781432838E+02  0.00000000000E+00 0.  1.
         11    1    1    2    0    0 -0.48195666026E+02 -0.38330132903E+02 -0.78274999092E+02  0.99594160446E+02  0.00000000000E+00 0. -1.
<mgrwt>
<rscale>  0 0.12509405E+03</rscale>
<asrwt>0</asrwt>
<pdfrwt beam="1">  1        2 0.12137238E-01 0.13337642E+03</pdfrwt>
<pdfrwt beam="2">  1       -2 0.29998193E-01 0.13337642E+03</pdfrwt>
<totfact> 0.49008066E+03</totfact>
</mgrwt>
</event>
<event>
 6    1  0.6101889E-006  0.1191208E+03  0.7546771E-02  0.1255440E+00
          1   -1    0    0  501    0  0.00000000000E+00  0.00000000000E+00  0.64151996039E+02  0.64151996039E+02  0.00000000000E+00 0. -1.
         -1   -1    0    0    0  501 -0.00000000000E+00 -0.00000000000E+00 -0.18482763913E+03  0.18482763913E+03  0.00000000000E+00 0.  1.
          5    1    1    2  502    0 -0.64681789803E+02  0.32039346774E+02 -0.47247584748E+02  0.86398367684E+02  0.47000000000E+01 0. -1.
         -5    1    1    2    0  502  0.40776453783E+02 -0.67734325722E+01  0.39983923679E+00  0.41603466723E+02  0.47000000000E+01 0.  1.
        -11    1    1    2    0    0  0.34443361141E+02 -0.45873926742E+02 -0.78637168673E+02  0.97337385307E+02  0.00000000000E+00 0.  1.
         11    1    1    2    0    0 -0.10538025121E+02  0.20608012540E+02  0.48092710969E+01  0.23640415453E+02  0.00000000000E+00 0. -1.
<mgrwt>
<rscale>  0 0.11281736E+03</rscale>
<asrwt>0</asrwt>
<pdfrwt beam="1">  1        1 0.98695381E-02 0.11912077E+03</pdfrwt>
<pdfrwt beam="2">  1       -1 0.28435021E-01 0.11912077E+03</pdfrwt>
<totfact> 0.68586473E+03</totfact>
</mgrwt>
</event>
<event>
 6    1  0.6101889E-006  0.1448028E+03  0.7546771E-02  0.1218731E+00
          2   -1    0    0  501    0  0.00000000000E+00  0.00000000000E+00  0.29721237595E+03  0.29721237595E+03  0.00000000000E+00 0. -1.
         -2   -1    0    0    0  501 -0.00000000000E+00 -0.00000000000E+00 -0.55849420177E+02  0.55849420177E+02  0.00000000000E+00 0.  1.
          5    1    1    2  502    0  0.34969505526E+02  0.33303963635E+02  0.15682745308E+03  0.16416138508E+03  0.47000000000E+01 0.  1.
         -5    1    1    2    0  502  0.10889690072E+02  0.23615851855E+02 -0.21473999589E+02  0.34051673484E+02  0.47000000000E+01 0.  1.
        -11    1    1    2    0    0 -0.29523916816E+02  0.16083986394E+02  0.54448225770E+02  0.63991918020E+02  0.00000000000E+00 0. -1.
         11    1    1    2    0    0 -0.16335278783E+02 -0.73003801884E+02  0.51561276510E+02  0.90856819545E+02  0.00000000000E+00 0.  1.
<mgrwt>
<rscale>  0 0.13605969E+03</rscale>
<asrwt>0</asrwt>
<pdfrwt beam="1">  1        2 0.45724980E-01 0.14480283E+03</pdfrwt>
<pdfrwt beam="2">  1       -2 0.85922187E-02 0.14480283E+03</pdfrwt>
<totfact> 0.88888970E+03</totfact>
</mgrwt>
</event>
<event>
 6    1  0.6101889E-006  0.1432619E+03  0.7546771E-02  0.1227311E+00
          1   -1    0    0  501    0  0.00000000000E+00  0.00000000000E+00  0.91769024540E+03  0.91769024540E+03  0.00000000000E+00 0. -1.
         -1   -1    0    0    0  501 -0.00000000000E+00 -0.00000000000E+00 -0.19613402440E+02  0.19613402440E+02  0.00000000000E+00 0.  1.
          5    1    1    2  502    0 -0.87636251017E+02 -0.14065266535E+02  0.47727476578E+03  0.48548041800E+03  0.47000000000E+01 0. -1.
         -5    1    1    2    0  502  0.53646058869E+02 -0.27565506577E+01  0.24465781237E+03  0.25052950596E+03  0.47000000000E+01 0.  1.
        -11    1    1    2    0    0 -0.49237726541E+01 -0.20521804363E+02  0.12565647684E+03  0.12741639676E+03  0.00000000000E+00 0. -1.
         11    1    1    2    0    0  0.38913964802E+02  0.37343621556E+02  0.50487787973E+02  0.73877327117E+02  0.00000000000E+00 0.  1.
<mgrwt>
<rscale>  0 0.13009773E+03</rscale>
<asrwt>0</asrwt>
<pdfrwt beam="1">  1        1 0.14118308E+00 0.14326186E+03</pdfrwt>
<pdfrwt beam="2">  1       -1 0.30174473E-02 0.14326186E+03</pdfrwt>
<totfact> 0.67238162E+03</totfact>
</mgrwt>
</event>
<event>
 6    1  0.6101889E-006  0.1547210E+03  0.7546771E-02  0.1200564E+00
         -1   -1    0    0    0  501 -0.00000000000E+00  0.00000000000E+00  0.64605016909E+02  0.64605016909E+02  0.00000000000E+00 0.  1.
          1   -1    0    0  501    0  0.00000000000E+00 -0.00000000000E+00 -0.38801392555E+03  0.38801392555E+03  0.00000000000E+00 0. -1.
          5    1    1    2  502    0  0.64344310508E+02  0.32717503053E+02 -0.17054472774E+03  0.18525177316E+03  0.47000000000E+01 0. -1.
         -5    1    1    2    0  502  0.35263722214E+02 -0.66877405793E+02 -0.88612949060E+02  0.11657813796E+03  0.47000000000E+01 0.  1.
        -11    1    1    2    0    0 -0.18221355484E+02  0.41058313925E+02 -0.51136611935E+02  0.68064352037E+02  0.00000000000E+00 0. -1.
         11    1    1    2    0    0 -0.81386677238E+02 -0.68984111844E+01 -0.13114619904E+02  0.82724679292E+02  0.00000000000E+00 0.  1.
<mgrwt>
<rscale>  0 0.14992625E+03</rscale>
<asrwt>0</asrwt>
<pdfrwt beam="2">  1        1 0.59694449E-01 0.15472102E+03</pdfrwt>
<pdfrwt beam="1">  1       -1 0.99392335E-02 0.15472102E+03</pdfrwt>
<totfact> 0.37726497E+03</totfact>
</mgrwt>
</event>
<event>
 6    1  0.6101889E-006  0.1260208E+03  0.7546771E-02  0.1248572E+00
         -2   -1    0    0    0  501 -0.00000000000E+00  0.00000000000E+00  0.11643670494E+03  0.11643670494E+03  0.00000000000E+00 0.  1.
          2   -1    0    0  501    0  0.00000000000E+00 -0.00000000000E+00 -0.10357763638E+03  0.10357763638E+03  0.00000000000E+00 0. -1.
          5    1    1    2  502    0  0.28370295741E+02  0.62093106026E+02  0.15993203139E+02  0.70273039233E+02  0.47000000000E+01 0.  1.
         -5    1    1    2    0  502 -0.24205568048E+02 -0.46686522866E+02 -0.17940501523E+02  0.55762823967E+02  0.47000000000E+01 0.  1.
        -11    1    1    2    0    0 -0.33834430349E+02 -0.39315528658E+02 -0.29218773908E+01  0.51952062887E+02  0.00000000000E+00 0. -1.
         11    1    1    2    0    0  0.29669702657E+02  0.23908945498E+02  0.17728244327E+02  0.42026415235E+02  0.00000000000E+00 0.  1.
<mgrwt>
<rscale>  0 0.11674124E+03</rscale>
<asrwt>0</asrwt>
<pdfrwt beam="2">  1        2 0.15935021E-01 0.12602082E+03</pdfrwt>
<pdfrwt beam="1">  1       -2 0.17913339E-01 0.12602082E+03</pdfrwt>
<totfact> 0.86237269E+03</totfact>
</mgrwt>
</event>
<event>
 6    1  0.6101889E-006  0.1308995E+03  0.7546771E-02  0.1239655E+00
         -2   -1    0    0    0  501 -0.00000000000E+00  0.00000000000E+00  0.45195296667E+03  0.45195296667E+03  0.00000000000E+00 0.  1.
          2   -1    0    0  501    0  0.00000000000E+00 -0.00000000000E+00 -0.29289035551E+02  0.29289035551E+02  0.00000000000E+00 0. -1.
          5    1    1    2  502    0 -0.39084019172E+02 -0.35253850023E+02  0.23691653029E+03  0.24273839174E+03  0.47000000000E+01 0.  1.
         -5    1    1    2    0  502  0.20954489367E+00  0.34874044249E+02  0.97610312220E+01  0.36518633625E+02  0.47000000000E+01 0.  1.
        -11    1    1    2    0    0  0.36440623359E+02  0.33886534003E+02  0.46133067218E+02  0.67856290117E+02  0.00000000000E+00 0. -1.
         11    1    1    2    0    0  0.24338509196E+01 -0.33506728229E+02  0.12985330239E+03  0.13412868674E+03  0.00000000000E+00 0.  1.
<mgrwt>
<rscale>  0 0.12211092E+03</rscale>
<asrwt>0</asrwt>
<pdfrwt beam="2">  1        2 0.45060058E-02 0.13089945E+03</pdfrwt>
<pdfrwt beam="1">  1       -2 0.69531221E-01 0.13089945E+03</pdfrwt>
<totfact> 0.33247436E+03</totfact>
</mgrwt>
</event>
<event>
 6    1  0.6101889E-006  0.2563035E+03  0.7546771E-02  0.1124747E+00
         -2   -1    0    0    0  501 -0.00000000000E+00  0.00000000000E+00  0.15334573690E+03  0.15334573690E+03  0.00000000000E+00 0.  1.
          2   -1    0    0  501    0  0.00000000000E+00 -0.00000000000E+00 -0.63086245078E+03  0.63086245078E+03  0.00000000000E+00 0. -1.
          5    1    1    2  502    0 -0.10437829067E+03 -0.76733487207E+02 -0.26206326091E+03  0.29237321755E+03  0.47000000000E+01 0. -1.
         -5    1    1    2    0  502  0.10358974219E+03 -0.72397803459E+02 -0.27908024475E+03  0.30639867761E+03  0.47000000000E+01 0.  1.
        -11    1    1    2    0    0 -0.19485390995E+02  0.24602775793E+02 -0.17013311067E+02  0.35699156747E+02  0.00000000000E+00 0. -1.
         11    1    1    2    0    0  0.20273939474E+02  0.12452851487E+03  0.80640102849E+02  0.14973713576E+03  0.00000000000E+00 0.  1.
<mgrwt>
<rscale>  0 0.23270983E+03</rscale>
<asrwt>0</asrwt>
<pdfrwt beam="2">  1        2 0.97055762E-01 0.25630351E+03</pdfrwt>
<pdfrwt beam="1">  1       -2 0.23591652E-01 0.25630351E+03</pdfrwt>
<totfact> 0.75191749E+02</totfact>
</mgrwt>
</event>
<event>
 6    1  0.6101889E-006  0.1853887E+03  0.7546771E-02  0.1167355E+00
         -1   -1    0    0    0  501 -0.00000000000E+00  0.00000000000E+00  0.22669166478E+02  0.22669166478E+02  0.00000000000E+00 0.  1.
          1   -1    0    0  501    0  0.00000000000E+00 -0.00000000000E+00 -0.15951701427E+04  0.15951701427E+04  0.00000000000E+00 0. -1.
          5    1    1    2  502    0  0.54887423924E+02 -0.56583369294E+01 -0.49871521257E+03  0.50178042940E+03  0.47000000000E+01 0. -1.
         -5    1    1    2    0  502 -0.92327500723E+01 -0.12342902968E+03 -0.63045185537E+03  0.64250416417E+03  0.47000000000E+01 0. -1.
        -11    1    1    2    0    0 -0.25223550149E+02  0.11936134356E+02 -0.21353458132E+02  0.35137856503E+02  0.00000000000E+00 0.  1.
         11    1    1    2    0    0 -0.20431123703E+02  0.11715123225E+03 -0.42198045013E+03  0.43841685908E+03  0.00000000000E+00 0. -1.
<mgrwt>
<rscale>  0 0.18046386E+03</rscale>
<asrwt>0</asrwt>
<pdfrwt beam="2">  1        1 0.24541080E+00 0.18538868E+03</pdfrwt>
<pdfrwt beam="1">  1       -1 0.34875639E-02 0.18538868E+03</pdfrwt>
<totfact> 0.18701423E+03</totfact>
</mgrwt>
</event>
<event>
 6    1  0.6101889E-006  0.1910316E+03  0.7546771E-02  0.1161374E+00
          2   -1    0    0  501    0  0.00000000000E+00  0.00000000000E+00  0.17834090637E+04  0.17834090637E+04  0.00000000000E+00 0. -1.
         -2   -1    0    0    0  501 -0.00000000000E+00 -0.00000000000E+00 -0.19389184655E+02  0.19389184655E+02  0.00000000000E+00 0.  1.
          5    1    1    2  502    0  0.48143294293E+02  0.10108985483E+03  0.39134407621E+03  0.40707396320E+03  0.47000000000E+01 0.  1.
         -5    1    1    2    0  502 -0.35594787192E+01  0.36315173886E+02  0.69248335831E+03  0.69345998679E+03  0.47000000000E+01 0.  1.
        -11    1    1    2    0    0  0.14639532401E+02 -0.24586284705E+02  0.38086411008E+02  0.47637968135E+02  0.00000000000E+00 0.  1.
         11    1    1    2    0    0 -0.59223347975E+02 -0.11281874401E+03  0.64210603353E+03  0.65462633024E+03  0.00000000000E+00 0. -1.
<mgrwt>
<rscale>  0 0.18680573E+03</rscale>
<asrwt>0</asrwt>
<pdfrwt beam="1">  1        2 0.27437050E+00 0.19103159E+03</pdfrwt>
<pdfrwt beam="2">  1       -2 0.29829529E-02 0.19103159E+03</pdfrwt>
<totfact> 0.41135384E+03</totfact>
</mgrwt>
</event>
<event>
 6    1  0.6101889E-006  0.2294073E+03  0.7546771E-02  0.1129781E+00
         -1   -1    0    0    0  501 -0.00000000000E+00  0.00000000000E+00  0.29031620539E+02  0.29031620539E+02  0.00000000000E+00 0.  1.
          1   -1    0    0  501    0  0.00000000000E+00 -0.00000000000E+00 -0.17072014424E+04  0.17072014424E+04  0.00000000000E+00 0. -1.
          5    1    1    2  502    0 -0.14359043997E+02  0.20247781209E+03 -0.68429676716E+03  0.71378400240E+03  0.47000000000E+01 0. -1.
         -5    1    1    2    0  502 -0.21043371493E+02 -0.13402697022E+02 -0.11587968543E+03  0.11862818918E+03  0.47000000000E+01 0. -1.
        -11    1    1    2    0    0 -0.23494010345E+02 -0.12418822729E+03 -0.54848471368E+03  0.56285892145E+03  0.00000000000E+00 0. -1.
         11    1    1    2    0    0  0.58896425835E+02 -0.64886887780E+02 -0.32950865563E+03  0.34096194995E+03  0.00000000000E+00 0.  1.
<mgrwt>
<rscale>  0 0.22559190E+03</rscale>
<asrwt>0</asrwt>
<pdfrwt beam="2">  1        1 0.26264648E+00 0.22940728E+03</pdfrwt>
<pdfrwt beam="1">  1       -1 0.44664014E-02 0.22940728E+03</pdfrwt>
<totfact> 0.10936733E+03</totfact>
</mgrwt>
</event>
<event>
 6    1  0.6101889E-006  0.2972973E+03  0.7546771E-02  0.1122506E+00
          1   -1    0    0  501    0  0.00000000000E+00  0.00000000000E+00  0.69721951348E+03  0.69721951348E+03  0.00000000000E+00 0. -1.
         -1   -1    0    0    0  501 -0.00000000000E+00 -0.00000000000E+00 -0.78307975867E+02  0.78307975867E+02  0.00000000000E+00 0.  1.
          5    1    1    2  502    0  0.79889149067E+01  0.13919890621E+03  0.32958734524E+03  0.35789672587E+03  0.47000000000E+01 0. -1.
         -5    1    1    2    0  502  0.54306991307E+02 -0.14372513047E+03  0.24958509984E+03  0.29312279764E+03  0.47000000000E+01 0.  1.
        -11    1    1    2    0    0 -0.22122612085E+02 -0.47336924774E+02  0.14587993810E+02  0.54249460605E+02  0.00000000000E+00 0.  1.
         11    1    1    2    0    0 -0.40173294129E+02  0.51863149042E+02  0.25151098727E+02  0.70258505228E+02  0.00000000000E+00 0. -1.
<mgrwt>
<rscale>  0 0.23597174E+03</rscale>
<asrwt>0</asrwt>
<pdfrwt beam="1">  1        1 0.10726454E+00 0.29729732E+03</pdfrwt>
<pdfrwt beam="2">  1       -1 0.12047381E-01 0.29729732E+03</pdfrwt>
<totfact> 0.12919262E+03</totfact>
</mgrwt>
</event>
<event>
 6    1  0.6101889E-006  0.1295151E+03  0.7546771E-02  0.1245396E+00
          2   -1    0    0  501    0  0.00000000000E+00  0.00000000000E+00  0.28763458554E+03  0.28763458554E+03  0.00000000000E+00 0. -1.
         -2   -1    0    0    0  501 -0.00000000000E+00 -0.00000000000E+00 -0.43107944177E+02  0.43107944177E+02  0.00000000000E+00 0.  1.
          5    1    1    2  502    0 -0.44990903961E+02 -0.12040559043E+02  0.84831783761E+02  0.96890030639E+02  0.47000000000E+01 0.  1.
         -5    1    1    2    0  502  0.72974269240E+02  0.31146558833E+02  0.80447975059E+02  0.11308987041E+03  0.47000000000E+01 0.  1.
        -11    1    1    2    0    0 -0.28332379929E+02 -0.46892379760E+01  0.95094237288E+02  0.99335928398E+02  0.00000000000E+00 0. -1.
         11    1    1    2    0    0  0.34901464962E+00 -0.14416761813E+02 -0.15847354740E+02  0.21426700275E+02  0.00000000000E+00 0.  1.
<mgrwt>
<rscale>  0 0.11861735E+03</rscale>
<asrwt>0</asrwt>
<pdfrwt beam="1">  1        2 0.44251474E-01 0.12951510E+03</pdfrwt>
<pdfrwt beam="2">  1       -2 0.66319916E-02 0.12951510E+03</pdfrwt>
<totfact> 0.13591239E+04</totfact>
</mgrwt>
</event>
<event>
 6    1  0.6101889E-006  0.3352413E+03  0.7546771E-02  0.1068841E+00
          2   -1    0    0  501    0  0.00000000000E+00  0.00000000000E+00  0.10305743806E+03  0.10305743806E+03  0.00000000000E+00 0. -1.
         -2   -1    0    0    0  501 -0.00000000000E+00 -0.00000000000E+00 -0.27263129117E+03  0.27263129117E+03  0.00000000000E+00 0.  1.
          5    1    1    2  502    0  0.11877549167E+03 -0.88782152188E+02 -0.47492326502E+02  0.15578029094E+03  0.47000000000E+01 0. -1.
         -5    1    1    2    0  502 -0.21451026486E+02  0.74248929635E+01 -0.31322018862E+02  0.38967094303E+02  0.47000000000E+01 0. -1.
        -11    1    1    2    0    0 -0.99025711738E+01  0.62400282951E+02 -0.18173592482E+02  0.65742951652E+02  0.00000000000E+00 0. -1.
         11    1    1    2    0    0 -0.87421894013E+02  0.18956976273E+02 -0.72585915264E+02  0.11519839234E+03  0.00000000000E+00 0.  1.
<mgrwt>
<rscale>  0 0.33524130E+03</rscale>
<asrwt>0</asrwt>
<pdfrwt beam="1">  1        2 0.15854991E-01 0.33524130E+03</pdfrwt>
<pdfrwt beam="2">  1       -2 0.41943275E-01 0.33524130E+03</pdfrwt>
<totfact> 0.19902398E+03</totfact>
</mgrwt>
</event>
<event>
 6    1  0.6101889E-006  0.1297144E+03  0.7546771E-02  0.1241254E+00
          3   -1    0    0  501    0  0.00000000000E+00  0.00000000000E+00  0.10118211441E+03  0.10118211441E+03  0.00000000000E+00 0. -1.
         -3   -1    0    0    0  501 -0.00000000000E+00 -0.00000000000E+00 -0.18313401012E+03  0.18313401012E+03  0.00000000000E+00 0.  1.
          5    1    1    2  502    0  0.14938145032E+00  0.73342888881E+02  0.24527586130E+02  0.77478346301E+02  0.47000000000E+01 0. -1.
         -5    1    1    2    0  502 -0.25170132809E+02 -0.49383136793E+02  0.74848025117E+01  0.56127907976E+02  0.47000000000E+01 0. -1.
        -11    1    1    2    0    0  0.98201747142E+01 -0.30698495666E+02 -0.12608132976E+03  0.13013583358E+03  0.00000000000E+00 0.  1.
         11    1    1    2    0    0  0.15200576644E+02  0.67387435783E+01  0.12117045416E+02  0.20574036671E+02  0.00000000000E+00 0. -1.
<mgrwt>
<rscale>  0 0.12112418E+03</rscale>
<asrwt>0</asrwt>
<pdfrwt beam="1">  1        3 0.15566479E-01 0.12971445E+03</pdfrwt>
<pdfrwt beam="2">  1       -3 0.28174463E-01 0.12971445E+03</pdfrwt>
<totfact> 0.96186193E+02</totfact>
</mgrwt>
</event>
<event>
 6    1  0.6101889E-006  0.1395684E+03  0.7546771E-02  0.1221136E+00
          2   -1    0    0  501    0  0.00000000000E+00  0.00000000000E+00  0.28736190965E+03  0.28736190965E+03  0.00000000000E+00 0. -1.
         -2   -1    0    0    0  501 -0.00000000000E+00 -0.00000000000E+00 -0.64048725121E+02  0.64048725121E+02  0.00000000000E+00 0.  1.
          5    1    1    2  502    0  0.29933269556E+02  0.38688484909E+02  0.37257800613E+01  0.49282562108E+02  0.47000000000E+01 0.  1.
         -5    1    1    2    0  502 -0.29298280244E+02  0.23398233776E+02  0.16704957910E+03  0.17127030813E+03  0.47000000000E+01 0.  1.
        -11    1    1    2    0    0  0.23705401252E+02 -0.29092878780E+02 -0.23635747406E+02  0.44350763236E+02  0.00000000000E+00 0.  1.
         11    1    1    2    0    0 -0.24340390564E+02 -0.32993839905E+02  0.76173572781E+02  0.86507001304E+02  0.00000000000E+00 0. -1.
<mgrwt>
<rscale>  0 0.13435321E+03</rscale>
<asrwt>0</asrwt>
<pdfrwt beam="1">  1        2 0.44209524E-01 0.13956843E+03</pdfrwt>
<pdfrwt beam="2">  1       -2 0.98536502E-02 0.13956843E+03</pdfrwt>
<totfact> 0.74188302E+03</totfact>
</mgrwt>
</event>
<event>
 6    1  0.6101889E-006  0.1643278E+03  0.7546771E-02  0.1190574E+00
         -2   -1    0    0    0  501 -0.00000000000E+00  0.00000000000E+00  0.26576363529E+02  0.26576363529E+02  0.00000000000E+00 0.  1.
          2   -1    0    0  501    0  0.00000000000E+00 -0.00000000000E+00 -0.11319135088E+04  0.11319135088E+04  0.00000000000E+00 0. -1.
          5    1    1    2  502    0 -0.16014464181E+02 -0.82705956355E+02 -0.33426171275E+03  0.34474587871E+03  0.47000000000E+01 0.  1.
         -5    1    1    2    0  502 -0.70429293084E+02  0.20202733686E+02 -0.52243313796E+03  0.52756697149E+03  0.47000000000E+01 0.  1.
        -11    1    1    2    0    0  0.49903760971E+02 -0.13823081537E+02 -0.13422092077E+03  0.14386354129E+03  0.00000000000E+00 0. -1.
         11    1    1    2    0    0  0.36539996294E+02  0.76326304206E+02 -0.11442137378E+03  0.14231348081E+03  0.00000000000E+00 0.  1.
<mgrwt>
<rscale>  0 0.15834830E+03</rscale>
<asrwt>0</asrwt>
<pdfrwt beam="2">  1        2 0.17414052E+00 0.16432785E+03</pdfrwt>
<pdfrwt beam="1">  1       -2 0.40886718E-02 0.16432785E+03</pdfrwt>
<totfact> 0.57213972E+03</totfact>
</mgrwt>
</event>
<event>
 6    1  0.6101889E-006  0.2256681E+03  0.7546771E-02  0.1132727E+00
          4   -1    0    0  501    0  0.00000000000E+00  0.00000000000E+00  0.68607467958E+03  0.68607467958E+03  0.00000000000E+00 0. -1.
         -4   -1    0    0    0  501 -0.00000000000E+00 -0.00000000000E+00 -0.72859492331E+02  0.72859492331E+02  0.00000000000E+00 0.  1.
          5    1    1    2  502    0 -0.90659464286E+02 -0.94675264640E+02  0.14714139715E+03  0.19711728730E+03  0.47000000000E+01 0. -1.
         -5    1    1    2    0  502 -0.67217369230E+02 -0.72134094554E+01  0.25675229049E+03  0.26554479222E+03  0.47000000000E+01 0. -1.
        -11    1    1    2    0    0  0.12686445860E+03  0.85676143096E+02  0.21163874340E+03  0.26120097638E+03  0.00000000000E+00 0. -1.
         11    1    1    2    0    0  0.31012374914E+02  0.16212531000E+02 -0.23172437950E+01  0.35071116008E+02  0.00000000000E+00 0.  1.
<mgrwt>
<rscale>  0 0.22155772E+03</rscale>
<asrwt>0</asrwt>
<pdfrwt beam="1">  1        4 0.10554995E+00 0.22566809E+03</pdfrwt>
<pdfrwt beam="2">  1       -4 0.11209153E-01 0.22566809E+03</pdfrwt>
<totfact> 0.84900650E+01</totfact>
</mgrwt>
</event>
<event>
 6    1  0.6101889E-006  0.1424664E+03  0.7546771E-02  0.1220075E+00
         -2   -1    0    0    0  501 -0.00000000000E+00  0.00000000000E+00  0.43120798986E+03  0.43120798986E+03  0.00000000000E+00 0.  1.
          2   -1    0    0  501    0  0.00000000000E+00 -0.00000000000E+00 -0.45642530496E+02  0.45642530496E+02  0.00000000000E+00 0. -1.
          5    1    1    2  502    0  0.44607558235E+02 -0.41035127873E+02  0.56528717366E+02  0.83013865458E+02  0.47000000000E+01 0.  1.
         -5    1    1    2    0  502  0.11295665365E+02  0.80347431272E+02  0.59556070774E+02  0.10075870848E+03  0.47000000000E+01 0.  1.
        -11    1    1    2    0    0 -0.20106255904E+02 -0.56985297595E+02  0.22647750102E+03  0.23440060609E+03  0.00000000000E+00 0.  1.
         11    1    1    2    0    0 -0.35796967696E+02  0.17672994197E+02  0.43003170198E+02  0.58677340321E+02  0.00000000000E+00 0. -1.
<mgrwt>
<rscale>  0 0.13510241E+03</rscale>
<asrwt>0</asrwt>
<pdfrwt beam="2">  1        2 0.70219281E-02 0.14246642E+03</pdfrwt>
<pdfrwt beam="1">  1       -2 0.66339688E-01 0.14246642E+03</pdfrwt>
<totfact> 0.20791737E+03</totfact>
</mgrwt>
</event>
<event>
 6    1  0.6101889E-006  0.2493087E+03  0.7546771E-02  0.1113742E+00
          1   -1    0    0  501    0  0.00000000000E+00  0.00000000000E+00  0.61661569610E+02  0.61661569610E+02  0.00000000000E+00 0. -1.
         -1   -1    0    0    0  501 -0.00000000000E+00 -0.00000000000E+00 -0.25199995586E+03  0.25199995586E+03  0.00000000000E+00 0.  1.
          5    1    1    2  502    0 -0.42965047831E+01  0.82409697875E+02 -0.34412868105E+02  0.89532975759E+02  0.47000000000E+01 0. -1.
         -5    1    1    2    0  502 -0.24037971752E+02 -0.28462519912E+02 -0.88259553240E+02  0.95915472494E+02  0.47000000000E+01 0. -1.
        -11    1    1    2    0    0  0.35087241378E+02 -0.14786621376E+02 -0.78308128644E+02  0.87074230923E+02  0.00000000000E+00 0.  1.
         11    1    1    2    0    0 -0.67527648425E+01 -0.39160556587E+02  0.10642163740E+02  0.41138846292E+02  0.00000000000E+00 0. -1.
<mgrwt>
<rscale>  0 0.24930875E+03</rscale>
<asrwt>0</asrwt>
<pdfrwt beam="1">  1        1 0.94863954E-02 0.24930875E+03</pdfrwt>
<pdfrwt beam="2">  1       -1 0.38769224E-01 0.24930875E+03</pdfrwt>
<totfact> 0.44532285E+03</totfact>
</mgrwt>
</event>
<event>
 6    1  0.6101889E-006  0.2602334E+03  0.7546771E-02  0.1145412E+00
          2   -1    0    0  501    0  0.00000000000E+00  0.00000000000E+00  0.20866203251E+04  0.20866203251E+04  0.00000000000E+00 0. -1.
         -2   -1    0    0    0  501 -0.00000000000E+00 -0.00000000000E+00 -0.19270898350E+02  0.19270898350E+02  0.00000000000E+00 0.  1.
          5    1    1    2  502    0 -0.67955736576E+02  0.33601468611E+01  0.15564165771E+04  0.15579101143E+04  0.47000000000E+01 0. -1.
         -5    1    1    2    0  502  0.91221120146E+02 -0.32648618481E+02  0.26884487030E+03  0.28580916595E+03  0.47000000000E+01 0.  1.
        -11    1    1    2    0    0 -0.23623217615E+02  0.62808088260E+02  0.15965580249E+03  0.17318454789E+03  0.00000000000E+00 0. -1.
         11    1    1    2    0    0  0.35783404458E+00 -0.33519616640E+02  0.82432176842E+02  0.88987395308E+02  0.00000000000E+00 0.  1.
<mgrwt>
<rscale>  0 0.20521556E+03</rscale>
<asrwt>0</asrwt>
<pdfrwt beam="1">  1        2 0.32101833E+00 0.26023342E+03</pdfrwt>
<pdfrwt beam="2">  1       -2 0.29647552E-02 0.26023342E+03</pdfrwt>
<totfact> 0.28818636E+03</totfact>
</mgrwt>
</event>
<event>
 6    1  0.6101889E-006  0.3772715E+03  0.7546771E-02  0.1065543E+00
         -2   -1    0    0    0  501 -0.00000000000E+00  0.00000000000E+00  0.21938418578E+03  0.21938418578E+03  0.00000000000E+00 0.  1.
          2   -1    0    0  501    0  0.00000000000E+00 -0.00000000000E+00 -0.47731711086E+03  0.47731711086E+03  0.00000000000E+00 0. -1.
          5    1    1    2  502    0  0.22315777258E+02  0.87497770198E+02 -0.23399598171E+03  0.25085865175E+03  0.47000000000E+01 0. -1.
         -5    1    1    2    0  502 -0.13554824592E+03  0.12525388765E+03  0.15240816635E+02  0.18524641922E+03  0.47000000000E+01 0.  1.
        -11    1    1    2    0    0  0.10142540286E+03 -0.99429092454E+02 -0.70063045889E+01  0.14220529201E+03  0.00000000000E+00 0.  1.
         11    1    1    2    0    0  0.11807065812E+02 -0.11332256539E+03 -0.32171455420E+02  0.11839093366E+03  0.00000000000E+00 0. -1.
<mgrwt>
<rscale>  0 0.34295844E+03</rscale>
<asrwt>0</asrwt>
<pdfrwt beam="2">  1        2 0.73433401E-01 0.37727153E+03</pdfrwt>
<pdfrwt beam="1">  1       -2 0.33751413E-01 0.37727153E+03</pdfrwt>
<totfact> 0.54059906E+02</totfact>
</mgrwt>
</event>
<event>
 6    1  0.6101889E-006  0.1379361E+03  0.7546771E-02  0.1227682E+00
          1   -1    0    0  501    0  0.00000000000E+00  0.00000000000E+00  0.23463794354E+02  0.23463794354E+02  0.00000000000E+00 0. -1.
         -1   -1    0    0    0  501 -0.00000000000E+00 -0.00000000000E+00 -0.64734803701E+03  0.64734803701E+03  0.00000000000E+00 0.  1.
          5    1    1    2  502    0 -0.81994992909E+02  0.17613199896E+01 -0.14017173755E+03  0.16246995758E+03  0.47000000000E+01 0.  1.
         -5    1    1    2    0  502  0.32778253828E+02  0.29569367241E+02 -0.19471261119E+03  0.19970941981E+03  0.47000000000E+01 0.  1.
        -11    1    1    2    0    0 -0.22105821388E+02 -0.24808908288E+02 -0.58692909338E+02  0.67446325891E+02  0.00000000000E+00 0.  1.
         11    1    1    2    0    0  0.71322560469E+02 -0.65217789418E+01 -0.23030698458E+03  0.24118612808E+03  0.00000000000E+00 0. -1.
<mgrwt>
<rscale>  0 0.12984789E+03</rscale>
<asrwt>0</asrwt>
<pdfrwt beam="1">  1        1 0.36098146E-02 0.13793612E+03</pdfrwt>
<pdfrwt beam="2">  1       -1 0.99592004E-01 0.13793612E+03</pdfrwt>
<totfact> 0.25834604E+03</totfact>
</mgrwt>
</event>
<event>
 6    1  0.6101889E-006  0.1493657E+03  0.7546771E-02  0.1220844E+00
         -1   -1    0    0    0  501 -0.00000000000E+00  0.00000000000E+00  0.63709880348E+02  0.63709880348E+02  0.00000000000E+00 0.  1.
          1   -1    0    0  501    0  0.00000000000E+00 -0.00000000000E+00 -0.49892197811E+03  0.49892197811E+03  0.00000000000E+00 0. -1.
          5    1    1    2  502    0  0.47154811930E+02 -0.62538502846E+02 -0.38909234878E+03  0.39692516487E+03  0.47000000000E+01 0. -1.
         -5    1    1    2    0  502 -0.15518687088E+02  0.41469037421E+02 -0.50379879171E+02  0.67236395938E+02  0.47000000000E+01 0.  1.
        -11    1    1    2    0    0 -0.68174245642E+01 -0.35734928372E+02  0.92880362102E+00  0.36391277246E+02  0.00000000000E+00 0.  1.
         11    1    1    2    0    0 -0.24818700278E+02  0.56804393798E+02  0.33313265637E+01  0.62079020408E+02  0.00000000000E+00 0. -1.
<mgrwt>
<rscale>  0 0.13455901E+03</rscale>
<asrwt>0</asrwt>
<pdfrwt beam="2">  1        1 0.76757226E-01 0.14936571E+03</pdfrwt>
<pdfrwt beam="1">  1       -1 0.98015202E-02 0.14936571E+03</pdfrwt>
<totfact> 0.27878371E+03</totfact>
</mgrwt>
</event>
<event>
 6    1  0.6101889E-006  0.3681032E+03  0.7546771E-02  0.1055421E+00
         -2   -1    0    0    0  501 -0.00000000000E+00  0.00000000000E+00  0.24204860995E+02  0.24204860995E+02  0.00000000000E+00 0.  1.
          2   -1    0    0  501    0  0.00000000000E+00 -0.00000000000E+00 -0.13995119055E+04  0.13995119055E+04  0.00000000000E+00 0. -1.
          5    1    1    2  502    0 -0.91368786079E+02 -0.69663959744E+02 -0.41006775203E+03  0.42588610404E+03  0.47000000000E+01 0.  1.
         -5    1    1    2    0  502 -0.28284907339E+02  0.13000959224E+02 -0.57544569277E+03  0.57630625214E+03  0.47000000000E+01 0.  1.
        -11    1    1    2    0    0  0.74036560024E+02  0.38240039335E+02 -0.11305145549E+03  0.14044338509E+03  0.00000000000E+00 0.  1.
         11    1    1    2    0    0  0.45617133393E+02  0.18422961185E+02 -0.27674214421E+03  0.28108102522E+03  0.00000000000E+00 0. -1.
<mgrwt>
<rscale>  0 0.36810320E+03</rscale>
<asrwt>0</asrwt>
<pdfrwt beam="2">  1        2 0.21530955E+00 0.36810320E+03</pdfrwt>
<pdfrwt beam="1">  1       -2 0.37238243E-02 0.36810320E+03</pdfrwt>
<totfact> 0.47492536E+03</totfact>
</mgrwt>
</event>
<event>
 6    1  0.6101889E-006  0.2416351E+03  0.7546771E-02  0.1118708E+00
          2   -1    0    0  501    0  0.00000000000E+00  0.00000000000E+00  0.21477300722E+03  0.21477300722E+03  0.00000000000E+00 0.  1.
         -2   -1    0    0    0  501 -0.00000000000E+00 -0.00000000000E+00 -0.67964247510E+02  0.67964247510E+02  0.00000000000E+00 0. -1.
          5    1    1    2  502    0 -0.12048770041E+02 -0.68382933769E+02  0.54773025175E+02  0.88563947390E+02  0.47000000000E+01 0.  1.
         -5    1    1    2    0  502  0.22306308489E+02  0.50978266039E+02  0.25761724889E+02  0.61498873779E+02  0.47000000000E+01 0.  1.
        -11    1    1    2    0    0 -0.50310804013E+02 -0.19244934382E+02  0.55467748791E+02  0.77318921719E+02  0.00000000000E+00 0. -1.
         11    1    1    2    0    0  0.40053265565E+02  0.36649602113E+02  0.10806260852E+02  0.55355511840E+02  0.00000000000E+00 0.  1.
<mgrwt>
<rscale>  0 0.24163514E+03</rscale>
<asrwt>0</asrwt>
<pdfrwt beam="1">  1        2 0.33042001E-01 0.24163514E+03</pdfrwt>
<pdfrwt beam="2">  1       -2 0.10456038E-01 0.24163514E+03</pdfrwt>
<totfact> 0.95710611E+03</totfact>
</mgrwt>
</event>
<event>
 6    1  0.6101889E-006  0.1301158E+03  0.7546771E-02  0.1237375E+00
          1   -1    0    0  501    0  0.00000000000E+00  0.00000000000E+00  0.42095892503E+03  0.42095892503E+03  0.00000000000E+00 0. -1.
         -1   -1    0    0    0  501 -0.00000000000E+00 -0.00000000000E+00 -0.40369093132E+02  0.40369093132E+02  0.00000000000E+00 0.  1.
          5    1    1    2  502    0  0.63670418120E+02  0.41204454464E+02  0.11984811531E+03  0.14190627172E+03  0.47000000000E+01 0. -1.
         -5    1    1    2    0  502 -0.30011328534E+02 -0.28154745189E+02  0.18445105920E+03  0.18904404978E+03  0.47000000000E+01 0. -1.
        -11    1    1    2    0    0  0.16541864349E+02  0.21693327117E+02 -0.59809026745E+01  0.27928568068E+02  0.00000000000E+00 0.  1.
         11    1    1    2    0    0 -0.50200953935E+02 -0.34743036392E+02  0.82271560063E+02  0.10244912859E+03  0.00000000000E+00 0. -1.
<mgrwt>
<rscale>  0 0.12353599E+03</rscale>
<asrwt>0</asrwt>
<pdfrwt beam="1">  1        1 0.64762908E-01 0.13011582E+03</pdfrwt>
<pdfrwt beam="2">  1       -1 0.62106300E-02 0.13011582E+03</pdfrwt>
<totfact> 0.68563647E+03</totfact>
</mgrwt>
</event>
<event>
 6    1  0.6101889E-006  0.1321980E+03  0.7546771E-02  0.1237757E+00
          1   -1    0    0  501    0  0.00000000000E+00  0.00000000000E+00  0.10624034568E+03  0.10624034568E+03  0.00000000000E+00 0. -1.
         -1   -1    0    0    0  501 -0.00000000000E+00 -0.00000000000E+00 -0.13312671683E+03  0.13312671683E+03  0.00000000000E+00 0.  1.
          5    1    1    2  502    0  0.20555946899E+02  0.11860969937E+02 -0.45267741353E+02  0.51327263398E+02  0.47000000000E+01 0. -1.
         -5    1    1    2    0  502 -0.58389137751E+02  0.85939656158E+01  0.55689820888E+02  0.81280955967E+02  0.47000000000E+01 0. -1.
        -11    1    1    2    0    0  0.62714224606E+02 -0.57586639227E+01 -0.46473746278E+01  0.63149301414E+02  0.00000000000E+00 0.  1.
         11    1    1    2    0    0 -0.24881033754E+02 -0.14696271630E+02 -0.32661076055E+02  0.43609541726E+02  0.00000000000E+00 0. -1.
<mgrwt>
<rscale>  0 0.12329594E+03</rscale>
<asrwt>0</asrwt>
<pdfrwt beam="1">  1        1 0.16344669E-01 0.13219803E+03</pdfrwt>
<pdfrwt beam="2">  1       -1 0.20481033E-01 0.13219803E+03</pdfrwt>
<totfact> 0.61184125E+03</totfact>
</mgrwt>
</event>
<event>
 6    1  0.6101889E-006  0.1301250E+03  0.7546771E-02  0.1241342E+00
          1   -1    0    0  501    0  0.00000000000E+00  0.00000000000E+00  0.23654657532E+03  0.23654657532E+03  0.00000000000E+00 0. -1.
         -1   -1    0    0    0  501 -0.00000000000E+00 -0.00000000000E+00 -0.55219151149E+02  0.55219151149E+02  0.00000000000E+00 0.  1.
          5    1    1    2  502    0 -0.42933577936E+02 -0.12547992563E+01  0.72147625361E+02  0.84096590185E+02  0.47000000000E+01 0.  1.
         -5    1    1    2    0  502  0.78718488712E+02 -0.43533350839E+01  0.44468935481E+02  0.90637344479E+02  0.47000000000E+01 0.  1.
        -11    1    1    2    0    0 -0.38756697242E+02  0.43609244051E+02  0.30599369179E+02  0.65879960094E+02  0.00000000000E+00 0. -1.
         11    1    1    2    0    0  0.29717864661E+01 -0.38001109710E+02  0.34111494146E+02  0.51151831706E+02  0.00000000000E+00 0.  1.
<mgrwt>
<rscale>  0 0.12107018E+03</rscale>
<asrwt>0</asrwt>
<pdfrwt beam="1">  1        1 0.36391780E-01 0.13012504E+03</pdfrwt>
<pdfrwt beam="2">  1       -1 0.84952541E-02 0.13012504E+03</pdfrwt>
<totfact> 0.87707120E+03</totfact>
</mgrwt>
</event>
<event>
 6    1  0.6101889E-006  0.2263129E+03  0.7546771E-02  0.1131768E+00
          1   -1    0    0  501    0  0.00000000000E+00  0.00000000000E+00  0.12941025845E+04  0.12941025845E+04  0.00000000000E+00 0. -1.
         -1   -1    0    0    0  501 -0.00000000000E+00 -0.00000000000E+00 -0.60560607480E+02  0.60560607480E+02  0.00000000000E+00 0.  1.
          5    1    1    2  502    0 -0.32910508145E+02 -0.20994650399E+02  0.40281883771E+03  0.40473322437E+03  0.47000000000E+01 0.  1.
         -5    1    1    2    0  502 -0.14890198186E+03  0.83723859562E+02  0.64568547761E+03  0.66791714371E+03  0.47000000000E+01 0. -1.
        -11    1    1    2    0    0  0.15804071309E+03 -0.52164374021E+02  0.19296267562E+03  0.25481872595E+03  0.00000000000E+00 0.  1.
         11    1    1    2    0    0  0.23771776918E+02 -0.10564835142E+02 -0.79250139032E+01  0.27194097977E+02  0.00000000000E+00 0. -1.
<mgrwt>
<rscale>  0 0.22286146E+03</rscale>
<asrwt>0</asrwt>
<pdfrwt beam="1">  1        1 0.19909269E+00 0.22631287E+03</pdfrwt>
<pdfrwt beam="2">  1       -1 0.93170175E-02 0.22631287E+03</pdfrwt>
<totfact> 0.67452124E+02</totfact>
</mgrwt>
</event>
<event>
 6    1  0.6101889E-006  0.1479096E+03  0.7546771E-02  0.1213061E+00
          1   -1    0    0  501    0  0.00000000000E+00  0.00000000000E+00  0.42843798030E+02  0.42843798030E+02  0.00000000000E+00 0. -1.
         -1   -1    0    0    0  501 -0.00000000000E+00 -0.00000000000E+00 -0.42255337305E+03  0.42255337305E+03  0.00000000000E+00 0.  1.
          5    1    1    2  502    0  0.11122276184E+02  0.75674786532E+02 -0.15765746644E+03  0.17529502294E+03  0.47000000000E+01 0.  1.
         -5    1    1    2    0  502  0.48681582264E+02 -0.23943946195E+02 -0.25504654618E+02  0.60131409582E+02  0.47000000000E+01 0.  1.
        -11    1    1    2    0    0  0.20230118831E+02 -0.29456580364E+02 -0.49046395237E+02  0.60683578671E+02  0.00000000000E+00 0.  1.
         11    1    1    2    0    0 -0.80033977279E+02 -0.22274259974E+02 -0.14750105872E+03  0.16928715988E+03  0.00000000000E+00 0. -1.
<mgrwt>
<rscale>  0 0.14019921E+03</rscale>
<asrwt>0</asrwt>
<pdfrwt beam="1">  1        1 0.65913533E-02 0.14790958E+03</pdfrwt>
<pdfrwt beam="2">  1       -1 0.65008214E-01 0.14790958E+03</pdfrwt>
<totfact> 0.27347455E+03</totfact>
</mgrwt>
</event>
<event>
 6    1  0.6101889E-006  0.1259433E+03  0.7546771E-02  0.1251744E+00
         -2   -1    0    0    0  501 -0.00000000000E+00  0.00000000000E+00  0.16037815180E+02  0.16037815180E+02  0.00000000000E+00 0. -1.
          2   -1    0    0  501    0  0.00000000000E+00 -0.00000000000E+00 -0.71169351169E+03  0.71169351169E+03  0.00000000000E+00 0.  1.
          5    1    1    2  502    0  0.46062358887E+02 -0.87617304906E+01 -0.27754582922E+03  0.28151782562E+03  0.47000000000E+01 0.  1.
         -5    1    1    2    0  502 -0.58546150162E+02  0.17685239356E+02 -0.10958544046E+03  0.12558454582E+03  0.47000000000E+01 0.  1.
        -11    1    1    2    0    0  0.14121329388E+02 -0.46339609152E+02 -0.20147684807E+03  0.20721894612E+03  0.00000000000E+00 0.  1.
         11    1    1    2    0    0 -0.16375381141E+01  0.37416100287E+02 -0.10704757876E+03  0.11341000931E+03  0.00000000000E+00 0. -1.
<mgrwt>
<rscale>  0 0.11490645E+03</rscale>
<asrwt>0</asrwt>
<pdfrwt beam="2">  1        2 0.10949132E+00 0.12594332E+03</pdfrwt>
<pdfrwt beam="1">  1       -2 0.24673559E-02 0.12594332E+03</pdfrwt>
<totfact> 0.21870224E+04</totfact>
</mgrwt>
</event>
<event>
 6    1  0.6101889E-006  0.1353275E+03  0.7546771E-02  0.1229086E+00
          4   -1    0    0  501    0  0.00000000000E+00  0.00000000000E+00  0.79576398902E+03  0.79576398902E+03  0.00000000000E+00 0. -1.
         -4   -1    0    0    0  501 -0.00000000000E+00 -0.00000000000E+00 -0.19321071115E+02  0.19321071115E+02  0.00000000000E+00 0.  1.
          5    1    1    2  502    0  0.83787388960E+02 -0.45416395619E+01  0.19526615448E+03  0.21258389902E+03  0.47000000000E+01 0.  1.
         -5    1    1    2    0  502 -0.31948548298E+02  0.25873958608E+01  0.27082428089E+03  0.27275499166E+03  0.47000000000E+01 0.  1.
        -11    1    1    2    0    0 -0.58895575198E+02  0.32384815291E+02  0.27250923227E+03  0.28067551855E+03  0.00000000000E+00 0. -1.
         11    1    1    2    0    0  0.70567345354E+01 -0.30430571590E+02  0.37843250266E+02  0.49070650905E+02  0.00000000000E+00 0.  1.
<mgrwt>
<rscale>  0 0.12890746E+03</rscale>
<asrwt>0</asrwt>
<pdfrwt beam="1">  1        4 0.12242520E+00 0.13532755E+03</pdfrwt>
<pdfrwt beam="2">  1       -4 0.29724731E-02 0.13532755E+03</pdfrwt>
<totfact> 0.48127064E+02</totfact>
</mgrwt>
</event>
<event>
 6    1  0.6101889E-006  0.3874462E+03  0.7546771E-02  0.1049084E+00
         -2   -1    0    0    0  501 -0.00000000000E+00  0.00000000000E+00  0.93855028490E+02  0.93855028490E+02  0.00000000000E+00 0. -1.
          2   -1    0    0  501    0  0.00000000000E+00 -0.00000000000E+00 -0.40044213970E+04  0.40044213970E+04  0.00000000000E+00 0.  1.
          5    1    1    2  502    0 -0.26923844580E+03 -0.12641061531E+03 -0.27556764159E+04  0.27716860542E+04  0.47000000000E+01 0.  1.
         -5    1    1    2    0  502 -0.84618842237E+02  0.30124968365E+02 -0.80987508088E+03  0.81485434208E+03  0.47000000000E+01 0.  1.
        -11    1    1    2    0    0  0.21284101977E+03  0.17316318403E+02 -0.22667963352E+03  0.31142384436E+03  0.00000000000E+00 0.  1.
         11    1    1    2    0    0  0.14101626827E+03  0.78969328540E+02 -0.11833523822E+03  0.20031218478E+03  0.00000000000E+00 0. -1.
<mgrwt>
<rscale>  0 0.38504740E+03</rscale>
<asrwt>0</asrwt>
<pdfrwt beam="2">  1        2 0.61606477E+00 0.38744618E+03</pdfrwt>
<pdfrwt beam="1">  1       -2 0.14439237E-01 0.38744618E+03</pdfrwt>
<totfact> 0.15404876E+01</totfact>
</mgrwt>
</event>
<event>
 6    1  0.6101889E-006  0.3706543E+03  0.7546771E-02  0.1054443E+00
         -3   -1    0    0    0  501 -0.00000000000E+00  0.00000000000E+00  0.20676499412E+03  0.20676499412E+03  0.00000000000E+00 0.  1.
          3   -1    0    0  501    0  0.00000000000E+00 -0.00000000000E+00 -0.16611204560E+03  0.16611204560E+03  0.00000000000E+00 0. -1.
          5    1    1    2  502    0 -0.30490138722E+01 -0.17316550291E+02  0.34510964450E+02  0.39016100098E+02  0.47000000000E+01 0. -1.
         -5    1    1    2    0  502  0.12372749146E+03  0.84320075430E+02 -0.30174516505E+01  0.14983177994E+03  0.47000000000E+01 0. -1.
        -11    1    1    2    0    0 -0.80597801941E+02 -0.68307068176E+02  0.58247879216E+02  0.12064276470E+03  0.00000000000E+00 0.  1.
         11    1    1    2    0    0 -0.40080675651E+02  0.13035430362E+01 -0.49088443499E+02  0.63386394993E+02  0.00000000000E+00 0. -1.
<mgrwt>
<rscale>  0 0.37065432E+03</rscale>
<asrwt>0</asrwt>
<pdfrwt beam="2">  1        3 0.25555699E-01 0.37065432E+03</pdfrwt>
<pdfrwt beam="1">  1       -3 0.31809999E-01 0.37065432E+03</pdfrwt>
<totfact> 0.36083712E+02</totfact>
</mgrwt>
</event>
<event>
 6    1  0.6101889E-006  0.1333390E+03  0.7546771E-02  0.1227982E+00
          2   -1    0    0  501    0  0.00000000000E+00  0.00000000000E+00  0.45342128467E+03  0.45342128467E+03  0.00000000000E+00 0. -1.
         -2   -1    0    0    0  501 -0.00000000000E+00 -0.00000000000E+00 -0.35659911711E+02  0.35659911711E+02  0.00000000000E+00 0.  1.
          5    1    1    2  502    0 -0.35093649182E+02 -0.88046498595E+02  0.22581426067E+03  0.24494472938E+03  0.47000000000E+01 0. -1.
         -5    1    1    2    0  502 -0.68428630160E+01  0.28462397358E+02  0.23676541575E+02  0.37942080315E+02  0.47000000000E+01 0.  1.
        -11    1    1    2    0    0  0.30753406876E+02  0.84089181722E+02  0.10877782003E+03  0.14088781582E+03  0.00000000000E+00 0.  1.
         11    1    1    2    0    0  0.11183105322E+02 -0.24505080486E+02  0.59492750684E+02  0.65306570866E+02  0.00000000000E+00 0. -1.
<mgrwt>
<rscale>  0 0.12964575E+03</rscale>
<asrwt>0</asrwt>
<pdfrwt beam="1">  1        2 0.69757117E-01 0.13333899E+03</pdfrwt>
<pdfrwt beam="2">  1       -2 0.54861406E-02 0.13333899E+03</pdfrwt>
<totfact> 0.11186459E+04</totfact>
</mgrwt>
</event>
<event>
 6    1  0.6101889E-006  0.2922604E+03  0.7546771E-02  0.1089175E+00
         -1   -1    0    0    0  501 -0.00000000000E+00  0.00000000000E+00  0.69600165354E+02  0.69600165354E+02  0.00000000000E+00 0.  1.
          1   -1    0    0  501    0  0.00000000000E+00 -0.00000000000E+00 -0.30681008936E+03  0.30681008936E+03  0.00000000000E+00 0. -1.
          5    1    1    2  502    0  0.63813920959E+02  0.68840037825E+02 -0.44486127552E+02  0.10398207952E+03  0.47000000000E+01 0.  1.
         -5    1    1    2    0  502  0.18640594989E+01 -0.45729536976E+01 -0.12732952220E+03  0.12751189689E+03  0.47000000000E+01 0.  1.
        -11    1    1    2    0    0  0.40145930612E+01 -0.57355061459E+02 -0.41536806125E+02  0.70929727868E+02  0.00000000000E+00 0. -1.
         11    1    1    2    0    0 -0.69692573519E+02 -0.69120226678E+01 -0.23857468127E+02  0.73986550443E+02  0.00000000000E+00 0.  1.
<mgrwt>
<rscale>  0 0.29226038E+03</rscale>
<asrwt>0</asrwt>
<pdfrwt beam="2">  1        1 0.47201553E-01 0.29226038E+03</pdfrwt>
<pdfrwt beam="1">  1       -1 0.10707718E-01 0.29226038E+03</pdfrwt>
<totfact> 0.46487940E+03</totfact>
</mgrwt>
</event>
<event>
 6    1  0.6101889E-006  0.3355813E+03  0.7546771E-02  0.1068694E+00
          2   -1    0    0  501    0  0.00000000000E+00  0.00000000000E+00  0.14051078062E+04  0.14051078062E+04  0.00000000000E+00 0. -1.
         -2   -1    0    0    0  501 -0.00000000000E+00 -0.00000000000E+00 -0.20036686230E+02  0.20036686230E+02  0.00000000000E+00 0.  1.
          5    1    1    2  502    0  0.68948856607E+01  0.59442701611E+01  0.48473164693E+03  0.48483990484E+03  0.47000000000E+01 0. -1.
         -5    1    1    2    0  502 -0.11930404442E+03 -0.16337118927E+02  0.50883961129E+03  0.52291509491E+03  0.47000000000E+01 0. -1.
        -11    1    1    2    0    0  0.66814806832E+02 -0.17563348427E+02  0.10332028316E+03  0.12428906039E+03  0.00000000000E+00 0.  1.
         11    1    1    2    0    0  0.45594351923E+02  0.27956197193E+02  0.28817957862E+03  0.29310043231E+03  0.00000000000E+00 0. -1.
<mgrwt>
<rscale>  0 0.33558131E+03</rscale>
<asrwt>0</asrwt>
<pdfrwt beam="1">  1        2 0.21617035E+00 0.33558131E+03</pdfrwt>
<pdfrwt beam="2">  1       -2 0.30825682E-02 0.33558131E+03</pdfrwt>
<totfact> 0.62642722E+03</totfact>
</mgrwt>
</event>
<event>
 6    1  0.6101889E-006  0.1473776E+03  0.7546771E-02  0.1224903E+00
          2   -1    0    0  501    0  0.00000000000E+00  0.00000000000E+00  0.78121779808E+02  0.78121779808E+02  0.00000000000E+00 0. -1.
         -2   -1    0    0    0  501 -0.00000000000E+00 -0.00000000000E+00 -0.25595385012E+03  0.25595385012E+03  0.00000000000E+00 0.  1.
          5    1    1    2  502    0  0.49145597998E+02 -0.30251963423E+02  0.42812123118E+02  0.72009992219E+02  0.47000000000E+01 0. -1.
         -5    1    1    2    0  502 -0.41466335832E+02  0.20632176178E+02 -0.60629703613E+02  0.76440791868E+02  0.47000000000E+01 0.  1.
        -11    1    1    2    0    0 -0.33891711843E+02  0.53955589303E+01 -0.13750782834E+02  0.36970856311E+02  0.00000000000E+00 0.  1.
         11    1    1    2    0    0  0.26212449676E+02  0.42242283151E+01 -0.14626370698E+03  0.14865398953E+03  0.00000000000E+00 0. -1.
<mgrwt>
<rscale>  0 0.13173572E+03</rscale>
<asrwt>0</asrwt>
<pdfrwt beam="1">  1        2 0.12018735E-01 0.14737764E+03</pdfrwt>
<pdfrwt beam="2">  1       -2 0.39377516E-01 0.14737764E+03</pdfrwt>
<totfact> 0.30225880E+03</totfact>
</mgrwt>
</event>
<event>
 6    1  0.6101889E-006  0.1512754E+03  0.7546771E-02  0.1206772E+00
          2   -1    0    0  501    0  0.00000000000E+00  0.00000000000E+00  0.81726671326E+02  0.81726671326E+02  0.00000000000E+00 0. -1.
         -2   -1    0    0    0  501 -0.00000000000E+00 -0.00000000000E+00 -0.25043165766E+03  0.25043165766E+03  0.00000000000E+00 0.  1.
          5    1    1    2  502    0  0.10908920662E+02  0.39856972987E+02 -0.80772882172E+02  0.90851149360E+02  0.47000000000E+01 0. -1.
         -5    1    1    2    0  502  0.64446917524E+02 -0.89990829229E-01  0.26534118111E+02  0.69853866755E+02  0.47000000000E+01 0. -1.
        -11    1    1    2    0    0 -0.43500995445E+02 -0.59700095505E+02 -0.11151381991E+03  0.13376012126E+03  0.00000000000E+00 0.  1.
         11    1    1    2    0    0 -0.31854842741E+02  0.19933113348E+02 -0.29524023564E+01  0.37693191607E+02  0.00000000000E+00 0. -1.
<mgrwt>
<rscale>  0 0.14498693E+03</rscale>
<asrwt>0</asrwt>
<pdfrwt beam="1">  1        2 0.12573334E-01 0.15127544E+03</pdfrwt>
<pdfrwt beam="2">  1       -2 0.38527947E-01 0.15127544E+03</pdfrwt>
<totfact> 0.29876513E+03</totfact>
</mgrwt>
</event>
<event>
 6    1  0.6101889E-006  0.1388047E+03  0.7546771E-02  0.1226126E+00
         -1   -1    0    0    0  501 -0.00000000000E+00  0.00000000000E+00  0.10352378447E+03  0.10352378447E+03  0.00000000000E+00 0.  1.
          1   -1    0    0  501    0  0.00000000000E+00 -0.00000000000E+00 -0.19080322262E+03  0.19080322262E+03  0.00000000000E+00 0. -1.
          5    1    1    2  502    0 -0.11220365773E+02  0.81672177028E+02 -0.30002134229E+02  0.87854761777E+02  0.47000000000E+01 0. -1.
         -5    1    1    2    0  502  0.26452638818E+02 -0.23276219655E+02 -0.85942908985E+02  0.93004290797E+02  0.47000000000E+01 0. -1.
        -11    1    1    2    0    0  0.16700869297E+02 -0.57982909916E+02 -0.12243182440E+02  0.61569736023E+02  0.00000000000E+00 0. -1.
         11    1    1    2    0    0 -0.31933142342E+02 -0.41304745713E+00  0.40908787497E+02  0.51898218491E+02  0.00000000000E+00 0.  1.
<mgrwt>
<rscale>  0 0.13090046E+03</rscale>
<asrwt>0</asrwt>
<pdfrwt beam="2">  1        1 0.29354342E-01 0.13880470E+03</pdfrwt>
<pdfrwt beam="1">  1       -1 0.15926736E-01 0.13880470E+03</pdfrwt>
<totfact> 0.43658201E+03</totfact>
</mgrwt>
</event>
<event>
 6    1  0.6101889E-006  0.1486438E+03  0.7546771E-02  0.1212194E+00
         -1   -1    0    0    0  501 -0.00000000000E+00  0.00000000000E+00  0.28285289341E+03  0.28285289341E+03  0.00000000000E+00 0.  1.
          1   -1    0    0  501    0  0.00000000000E+00 -0.00000000000E+00 -0.77207887051E+02  0.77207887051E+02  0.00000000000E+00 0. -1.
          5    1    1    2  502    0  0.67901734226E+02 -0.84616939905E+02  0.46555053182E+02  0.11815301522E+03  0.47000000000E+01 0. -1.
         -5    1    1    2    0  502 -0.22246992130E+02  0.24869126235E+02 -0.95569092173E+01  0.35026084742E+02  0.47000000000E+01 0.  1.
        -11    1    1    2    0    0 -0.57688115450E+02  0.72379873949E+02  0.10088830620E+03  0.13691316644E+03  0.00000000000E+00 0.  1.
         11    1    1    2    0    0  0.12033373354E+02 -0.12632060280E+02  0.67758556191E+02  0.69968514049E+02  0.00000000000E+00 0. -1.
<mgrwt>
<rscale>  0 0.14084707E+03</rscale>
<asrwt>0</asrwt>
<pdfrwt beam="2">  1        1 0.11878137E-01 0.14864378E+03</pdfrwt>
<pdfrwt beam="1">  1       -1 0.43515829E-01 0.14864378E+03</pdfrwt>
<totfact> 0.26211790E+03</totfact>
</mgrwt>
</event>
<event>
 6    1  0.6101889E-006  0.2672866E+03  0.7546771E-02  0.1102843E+00
          3   -1    0    0  501    0  0.00000000000E+00  0.00000000000E+00  0.24049333473E+03  0.24049333473E+03  0.00000000000E+00 0. -1.
         -3   -1    0    0    0  501 -0.00000000000E+00 -0.00000000000E+00 -0.74266231550E+02  0.74266231550E+02  0.00000000000E+00 0.  1.
          5    1    1    2  502    0  0.14491354355E+02 -0.84620980870E+02  0.12867733296E+03  0.15475999409E+03  0.47000000000E+01 0. -1.
         -5    1    1    2    0  502  0.23665033074E+02  0.18703029442E+02 -0.11621053219E+02  0.32664598247E+02  0.47000000000E+01 0. -1.
        -11    1    1    2    0    0  0.18757094321E+02  0.44744700419E+02 -0.10583927115E+01  0.48528723434E+02  0.00000000000E+00 0.  1.
         11    1    1    2    0    0 -0.56913481750E+02  0.21173251008E+02  0.50229216148E+02  0.78806250501E+02  0.00000000000E+00 0. -1.
<mgrwt>
<rscale>  0 0.26728662E+03</rscale>
<asrwt>0</asrwt>
<pdfrwt beam="1">  1        3 0.36998974E-01 0.26728662E+03</pdfrwt>
<pdfrwt beam="2">  1       -3 0.11425574E-01 0.26728662E+03</pdfrwt>
<totfact> 0.10806487E+03</totfact>
</mgrwt>
</event>
<event>
 6    1  0.6101889E-006  0.3246219E+03  0.7546771E-02  0.1075157E+00
         -1   -1    0    0    0  501 -0.00000000000E+00  0.00000000000E+00  0.58740924142E+03  0.58740924142E+03  0.00000000000E+00 0.  1.
          1   -1    0    0  501    0  0.00000000000E+00 -0.00000000000E+00 -0.17355461180E+03  0.17355461180E+03  0.00000000000E+00 0. -1.
          5    1    1    2  502    0 -0.36199351934E+02 -0.22405576791E+03  0.17178540881E+03  0.28468174668E+03  0.47000000000E+01 0.  1.
         -5    1    1    2    0  502 -0.56243377108E+02 -0.60923873729E+02  0.98846693301E+00  0.83054818798E+02  0.47000000000E+01 0.  1.
        -11    1    1    2    0    0  0.63787700883E+02  0.15164332731E+03  0.82410062272E+02  0.18399996703E+03  0.00000000000E+00 0. -1.
         11    1    1    2    0    0  0.28655028159E+02  0.13333631432E+03  0.15867069161E+03  0.20922732071E+03  0.00000000000E+00 0.  1.
<mgrwt>
<rscale>  0 0.32107289E+03</rscale>
<asrwt>0</asrwt>
<pdfrwt beam="2">  1        1 0.26700710E-01 0.32462189E+03</pdfrwt>
<pdfrwt beam="1">  1       -1 0.90370652E-01 0.32462189E+03</pdfrwt>
<totfact> 0.22174080E+02</totfact>
</mgrwt>
</event>
<event>
 6    1  0.6101889E-006  0.1599217E+03  0.7546771E-02  0.1196575E+00
         -2   -1    0    0    0  501 -0.00000000000E+00  0.00000000000E+00  0.60082749489E+02  0.60082749489E+02  0.00000000000E+00 0.  1.
          2   -1    0    0  501    0  0.00000000000E+00 -0.00000000000E+00 -0.38739869772E+03  0.38739869772E+03  0.00000000000E+00 0. -1.
          5    1    1    2  502    0  0.26760486630E+02 -0.15077198664E+02 -0.29625817223E+02  0.42932791784E+02  0.47000000000E+01 0.  1.
         -5    1    1    2    0  502 -0.73133727070E+02  0.10339777249E+03 -0.20497391801E+03  0.24098970612E+03  0.47000000000E+01 0.  1.
        -11    1    1    2    0    0  0.13108130966E+00  0.12130314546E+02  0.75488951625E+01  0.14288020558E+02  0.00000000000E+00 0.  1.
         11    1    1    2    0    0  0.46242159130E+02 -0.10045088837E+03 -0.10026510817E+03  0.14927092875E+03  0.00000000000E+00 0. -1.
<mgrwt>
<rscale>  0 0.15321658E+03</rscale>
<asrwt>0</asrwt>
<pdfrwt beam="2">  1        2 0.59599799E-01 0.15992170E+03</pdfrwt>
<pdfrwt beam="1">  1       -2 0.92435000E-02 0.15992170E+03</pdfrwt>
<totfact> 0.60169570E+03</totfact>
</mgrwt>
</event>
<event>
 6    1  0.6101889E-006  0.1266764E+03  0.7546771E-02  0.1247367E+00
          1   -1    0    0  501    0  0.00000000000E+00  0.00000000000E+00  0.51370729998E+03  0.51370729998E+03  0.00000000000E+00 0. -1.
         -1   -1    0    0    0  501 -0.00000000000E+00 -0.00000000000E+00 -0.23655802398E+02  0.23655802398E+02  0.00000000000E+00 0.  1.
          5    1    1    2  502    0 -0.23827160778E+02  0.57791929307E+02  0.12505726999E+03  0.13988942584E+03  0.47000000000E+01 0. -1.
         -5    1    1    2    0  502  0.41359428724E+02 -0.47117050955E+02  0.16777746824E+03  0.17917027567E+03  0.47000000000E+01 0. -1.
        -11    1    1    2    0    0  0.36840780980E+02 -0.12886211052E+01  0.60148700792E+02  0.70546225232E+02  0.00000000000E+00 0.  1.
         11    1    1    2    0    0 -0.54373048925E+02 -0.93862572465E+01  0.13706805856E+03  0.14775717564E+03  0.00000000000E+00 0. -1.
<mgrwt>
<rscale>  0 0.11744829E+03</rscale>
<asrwt>0</asrwt>
<pdfrwt beam="1">  1        1 0.79031884E-01 0.12667640E+03</pdfrwt>
<pdfrwt beam="2">  1       -1 0.36393546E-02 0.12667640E+03</pdfrwt>
<totfact> 0.11653447E+04</totfact>
</mgrwt>
</event>
<event>
 6    1  0.6101889E-006  0.1317313E+03  0.7546771E-02  0.1237818E+00
          2   -1    0    0  501    0  0.00000000000E+00  0.00000000000E+00  0.67062766134E+03  0.67062766134E+03  0.00000000000E+00 0. -1.
         -2   -1    0    0    0  501 -0.00000000000E+00 -0.00000000000E+00 -0.27918120952E+02  0.27918120952E+02  0.00000000000E+00 0.  1.
          5    1    1    2  502    0  0.64197047466E+01 -0.63423952562E+02  0.40157164655E+03  0.40662720972E+03  0.47000000000E+01 0. -1.
         -5    1    1    2    0  502  0.30971320650E+02  0.45268406064E+02  0.13314316035E+03  0.14407512775E+03  0.47000000000E+01 0. -1.
        -11    1    1    2    0    0  0.98174100453E+01  0.68597202287E+01 -0.12879057605E+02  0.17587138096E+02  0.00000000000E+00 0.  1.
         11    1    1    2    0    0 -0.47208435442E+02  0.11295826269E+02  0.12087379110E+03  0.13025630673E+03  0.00000000000E+00 0. -1.
<mgrwt>
<rscale>  0 0.12325775E+03</rscale>
<asrwt>0</asrwt>
<pdfrwt beam="1">  1        2 0.10317347E+00 0.13173132E+03</pdfrwt>
<pdfrwt beam="2">  1       -2 0.42950960E-02 0.13173132E+03</pdfrwt>
<totfact> 0.10406504E+04</totfact>
</mgrwt>
</event>
<event>
 6    1  0.6101889E-006  0.1295635E+03  0.7546771E-02  0.1242830E+00
         -1   -1    0    0    0  501 -0.00000000000E+00  0.00000000000E+00  0.24420474661E+02  0.24420474661E+02  0.00000000000E+00 0.  1.
          1   -1    0    0  501    0  0.00000000000E+00 -0.00000000000E+00 -0.59468907281E+03  0.59468907281E+03  0.00000000000E+00 0. -1.
          5    1    1    2  502    0 -0.30500794539E+02 -0.62982142909E+02 -0.18291129178E+03  0.19589711446E+03  0.47000000000E+01 0. -1.
         -5    1    1    2    0  502  0.44738091857E+02  0.32007550075E+02 -0.24799596029E+03  0.25406705108E+03  0.47000000000E+01 0. -1.
        -11    1    1    2    0    0  0.29446272722E+02  0.18000834605E+02 -0.10913641312E+03  0.11446339892E+03  0.00000000000E+00 0. -1.
         11    1    1    2    0    0 -0.43683570039E+02  0.12973758229E+02 -0.30224932966E+02  0.54681983017E+02  0.00000000000E+00 0.  1.
<mgrwt>
<rscale>  0 0.12016222E+03</rscale>
<asrwt>0</asrwt>
<pdfrwt beam="2">  1        1 0.91490627E-01 0.12956346E+03</pdfrwt>
<pdfrwt beam="1">  1       -1 0.37569961E-02 0.12956346E+03</pdfrwt>
<totfact> 0.91699467E+03</totfact>
</mgrwt>
</event>
<event>
 6    1  0.6101889E-006  0.1253661E+03  0.7546771E-02  0.1253079E+00
          2   -1    0    0  501    0  0.00000000000E+00  0.00000000000E+00  0.62602887066E+03  0.62602887066E+03  0.00000000000E+00 0. -1.
         -2   -1    0    0    0  501 -0.00000000000E+00 -0.00000000000E+00 -0.24634982572E+02  0.24634982572E+02  0.00000000000E+00 0.  1.
          5    1    1    2  502    0 -0.46428566477E+02  0.50319776974E+01  0.84285318586E+02  0.96472988519E+02  0.47000000000E+01 0.  1.
         -5    1    1    2    0  502  0.50319369647E+02  0.37649730155E+01  0.42521153479E+03  0.42822091647E+03  0.47000000000E+01 0.  1.
        -11    1    1    2    0    0 -0.34440677291E+02 -0.35597846969E+01  0.66422047748E+01  0.35255513096E+02  0.00000000000E+00 0.  1.
         11    1    1    2    0    0  0.30549874121E+02 -0.52371660160E+01  0.85254829932E+02  0.90714435143E+02  0.00000000000E+00 0. -1.
<mgrwt>
<rscale>  0 0.11414584E+03</rscale>
<asrwt>0</asrwt>
<pdfrwt beam="1">  1        2 0.96312122E-01 0.12536607E+03</pdfrwt>
<pdfrwt beam="2">  1       -2 0.37899978E-02 0.12536607E+03</pdfrwt>
<totfact> 0.13522001E+04</totfact>
</mgrwt>
</event>
<event>
 6    1  0.6101889E-006  0.1614970E+03  0.7546771E-02  0.1195366E+00
          1   -1    0    0  501    0  0.00000000000E+00  0.00000000000E+00  0.25552639983E+03  0.25552639983E+03  0.00000000000E+00 0. -1.
         -1   -1    0    0    0  501 -0.00000000000E+00 -0.00000000000E+00 -0.86217628144E+02  0.86217628144E+02  0.00000000000E+00 0.  1.
          5    1    1    2  502    0  0.49101096737E+02 -0.10854225840E+03  0.12156250274E+03  0.17026999628E+03  0.47000000000E+01 0. -1.
         -5    1    1    2    0  502 -0.72695865292E+01  0.15244109892E+02 -0.15119755634E+02  0.23150092551E+02  0.47000000000E+01 0. -1.
        -11    1    1    2    0    0 -0.51602348745E+02  0.71296829586E+02  0.79582064447E+01  0.88370658902E+02  0.00000000000E+00 0.  1.
         11    1    1    2    0    0  0.97708385367E+01  0.22001318922E+02  0.54907818133E+02  0.59953280245E+02  0.00000000000E+00 0. -1.
<mgrwt>
<rscale>  0 0.15423271E+03</rscale>
<asrwt>0</asrwt>
<pdfrwt beam="1">  1        1 0.39311753E-01 0.16149697E+03</pdfrwt>
<pdfrwt beam="2">  1       -1 0.13264251E-01 0.16149697E+03</pdfrwt>
<totfact> 0.40773067E+03</totfact>
</mgrwt>
</event>
<event>
 6    1  0.1101487E-005  0.2381198E+03  0.7546771E-02  0.1123902E+00
          1   -1    0    0  501    0  0.00000000000E+00  0.00000000000E+00  0.38677399659E+03  0.38677399659E+03  0.00000000000E+00 0.  1.
         -1   -1    0    0    0  501 -0.00000000000E+00 -0.00000000000E+00 -0.14603541101E+03  0.14603541101E+03  0.00000000000E+00 0. -1.
          5    1    1    2  502    0  0.72332369535E+02  0.39518768896E+02  0.69299076210E+01  0.82848164718E+02  0.47000000000E+01 0. -1.
         -5    1    1    2    0  502  0.75731010304E+02  0.98870863890E+02  0.18464080940E+03  0.22276658669E+03  0.47000000000E+01 0. -1.
        -11    1    1    2    0    0 -0.96756957498E+02 -0.55514272456E+02  0.63991177269E+02  0.12860254289E+03  0.00000000000E+00 0.  1.
         11    1    1    2    0    0 -0.51306422340E+02 -0.82875360330E+02 -0.14823308712E+02  0.98592113297E+02  0.00000000000E+00 0. -1.
<mgrwt>
<rscale>  0 0.23393338E+03</rscale>
<asrwt>0</asrwt>
<pdfrwt beam="1">  1        1 0.59503691E-01 0.23811979E+03</pdfrwt>
<pdfrwt beam="2">  1       -1 0.22466986E-01 0.23811979E+03</pdfrwt>
<totfact> 0.10535908E+03</totfact>
</mgrwt>
</event>
<event>
 6    1  0.6101889E-006  0.1582022E+03  0.7546771E-02  0.1198673E+00
          2   -1    0    0  501    0  0.00000000000E+00  0.00000000000E+00  0.11761512291E+03  0.11761512291E+03  0.00000000000E+00 0.  1.
         -2   -1    0    0    0  501 -0.00000000000E+00 -0.00000000000E+00 -0.18098055822E+03  0.18098055822E+03  0.00000000000E+00 0. -1.
          5    1    1    2  502    0 -0.24448940416E+02 -0.40997851949E+02  0.38333648965E+01  0.48118179915E+02  0.47000000000E+01 0.  1.
         -5    1    1    2    0  502 -0.61491221340E+02  0.85898455816E+02 -0.48035410905E+02  0.11614303989E+03  0.47000000000E+01 0.  1.
        -11    1    1    2    0    0  0.80424485232E+02 -0.26164283247E+02  0.23189461346E+02  0.87695032130E+02  0.00000000000E+00 0.  1.
         11    1    1    2    0    0  0.55156765237E+01 -0.18736320620E+02 -0.42352850645E+02  0.46639429195E+02  0.00000000000E+00 0. -1.
<mgrwt>
<rscale>  0 0.15147468E+03</rscale>
<asrwt>0</asrwt>
<pdfrwt beam="1">  1        2 0.18094634E-01 0.15820217E+03</pdfrwt>
<pdfrwt beam="2">  1       -2 0.27843163E-01 0.15820217E+03</pdfrwt>
<totfact> 0.35400554E+03</totfact>
</mgrwt>
</event>
<event>
 6    1  0.6101889E-006  0.3539250E+03  0.7546771E-02  0.1061016E+00
          2   -1    0    0  501    0  0.00000000000E+00  0.00000000000E+00  0.16284542542E+03  0.16284542542E+03  0.00000000000E+00 0. -1.
         -2   -1    0    0    0  501 -0.00000000000E+00 -0.00000000000E+00 -0.19230336942E+03  0.19230336942E+03  0.00000000000E+00 0.  1.
          5    1    1    2  502    0 -0.21813611578E+02  0.24590909526E+02 -0.38516333881E+01  0.33428603937E+02  0.47000000000E+01 0. -1.
         -5    1    1    2    0  502 -0.43895532861E+02 -0.14764377375E+03 -0.17495678496E+02  0.15509252238E+03  0.47000000000E+01 0. -1.
        -11    1    1    2    0    0  0.21075059729E+02  0.10142872695E+03  0.25535027282E+02  0.10669574693E+03  0.00000000000E+00 0.  1.
         11    1    1    2    0    0  0.44634084710E+02  0.21624137268E+02 -0.33645659397E+02  0.59931921601E+02  0.00000000000E+00 0. -1.
<mgrwt>
<rscale>  0 0.35392499E+03</rscale>
<asrwt>0</asrwt>
<pdfrwt beam="1">  1        2 0.25053142E-01 0.35392499E+03</pdfrwt>
<pdfrwt beam="2">  1       -2 0.29585134E-01 0.35392499E+03</pdfrwt>
<totfact> 0.22618495E+03</totfact>
</mgrwt>
</event>
<event>
 6    1  0.6101889E-006  0.1675786E+03  0.7546771E-02  0.1187182E+00
         -1   -1    0    0    0  501 -0.00000000000E+00  0.00000000000E+00  0.29303309529E+03  0.29303309529E+03  0.00000000000E+00 0.  1.
          1   -1    0    0  501    0  0.00000000000E+00 -0.00000000000E+00 -0.11435400556E+03  0.11435400556E+03  0.00000000000E+00 0. -1.
          5    1    1    2  502    0 -0.80509043911E+02  0.87974655940E+02 -0.21856864528E+02  0.12133037034E+03  0.47000000000E+01 0.  1.
         -5    1    1    2    0  502 -0.20559907764E+02 -0.40614488318E+02  0.93681938330E+01  0.46712948144E+02  0.47000000000E+01 0.  1.
        -11    1    1    2    0    0  0.70920430640E+02 -0.16331313989E+02  0.18073928796E+03  0.19484124181E+03  0.00000000000E+00 0.  1.
         11    1    1    2    0    0  0.30148521035E+02 -0.31028853633E+02  0.10428472469E+02  0.44502540561E+02  0.00000000000E+00 0. -1.
<mgrwt>
<rscale>  0 0.16134886E+03</rscale>
<asrwt>0</asrwt>
<pdfrwt beam="2">  1        1 0.17592924E-01 0.16757861E+03</pdfrwt>
<pdfrwt beam="1">  1       -1 0.45082014E-01 0.16757861E+03</pdfrwt>
<totfact> 0.14814774E+03</totfact>
</mgrwt>
</event>
<event>
 6    1  0.6101889E-006  0.1526373E+03  0.7546771E-02  0.1205585E+00
         -3   -1    0    0    0  501 -0.00000000000E+00  0.00000000000E+00  0.19520478487E+03  0.19520478487E+03  0.00000000000E+00 0.  1.
          3   -1    0    0  501    0  0.00000000000E+00 -0.00000000000E+00 -0.10096836731E+03  0.10096836731E+03  0.00000000000E+00 0. -1.
          5    1    1    2  502    0 -0.59430744060E+02 -0.22922817760E+02  0.82047315375E+02  0.10397750177E+03  0.47000000000E+01 0.  1.
         -5    1    1    2    0  502 -0.23274909478E+02  0.51837073281E+02 -0.20516003226E+02  0.60595379080E+02  0.47000000000E+01 0.  1.
        -11    1    1    2    0    0 -0.67920552817E+01  0.21583080017E+02  0.15456054935E+02  0.27401660389E+02  0.00000000000E+00 0.  1.
         11    1    1    2    0    0  0.89497708819E+02 -0.50497335537E+02  0.17249050471E+02  0.10419861094E+03  0.00000000000E+00 0. -1.
<mgrwt>
<rscale>  0 0.14591460E+03</rscale>
<asrwt>0</asrwt>
<pdfrwt beam="2">  1        3 0.15533595E-01 0.15263725E+03</pdfrwt>
<pdfrwt beam="1">  1       -3 0.30031505E-01 0.15263725E+03</pdfrwt>
<totfact> 0.87988781E+02</totfact>
</mgrwt>
</event>
<event>
 6    1  0.6101889E-006  0.1251615E+03  0.7546771E-02  0.1253037E+00
         -2   -1    0    0    0  501 -0.00000000000E+00  0.00000000000E+00  0.39400937909E+02  0.39400937909E+02  0.00000000000E+00 0. -1.
          2   -1    0    0  501    0  0.00000000000E+00 -0.00000000000E+00 -0.28484382355E+03  0.28484382355E+03  0.00000000000E+00 0.  1.
          5    1    1    2  502    0  0.37323392243E+02  0.31041156063E+02 -0.13836213426E+03  0.14670637060E+03  0.47000000000E+01 0. -1.
         -5    1    1    2    0  502 -0.31656903657E+02 -0.33893202308E+02 -0.10504306404E+02  0.47784298309E+02  0.47000000000E+01 0. -1.
        -11    1    1    2    0    0  0.19433390225E+02  0.85944938423E+01 -0.10136151123E+03  0.10356484895E+03  0.00000000000E+00 0.  1.
         11    1    1    2    0    0 -0.25099878811E+02 -0.57424475970E+01  0.47850662567E+01  0.26189243590E+02  0.00000000000E+00 0. -1.
<mgrwt>
<rscale>  0 0.11416992E+03</rscale>
<asrwt>0</asrwt>
<pdfrwt beam="2">  1        2 0.43822126E-01 0.12516151E+03</pdfrwt>
<pdfrwt beam="1">  1       -2 0.60616828E-02 0.12516151E+03</pdfrwt>
<totfact> 0.15694557E+04</totfact>
</mgrwt>
</event>
<event>
 6    1  0.6101889E-006  0.2719695E+03  0.7546771E-02  0.1124912E+00
          1   -1    0    0  501    0  0.00000000000E+00  0.00000000000E+00  0.89746780329E+03  0.89746780329E+03  0.00000000000E+00 0. -1.
         -1   -1    0    0    0  501 -0.00000000000E+00 -0.00000000000E+00 -0.56686801799E+02  0.56686801799E+02  0.00000000000E+00 0.  1.
          5    1    1    2  502    0  0.15520813355E+03 -0.11239715029E+03  0.50765124960E+03  0.54263667895E+03  0.47000000000E+01 0. -1.
         -5    1    1    2    0  502 -0.71375321647E+02  0.36116487273E+02  0.19625765832E+03  0.21198583831E+03  0.47000000000E+01 0.  1.
        -11    1    1    2    0    0 -0.91646774655E+02  0.85116219590E+02  0.13958982445E+03  0.18742790943E+03  0.00000000000E+00 0.  1.
         11    1    1    2    0    0  0.78139627516E+01 -0.88355565694E+01 -0.27177308850E+01  0.12104178408E+02  0.00000000000E+00 0. -1.
<mgrwt>
<rscale>  0 0.23247250E+03</rscale>
<asrwt>0</asrwt>
<pdfrwt beam="1">  1        1 0.13807196E+00 0.27196947E+03</pdfrwt>
<pdfrwt beam="2">  1       -1 0.87210471E-02 0.27196947E+03</pdfrwt>
<totfact> 0.14464748E+03</totfact>
</mgrwt>
</event>
<event>
 6    1  0.6101889E-006  0.1286800E+03  0.7546771E-02  0.1241643E+00
          2   -1    0    0  501    0  0.00000000000E+00  0.00000000000E+00  0.11750372085E+03  0.11750372085E+03  0.00000000000E+00 0. -1.
         -2   -1    0    0    0  501 -0.00000000000E+00 -0.00000000000E+00 -0.12559627231E+03  0.12559627231E+03  0.00000000000E+00 0.  1.
          5    1    1    2  502    0 -0.34799063771E+00 -0.47703151812E+02  0.52480873949E+02  0.71077731539E+02  0.47000000000E+01 0. -1.
         -5    1    1    2    0  502  0.20667590410E+02  0.56474249133E+02 -0.16502651545E+02  0.62537329784E+02  0.47000000000E+01 0.  1.
        -11    1    1    2    0    0  0.26057547554E+02  0.17555638655E+02 -0.46478406435E+02  0.56102036486E+02  0.00000000000E+00 0.  1.
         11    1    1    2    0    0 -0.46377147327E+02 -0.26326735976E+02  0.24076325647E+01  0.53382895350E+02  0.00000000000E+00 0. -1.
<mgrwt>
<rscale>  0 0.12088589E+03</rscale>
<asrwt>0</asrwt>
<pdfrwt beam="1">  1        2 0.18077495E-01 0.12868004E+03</pdfrwt>
<pdfrwt beam="2">  1       -2 0.19322503E-01 0.12868004E+03</pdfrwt>
<totfact> 0.65809028E+03</totfact>
</mgrwt>
</event>
<event>
 6    1  0.6101889E-006  0.2216829E+03  0.7546771E-02  0.1136047E+00
          4   -1    0    0  501    0  0.00000000000E+00  0.00000000000E+00  0.61120899000E+03  0.61120899000E+03  0.00000000000E+00 0. -1.
         -4   -1    0    0    0  501 -0.00000000000E+00 -0.00000000000E+00 -0.79300706967E+02  0.79300706967E+02  0.00000000000E+00 0.  1.
          5    1    1    2  502    0 -0.23864060785E+02 -0.71501756814E+02  0.12336240727E+03  0.14464566413E+03  0.47000000000E+01 0.  1.
         -5    1    1    2    0  502 -0.14604262080E+03  0.33084886194E+01  0.24113297054E+03  0.28196913425E+03  0.47000000000E+01 0.  1.
        -11    1    1    2    0    0  0.11771455763E+03  0.65801085679E+02  0.16286420477E+03  0.21145034677E+03  0.00000000000E+00 0. -1.
         11    1    1    2    0    0  0.52192123950E+02  0.23921825154E+01  0.45487004602E+01  0.52444551819E+02  0.00000000000E+00 0.  1.
<mgrwt>
<rscale>  0 0.21712175E+03</rscale>
<asrwt>0</asrwt>
<pdfrwt beam="1">  1        4 0.94032149E-01 0.22168289E+03</pdfrwt>
<pdfrwt beam="2">  1       -4 0.12200109E-01 0.22168289E+03</pdfrwt>
<totfact> 0.95906052E+01</totfact>
</mgrwt>
</event>
<event>
 6    1  0.6101889E-006  0.3046008E+03  0.7546771E-02  0.1084525E+00
         -2   -1    0    0    0  501 -0.00000000000E+00  0.00000000000E+00  0.10507006317E+03  0.10507006317E+03  0.00000000000E+00 0.  1.
          2   -1    0    0  501    0  0.00000000000E+00 -0.00000000000E+00 -0.85051637159E+03  0.85051637159E+03  0.00000000000E+00 0. -1.
          5    1    1    2  502    0 -0.13296864188E+03  0.21845894399E+03 -0.27749317063E+03  0.37739835675E+03  0.47000000000E+01 0.  1.
         -5    1    1    2    0  502  0.27073953770E+02  0.38331297715E+02 -0.73560816249E+02  0.87381754643E+02  0.47000000000E+01 0.  1.
        -11    1    1    2    0    0  0.95298749492E+02 -0.15492288771E+03 -0.19507460029E+03  0.26671530228E+03  0.00000000000E+00 0.  1.
         11    1    1    2    0    0  0.10595938614E+02 -0.10186735400E+03 -0.19931772125E+03  0.22409102108E+03  0.00000000000E+00 0. -1.
<mgrwt>
<rscale>  0 0.30143654E+03</rscale>
<asrwt>0</asrwt>
<pdfrwt beam="2">  1        2 0.13084867E+00 0.30460080E+03</pdfrwt>
<pdfrwt beam="1">  1       -2 0.16164625E-01 0.30460080E+03</pdfrwt>
<totfact> 0.99069560E+02</totfact>
</mgrwt>
</event>
<event>
 6    1  0.6101889E-006  0.1269933E+03  0.7546771E-02  0.1245752E+00
          2   -1    0    0  501    0  0.00000000000E+00  0.00000000000E+00  0.25021845046E+03  0.25021845046E+03  0.00000000000E+00 0.  1.
         -2   -1    0    0    0  501 -0.00000000000E+00 -0.00000000000E+00 -0.51304320024E+02  0.51304320024E+02  0.00000000000E+00 0. -1.
          5    1    1    2  502    0 -0.15986242850E+02 -0.27939378864E+02  0.12896347006E+03  0.13300314080E+03  0.47000000000E+01 0.  1.
         -5    1    1    2    0  502  0.29487267806E+02  0.45766726114E+02  0.10552904260E+02  0.55655601427E+02  0.47000000000E+01 0.  1.
        -11    1    1    2    0    0  0.16727520738E+02  0.25650013833E+02  0.50658129230E+02  0.59194418797E+02  0.00000000000E+00 0.  1.
         11    1    1    2    0    0 -0.30228545693E+02 -0.43477361083E+02  0.87396268829E+01  0.53669609460E+02  0.00000000000E+00 0. -1.
<mgrwt>
<rscale>  0 0.11840478E+03</rscale>
<asrwt>0</asrwt>
<pdfrwt beam="1">  1        2 0.38495146E-01 0.12699332E+03</pdfrwt>
<pdfrwt beam="2">  1       -2 0.78929724E-02 0.12699332E+03</pdfrwt>
<totfact> 0.12047030E+04</totfact>
</mgrwt>
</event>
<event>
 6    1  0.6101889E-006  0.1264202E+03  0.7546771E-02  0.1248883E+00
         -2   -1    0    0    0  501 -0.00000000000E+00  0.00000000000E+00  0.24803122282E+02  0.24803122282E+02  0.00000000000E+00 0.  1.
          2   -1    0    0  501    0  0.00000000000E+00 -0.00000000000E+00 -0.70244781566E+03  0.70244781566E+03  0.00000000000E+00 0. -1.
          5    1    1    2  502    0 -0.24447597910E+02  0.48914983222E+02 -0.52387292424E+03  0.52674025039E+03  0.47000000000E+01 0. -1.
         -5    1    1    2    0  502  0.17812948847E+02 -0.31250537198E+02 -0.55781810027E+02  0.66540195008E+02  0.47000000000E+01 0. -1.
        -11    1    1    2    0    0  0.43365441214E+02 -0.21061688587E+02 -0.30470162542E+02  0.57031456436E+02  0.00000000000E+00 0.  1.
         11    1    1    2    0    0 -0.36730792150E+02  0.33972425642E+01 -0.67519796569E+02  0.76939036112E+02  0.00000000000E+00 0. -1.
<mgrwt>
<rscale>  0 0.11655949E+03</rscale>
<asrwt>0</asrwt>
<pdfrwt beam="2">  1        2 0.10806889E+00 0.12642024E+03</pdfrwt>
<pdfrwt beam="1">  1       -2 0.38158652E-02 0.12642024E+03</pdfrwt>
<totfact> 0.11712941E+04</totfact>
</mgrwt>
</event>
<event>
 6    1  0.6101889E-006  0.1565199E+03  0.7546771E-02  0.1200710E+00
          1   -1    0    0  501    0  0.00000000000E+00  0.00000000000E+00  0.27597690344E+03  0.27597690344E+03  0.00000000000E+00 0. -1.
         -1   -1    0    0    0  501 -0.00000000000E+00 -0.00000000000E+00 -0.76283244647E+02  0.76283244647E+02  0.00000000000E+00 0.  1.
          5    1    1    2  502    0 -0.45200146985E+02  0.21933337402E+02  0.99245709486E+02  0.11133699039E+03  0.47000000000E+01 0. -1.
         -5    1    1    2    0  502  0.48487985097E+02  0.72124244091E+02  0.31345477220E+02  0.92507406334E+02  0.47000000000E+01 0. -1.
        -11    1    1    2    0    0 -0.74184393033E+01 -0.54931101697E+02  0.88596340683E+02  0.10450727610E+03  0.00000000000E+00 0. -1.
         11    1    1    2    0    0  0.41306011910E+01 -0.39126479797E+02 -0.19493868595E+02  0.43908475267E+02  0.00000000000E+00 0.  1.
<mgrwt>
<rscale>  0 0.14980709E+03</rscale>
<asrwt>0</asrwt>
<pdfrwt beam="1">  1        1 0.42457985E-01 0.15651990E+03</pdfrwt>
<pdfrwt beam="2">  1       -1 0.11735884E-01 0.15651990E+03</pdfrwt>
<totfact> 0.44743686E+03</totfact>
</mgrwt>
</event>
<event>
 6    1  0.6101889E-006  0.2044596E+03  0.7546771E-02  0.1147369E+00
          1   -1    0    0  501    0  0.00000000000E+00  0.00000000000E+00  0.69501115845E+03  0.69501115845E+03  0.00000000000E+00 0. -1.
         -1   -1    0    0    0  501 -0.00000000000E+00 -0.00000000000E+00 -0.64532405413E+02  0.64532405413E+02  0.00000000000E+00 0.  1.
          5    1    1    2  502    0  0.96350622261E+02 -0.41196862136E+02  0.27007988952E+03  0.28973412050E+03  0.47000000000E+01 0.  1.
         -5    1    1    2    0  502 -0.10278744781E+02 -0.95765723453E+02  0.16796336481E+03  0.19367629773E+03  0.47000000000E+01 0.  1.
        -11    1    1    2    0    0 -0.59503654188E+02  0.29046624140E+01  0.76189998375E+02  0.96716274628E+02  0.00000000000E+00 0.  1.
         11    1    1    2    0    0 -0.26568223292E+02  0.13405792317E+03  0.11624550034E+03  0.17941687101E+03  0.00000000000E+00 0. -1.
<mgrwt>
<rscale>  0 0.20283434E+03</rscale>
<asrwt>0</asrwt>
<pdfrwt beam="1">  1        1 0.10692479E+00 0.20445963E+03</pdfrwt>
<pdfrwt beam="2">  1       -1 0.99280628E-02 0.20445963E+03</pdfrwt>
<totfact> 0.17489248E+03</totfact>
</mgrwt>
</event>
<event>
 6    1  0.6101889E-006  0.1464417E+03  0.7546771E-02  0.1214246E+00
         -1   -1    0    0    0  501 -0.00000000000E+00  0.00000000000E+00  0.84968120973E+02  0.84968120973E+02  0.00000000000E+00 0.  1.
          1   -1    0    0  501    0  0.00000000000E+00 -0.00000000000E+00 -0.21187740451E+03  0.21187740451E+03  0.00000000000E+00 0. -1.
          5    1    1    2  502    0 -0.59976726052E+02 -0.11939163413E+02 -0.44383790652E+02  0.75708402199E+02  0.47000000000E+01 0. -1.
         -5    1    1    2    0  502  0.19619101761E+02  0.76705182431E+02 -0.75619589428E+01  0.79673504936E+02  0.47000000000E+01 0. -1.
        -11    1    1    2    0    0  0.29388082404E+02 -0.63157446449E+02 -0.95452050081E+02  0.11816774642E+03  0.00000000000E+00 0. -1.
         11    1    1    2    0    0  0.10969541888E+02 -0.16085725688E+01  0.20488516143E+02  0.23295871924E+02  0.00000000000E+00 0.  1.
<mgrwt>
<rscale>  0 0.13932060E+03</rscale>
<asrwt>0</asrwt>
<pdfrwt beam="2">  1        1 0.32596524E-01 0.14644172E+03</pdfrwt>
<pdfrwt beam="1">  1       -1 0.13072019E-01 0.14644172E+03</pdfrwt>
<totfact> 0.52361339E+03</totfact>
</mgrwt>
</event>
<event>
 6    1  0.6101889E-006  0.1767205E+03  0.7546771E-02  0.1176522E+00
         -1   -1    0    0    0  501 -0.00000000000E+00  0.00000000000E+00  0.42211364316E+02  0.42211364316E+02  0.00000000000E+00 0.  1.
          1   -1    0    0  501    0  0.00000000000E+00 -0.00000000000E+00 -0.69229030157E+03  0.69229030157E+03  0.00000000000E+00 0. -1.
          5    1    1    2  502    0 -0.62207011421E+02  0.26931747623E+02 -0.38684202844E+03  0.39276440300E+03  0.47000000000E+01 0. -1.
         -5    1    1    2    0  502 -0.51505519534E+02  0.24783559606E+02 -0.42067884292E+02  0.71125524659E+02  0.47000000000E+01 0. -1.
        -11    1    1    2    0    0  0.29047650291E+02 -0.60491813943E+02 -0.12725409845E+03  0.14386323753E+03  0.00000000000E+00 0.  1.
         11    1    1    2    0    0  0.84664880663E+02  0.87765067142E+01 -0.93914926080E+02  0.12674850069E+03  0.00000000000E+00 0. -1.
<mgrwt>
<rscale>  0 0.17127718E+03</rscale>
<asrwt>0</asrwt>
<pdfrwt beam="2">  1        1 0.10650620E+00 0.17672055E+03</pdfrwt>
<pdfrwt beam="1">  1       -1 0.64940559E-02 0.17672055E+03</pdfrwt>
<totfact> 0.33446970E+03</totfact>
</mgrwt>
</event>
<event>
 6    1  0.6101889E-006  0.2731118E+03  0.7546771E-02  0.1100420E+00
         -1   -1    0    0    0  501 -0.00000000000E+00  0.00000000000E+00  0.80561350818E+03  0.80561350818E+03  0.00000000000E+00 0.  1.
          1   -1    0    0  501    0  0.00000000000E+00 -0.00000000000E+00 -0.95755703296E+02  0.95755703296E+02  0.00000000000E+00 0. -1.
          5    1    1    2  502    0  0.44898143123E+01  0.14357142867E+03  0.19585319879E+03  0.24292690061E+03  0.47000000000E+01 0. -1.
         -5    1    1    2    0  502 -0.80036583068E+02  0.94617133057E+02  0.26916488805E+03  0.29636140682E+03  0.47000000000E+01 0.  1.
        -11    1    1    2    0    0  0.72215850229E+02 -0.22066017990E+03  0.17704506850E+03  0.29197773939E+03  0.00000000000E+00 0. -1.
         11    1    1    2    0    0  0.33309185269E+01 -0.17528381830E+02  0.67794649544E+02  0.70103164655E+02  0.00000000000E+00 0.  1.
<mgrwt>
<rscale>  0 0.27150752E+03</rscale>
<asrwt>0</asrwt>
<pdfrwt beam="2">  1        1 0.14731647E-01 0.27311180E+03</pdfrwt>
<pdfrwt beam="1">  1       -1 0.12394054E+00 0.27311180E+03</pdfrwt>
<totfact> 0.23416360E+02</totfact>
</mgrwt>
</event>
<event>
 6    1  0.6101889E-006  0.1301841E+03  0.7546771E-02  0.1242016E+00
         -1   -1    0    0    0  501 -0.00000000000E+00  0.00000000000E+00  0.10631688356E+02  0.10631688356E+02  0.00000000000E+00 0.  1.
          1   -1    0    0  501    0  0.00000000000E+00 -0.00000000000E+00 -0.13484297818E+04  0.13484297818E+04  0.00000000000E+00 0. -1.
          5    1    1    2  502    0 -0.36803779657E+02  0.47400922545E+02 -0.91921093529E+03  0.92117978658E+03  0.47000000000E+01 0. -1.
         -5    1    1    2    0  502  0.60403943833E+01 -0.28018194602E+02 -0.60145088672E+02  0.66790922171E+02  0.47000000000E+01 0. -1.
        -11    1    1    2    0    0  0.15997772695E+02  0.32539401086E+02 -0.21067407488E+03  0.21377162389E+03  0.00000000000E+00 0.  1.
         11    1    1    2    0    0  0.14765612579E+02 -0.51922129030E+02 -0.14776799459E+03  0.15731913749E+03  0.00000000000E+00 0. -1.
<mgrwt>
<rscale>  0 0.12065762E+03</rscale>
<asrwt>0</asrwt>
<pdfrwt beam="2">  1        1 0.20745060E+00 0.13018410E+03</pdfrwt>
<pdfrwt beam="1">  1       -1 0.16356454E-02 0.13018410E+03</pdfrwt>
<totfact> 0.80888770E+03</totfact>
</mgrwt>
</event>
<event>
 6    1  0.6101889E-006  0.2175517E+03  0.7546771E-02  0.1140777E+00
          1   -1    0    0  501    0  0.00000000000E+00  0.00000000000E+00  0.14079377100E+03  0.14079377100E+03  0.00000000000E+00 0. -1.
         -1   -1    0    0    0  501 -0.00000000000E+00 -0.00000000000E+00 -0.30732567732E+03  0.30732567732E+03  0.00000000000E+00 0.  1.
          5    1    1    2  502    0  0.36401595179E+02  0.60970802584E+02  0.30724413379E+02  0.77515124181E+02  0.47000000000E+01 0. -1.
         -5    1    1    2    0  502  0.12098842224E+03  0.32629902752E+01 -0.81176679671E+02  0.14581011194E+03  0.47000000000E+01 0.  1.
        -11    1    1    2    0    0 -0.66620418361E+02 -0.16548495675E+02  0.16628235686E+01  0.68665113659E+02  0.00000000000E+00 0. -1.
         11    1    1    2    0    0 -0.90769599055E+02 -0.47685297184E+02 -0.11774246359E+03  0.15612909854E+03  0.00000000000E+00 0.  1.
<mgrwt>
<rscale>  0 0.21099978E+03</rscale>
<asrwt>0</asrwt>
<pdfrwt beam="1">  1        1 0.21660580E-01 0.21755167E+03</pdfrwt>
<pdfrwt beam="2">  1       -1 0.47280873E-01 0.21755167E+03</pdfrwt>
<totfact> 0.10460629E+03</totfact>
</mgrwt>
</event>
<event>
 6    1  0.6101889E-006  0.1388103E+03  0.7546771E-02  0.1224690E+00
         -1   -1    0    0    0  501 -0.00000000000E+00  0.00000000000E+00  0.50699449004E+02  0.50699449004E+02  0.00000000000E+00 0.  1.
          1   -1    0    0  501    0  0.00000000000E+00 -0.00000000000E+00 -0.31703385426E+03  0.31703385426E+03  0.00000000000E+00 0. -1.
          5    1    1    2  502    0  0.20049120484E+02 -0.50460093927E+02 -0.34826281553E+01  0.54611418313E+02  0.47000000000E+01 0. -1.
         -5    1    1    2    0  502 -0.51312111019E+02 -0.11760023323E+01 -0.12227621857E+03  0.13269468469E+03  0.47000000000E+01 0. -1.
        -11    1    1    2    0    0  0.22669197195E+01  0.53599610739E+02 -0.14152228078E+03  0.15134930840E+03  0.00000000000E+00 0. -1.
         11    1    1    2    0    0  0.28996070816E+02 -0.19635144791E+01  0.94672224540E+00  0.29077891858E+02  0.00000000000E+00 0.  1.
<mgrwt>
<rscale>  0 0.13188201E+03</rscale>
<asrwt>0</asrwt>
<pdfrwt beam="2">  1        1 0.48774438E-01 0.13881026E+03</pdfrwt>
<pdfrwt beam="1">  1       -1 0.77999154E-02 0.13881026E+03</pdfrwt>
<totfact> 0.69774655E+03</totfact>
</mgrwt>
</event>
<event>
 6    1  0.6101889E-006  0.2153013E+03  0.7546771E-02  0.1141018E+00
          2   -1    0    0  501    0  0.00000000000E+00  0.00000000000E+00  0.10997471052E+04  0.10997471052E+04  0.00000000000E+00 0. -1.
         -2   -1    0    0    0  501 -0.00000000000E+00 -0.00000000000E+00 -0.39110198546E+02  0.39110198546E+02  0.00000000000E+00 0.  1.
          5    1    1    2  502    0 -0.51911020124E+02  0.22832474262E+02  0.31122013681E+03  0.31637973931E+03  0.47000000000E+01 0. -1.
         -5    1    1    2    0  502 -0.12313701257E+03 -0.32125771028E+02  0.18561510306E+03  0.22509963463E+03  0.47000000000E+01 0. -1.
        -11    1    1    2    0    0  0.96763942989E+02  0.42854575585E+02  0.38572935896E+03  0.39998364176E+03  0.00000000000E+00 0.  1.
         11    1    1    2    0    0  0.78284089701E+02 -0.33561278819E+02  0.17807230778E+03  0.19739428800E+03  0.00000000000E+00 0. -1.
<mgrwt>
<rscale>  0 0.21069367E+03</rscale>
<asrwt>0</asrwt>
<pdfrwt beam="1">  1        2 0.16919184E+00 0.21530132E+03</pdfrwt>
<pdfrwt beam="2">  1       -2 0.60169545E-02 0.21530132E+03</pdfrwt>
<totfact> 0.33506327E+03</totfact>
</mgrwt>
</event>
<event>
 6    1  0.6101889E-006  0.2398392E+03  0.7546771E-02  0.1119900E+00
         -1   -1    0    0    0  501 -0.00000000000E+00  0.00000000000E+00  0.36705985761E+02  0.36705985761E+02  0.00000000000E+00 0.  1.
          1   -1    0    0  501    0  0.00000000000E+00 -0.00000000000E+00 -0.39178108296E+03  0.39178108296E+03  0.00000000000E+00 0. -1.
          5    1    1    2  502    0  0.24199586713E+01  0.58644007115E+00 -0.22471109876E+03  0.22477403769E+03  0.47000000000E+01 0. -1.
         -5    1    1    2    0  502 -0.31103279513E+02 -0.37097752123E+02 -0.17452859009E+02  0.51675424494E+02  0.47000000000E+01 0. -1.
        -11    1    1    2    0    0 -0.17324296400E+02  0.10402291176E+02  0.66687108819E+01  0.21279347084E+02  0.00000000000E+00 0.  1.
         11    1    1    2    0    0  0.46007617242E+02  0.26109020876E+02 -0.11957985031E+03  0.13075825945E+03  0.00000000000E+00 0. -1.
<mgrwt>
<rscale>  0 0.23983920E+03</rscale>
<asrwt>0</asrwt>
<pdfrwt beam="2">  1        1 0.60274010E-01 0.23983920E+03</pdfrwt>
<pdfrwt beam="1">  1       -1 0.56470750E-02 0.23983920E+03</pdfrwt>
<totfact> 0.89880978E+03</totfact>
</mgrwt>
</event>
<event>
 6    1  0.6101889E-006  0.2361350E+03  0.7546771E-02  0.1125188E+00
         -1   -1    0    0    0  501 -0.00000000000E+00  0.00000000000E+00  0.70380152910E+02  0.70380152910E+02  0.00000000000E+00 0.  1.
          1   -1    0    0  501    0  0.00000000000E+00 -0.00000000000E+00 -0.19096341533E+04  0.19096341533E+04  0.00000000000E+00 0. -1.
          5    1    1    2  502    0 -0.11877286287E+03 -0.13378411984E+03 -0.10489977967E+04  0.10641539602E+04  0.47000000000E+01 0.  1.
         -5    1    1    2    0  502 -0.36998596474E+02  0.78063573052E+01 -0.65758290404E+03  0.65868596542E+03  0.47000000000E+01 0.  1.
        -11    1    1    2    0    0 -0.17884203318E+01  0.18619772917E+02 -0.42155322870E+02  0.46119037685E+02  0.00000000000E+00 0. -1.
         11    1    1    2    0    0  0.15755987968E+03  0.10735798962E+03 -0.90517976784E+02  0.21105534284E+03  0.00000000000E+00 0.  1.
<mgrwt>
<rscale>  0 0.23207520E+03</rscale>
<asrwt>0</asrwt>
<pdfrwt beam="2">  1        1 0.29378985E+00 0.23613496E+03</pdfrwt>
<pdfrwt beam="1">  1       -1 0.10827717E-01 0.23613496E+03</pdfrwt>
<totfact> 0.21019019E+02</totfact>
</mgrwt>
</event>
<event>
 6    1  0.6101889E-006  0.4654562E+03  0.7546771E-02  0.1023211E+00
          1   -1    0    0  501    0  0.00000000000E+00  0.00000000000E+00  0.91205155010E+02  0.91205155010E+02  0.00000000000E+00 0. -1.
         -1   -1    0    0    0  501 -0.00000000000E+00 -0.00000000000E+00 -0.59385214109E+03  0.59385214109E+03  0.00000000000E+00 0.  1.
          5    1    1    2  502    0 -0.22121963279E+02  0.46168047322E+01 -0.55748561239E+01  0.23745845238E+02  0.47000000000E+01 0. -1.
         -5    1    1    2    0  502  0.16045481486E+03 -0.60523785010E+02 -0.46637120031E+02  0.17778072766E+03  0.47000000000E+01 0. -1.
        -11    1    1    2    0    0 -0.96210035978E+02  0.17842211358E+02 -0.38337534413E+03  0.39566573015E+03  0.00000000000E+00 0. -1.
         11    1    1    2    0    0 -0.42122815602E+02  0.38064768920E+02 -0.67059665799E+02  0.87864993053E+02  0.00000000000E+00 0.  1.
<mgrwt>
<rscale>  0 0.46545623E+03</rscale>
<asrwt>0</asrwt>
<pdfrwt beam="1">  1        1 0.14031562E-01 0.46545623E+03</pdfrwt>
<pdfrwt beam="2">  1       -1 0.91361871E-01 0.46545623E+03</pdfrwt>
<totfact> 0.50026805E+02</totfact>
</mgrwt>
</event>
<event>
 6    1  0.6101889E-006  0.1338528E+03  0.7546771E-02  0.1234472E+00
         -4   -1    0    0    0  501 -0.00000000000E+00  0.00000000000E+00  0.15762798668E+03  0.15762798668E+03  0.00000000000E+00 0.  1.
          4   -1    0    0  501    0  0.00000000000E+00 -0.00000000000E+00 -0.92228038213E+02  0.92228038213E+02  0.00000000000E+00 0. -1.
          5    1    1    2  502    0  0.24872139239E+02 -0.50037186077E+01  0.47364710405E+02  0.53936687904E+02  0.47000000000E+01 0.  1.
         -5    1    1    2    0  502 -0.70088402113E+02  0.20715979793E+02 -0.33687419263E+02  0.80613076769E+02  0.47000000000E+01 0.  1.
        -11    1    1    2    0    0  0.71763997658E+02 -0.18497393278E+02  0.26857957384E+02  0.78826231629E+02  0.00000000000E+00 0.  1.
         11    1    1    2    0    0 -0.26547734785E+02  0.27851320925E+01  0.24864699943E+02  0.36480028594E+02  0.00000000000E+00 0. -1.
<mgrwt>
<rscale>  0 0.12538272E+03</rscale>
<asrwt>0</asrwt>
<pdfrwt beam="2">  1        4 0.14188929E-01 0.13385280E+03</pdfrwt>
<pdfrwt beam="1">  1       -4 0.24250459E-01 0.13385280E+03</pdfrwt>
<totfact> 0.10836222E+03</totfact>
</mgrwt>
</event>
<event>
 6    1  0.6101889E-006  0.1392334E+03  0.7546771E-02  0.1225436E+00
          2   -1    0    0  501    0  0.00000000000E+00  0.00000000000E+00  0.33053936893E+03  0.33053936893E+03  0.00000000000E+00 0.  1.
         -2   -1    0    0    0  501 -0.00000000000E+00 -0.00000000000E+00 -0.50882527208E+02  0.50882527208E+02  0.00000000000E+00 0. -1.
          5    1    1    2  502    0  0.29611884193E+02  0.24776461194E+02  0.48809165600E+02  0.62411227847E+02  0.47000000000E+01 0.  1.
         -5    1    1    2    0  502 -0.71132825720E+02 -0.69914096528E+02  0.15758688521E+03  0.18655716598E+03  0.47000000000E+01 0.  1.
        -11    1    1    2    0    0 -0.82091658406E+01 -0.23315681612E+02  0.93899260680E+01  0.26442052197E+02  0.00000000000E+00 0.  1.
         11    1    1    2    0    0  0.49730107368E+02  0.68453316947E+02  0.63870864852E+02  0.10601145012E+03  0.00000000000E+00 0. -1.
<mgrwt>
<rscale>  0 0.13137087E+03</rscale>
<asrwt>0</asrwt>
<pdfrwt beam="1">  1        2 0.50852209E-01 0.13923337E+03</pdfrwt>
<pdfrwt beam="2">  1       -2 0.78280813E-02 0.13923337E+03</pdfrwt>
<totfact> 0.91478259E+03</totfact>
</mgrwt>
</event>
<event>
 6    1  0.6101889E-006  0.1461955E+03  0.7546771E-02  0.1218613E+00
          2   -1    0    0  501    0  0.00000000000E+00  0.00000000000E+00  0.74554431683E+03  0.74554431683E+03  0.00000000000E+00 0. -1.
         -2   -1    0    0    0  501 -0.00000000000E+00 -0.00000000000E+00 -0.22083551055E+02  0.22083551055E+02  0.00000000000E+00 0.  1.
          5    1    1    2  502    0  0.54253648245E+01 -0.37421512299E+02  0.19381977817E+02  0.42749914974E+02  0.47000000000E+01 0. -1.
         -5    1    1    2    0  502 -0.36323626789E+02 -0.31803558455E+02  0.37011481739E+03  0.37327997568E+03  0.47000000000E+01 0. -1.
        -11    1    1    2    0    0  0.23108027815E+01 -0.14222416105E+02  0.15583175968E+02  0.21223861633E+02  0.00000000000E+00 0.  1.
         11    1    1    2    0    0  0.28587459183E+02  0.83447486858E+02  0.31838079460E+03  0.33037411560E+03  0.00000000000E+00 0. -1.
<mgrwt>
<rscale>  0 0.13614452E+03</rscale>
<asrwt>0</asrwt>
<pdfrwt beam="1">  1        2 0.11469911E+00 0.14619547E+03</pdfrwt>
<pdfrwt beam="2">  1       -2 0.33974700E-02 0.14619547E+03</pdfrwt>
<totfact> 0.13078275E+04</totfact>
</mgrwt>
</event>
<event>
 6    1  0.6101889E-006  0.3802409E+03  0.7546771E-02  0.1050845E+00
         -1   -1    0    0    0  501 -0.00000000000E+00  0.00000000000E+00  0.28315668353E+03  0.28315668353E+03  0.00000000000E+00 0.  1.
          1   -1    0    0  501    0  0.00000000000E+00 -0.00000000000E+00 -0.12765294709E+03  0.12765294709E+03  0.00000000000E+00 0. -1.
          5    1    1    2  502    0 -0.19765856881E+02  0.67378928504E+02  0.45582535570E+02  0.83847878051E+02  0.47000000000E+01 0. -1.
         -5    1    1    2    0  502  0.69223787432E+01  0.32108422374E+02 -0.71080615841E+02  0.78443699958E+02  0.47000000000E+01 0. -1.
        -11    1    1    2    0    0 -0.61855987611E+02 -0.33768904372E+02  0.82678655496E+02  0.10863821694E+03  0.00000000000E+00 0.  1.
         11    1    1    2    0    0  0.74699465749E+02 -0.65718446505E+02  0.98323161218E+02  0.13987983567E+03  0.00000000000E+00 0. -1.
<mgrwt>
<rscale>  0 0.38024090E+03</rscale>
<asrwt>0</asrwt>
<pdfrwt beam="2">  1        1 0.19638915E-01 0.38024090E+03</pdfrwt>
<pdfrwt beam="1">  1       -1 0.43562566E-01 0.38024090E+03</pdfrwt>
<totfact> 0.13904838E+03</totfact>
</mgrwt>
</event>
<event>
 6    1  0.6101889E-006  0.4499511E+03  0.7546771E-02  0.1027737E+00
          2   -1    0    0  501    0  0.00000000000E+00  0.00000000000E+00  0.34965419912E+03  0.34965419912E+03  0.00000000000E+00 0. -1.
         -2   -1    0    0    0  501 -0.00000000000E+00 -0.00000000000E+00 -0.14475444659E+03  0.14475444659E+03  0.00000000000E+00 0.  1.
          5    1    1    2  502    0 -0.17046828947E+02  0.17482546717E+02  0.34199031979E+02  0.42283538229E+02  0.47000000000E+01 0. -1.
         -5    1    1    2    0  502  0.66854979231E+02 -0.14858915863E+03  0.22385470348E+03  0.27691396603E+03  0.47000000000E+01 0.  1.
        -11    1    1    2    0    0 -0.15415761885E+02  0.40021837986E+02 -0.64218273237E+02  0.77222923072E+02  0.00000000000E+00 0.  1.
         11    1    1    2    0    0 -0.34392388399E+02  0.91084773929E+02  0.11064290307E+02  0.97988218381E+02  0.00000000000E+00 0. -1.
<mgrwt>
<rscale>  0 0.44995111E+03</rscale>
<asrwt>0</asrwt>
<pdfrwt beam="1">  1        2 0.53792954E-01 0.44995111E+03</pdfrwt>
<pdfrwt beam="2">  1       -2 0.22269915E-01 0.44995111E+03</pdfrwt>
<totfact> 0.16241008E+03</totfact>
</mgrwt>
</event>
<event>
 6    1  0.6101889E-006  0.2978763E+03  0.7546771E-02  0.1086307E+00
          1   -1    0    0  501    0  0.00000000000E+00  0.00000000000E+00  0.53550191606E+03  0.53550191606E+03  0.00000000000E+00 0. -1.
         -1   -1    0    0    0  501 -0.00000000000E+00 -0.00000000000E+00 -0.41423892499E+02  0.41423892499E+02  0.00000000000E+00 0.  1.
          5    1    1    2  502    0 -0.25893016978E+02 -0.26537060368E+02  0.12148044705E+03  0.12709938205E+03  0.47000000000E+01 0.  1.
         -5    1    1    2    0  502  0.11315886208E+03  0.68730226601E+01  0.22710712836E+03  0.25387379593E+03  0.47000000000E+01 0.  1.
        -11    1    1    2    0    0 -0.72072952092E+02 -0.30145591663E+02  0.99268073261E+02  0.12632267211E+03  0.00000000000E+00 0. -1.
         11    1    1    2    0    0 -0.15192893014E+02  0.49809629371E+02  0.46222374888E+02  0.69629958470E+02  0.00000000000E+00 0.  1.
<mgrwt>
<rscale>  0 0.29787631E+03</rscale>
<asrwt>0</asrwt>
<pdfrwt beam="1">  1        1 0.82384905E-01 0.29787631E+03</pdfrwt>
<pdfrwt beam="2">  1       -1 0.63729069E-02 0.29787631E+03</pdfrwt>
<totfact> 0.50116965E+03</totfact>
</mgrwt>
</event>
<event>
 6    1  0.6101889E-006  0.1335073E+03  0.7546771E-02  0.1234711E+00
         -2   -1    0    0    0  501 -0.00000000000E+00  0.00000000000E+00  0.31440854719E+02  0.31440854719E+02  0.00000000000E+00 0. -1.
          2   -1    0    0  501    0  0.00000000000E+00 -0.00000000000E+00 -0.45681363624E+03  0.45681363624E+03  0.00000000000E+00 0.  1.
          5    1    1    2  502    0 -0.14310068973E+01 -0.44802775838E+02 -0.27249518771E+03  0.27619749063E+03  0.47000000000E+01 0. -1.
         -5    1    1    2    0  502  0.29187901104E+02  0.70144286311E+01 -0.37466606717E+01  0.30614755365E+02  0.47000000000E+01 0. -1.
        -11    1    1    2    0    0  0.72915429149E+01  0.42908722779E+02 -0.13740154982E+03  0.14413018762E+03  0.00000000000E+00 0.  1.
         11    1    1    2    0    0 -0.35048437122E+02 -0.51203755722E+01 -0.11729383313E+02  0.37312057349E+02  0.00000000000E+00 0. -1.
<mgrwt>
<rscale>  0 0.12522946E+03</rscale>
<asrwt>0</asrwt>
<pdfrwt beam="2">  1        2 0.70279018E-01 0.13350729E+03</pdfrwt>
<pdfrwt beam="1">  1       -2 0.48370548E-02 0.13350729E+03</pdfrwt>
<totfact> 0.13409962E+04</totfact>
</mgrwt>
</event>
<event>
 6    1  0.6101889E-006  0.3295874E+03  0.7546771E-02  0.1071320E+00
         -2   -1    0    0    0  501 -0.00000000000E+00  0.00000000000E+00  0.11316757434E+03  0.11316757434E+03  0.00000000000E+00 0.  1.
          2   -1    0    0  501    0  0.00000000000E+00 -0.00000000000E+00 -0.23997118895E+03  0.23997118895E+03  0.00000000000E+00 0. -1.
          5    1    1    2  502    0  0.53348325322E+02  0.92839246415E+02 -0.46924271384E+02  0.11700062707E+03  0.47000000000E+01 0.  1.
         -5    1    1    2    0  502 -0.21342223090E+02  0.46638528697E+01 -0.96844191105E+02  0.99388778848E+02  0.47000000000E+01 0.  1.
        -11    1    1    2    0    0 -0.34997299554E+02 -0.46010966895E+02 -0.31620062281E+02  0.65891185976E+02  0.00000000000E+00 0.  1.
         11    1    1    2    0    0  0.29911973222E+01 -0.51492132389E+02  0.48584910158E+02  0.70858171402E+02  0.00000000000E+00 0. -1.
<mgrwt>
<rscale>  0 0.32958736E+03</rscale>
<asrwt>0</asrwt>
<pdfrwt beam="2">  1        2 0.36918644E-01 0.32958736E+03</pdfrwt>
<pdfrwt beam="1">  1       -2 0.17410396E-01 0.32958736E+03</pdfrwt>
<totfact> 0.37231148E+03</totfact>
</mgrwt>
</event>
<event>
 6    1  0.6101889E-006  0.1681260E+03  0.7546771E-02  0.1186551E+00
         -1   -1    0    0    0  501 -0.00000000000E+00  0.00000000000E+00  0.44041603521E+02  0.44041603521E+02  0.00000000000E+00 0.  1.
          1   -1    0    0  501    0  0.00000000000E+00 -0.00000000000E+00 -0.68717679340E+03  0.68717679340E+03  0.00000000000E+00 0. -1.
          5    1    1    2  502    0  0.77836215068E+02 -0.51101395799E+02 -0.40791582865E+03  0.41843427476E+03  0.47000000000E+01 0. -1.
         -5    1    1    2    0  502 -0.29549563650E+02 -0.50433862519E+02 -0.93012320184E+02  0.10995514043E+03  0.47000000000E+01 0. -1.
        -11    1    1    2    0    0  0.11371900835E+02  0.70371094929E+02 -0.10195458294E+03  0.12440316762E+03  0.00000000000E+00 0. -1.
         11    1    1    2    0    0 -0.59658552253E+02  0.31164163389E+02 -0.40252458100E+02  0.78425814116E+02  0.00000000000E+00 0.  1.
<mgrwt>
<rscale>  0 0.16191535E+03</rscale>
<asrwt>0</asrwt>
<pdfrwt beam="2">  1        1 0.10571950E+00 0.16812604E+03</pdfrwt>
<pdfrwt beam="1">  1       -1 0.67756318E-02 0.16812604E+03</pdfrwt>
<totfact> 0.31663289E+03</totfact>
</mgrwt>
</event>
<event>
 6    1  0.6101889E-006  0.2843458E+03  0.7546771E-02  0.1093339E+00
         -2   -1    0    0    0  501 -0.00000000000E+00  0.00000000000E+00  0.30680645388E+02  0.30680645388E+02  0.00000000000E+00 0.  1.
          2   -1    0    0  501    0  0.00000000000E+00 -0.00000000000E+00 -0.65882381620E+03  0.65882381620E+03  0.00000000000E+00 0. -1.
          5    1    1    2  502    0  0.62043905698E+02  0.77887753045E+02 -0.12231540173E+03  0.15779447331E+03  0.47000000000E+01 0.  1.
         -5    1    1    2    0  502 -0.18054479470E+02  0.12017587802E+01 -0.18650431420E+03  0.18743894384E+03  0.47000000000E+01 0.  1.
        -11    1    1    2    0    0 -0.33734680085E+02  0.63266443387E+01 -0.43902958557E+02  0.55727236062E+02  0.00000000000E+00 0.  1.
         11    1    1    2    0    0 -0.10254746143E+02 -0.85416156164E+02 -0.27542049632E+03  0.28854380837E+03  0.00000000000E+00 0. -1.
<mgrwt>
<rscale>  0 0.28434584E+03</rscale>
<asrwt>0</asrwt>
<pdfrwt beam="2">  1        2 0.10135751E+00 0.28434584E+03</pdfrwt>
<pdfrwt beam="1">  1       -2 0.47200993E-02 0.28434584E+03</pdfrwt>
<totfact> 0.96264065E+03</totfact>
</mgrwt>
</event>
<event>
 6    1  0.6101889E-006  0.1995961E+03  0.7546771E-02  0.1154455E+00
          1   -1    0    0  501    0  0.00000000000E+00  0.00000000000E+00  0.54834590261E+03  0.54834590261E+03  0.00000000000E+00 0. -1.
         -1   -1    0    0    0  501 -0.00000000000E+00 -0.00000000000E+00 -0.94861728535E+02  0.94861728535E+02  0.00000000000E+00 0.  1.
          5    1    1    2  502    0  0.51732000764E+02  0.90425465843E+02  0.11420279375E+03  0.15465229671E+03  0.47000000000E+01 0. -1.
         -5    1    1    2    0  502  0.77206688774E+00  0.56075087214E+02  0.29878513470E+03  0.30403890904E+03  0.47000000000E+01 0. -1.
        -11    1    1    2    0    0 -0.56327305383E+02 -0.30769246087E+02  0.12585429449E+02  0.65405694484E+02  0.00000000000E+00 0. -1.
         11    1    1    2    0    0  0.38232377312E+01 -0.11573130697E+03  0.27910816179E+02  0.11911073092E+03  0.00000000000E+00 0.  1.
<mgrwt>
<rscale>  0 0.19451038E+03</rscale>
<asrwt>0</asrwt>
<pdfrwt beam="1">  1        1 0.84360906E-01 0.19959608E+03</pdfrwt>
<pdfrwt beam="2">  1       -1 0.14594112E-01 0.19959608E+03</pdfrwt>
<totfact> 0.13345349E+03</totfact>
</mgrwt>
</event>
<event>
 6    1  0.6101889E-006  0.4281981E+03  0.7546771E-02  0.1061173E+00
         -2   -1    0    0    0  501 -0.00000000000E+00  0.00000000000E+00  0.27570477964E+03  0.27570477964E+03  0.00000000000E+00 0.  1.
          2   -1    0    0  501    0  0.00000000000E+00 -0.00000000000E+00 -0.40317596443E+03  0.40317596443E+03  0.00000000000E+00 0. -1.
          5    1    1    2  502    0 -0.83881419682E+02 -0.22981575472E+01 -0.19329299818E+03  0.21077392448E+03  0.47000000000E+01 0. -1.
         -5    1    1    2    0  502  0.25612034018E+03  0.36454563370E+02  0.69317890230E+00  0.25874530787E+03  0.47000000000E+01 0.  1.
        -11    1    1    2    0    0 -0.17718828247E+03 -0.13482504532E+02  0.58961324760E+02  0.18722687625E+03  0.00000000000E+00 0.  1.
         11    1    1    2    0    0  0.49493619670E+01 -0.20673901291E+02  0.61673097236E+01  0.22134635477E+02  0.00000000000E+00 0. -1.
<mgrwt>
<rscale>  0 0.35353502E+03</rscale>
<asrwt>0</asrwt>
<pdfrwt beam="2">  1        2 0.62027071E-01 0.42819811E+03</pdfrwt>
<pdfrwt beam="1">  1       -2 0.42416120E-01 0.42819811E+03</pdfrwt>
<totfact> 0.42130468E+02</totfact>
</mgrwt>
</event>
<event>
 6    1  0.6101889E-006  0.1195619E+03  0.7546771E-02  0.1298879E+00
         -2   -1    0    0    0  501 -0.00000000000E+00  0.00000000000E+00  0.69030785033E+02  0.69030785033E+02  0.00000000000E+00 0.  1.
          2   -1    0    0  501    0  0.00000000000E+00 -0.00000000000E+00 -0.99823201240E+02  0.99823201240E+02  0.00000000000E+00 0. -1.
          5    1    1    2  502    0 -0.50988660281E+02  0.24276076023E+02 -0.39112314442E+02  0.68855170361E+02  0.47000000000E+01 0. -1.
         -5    1    1    2    0  502  0.41601145496E+02 -0.39364380267E+02 -0.17352394931E+01  0.57491832433E+02  0.47000000000E+01 0.  1.
        -11    1    1    2    0    0 -0.35777718978E+01 -0.11087296222E+02  0.11317312080E+00  0.11650811020E+02  0.00000000000E+00 0. -1.
         11    1    1    2    0    0  0.12965286683E+02  0.26175600466E+02  0.99419646072E+01  0.30856172459E+02  0.00000000000E+00 0.  1.
<mgrwt>
<rscale>  0 0.91660786E+02</rscale>
<asrwt>0</asrwt>
<pdfrwt beam="2">  1        2 0.15357416E-01 0.11956188E+03</pdfrwt>
<pdfrwt beam="1">  1       -2 0.10620121E-01 0.11956188E+03</pdfrwt>
<totfact> 0.20857505E+04</totfact>
</mgrwt>
</event>
<event>
 6    1  0.6101889E-006  0.1931219E+03  0.7546771E-02  0.1160188E+00
         -1   -1    0    0    0  501 -0.00000000000E+00  0.00000000000E+00  0.94330059154E+02  0.94330059154E+02  0.00000000000E+00 0.  1.
          1   -1    0    0  501    0  0.00000000000E+00 -0.00000000000E+00 -0.35691093754E+03  0.35691093754E+03  0.00000000000E+00 0. -1.
          5    1    1    2  502    0  0.59884905452E+02 -0.16230751992E+01 -0.24757920258E+02  0.64991390889E+02  0.47000000000E+01 0. -1.
         -5    1    1    2    0  502  0.12905688277E+02  0.12957948883E+03 -0.10961514251E+03  0.17027909497E+03  0.47000000000E+01 0. -1.
        -11    1    1    2    0    0 -0.40473410874E+02 -0.27754950338E+01 -0.51796818998E+02  0.65792938974E+02  0.00000000000E+00 0. -1.
         11    1    1    2    0    0 -0.32317182855E+02 -0.12518091859E+03 -0.76410996624E+02  0.15017757187E+03  0.00000000000E+00 0.  1.
<mgrwt>
<rscale>  0 0.18809852E+03</rscale>
<asrwt>0</asrwt>
<pdfrwt beam="2">  1        1 0.54909376E-01 0.19312193E+03</pdfrwt>
<pdfrwt beam="1">  1       -1 0.14512317E-01 0.19312193E+03</pdfrwt>
<totfact> 0.23487691E+03</totfact>
</mgrwt>
</event>
<event>
 6    1  0.6101889E-006  0.1368549E+03  0.7546771E-02  0.1229044E+00
          1   -1    0    0  501    0  0.00000000000E+00  0.00000000000E+00  0.53336107329E+03  0.53336107329E+03  0.00000000000E+00 0. -1.
         -1   -1    0    0    0  501 -0.00000000000E+00 -0.00000000000E+00 -0.68238884615E+02  0.68238884615E+02  0.00000000000E+00 0.  1.
          5    1    1    2  502    0  0.46806989965E+02 -0.10404864949E+02  0.15613766372E+03  0.16340200597E+03  0.47000000000E+01 0. -1.
         -5    1    1    2    0  502 -0.61113230173E+02  0.63871748193E+02  0.31791138113E+03  0.33000630808E+03  0.47000000000E+01 0. -1.
        -11    1    1    2    0    0  0.39133650539E+02 -0.21259530644E+02  0.28541307962E+02  0.52896280662E+02  0.00000000000E+00 0. -1.
         11    1    1    2    0    0 -0.24827410331E+02 -0.32207352601E+02 -0.37468164144E+02  0.55295363184E+02  0.00000000000E+00 0.  1.
<mgrwt>
<rscale>  0 0.12893561E+03</rscale>
<asrwt>0</asrwt>
<pdfrwt beam="1">  1        1 0.82055547E-01 0.13685491E+03</pdfrwt>
<pdfrwt beam="2">  1       -1 0.10498290E-01 0.13685491E+03</pdfrwt>
<totfact> 0.22923954E+03</totfact>
</mgrwt>
</event>
<event>
 6    1  0.6101889E-006  0.1314494E+03  0.7546771E-02  0.1238450E+00
          2   -1    0    0  501    0  0.00000000000E+00  0.00000000000E+00  0.30246234628E+03  0.30246234628E+03  0.00000000000E+00 0.  1.
         -2   -1    0    0    0  501 -0.00000000000E+00 -0.00000000000E+00 -0.52162405737E+02  0.52162405737E+02  0.00000000000E+00 0. -1.
          5    1    1    2  502    0  0.40716100023E+02 -0.66200523851E+02  0.10371749450E+03  0.12969085868E+03  0.47000000000E+01 0.  1.
         -5    1    1    2    0  502 -0.44605466243E+02  0.25725237369E+02  0.10361695459E+03  0.11580154894E+03  0.47000000000E+01 0.  1.
        -11    1    1    2    0    0  0.46650595656E+02  0.10267917913E+02  0.17089621093E+02  0.50732271410E+02  0.00000000000E+00 0. -1.
         11    1    1    2    0    0 -0.42761229436E+02  0.30207368569E+02  0.25875870353E+02  0.58400072990E+02  0.00000000000E+00 0.  1.
<mgrwt>
<rscale>  0 0.12286111E+03</rscale>
<asrwt>0</asrwt>
<pdfrwt beam="1">  1        2 0.46532668E-01 0.13144941E+03</pdfrwt>
<pdfrwt beam="2">  1       -2 0.80249856E-02 0.13144941E+03</pdfrwt>
<totfact> 0.96322713E+03</totfact>
</mgrwt>
</event>
<event>
 6    1  0.6101889E-006  0.1516625E+03  0.7546771E-02  0.1207026E+00
          1   -1    0    0  501    0  0.00000000000E+00  0.00000000000E+00  0.99524027983E+03  0.99524027983E+03  0.00000000000E+00 0. -1.
         -1   -1    0    0    0  501 -0.00000000000E+00 -0.00000000000E+00 -0.19561338936E+02  0.19561338936E+02  0.00000000000E+00 0.  1.
          5    1    1    2  502    0 -0.28563835614E+02 -0.18723035504E+02  0.22050637125E+03  0.22318511268E+03  0.47000000000E+01 0. -1.
         -5    1    1    2    0  502  0.10292614409E+03 -0.24270267498E+02  0.26126183812E+03  0.28189124690E+03  0.47000000000E+01 0. -1.
        -11    1    1    2    0    0  0.11888471803E+01 -0.24087484763E+02  0.12036350866E+03  0.12275583284E+03  0.00000000000E+00 0. -1.
         11    1    1    2    0    0 -0.75551155658E+02  0.67080787765E+02  0.37354722287E+03  0.38696942634E+03  0.00000000000E+00 0.  1.
<mgrwt>
<rscale>  0 0.14478973E+03</rscale>
<asrwt>0</asrwt>
<pdfrwt beam="1">  1        1 0.15311385E+00 0.15166252E+03</pdfrwt>
<pdfrwt beam="2">  1       -1 0.30094375E-02 0.15166252E+03</pdfrwt>
<totfact> 0.59199958E+03</totfact>
</mgrwt>
</event>
<event>
 6    1  0.6101889E-006  0.4894340E+03  0.7546771E-02  0.1016574E+00
          4   -1    0    0  501    0  0.00000000000E+00  0.00000000000E+00  0.84797293738E+03  0.84797293738E+03  0.00000000000E+00 0. -1.
         -4   -1    0    0    0  501 -0.00000000000E+00 -0.00000000000E+00 -0.70623030073E+02  0.70623030073E+02  0.00000000000E+00 0.  1.
          5    1    1    2  502    0  0.10732507519E+03 -0.37066331870E+02  0.73208330885E+03  0.74085129805E+03  0.47000000000E+01 0. -1.
         -5    1    1    2    0  502 -0.21054986301E+02 -0.59276355272E+01  0.30087980954E+02  0.37494345026E+02  0.47000000000E+01 0. -1.
        -11    1    1    2    0    0 -0.20706160785E+02  0.66263694040E+02  0.13098295306E+02  0.70648337434E+02  0.00000000000E+00 0.  1.
         11    1    1    2    0    0 -0.65563928100E+02 -0.23269726643E+02  0.20803221953E+01  0.69601986943E+02  0.00000000000E+00 0. -1.
<mgrwt>
<rscale>  0 0.48943403E+03</rscale>
<asrwt>0</asrwt>
<pdfrwt beam="1">  1        4 0.13045737E+00 0.48943403E+03</pdfrwt>
<pdfrwt beam="2">  1       -4 0.10865082E-01 0.48943403E+03</pdfrwt>
<totfact> 0.57606263E+01</totfact>
</mgrwt>
</event>
<event>
 6    1  0.6101889E-006  0.1306421E+03  0.7546771E-02  0.1241712E+00
          1   -1    0    0  501    0  0.00000000000E+00  0.00000000000E+00  0.55320695362E+02  0.55320695362E+02  0.00000000000E+00 0. -1.
         -1   -1    0    0    0  501 -0.00000000000E+00 -0.00000000000E+00 -0.24188542445E+03  0.24188542445E+03  0.00000000000E+00 0.  1.
          5    1    1    2  502    0  0.38542225852E+02 -0.36535674160E+02 -0.57219390687E+02  0.78208102717E+02  0.47000000000E+01 0. -1.
         -5    1    1    2    0  502 -0.17635183967E+02  0.68198533422E+02 -0.19279209669E+02  0.73183451680E+02  0.47000000000E+01 0. -1.
        -11    1    1    2    0    0 -0.22034102776E+02 -0.49649799041E+01 -0.11621919344E+03  0.11839363848E+03  0.00000000000E+00 0.  1.
         11    1    1    2    0    0  0.11270608915E+01 -0.26697879357E+02  0.61530647047E+01  0.27420926930E+02  0.00000000000E+00 0. -1.
<mgrwt>
<rscale>  0 0.12084377E+03</rscale>
<asrwt>0</asrwt>
<pdfrwt beam="1">  1        1 0.85108764E-02 0.13064213E+03</pdfrwt>
<pdfrwt beam="2">  1       -1 0.37213142E-01 0.13064213E+03</pdfrwt>
<totfact> 0.53284685E+03</totfact>
</mgrwt>
</event>
<event>
 6    1  0.6101889E-006  0.3619112E+03  0.7546771E-02  0.1058864E+00
          2   -1    0    0  501    0  0.00000000000E+00  0.00000000000E+00  0.63490766215E+03  0.63490766215E+03  0.00000000000E+00 0.  1.
         -2   -1    0    0    0  501 -0.00000000000E+00 -0.00000000000E+00 -0.34450249200E+03  0.34450249200E+03  0.00000000000E+00 0. -1.
          5    1    1    2  502    0 -0.15429502469E+03 -0.18076327401E+03  0.23483242865E+03  0.33414169961E+03  0.47000000000E+01 0. -1.
         -5    1    1    2    0  502 -0.10208381376E+03 -0.42007407951E+02  0.22825889522E+03  0.25359404686E+03  0.47000000000E+01 0. -1.
        -11    1    1    2    0    0  0.92467160829E+02  0.52616242464E+02 -0.95943868030E+02  0.14326154619E+03  0.00000000000E+00 0. -1.
         11    1    1    2    0    0  0.16391167762E+03  0.17015443950E+03 -0.76742285692E+02  0.24841286149E+03  0.00000000000E+00 0.  1.
<mgrwt>
<rscale>  0 0.35929297E+03</rscale>
<asrwt>0</asrwt>
<pdfrwt beam="1">  1        2 0.97678101E-01 0.36191122E+03</pdfrwt>
<pdfrwt beam="2">  1       -2 0.53000384E-01 0.36191122E+03</pdfrwt>
<totfact> 0.16122479E+02</totfact>
</mgrwt>
</event>
<event>
 6    1  0.6101889E-006  0.1174043E+03  0.7546771E-02  0.1257914E+00
          2   -1    0    0  501    0  0.00000000000E+00  0.00000000000E+00  0.21758449395E+03  0.21758449395E+03  0.00000000000E+00 0. -1.
         -2   -1    0    0    0  501 -0.00000000000E+00 -0.00000000000E+00 -0.11387849771E+03  0.11387849771E+03  0.00000000000E+00 0.  1.
          5    1    1    2  502    0 -0.57508997077E+02  0.22231227166E+02  0.15812814093E+03  0.16978843059E+03  0.47000000000E+01 0. -1.
         -5    1    1    2    0  502  0.28607342038E+02 -0.24320328693E+02  0.18051714722E+02  0.41926278283E+02  0.47000000000E+01 0.  1.
        -11    1    1    2    0    0  0.55074961726E+02  0.20555908647E+02 -0.28461686273E+02  0.65313584919E+02  0.00000000000E+00 0.  1.
         11    1    1    2    0    0 -0.26173306688E+02 -0.18466807119E+02 -0.44012173135E+02  0.54434697870E+02  0.00000000000E+00 0. -1.
<mgrwt>
<rscale>  0 0.11144659E+03</rscale>
<asrwt>0</asrwt>
<pdfrwt beam="1">  1        2 0.33474537E-01 0.11740433E+03</pdfrwt>
<pdfrwt beam="2">  1       -2 0.17519769E-01 0.11740433E+03</pdfrwt>
<totfact> 0.39049250E+03</totfact>
</mgrwt>
</event>
<event>
 6    1  0.6101889E-006  0.1253897E+03  0.7546771E-02  0.1249736E+00
          3   -1    0    0  501    0  0.00000000000E+00  0.00000000000E+00  0.81181946912E+02  0.81181946912E+02  0.00000000000E+00 0. -1.
         -3   -1    0    0    0  501 -0.00000000000E+00 -0.00000000000E+00 -0.14561678052E+03  0.14561678052E+03  0.00000000000E+00 0.  1.
          5    1    1    2  502    0  0.15787511389E+02  0.30511822445E+02  0.37418143070E+02  0.51013961379E+02  0.47000000000E+01 0.  1.
         -5    1    1    2    0  502 -0.21130922894E+02 -0.22091083297E+02 -0.73068847329E+02  0.79345310596E+02  0.47000000000E+01 0.  1.
        -11    1    1    2    0    0 -0.32031919517E+02 -0.21847992406E+02  0.10920506196E+02  0.40281957446E+02  0.00000000000E+00 0. -1.
         11    1    1    2    0    0  0.37375331022E+02  0.13427253258E+02 -0.39704635548E+02  0.56157498013E+02  0.00000000000E+00 0.  1.
<mgrwt>
<rscale>  0 0.11606327E+03</rscale>
<asrwt>0</asrwt>
<pdfrwt beam="1">  1        3 0.12489531E-01 0.12538966E+03</pdfrwt>
<pdfrwt beam="2">  1       -3 0.22402581E-01 0.12538966E+03</pdfrwt>
<totfact> 0.21017782E+03</totfact>
</mgrwt>
</event>
<event>
 6    1  0.6101889E-006  0.1817121E+03  0.7546771E-02  0.1171555E+00
         -1   -1    0    0    0  501 -0.00000000000E+00  0.00000000000E+00  0.29497707932E+03  0.29497707932E+03  0.00000000000E+00 0.  1.
          1   -1    0    0  501    0  0.00000000000E+00 -0.00000000000E+00 -0.27013701992E+03  0.27013701992E+03  0.00000000000E+00 0. -1.
          5    1    1    2  502    0 -0.32509728063E+02  0.31962251297E+02 -0.19402047927E+02  0.49769442337E+02  0.47000000000E+01 0. -1.
         -5    1    1    2    0  502 -0.85650641008E+02 -0.90557080706E+02 -0.19244667966E+03  0.22933475899E+03  0.47000000000E+01 0. -1.
        -11    1    1    2    0    0  0.41391647654E+02 -0.71255878809E+01  0.19183323391E+02  0.46174044597E+02  0.00000000000E+00 0. -1.
         11    1    1    2    0    0  0.76768721418E+02  0.65720417290E+02  0.21750546360E+03  0.23983585331E+03  0.00000000000E+00 0.  1.
<mgrwt>
<rscale>  0 0.17617665E+03</rscale>
<asrwt>0</asrwt>
<pdfrwt beam="2">  1        1 0.41559541E-01 0.18171206E+03</pdfrwt>
<pdfrwt beam="1">  1       -1 0.45381089E-01 0.18171206E+03</pdfrwt>
<totfact> 0.49521165E+02</totfact>
</mgrwt>
</event>
<event>
 6    1  0.6101889E-006  0.1642614E+03  0.7546771E-02  0.1189834E+00
          1   -1    0    0  501    0  0.00000000000E+00  0.00000000000E+00  0.56582981883E+02  0.56582981883E+02  0.00000000000E+00 0. -1.
         -1   -1    0    0    0  501 -0.00000000000E+00 -0.00000000000E+00 -0.50398871156E+03  0.50398871156E+03  0.00000000000E+00 0.  1.
          5    1    1    2  502    0 -0.41789185068E+02  0.61753228510E+02 -0.46724475639E+02  0.88119599658E+02  0.47000000000E+01 0.  1.
         -5    1    1    2    0  502  0.80464421726E+02  0.37532575254E+02 -0.75156441277E+02  0.11642078008E+03  0.47000000000E+01 0.  1.
        -11    1    1    2    0    0 -0.69910867026E+02 -0.74366726647E+02 -0.25957014327E+03  0.27891683104E+03  0.00000000000E+00 0.  1.
         11    1    1    2    0    0  0.31235630368E+02 -0.24919077117E+02 -0.65954669494E+02  0.77114482666E+02  0.00000000000E+00 0. -1.
<mgrwt>
<rscale>  0 0.15899681E+03</rscale>
<asrwt>0</asrwt>
<pdfrwt beam="1">  1        1 0.87050746E-02 0.16426140E+03</pdfrwt>
<pdfrwt beam="2">  1       -1 0.77536721E-01 0.16426140E+03</pdfrwt>
<totfact> 0.13292390E+03</totfact>
</mgrwt>
</event>
<event>
 6    1  0.6101889E-006  0.1253107E+03  0.7546771E-02  0.1249908E+00
         -1   -1    0    0    0  501 -0.00000000000E+00  0.00000000000E+00  0.41602224053E+02  0.41602224053E+02  0.00000000000E+00 0.  1.
          1   -1    0    0  501    0  0.00000000000E+00 -0.00000000000E+00 -0.31191329934E+03  0.31191329934E+03  0.00000000000E+00 0. -1.
          5    1    1    2  502    0 -0.28717957418E+02 -0.93176585090E+01  0.10306066669E+01  0.30572732761E+02  0.47000000000E+01 0. -1.
         -5    1    1    2    0  502  0.33484536536E+02  0.16787203376E+02 -0.20782741239E+03  0.21122818875E+03  0.47000000000E+01 0. -1.
        -11    1    1    2    0    0  0.21539193485E+02 -0.42753540796E+02 -0.31956586088E+02  0.57558887246E+02  0.00000000000E+00 0.  1.
         11    1    1    2    0    0 -0.26305772603E+02  0.35283995929E+02 -0.31557683476E+02  0.54155714632E+02  0.00000000000E+00 0. -1.
<mgrwt>
<rscale>  0 0.11596396E+03</rscale>
<asrwt>0</asrwt>
<pdfrwt beam="2">  1        1 0.47986663E-01 0.12531068E+03</pdfrwt>
<pdfrwt beam="1">  1       -1 0.64003420E-02 0.12531068E+03</pdfrwt>
<totfact> 0.95073705E+03</totfact>
</mgrwt>
</event>
<event>
 6    1  0.6101889E-006  0.3030665E+03  0.7546771E-02  0.1083718E+00
         -2   -1    0    0    0  501 -0.00000000000E+00  0.00000000000E+00  0.27582996531E+02  0.27582996531E+02  0.00000000000E+00 0.  1.
          2   -1    0    0  501    0  0.00000000000E+00 -0.00000000000E+00 -0.83248115146E+03  0.83248115146E+03  0.00000000000E+00 0. -1.
          5    1    1    2  502    0 -0.11861446971E+02  0.17801048433E+02 -0.20006976577E+02  0.29663788721E+02  0.47000000000E+01 0. -1.
         -5    1    1    2    0  502  0.15875979080E+02 -0.10219091649E+03 -0.57006733556E+03  0.57939096230E+03  0.47000000000E+01 0. -1.
        -11    1    1    2    0    0  0.34992417411E+02  0.59500120951E+02 -0.18093618556E+03  0.19365597568E+03  0.00000000000E+00 0. -1.
         11    1    1    2    0    0 -0.39006949520E+02  0.24889747103E+02 -0.33887657237E+02  0.57353421299E+02  0.00000000000E+00 0.  1.
<mgrwt>
<rscale>  0 0.30306649E+03</rscale>
<asrwt>0</asrwt>
<pdfrwt beam="2">  1        2 0.12807403E+00 0.30306649E+03</pdfrwt>
<pdfrwt beam="1">  1       -2 0.42435378E-02 0.30306649E+03</pdfrwt>
<totfact> 0.84741590E+03</totfact>
</mgrwt>
</event>
<event>
 6    1  0.6101889E-006  0.1637249E+03  0.7546771E-02  0.1191243E+00
          3   -1    0    0  501    0  0.00000000000E+00  0.00000000000E+00  0.26485742219E+03  0.26485742219E+03  0.00000000000E+00 0. -1.
         -3   -1    0    0    0  501 -0.00000000000E+00 -0.00000000000E+00 -0.89250112739E+02  0.89250112739E+02  0.00000000000E+00 0.  1.
          5    1    1    2  502    0 -0.73956796094E+02 -0.25559456844E+01  0.13806429540E+03  0.15671624105E+03  0.47000000000E+01 0.  1.
         -5    1    1    2    0  502 -0.29104866293E+02  0.26181629409E+02 -0.20887382260E+02  0.44619992135E+02  0.47000000000E+01 0.  1.
        -11    1    1    2    0    0  0.85379854347E+02  0.81367864321E+01  0.21772748632E+01  0.85794331675E+02  0.00000000000E+00 0.  1.
         11    1    1    2    0    0  0.17681808040E+02 -0.31762470157E+02  0.56253121453E+02  0.66976970066E+02  0.00000000000E+00 0. -1.
<mgrwt>
<rscale>  0 0.15776504E+03</rscale>
<asrwt>0</asrwt>
<pdfrwt beam="1">  1        3 0.40747295E-01 0.16372492E+03</pdfrwt>
<pdfrwt beam="2">  1       -3 0.13730787E-01 0.16372492E+03</pdfrwt>
<totfact> 0.61578785E+02</totfact>
</mgrwt>
</event>
<event>
 6    1  0.6101889E-006  0.1317747E+03  0.7546771E-02  0.1237879E+00
         -1   -1    0    0    0  501 -0.00000000000E+00  0.00000000000E+00  0.46639802154E+03  0.46639802154E+03  0.00000000000E+00 0.  1.
          1   -1    0    0  501    0  0.00000000000E+00 -0.00000000000E+00 -0.57697768472E+02  0.57697768472E+02  0.00000000000E+00 0. -1.
          5    1    1    2  502    0  0.15182486371E+02 -0.33397725072E+02 -0.22148040581E+02  0.43110806464E+02  0.47000000000E+01 0.  1.
         -5    1    1    2    0  502 -0.48619351892E+01  0.73801888858E+02  0.56150127424E+02  0.92980019480E+02  0.47000000000E+01 0.  1.
        -11    1    1    2    0    0 -0.87422136833E+01  0.28777034352E+02  0.85243152401E+02  0.90393246636E+02  0.00000000000E+00 0.  1.
         11    1    1    2    0    0 -0.15783374986E+01 -0.69181198138E+02  0.28945501382E+03  0.29761171743E+03  0.00000000000E+00 0. -1.
<mgrwt>
<rscale>  0 0.12321899E+03</rscale>
<asrwt>0</asrwt>
<pdfrwt beam="2">  1        1 0.88765801E-02 0.13177470E+03</pdfrwt>
<pdfrwt beam="1">  1       -1 0.71753539E-01 0.13177470E+03</pdfrwt>
<totfact> 0.15023859E+03</totfact>
</mgrwt>
</event>
<event>
 6    1  0.6101889E-006  0.2664463E+03  0.7546771E-02  0.1105370E+00
          1   -1    0    0  501    0  0.00000000000E+00  0.00000000000E+00  0.39796579573E+03  0.39796579573E+03  0.00000000000E+00 0. -1.
         -1   -1    0    0    0  501 -0.00000000000E+00 -0.00000000000E+00 -0.17481150422E+03  0.17481150422E+03  0.00000000000E+00 0.  1.
          5    1    1    2  502    0  0.55094597850E+02 -0.11458542851E+03  0.14387443702E+03  0.19206035189E+03  0.47000000000E+01 0. -1.
         -5    1    1    2    0  502  0.10369257248E+03 -0.59073409876E+02  0.20976473867E+02  0.12125972043E+03  0.47000000000E+01 0. -1.
        -11    1    1    2    0    0 -0.10980669238E+03  0.10637955256E+03 -0.79385035931E+01  0.15309192903E+03  0.00000000000E+00 0. -1.
         11    1    1    2    0    0 -0.48980477946E+02  0.67279285833E+02  0.66241884222E+02  0.10636529860E+03  0.00000000000E+00 0.  1.
<mgrwt>
<rscale>  0 0.26297281E+03</rscale>
<asrwt>0</asrwt>
<pdfrwt beam="1">  1        1 0.61225507E-01 0.26644633E+03</pdfrwt>
<pdfrwt beam="2">  1       -1 0.26894078E-01 0.26644633E+03</pdfrwt>
<totfact> 0.75319790E+02</totfact>
</mgrwt>
</event>
<event>
 6    1  0.6101889E-006  0.1258544E+03  0.7546771E-02  0.1248775E+00
         -2   -1    0    0    0  501 -0.00000000000E+00  0.00000000000E+00  0.54203242747E+02  0.54203242747E+02  0.00000000000E+00 0. -1.
          2   -1    0    0  501    0  0.00000000000E+00 -0.00000000000E+00 -0.22231018314E+03  0.22231018314E+03  0.00000000000E+00 0.  1.
          5    1    1    2  502    0 -0.52314267863E+02 -0.30944338776E+02 -0.23816367522E+02  0.65449553752E+02  0.47000000000E+01 0.  1.
         -5    1    1    2    0  502  0.39170674697E+02  0.37388597454E+02 -0.85168717214E+02  0.10103489183E+03  0.47000000000E+01 0.  1.
        -11    1    1    2    0    0  0.33218638245E+02 -0.25461810938E+02  0.30697612535E+01  0.41966715112E+02  0.00000000000E+00 0. -1.
         11    1    1    2    0    0 -0.20075045080E+02  0.19017552260E+02 -0.62191616909E+02  0.68062265189E+02  0.00000000000E+00 0.  1.
<mgrwt>
<rscale>  0 0.11662262E+03</rscale>
<asrwt>0</asrwt>
<pdfrwt beam="2">  1        2 0.34201567E-01 0.12585437E+03</pdfrwt>
<pdfrwt beam="1">  1       -2 0.83389604E-02 0.12585437E+03</pdfrwt>
<totfact> 0.12545718E+04</totfact>
</mgrwt>
</event>
<event>
 6    1  0.6101889E-006  0.1290547E+03  0.7546771E-02  0.1250352E+00
          1   -1    0    0  501    0  0.00000000000E+00  0.00000000000E+00  0.67370151892E+02  0.67370151892E+02  0.00000000000E+00 0. -1.
         -1   -1    0    0    0  501 -0.00000000000E+00 -0.00000000000E+00 -0.22123779256E+03  0.22123779256E+03  0.00000000000E+00 0.  1.
          5    1    1    2  502    0 -0.42121284107E+02 -0.15678836877E+02  0.43170429695E+02  0.62496435904E+02  0.47000000000E+01 0. -1.
         -5    1    1    2    0  502  0.23994536692E+02 -0.96840609935E+01 -0.62746230540E+02  0.68034537371E+02  0.47000000000E+01 0.  1.
        -11    1    1    2    0    0  0.10091945318E+01 -0.26719943814E+02 -0.29530282165E+02  0.39837312105E+02  0.00000000000E+00 0. -1.
         11    1    1    2    0    0  0.17117552883E+02  0.52082841684E+02 -0.10476155766E+03  0.11823965907E+03  0.00000000000E+00 0.  1.
<mgrwt>
<rscale>  0 0.11570710E+03</rscale>
<asrwt>0</asrwt>
<pdfrwt beam="1">  1        1 0.10364639E-01 0.12905473E+03</pdfrwt>
<pdfrwt beam="2">  1       -1 0.34036584E-01 0.12905473E+03</pdfrwt>
<totfact> 0.47767672E+03</totfact>
</mgrwt>
</event>
<event>
 6    1  0.6101889E-006  0.1315138E+03  0.7546771E-02  0.1237338E+00
         -2   -1    0    0    0  501 -0.00000000000E+00  0.00000000000E+00  0.13769099958E+02  0.13769099958E+02  0.00000000000E+00 0.  1.
          2   -1    0    0  501    0  0.00000000000E+00 -0.00000000000E+00 -0.10922862813E+04  0.10922862813E+04  0.00000000000E+00 0. -1.
          5    1    1    2  502    0  0.61360633625E+01  0.59627604717E+02 -0.35986593712E+03  0.36485433425E+03  0.47000000000E+01 0.  1.
         -5    1    1    2    0  502 -0.46592279948E+02 -0.53822874122E+02 -0.40500913343E+03  0.41124473308E+03  0.47000000000E+01 0.  1.
        -11    1    1    2    0    0  0.56157274435E+02  0.16043030692E+01 -0.30577936403E+03  0.31089746336E+03  0.00000000000E+00 0. -1.
         11    1    1    2    0    0 -0.15701057849E+02 -0.74090336635E+01 -0.78627467314E+01  0.19058850531E+02  0.00000000000E+00 0.  1.
<mgrwt>
<rscale>  0 0.12355951E+03</rscale>
<asrwt>0</asrwt>
<pdfrwt beam="2">  1        2 0.16804402E+00 0.13151383E+03</pdfrwt>
<pdfrwt beam="1">  1       -2 0.21183234E-02 0.13151383E+03</pdfrwt>
<totfact> 0.15700002E+04</totfact>
</mgrwt>
</event>
<event>
 6    1  0.6101889E-006  0.1608087E+03  0.7546771E-02  0.1199961E+00
         -2   -1    0    0    0  501 -0.00000000000E+00  0.00000000000E+00  0.36742475059E+02  0.36742475059E+02  0.00000000000E+00 0. -1.
          2   -1    0    0  501    0  0.00000000000E+00 -0.00000000000E+00 -0.72802816417E+03  0.72802816417E+03  0.00000000000E+00 0.  1.
          5    1    1    2  502    0 -0.86161650194E+02  0.54126573956E+02 -0.55250840435E+03  0.56181949312E+03  0.47000000000E+01 0.  1.
         -5    1    1    2    0  502  0.15460025531E+02  0.18229154890E+02 -0.16366817990E+02  0.29347524743E+02  0.47000000000E+01 0.  1.
        -11    1    1    2    0    0  0.79095516317E+02 -0.79450272944E+02 -0.11122585238E+03  0.15792288248E+03  0.00000000000E+00 0.  1.
         11    1    1    2    0    0 -0.83938916534E+01  0.70945440980E+01 -0.11184614389E+02  0.15680738888E+02  0.00000000000E+00 0. -1.
<mgrwt>
<rscale>  0 0.15041724E+03</rscale>
<asrwt>0</asrwt>
<pdfrwt beam="2">  1        2 0.11200431E+00 0.16080866E+03</pdfrwt>
<pdfrwt beam="1">  1       -2 0.56526896E-02 0.16080866E+03</pdfrwt>
<totfact> 0.63158812E+03</totfact>
</mgrwt>
</event>
<event>
 6    1  0.6101889E-006  0.1439686E+03  0.7546771E-02  0.1216041E+00
          2   -1    0    0  501    0  0.00000000000E+00  0.00000000000E+00  0.14813131677E+03  0.14813131677E+03  0.00000000000E+00 0. -1.
         -2   -1    0    0    0  501 -0.00000000000E+00 -0.00000000000E+00 -0.15650088483E+03  0.15650088483E+03  0.00000000000E+00 0.  1.
          5    1    1    2  502    0  0.38042893016E+02 -0.51060366848E+02  0.77432031499E+02  0.10036051153E+03  0.47000000000E+01 0. -1.
         -5    1    1    2    0  502 -0.56213492778E+02 -0.18012398882E+02 -0.75093221804E+01  0.59689891970E+02  0.47000000000E+01 0. -1.
        -11    1    1    2    0    0  0.19353914227E+02  0.92772758300E+02 -0.48394012469E+02  0.10641117949E+03  0.00000000000E+00 0. -1.
         11    1    1    2    0    0 -0.11833144650E+01 -0.23699992570E+02 -0.29898264901E+02  0.38170618609E+02  0.00000000000E+00 0.  1.
<mgrwt>
<rscale>  0 0.13800309E+03</rscale>
<asrwt>0</asrwt>
<pdfrwt beam="1">  1        2 0.22789433E-01 0.14396856E+03</pdfrwt>
<pdfrwt beam="2">  1       -2 0.24077059E-01 0.14396856E+03</pdfrwt>
<totfact> 0.35027646E+03</totfact>
</mgrwt>
</event>
<event>
 6    1  0.6101889E-006  0.2279747E+03  0.7546771E-02  0.1131525E+00
         -2   -1    0    0    0  501 -0.00000000000E+00  0.00000000000E+00  0.64754447652E+02  0.64754447652E+02  0.00000000000E+00 0.  1.
          2   -1    0    0  501    0  0.00000000000E+00 -0.00000000000E+00 -0.74512604444E+03  0.74512604444E+03  0.00000000000E+00 0. -1.
          5    1    1    2  502    0  0.28187007222E+02 -0.75577109635E+02 -0.13220052256E+03  0.15493700347E+03  0.47000000000E+01 0.  1.
         -5    1    1    2    0  502  0.14698527398E+03  0.30885534221E+00 -0.25987804957E+03  0.29860250637E+03  0.47000000000E+01 0.  1.
        -11    1    1    2    0    0 -0.10080962525E+03  0.55203867055E+02 -0.97970575155E+02  0.15102410760E+03  0.00000000000E+00 0.  1.
         11    1    1    2    0    0 -0.74362655960E+02  0.20064387238E+02 -0.19032244950E+03  0.20531687466E+03  0.00000000000E+00 0. -1.
<mgrwt>
<rscale>  0 0.22319326E+03</rscale>
<asrwt>0</asrwt>
<pdfrwt beam="2">  1        2 0.11463477E+00 0.22797474E+03</pdfrwt>
<pdfrwt beam="1">  1       -2 0.99622233E-02 0.22797474E+03</pdfrwt>
<totfact> 0.25781491E+03</totfact>
</mgrwt>
</event>
<event>
 6    1  0.6101889E-006  0.1462648E+03  0.7546771E-02  0.1215268E+00
          2   -1    0    0  501    0  0.00000000000E+00  0.00000000000E+00  0.19024644114E+04  0.19024644114E+04  0.00000000000E+00 0. -1.
         -2   -1    0    0    0  501 -0.00000000000E+00 -0.00000000000E+00 -0.94675677385E+01  0.94675677385E+01  0.00000000000E+00 0.  1.
          5    1    1    2  502    0  0.52037557880E+02 -0.44481571970E+02  0.98795816993E+03  0.99033830240E+03  0.47000000000E+01 0. -1.
         -5    1    1    2    0  502  0.23803931606E+02  0.48538801885E+02  0.22718414298E+03  0.23357518548E+03  0.47000000000E+01 0. -1.
        -11    1    1    2    0    0 -0.95382722905E+02  0.65174550469E+01  0.54912562243E+03  0.55738612313E+03  0.00000000000E+00 0. -1.
         11    1    1    2    0    0  0.19541233419E+02 -0.10574684961E+02  0.12872890831E+03  0.13063236812E+03  0.00000000000E+00 0.  1.
<mgrwt>
<rscale>  0 0.13856833E+03</rscale>
<asrwt>0</asrwt>
<pdfrwt beam="1">  1        2 0.29268653E+00 0.14626478E+03</pdfrwt>
<pdfrwt beam="2">  1       -2 0.14565504E-02 0.14626478E+03</pdfrwt>
<totfact> 0.10129491E+04</totfact>
</mgrwt>
</event>
<event>
 6    1  0.6101889E-006  0.4143352E+03  0.7546771E-02  0.1038926E+00
          2   -1    0    0  501    0  0.00000000000E+00  0.00000000000E+00  0.94386441593E+03  0.94386441593E+03  0.00000000000E+00 0. -1.
         -2   -1    0    0    0  501 -0.00000000000E+00 -0.00000000000E+00 -0.45470946159E+02  0.45470946159E+02  0.00000000000E+00 0.  1.
          5    1    1    2  502    0  0.22732219316E+01 -0.31534729512E+02  0.17128942655E+02  0.36264271395E+02  0.47000000000E+01 0.  1.
         -5    1    1    2    0  502 -0.40461794037E+02 -0.13041882071E+03  0.58800286253E+03  0.60366851990E+03  0.47000000000E+01 0.  1.
        -11    1    1    2    0    0 -0.10929206746E+02  0.97049761579E+02  0.10038306881E+03  0.14005307667E+03  0.00000000000E+00 0.  1.
         11    1    1    2    0    0  0.49117778852E+02  0.64903788644E+02  0.19287859578E+03  0.20934949412E+03  0.00000000000E+00 0. -1.
<mgrwt>
<rscale>  0 0.41433517E+03</rscale>
<asrwt>0</asrwt>
<pdfrwt beam="1">  1        2 0.14520990E+00 0.41433517E+03</pdfrwt>
<pdfrwt beam="2">  1       -2 0.69955309E-02 0.41433517E+03</pdfrwt>
<totfact> 0.33349222E+03</totfact>
</mgrwt>
</event>
<event>
 6    1  0.6101889E-006  0.2802723E+03  0.7546771E-02  0.1095540E+00
          2   -1    0    0  501    0  0.00000000000E+00  0.00000000000E+00  0.31003464912E+03  0.31003464912E+03  0.00000000000E+00 0. -1.
         -2   -1    0    0    0  501 -0.00000000000E+00 -0.00000000000E+00 -0.63341761354E+02  0.63341761354E+02  0.00000000000E+00 0.  1.
          5    1    1    2  502    0 -0.16689424739E+02 -0.66777280125E+01 -0.20270749579E+02  0.27497676957E+02  0.47000000000E+01 0.  1.
         -5    1    1    2    0  502 -0.57252561004E+02  0.54964533604E+02  0.16495495719E+03  0.18311521946E+03  0.47000000000E+01 0.  1.
        -11    1    1    2    0    0  0.64572790593E+02  0.62730228664E+01  0.28802927622E+02  0.70983129970E+02  0.00000000000E+00 0. -1.
         11    1    1    2    0    0  0.93691951511E+01 -0.54559828458E+02  0.73205752528E+02  0.91780384082E+02  0.00000000000E+00 0.  1.
<mgrwt>
<rscale>  0 0.28027230E+03</rscale>
<asrwt>0</asrwt>
<pdfrwt beam="1">  1        2 0.47697637E-01 0.28027230E+03</pdfrwt>
<pdfrwt beam="2">  1       -2 0.97448866E-02 0.28027230E+03</pdfrwt>
<totfact> 0.72496487E+03</totfact>
</mgrwt>
</event>
<event>
 6    1  0.6101889E-006  0.1263854E+03  0.7546771E-02  0.1247828E+00
          1   -1    0    0  501    0  0.00000000000E+00  0.00000000000E+00  0.25091180979E+03  0.25091180979E+03  0.00000000000E+00 0. -1.
         -1   -1    0    0    0  501 -0.00000000000E+00 -0.00000000000E+00 -0.51466857574E+02  0.51466857574E+02  0.00000000000E+00 0.  1.
          5    1    1    2  502    0  0.60424161623E+02 -0.20110672047E+02  0.40899844478E+02  0.75831429607E+02  0.47000000000E+01 0.  1.
         -5    1    1    2    0  502 -0.49635257659E+02  0.48265533473E+01  0.11094816930E+03  0.12173142852E+03  0.47000000000E+01 0.  1.
        -11    1    1    2    0    0 -0.29461487102E+02 -0.11569202868E+02  0.61585229927E+02  0.69242806287E+02  0.00000000000E+00 0. -1.
         11    1    1    2    0    0  0.18672583138E+02  0.26853321567E+02 -0.13988291483E+02  0.35573002949E+02  0.00000000000E+00 0.  1.
<mgrwt>
<rscale>  0 0.11717709E+03</rscale>
<asrwt>0</asrwt>
<pdfrwt beam="1">  1        1 0.38601816E-01 0.12638538E+03</pdfrwt>
<pdfrwt beam="2">  1       -1 0.79179782E-02 0.12638538E+03</pdfrwt>
<totfact> 0.90476198E+03</totfact>
</mgrwt>
</event>
<event>
 6    1  0.6101889E-006  0.1513085E+03  0.7546771E-02  0.1207730E+00
          2   -1    0    0  501    0  0.00000000000E+00  0.00000000000E+00  0.78765872716E+03  0.78765872716E+03  0.00000000000E+00 0. -1.
         -2   -1    0    0    0  501 -0.00000000000E+00 -0.00000000000E+00 -0.26964800820E+02  0.26964800820E+02  0.00000000000E+00 0.  1.
          5    1    1    2  502    0 -0.13877449333E+02  0.70801780535E+02  0.91221077301E+02  0.11639953037E+03  0.47000000000E+01 0.  1.
         -5    1    1    2    0  502  0.70422423356E+02 -0.69939339768E+01  0.19243683318E+03  0.20509085203E+03  0.47000000000E+01 0.  1.
        -11    1    1    2    0    0  0.18889542779E+02 -0.12659600210E+02  0.34572002049E+02  0.41379990690E+02  0.00000000000E+00 0.  1.
         11    1    1    2    0    0 -0.75434516802E+02 -0.51148246349E+02  0.44246401381E+03  0.45175315488E+03  0.00000000000E+00 0. -1.
<mgrwt>
<rscale>  0 0.14424373E+03</rscale>
<asrwt>0</asrwt>
<pdfrwt beam="1">  1        2 0.12117825E+00 0.15130848E+03</pdfrwt>
<pdfrwt beam="2">  1       -2 0.41484315E-02 0.15130848E+03</pdfrwt>
<totfact> 0.91055772E+03</totfact>
</mgrwt>
</event>
<event>
 6    1  0.6101889E-006  0.1219913E+03  0.7546771E-02  0.1247073E+00
         -4   -1    0    0    0  501 -0.00000000000E+00  0.00000000000E+00  0.80155876670E+01  0.80155876670E+01  0.00000000000E+00 0.  1.
          4   -1    0    0  501    0  0.00000000000E+00 -0.00000000000E+00 -0.17547511566E+04  0.17547511566E+04  0.00000000000E+00 0. -1.
          5    1    1    2  502    0  0.46176021025E+02 -0.29505956105E+02 -0.89061415911E+03  0.89231076244E+03  0.47000000000E+01 0. -1.
         -5    1    1    2    0  502 -0.23937018199E+01  0.51586157826E+02 -0.29101126367E+03  0.29559517430E+03  0.47000000000E+01 0.  1.
        -11    1    1    2    0    0 -0.30118928273E+02 -0.58759147466E+02 -0.37394501366E+03  0.37972972032E+03  0.00000000000E+00 0. -1.
         11    1    1    2    0    0 -0.13663390932E+02  0.36678945746E+02 -0.19116513249E+03  0.19513108721E+03  0.00000000000E+00 0.  1.
<mgrwt>
<rscale>  0 0.11762174E+03</rscale>
<asrwt>0</asrwt>
<pdfrwt beam="2">  1        4 0.26996206E+00 0.12199129E+03</pdfrwt>
<pdfrwt beam="1">  1       -4 0.12331658E-02 0.12199129E+03</pdfrwt>
<totfact> 0.19851642E+02</totfact>
</mgrwt>
</event>
<event>
 6    1  0.6101889E-006  0.1382641E+03  0.7546771E-02  0.1227829E+00
         -3   -1    0    0    0  501 -0.00000000000E+00  0.00000000000E+00  0.28546582881E+03  0.28546582881E+03  0.00000000000E+00 0.  1.
          3   -1    0    0  501    0  0.00000000000E+00 -0.00000000000E+00 -0.53700603965E+02  0.53700603965E+02  0.00000000000E+00 0. -1.
          5    1    1    2  502    0 -0.34320857545E+02 -0.17358496142E+02  0.12165951671E+03  0.12768072155E+03  0.47000000000E+01 0. -1.
         -5    1    1    2    0  502 -0.19718760380E+02  0.41258100794E+02 -0.13446792629E+02  0.47895371635E+02  0.47000000000E+01 0. -1.
        -11    1    1    2    0    0  0.74937749309E+02 -0.32495276805E+01  0.70463693418E+02  0.10291432258E+03  0.00000000000E+00 0. -1.
         11    1    1    2    0    0 -0.20898131384E+02 -0.20650076972E+02  0.53088807349E+02  0.60676017008E+02  0.00000000000E+00 0.  1.
<mgrwt>
<rscale>  0 0.12974876E+03</rscale>
<asrwt>0</asrwt>
<pdfrwt beam="2">  1        3 0.82616316E-02 0.13826413E+03</pdfrwt>
<pdfrwt beam="1">  1       -3 0.43917819E-01 0.13826413E+03</pdfrwt>
<totfact> 0.12088453E+03</totfact>
</mgrwt>
</event>
<event>
 6    1  0.6101889E-006  0.1515263E+03  0.7546771E-02  0.1207224E+00
         -1   -1    0    0    0  501 -0.00000000000E+00  0.00000000000E+00  0.41822847744E+02  0.41822847744E+02  0.00000000000E+00 0.  1.
          1   -1    0    0  501    0  0.00000000000E+00 -0.00000000000E+00 -0.46328785227E+03  0.46328785227E+03  0.00000000000E+00 0. -1.
          5    1    1    2  502    0  0.34381857158E+02 -0.11313147035E+03 -0.15927884190E+03  0.19842550532E+03  0.47000000000E+01 0. -1.
         -5    1    1    2    0  502 -0.12568821461E+02  0.30285498584E+02 -0.48707216059E+02  0.58903901344E+02  0.47000000000E+01 0. -1.
        -11    1    1    2    0    0 -0.32844709375E+02 -0.83484308929E+01 -0.60280295131E+02  0.69153345641E+02  0.00000000000E+00 0. -1.
         11    1    1    2    0    0  0.11031673677E+02  0.91194402659E+02 -0.15319865144E+03  0.17862794771E+03  0.00000000000E+00 0.  1.
<mgrwt>
<rscale>  0 0.14463546E+03</rscale>
<asrwt>0</asrwt>
<pdfrwt beam="2">  1        1 0.71275058E-01 0.15152631E+03</pdfrwt>
<pdfrwt beam="1">  1       -1 0.64342839E-02 0.15152631E+03</pdfrwt>
<totfact> 0.58051668E+03</totfact>
</mgrwt>
</event>
<event>
 6    1  0.6101889E-006  0.1414908E+03  0.7546771E-02  0.1221385E+00
         -1   -1    0    0    0  501 -0.00000000000E+00  0.00000000000E+00  0.10089368464E+02  0.10089368464E+02  0.00000000000E+00 0.  1.
          1   -1    0    0  501    0  0.00000000000E+00 -0.00000000000E+00 -0.17893919173E+04  0.17893919173E+04  0.00000000000E+00 0. -1.
          5    1    1    2  502    0 -0.81046748398E+02 -0.13503603931E+02 -0.81456803144E+03  0.81871490190E+03  0.47000000000E+01 0.  1.
         -5    1    1    2    0  502  0.41704297904E+02 -0.39867870434E+02 -0.43347911485E+03  0.43732702703E+03  0.47000000000E+01 0.  1.
        -11    1    1    2    0    0  0.29661286069E+02 -0.20498668673E+02 -0.11338919853E+03  0.11898360245E+03  0.00000000000E+00 0.  1.
         11    1    1    2    0    0  0.96811644245E+01  0.73870143038E+02 -0.41786620403E+03  0.42445575441E+03  0.00000000000E+00 0. -1.
<mgrwt>
<rscale>  0 0.13417770E+03</rscale>
<asrwt>0</asrwt>
<pdfrwt beam="2">  1        1 0.27529126E+00 0.14149080E+03</pdfrwt>
<pdfrwt beam="1">  1       -1 0.15522094E-02 0.14149080E+03</pdfrwt>
<totfact> 0.45404247E+03</totfact>
</mgrwt>
</event>
<event>
 6    1  0.6101889E-006  0.2313530E+03  0.7546771E-02  0.1128448E+00
          2   -1    0    0  501    0  0.00000000000E+00  0.00000000000E+00  0.59139076993E+03  0.59139076993E+03  0.00000000000E+00 0. -1.
         -2   -1    0    0    0  501 -0.00000000000E+00 -0.00000000000E+00 -0.84658417992E+02  0.84658417992E+02  0.00000000000E+00 0.  1.
          5    1    1    2  502    0  0.11832124557E+02 -0.65413598246E+01 -0.66201435625E+01  0.15770379218E+02  0.47000000000E+01 0. -1.
         -5    1    1    2    0  502 -0.13640963267E+03 -0.14307033401E+03  0.27232764410E+03  0.33654293055E+03  0.47000000000E+01 0. -1.
        -11    1    1    2    0    0  0.99856502004E+02  0.49352804656E+02  0.10610849105E+03  0.15383768132E+03  0.00000000000E+00 0.  1.
         11    1    1    2    0    0  0.24721006106E+02  0.10025888918E+03  0.13491636035E+03  0.16989819685E+03  0.00000000000E+00 0. -1.
<mgrwt>
<rscale>  0 0.22744939E+03</rscale>
<asrwt>0</asrwt>
<pdfrwt beam="1">  1        2 0.90983193E-01 0.23135296E+03</pdfrwt>
<pdfrwt beam="2">  1       -2 0.13024372E-01 0.23135296E+03</pdfrwt>
<totfact> 0.22082101E+03</totfact>
</mgrwt>
</event>
<event>
 6    1  0.6101889E-006  0.1288656E+03  0.7546771E-02  0.1243392E+00
         -2   -1    0    0    0  501 -0.00000000000E+00  0.00000000000E+00  0.36951305521E+02  0.36951305521E+02  0.00000000000E+00 0.  1.
          2   -1    0    0  501    0  0.00000000000E+00 -0.00000000000E+00 -0.41913705848E+03  0.41913705848E+03  0.00000000000E+00 0. -1.
          5    1    1    2  502    0 -0.32368006922E+02  0.27252330856E+02 -0.44357812968E+02  0.61482379431E+02  0.47000000000E+01 0. -1.
         -5    1    1    2    0  502  0.34590381379E+02 -0.58485658108E+02 -0.26564485533E+03  0.27423775424E+03  0.47000000000E+01 0. -1.
        -11    1    1    2    0    0 -0.18128183957E+01  0.46089270684E+02 -0.87570796719E+02  0.98975510207E+02  0.00000000000E+00 0. -1.
         11    1    1    2    0    0 -0.40955606113E+00 -0.14855943432E+02  0.15387712064E+02  0.21392720116E+02  0.00000000000E+00 0.  1.
<mgrwt>
<rscale>  0 0.11982166E+03</rscale>
<asrwt>0</asrwt>
<pdfrwt beam="2">  1        2 0.64482627E-01 0.12886564E+03</pdfrwt>
<pdfrwt beam="1">  1       -2 0.56848160E-02 0.12886564E+03</pdfrwt>
<totfact> 0.11508473E+04</totfact>
</mgrwt>
</event>
<event>
 6    1  0.6101889E-006  0.1440574E+03  0.7546771E-02  0.1217353E+00
          2   -1    0    0  501    0  0.00000000000E+00  0.00000000000E+00  0.64312411208E+03  0.64312411208E+03  0.00000000000E+00 0. -1.
         -2   -1    0    0    0  501 -0.00000000000E+00 -0.00000000000E+00 -0.29623731339E+02  0.29623731339E+02  0.00000000000E+00 0.  1.
          5    1    1    2  502    0  0.55712079251E+02 -0.26948128159E+02  0.74735646183E+02  0.97147023609E+02  0.47000000000E+01 0.  1.
         -5    1    1    2    0  502 -0.18716115764E+01 -0.20259868329E+02  0.36473224727E+03  0.36532953260E+03  0.47000000000E+01 0.  1.
        -11    1    1    2    0    0 -0.22169477943E+02  0.69450441109E+02  0.78160933788E+02  0.10688302528E+03  0.00000000000E+00 0.  1.
         11    1    1    2    0    0 -0.31670989732E+02 -0.22242444620E+02  0.95871553499E+02  0.10338826192E+03  0.00000000000E+00 0. -1.
<mgrwt>
<rscale>  0 0.13705117E+03</rscale>
<asrwt>0</asrwt>
<pdfrwt beam="1">  1        2 0.98942161E-01 0.14405740E+03</pdfrwt>
<pdfrwt beam="2">  1       -2 0.45574976E-02 0.14405740E+03</pdfrwt>
<totfact> 0.10058523E+04</totfact>
</mgrwt>
</event>
<event>
 6    1  0.6101889E-006  0.1457200E+03  0.7546771E-02  0.1216448E+00
         -1   -1    0    0    0  501 -0.00000000000E+00  0.00000000000E+00  0.13635193813E+02  0.13635193813E+02  0.00000000000E+00 0.  1.
          1   -1    0    0  501    0  0.00000000000E+00 -0.00000000000E+00 -0.12604306972E+04  0.12604306972E+04  0.00000000000E+00 0. -1.
          5    1    1    2  502    0  0.44920346326E+00  0.27038327794E+02 -0.35940404082E+02  0.45222512084E+02  0.47000000000E+01 0. -1.
         -5    1    1    2    0  502  0.72293232501E+02 -0.45035844513E+02 -0.68552027329E+03  0.69080726244E+03  0.47000000000E+01 0. -1.
        -11    1    1    2    0    0 -0.78503729198E+02  0.32466200069E+02 -0.50660083022E+03  0.51367430423E+03  0.00000000000E+00 0. -1.
         11    1    1    2    0    0  0.57612932338E+01 -0.14468683350E+02 -0.18733995773E+02  0.24361812232E+02  0.00000000000E+00 0.  1.
<mgrwt>
<rscale>  0 0.13770698E+03</rscale>
<asrwt>0</asrwt>
<pdfrwt beam="2">  1        1 0.19391237E+00 0.14572001E+03</pdfrwt>
<pdfrwt beam="1">  1       -1 0.20977226E-02 0.14572001E+03</pdfrwt>
<totfact> 0.65027414E+03</totfact>
</mgrwt>
</event>
<event>
 6    1  0.6101889E-006  0.1274473E+03  0.7546771E-02  0.1244420E+00
         -1   -1    0    0    0  501 -0.00000000000E+00  0.00000000000E+00  0.41198989614E+02  0.41198989614E+02  0.00000000000E+00 0.  1.
          1   -1    0    0  501    0  0.00000000000E+00 -0.00000000000E+00 -0.34347274723E+03  0.34347274723E+03  0.00000000000E+00 0. -1.
          5    1    1    2  502    0 -0.31004927062E+02  0.23508321542E+02 -0.20855667019E+02  0.44395895426E+02  0.47000000000E+01 0.  1.
         -5    1    1    2    0  502  0.54654619896E+02 -0.31198021730E+02 -0.21031414470E+03  0.21957817172E+03  0.47000000000E+01 0.  1.
        -11    1    1    2    0    0 -0.25200693394E+01  0.30807287529E+02 -0.81924735290E+02  0.87561989280E+02  0.00000000000E+00 0. -1.
         11    1    1    2    0    0 -0.21129623495E+02 -0.23117587341E+02  0.10820789393E+02  0.33135680416E+02  0.00000000000E+00 0.  1.
<mgrwt>
<rscale>  0 0.11920184E+03</rscale>
<asrwt>0</asrwt>
<pdfrwt beam="2">  1        1 0.52841962E-01 0.12744735E+03</pdfrwt>
<pdfrwt beam="1">  1       -1 0.63383060E-02 0.12744735E+03</pdfrwt>
<totfact> 0.85709696E+03</totfact>
</mgrwt>
</event>
<event>
 6    1  0.6101889E-006  0.2087137E+03  0.7546771E-02  0.1146524E+00
          1   -1    0    0  501    0  0.00000000000E+00  0.00000000000E+00  0.84098052015E+03  0.84098052015E+03  0.00000000000E+00 0. -1.
         -1   -1    0    0    0  501 -0.00000000000E+00 -0.00000000000E+00 -0.48050231629E+02  0.48050231629E+02  0.00000000000E+00 0.  1.
          5    1    1    2  502    0  0.19098968103E+02  0.41259801897E+02  0.15224875358E+03  0.15896199169E+03  0.47000000000E+01 0.  1.
         -5    1    1    2    0  502  0.14689266794E+03 -0.60826006823E+02  0.31991119284E+03  0.35727093403E+03  0.47000000000E+01 0.  1.
        -11    1    1    2    0    0 -0.19254788118E+01 -0.20302453405E+02  0.45680185756E+02  0.50025757902E+02  0.00000000000E+00 0. -1.
         11    1    1    2    0    0 -0.16406615723E+03  0.39868658331E+02  0.27509015635E+03  0.32277206817E+03  0.00000000000E+00 0.  1.
<mgrwt>
<rscale>  0 0.20385835E+03</rscale>
<asrwt>0</asrwt>
<pdfrwt beam="1">  1        1 0.12938161E+00 0.20871372E+03</pdfrwt>
<pdfrwt beam="2">  1       -1 0.73923440E-02 0.20871372E+03</pdfrwt>
<totfact> 0.20624022E+03</totfact>
</mgrwt>
</event>
<event>
 6    1  0.6101889E-006  0.1291428E+03  0.7546771E-02  0.1241343E+00
         -1   -1    0    0    0  501 -0.00000000000E+00  0.00000000000E+00  0.35598241579E+02  0.35598241579E+02  0.00000000000E+00 0.  1.
          1   -1    0    0  501    0  0.00000000000E+00 -0.00000000000E+00 -0.37442533560E+03  0.37442533560E+03  0.00000000000E+00 0. -1.
          5    1    1    2  502    0  0.32382219374E+01 -0.47551790772E+02 -0.25557033811E+02  0.54285457207E+02  0.47000000000E+01 0.  1.
         -5    1    1    2    0  502 -0.34212658120E+02  0.37839254124E+02 -0.19197647377E+03  0.19869416602E+03  0.47000000000E+01 0.  1.
        -11    1    1    2    0    0 -0.39815677581E+01 -0.25159622402E+02  0.65231307809E+00  0.25481071280E+02  0.00000000000E+00 0.  1.
         11    1    1    2    0    0  0.34956003941E+02  0.34872159050E+02 -0.12194589951E+03  0.13156288267E+03  0.00000000000E+00 0. -1.
<mgrwt>
<rscale>  0 0.12106934E+03</rscale>
<asrwt>0</asrwt>
<pdfrwt beam="2">  1        1 0.57603896E-01 0.12914280E+03</pdfrwt>
<pdfrwt beam="1">  1       -1 0.54766527E-02 0.12914280E+03</pdfrwt>
<totfact> 0.95726633E+03</totfact>
</mgrwt>
</event>
<event>
 6    1  0.6101889E-006  0.2411377E+03  0.7546771E-02  0.1146639E+00
         -2   -1    0    0    0  501 -0.00000000000E+00  0.00000000000E+00  0.64014115060E+02  0.64014115060E+02  0.00000000000E+00 0.  1.
          2   -1    0    0  501    0  0.00000000000E+00 -0.00000000000E+00 -0.51870316226E+03  0.51870316226E+03  0.00000000000E+00 0. -1.
          5    1    1    2  502    0  0.20931593786E+02 -0.37068088357E+02 -0.26254516496E+03  0.26601546654E+03  0.47000000000E+01 0. -1.
         -5    1    1    2    0  502 -0.10276186286E+03  0.26061521605E+02 -0.24567458959E+02  0.10892590787E+03  0.47000000000E+01 0.  1.
        -11    1    1    2    0    0  0.56226501237E+02  0.31620026765E+02 -0.39706316299E+02  0.75748512117E+02  0.00000000000E+00 0.  1.
         11    1    1    2    0    0  0.25603767832E+02 -0.20613460013E+02 -0.12787010698E+03  0.13202739079E+03  0.00000000000E+00 0. -1.
<mgrwt>
<rscale>  0 0.20371886E+03</rscale>
<asrwt>0</asrwt>
<pdfrwt beam="2">  1        2 0.79800490E-01 0.24113767E+03</pdfrwt>
<pdfrwt beam="1">  1       -2 0.98483250E-02 0.24113767E+03</pdfrwt>
<totfact> 0.40260488E+03</totfact>
</mgrwt>
</event>
<event>
 6    1  0.6101889E-006  0.2265585E+03  0.7546771E-02  0.1129086E+00
          1   -1    0    0  501    0  0.00000000000E+00  0.00000000000E+00  0.35029122163E+03  0.35029122163E+03  0.00000000000E+00 0. -1.
         -1   -1    0    0    0  501 -0.00000000000E+00 -0.00000000000E+00 -0.36632926038E+02  0.36632926038E+02  0.00000000000E+00 0.  1.
          5    1    1    2  502    0 -0.90588583431E+01 -0.17060669598E+02 -0.12279298301E+02  0.23366654197E+02  0.47000000000E+01 0. -1.
         -5    1    1    2    0  502 -0.64279669366E+00  0.59194487667E+00  0.21838635943E+03  0.21843867691E+03  0.47000000000E+01 0. -1.
        -11    1    1    2    0    0 -0.16292268188E+02 -0.35500693565E+02  0.38099844807E+02  0.54564965139E+02  0.00000000000E+00 0.  1.
         11    1    1    2    0    0  0.25993923225E+02  0.51969418286E+02  0.69451389653E+02  0.90553851416E+02  0.00000000000E+00 0. -1.
<mgrwt>
<rscale>  0 0.22655853E+03</rscale>
<asrwt>0</asrwt>
<pdfrwt beam="1">  1        1 0.53890955E-01 0.22655853E+03</pdfrwt>
<pdfrwt beam="2">  1       -1 0.56358350E-02 0.22655853E+03</pdfrwt>
<totfact> 0.10362031E+04</totfact>
</mgrwt>
</event>
<event>
 6    1  0.6101889E-006  0.1539162E+03  0.7546771E-02  0.1209175E+00
          1   -1    0    0  501    0  0.00000000000E+00  0.00000000000E+00  0.13176842322E+03  0.13176842322E+03  0.00000000000E+00 0. -1.
         -1   -1    0    0    0  501 -0.00000000000E+00 -0.00000000000E+00 -0.13893169242E+03  0.13893169242E+03  0.00000000000E+00 0.  1.
          5    1    1    2  502    0  0.38175912763E+02  0.66216528145E+02  0.32610482704E+02  0.83231980014E+02  0.47000000000E+01 0. -1.
         -5    1    1    2    0  502 -0.64357454545E+02  0.19683189736E+02 -0.22234357980E+02  0.71033559593E+02  0.47000000000E+01 0. -1.
        -11    1    1    2    0    0  0.21970598642E+02 -0.37442810650E+00  0.12989866633E+02  0.25526144171E+02  0.00000000000E+00 0. -1.
         11    1    1    2    0    0  0.42109431409E+01 -0.85525289774E+02 -0.30529260557E+02  0.90908431860E+02  0.00000000000E+00 0.  1.
<mgrwt>
<rscale>  0 0.14313231E+03</rscale>
<asrwt>0</asrwt>
<pdfrwt beam="1">  1        1 0.20272065E-01 0.15391619E+03</pdfrwt>
<pdfrwt beam="2">  1       -1 0.21374107E-01 0.15391619E+03</pdfrwt>
<totfact> 0.43758683E+03</totfact>
</mgrwt>
</event>
<event>
 6    1  0.6101889E-006  0.1397146E+03  0.7546771E-02  0.1225674E+00
         -3   -1    0    0    0  501 -0.00000000000E+00  0.00000000000E+00  0.33922658690E+03  0.33922658690E+03  0.00000000000E+00 0.  1.
          3   -1    0    0  501    0  0.00000000000E+00 -0.00000000000E+00 -0.45471710753E+02  0.45471710753E+02  0.00000000000E+00 0. -1.
          5    1    1    2  502    0  0.33717587812E+02 -0.76728631254E+02  0.58774362095E+02  0.10247279747E+03  0.47000000000E+01 0.  1.
         -5    1    1    2    0  502  0.15309616242E+02  0.38115633575E+02  0.10472526929E+03  0.11259066525E+03  0.47000000000E+01 0.  1.
        -11    1    1    2    0    0 -0.33152249994E+02  0.59584783877E+02  0.12561150280E+03  0.14292539237E+03  0.00000000000E+00 0.  1.
         11    1    1    2    0    0 -0.15874954060E+02 -0.20971786199E+02  0.46437419657E+01  0.26709442567E+02  0.00000000000E+00 0. -1.
<mgrwt>
<rscale>  0 0.13120804E+03</rscale>
<asrwt>0</asrwt>
<pdfrwt beam="2">  1        3 0.69956480E-02 0.13971458E+03</pdfrwt>
<pdfrwt beam="1">  1       -3 0.52188704E-01 0.13971458E+03</pdfrwt>
<totfact> 0.11263354E+03</totfact>
</mgrwt>
</event>
<event>
 6    1  0.6101889E-006  0.1459832E+03  0.7546771E-02  0.1216075E+00
         -2   -1    0    0    0  501 -0.00000000000E+00  0.00000000000E+00  0.40094847631E+02  0.40094847631E+02  0.00000000000E+00 0.  1.
          2   -1    0    0  501    0  0.00000000000E+00 -0.00000000000E+00 -0.44361116704E+03  0.44361116704E+03  0.00000000000E+00 0. -1.
          5    1    1    2  502    0 -0.43887713828E+02  0.22385191468E+02 -0.24150343061E+02  0.55068659800E+02  0.47000000000E+01 0.  1.
         -5    1    1    2    0  502  0.24481967832E+02  0.50480765197E+02 -0.24226685732E+03  0.24872272626E+03  0.47000000000E+01 0.  1.
        -11    1    1    2    0    0  0.14405389488E+02  0.19208289420E+02 -0.33607415817E+02  0.41302930001E+02  0.00000000000E+00 0.  1.
         11    1    1    2    0    0  0.50003565083E+01 -0.92074246085E+02 -0.10349170321E+03  0.13861169861E+03  0.00000000000E+00 0. -1.
<mgrwt>
<rscale>  0 0.13797867E+03</rscale>
<asrwt>0</asrwt>
<pdfrwt beam="2">  1        2 0.68247869E-01 0.14598316E+03</pdfrwt>
<pdfrwt beam="1">  1       -2 0.61684383E-02 0.14598316E+03</pdfrwt>
<totfact> 0.96520356E+03</totfact>
</mgrwt>
</event>
<event>
 6    1  0.6101889E-006  0.1456209E+03  0.7546771E-02  0.1214912E+00
         -1   -1    0    0    0  501 -0.00000000000E+00  0.00000000000E+00  0.99152295040E+02  0.99152295040E+02  0.00000000000E+00 0.  1.
          1   -1    0    0  501    0  0.00000000000E+00 -0.00000000000E+00 -0.19970754173E+03  0.19970754173E+03  0.00000000000E+00 0. -1.
          5    1    1    2  502    0  0.39993083335E+02  0.38790164256E+02 -0.87844612509E+01  0.56598412673E+02  0.47000000000E+01 0.  1.
         -5    1    1    2    0  502  0.26894092474E+02 -0.72054971938E+02 -0.94497218362E+02  0.12193041240E+03  0.47000000000E+01 0.  1.
        -11    1    1    2    0    0 -0.76739393157E+02  0.43872752564E+01  0.26866169407E+02  0.81424650474E+02  0.00000000000E+00 0.  1.
         11    1    1    2    0    0  0.98522173475E+01  0.28877532426E+02 -0.24139736484E+02  0.38906361218E+02  0.00000000000E+00 0. -1.
<mgrwt>
<rscale>  0 0.13883029E+03</rscale>
<asrwt>0</asrwt>
<pdfrwt beam="2">  1        1 0.30724237E-01 0.14562086E+03</pdfrwt>
<pdfrwt beam="1">  1       -1 0.15254199E-01 0.14562086E+03</pdfrwt>
<totfact> 0.44262238E+03</totfact>
</mgrwt>
</event>
<event>
 6    1  0.6101889E-006  0.1295104E+03  0.7546771E-02  0.1241224E+00
          2   -1    0    0  501    0  0.00000000000E+00  0.00000000000E+00  0.16041598841E+03  0.16041598841E+03  0.00000000000E+00 0. -1.
         -2   -1    0    0    0  501 -0.00000000000E+00 -0.00000000000E+00 -0.82859701741E+02  0.82859701741E+02  0.00000000000E+00 0.  1.
          5    1    1    2  502    0 -0.29242705005E+01 -0.25374494260E+02  0.78620936201E+02  0.82799504383E+02  0.47000000000E+01 0. -1.
         -5    1    1    2    0  502 -0.14681454815E+02  0.54359150494E+02 -0.19221876977E+02  0.59682768974E+02  0.47000000000E+01 0. -1.
        -11    1    1    2    0    0 -0.38358761074E+02 -0.10277060507E+02  0.11888196340E+02  0.41452885738E+02  0.00000000000E+00 0.  1.
         11    1    1    2    0    0  0.55964486389E+02 -0.18707595727E+02  0.62690311008E+01  0.59340531053E+02  0.00000000000E+00 0. -1.
<mgrwt>
<rscale>  0 0.12114226E+03</rscale>
<asrwt>0</asrwt>
<pdfrwt beam="1">  1        2 0.24679383E-01 0.12951042E+03</pdfrwt>
<pdfrwt beam="2">  1       -2 0.12747646E-01 0.12951042E+03</pdfrwt>
<totfact> 0.91885252E+03</totfact>
</mgrwt>
</event>
<event>
 6    1  0.6101889E-006  0.1361256E+03  0.7546771E-02  0.1230455E+00
         -3   -1    0    0    0  501 -0.00000000000E+00  0.00000000000E+00  0.26972257436E+03  0.26972257436E+03  0.00000000000E+00 0.  1.
          3   -1    0    0  501    0  0.00000000000E+00 -0.00000000000E+00 -0.65157454795E+02  0.65157454795E+02  0.00000000000E+00 0. -1.
          5    1    1    2  502    0 -0.87175254668E+01  0.37336942246E+02  0.87768597492E+02  0.95892957052E+02  0.47000000000E+01 0.  1.
         -5    1    1    2    0  502 -0.19949086833E+02  0.83015594410E+01 -0.42212230501E+02  0.47653377199E+02  0.47000000000E+01 0.  1.
        -11    1    1    2    0    0 -0.12967319755E+02  0.22823577323E+02  0.41538274010E+02  0.49137513889E+02  0.00000000000E+00 0. -1.
         11    1    1    2    0    0  0.41633932055E+02 -0.68462079010E+02  0.11747047856E+03  0.14219618101E+03  0.00000000000E+00 0.  1.
<mgrwt>
<rscale>  0 0.12799959E+03</rscale>
<asrwt>0</asrwt>
<pdfrwt beam="2">  1        3 0.10024224E-01 0.13612556E+03</pdfrwt>
<pdfrwt beam="1">  1       -3 0.41495780E-01 0.13612556E+03</pdfrwt>
<totfact> 0.98036243E+02</totfact>
</mgrwt>
</event>
<event>
 6    1  0.6101889E-006  0.2340944E+03  0.7546771E-02  0.1125933E+00
         -2   -1    0    0    0  501 -0.00000000000E+00  0.00000000000E+00  0.41905209187E+02  0.41905209187E+02  0.00000000000E+00 0.  1.
          2   -1    0    0  501    0  0.00000000000E+00 -0.00000000000E+00 -0.14516089962E+04  0.14516089962E+04  0.00000000000E+00 0. -1.
          5    1    1    2  502    0  0.16462662135E+02  0.16568392631E+03 -0.84600958804E+03  0.86225083110E+03  0.47000000000E+01 0.  1.
         -5    1    1    2    0  502 -0.51334326529E+02  0.29147652593E+02 -0.15921100034E+03  0.16986768780E+03  0.47000000000E+01 0.  1.
        -11    1    1    2    0    0  0.53315339967E+02 -0.74998691527E+02 -0.24015576230E+03  0.25718110228E+03  0.00000000000E+00 0.  1.
         11    1    1    2    0    0 -0.18443675573E+02 -0.11983288738E+03 -0.16432743636E+03  0.20421458421E+03  0.00000000000E+00 0. -1.
<mgrwt>
<rscale>  0 0.23100768E+03</rscale>
<asrwt>0</asrwt>
<pdfrwt beam="2">  1        2 0.22332448E+00 0.23409444E+03</pdfrwt>
<pdfrwt beam="1">  1       -2 0.64469546E-02 0.23409444E+03</pdfrwt>
<totfact> 0.19209812E+03</totfact>
</mgrwt>
</event>
<event>
 6    1  0.6101889E-006  0.1258601E+03  0.7546771E-02  0.1249086E+00
         -1   -1    0    0    0  501 -0.00000000000E+00  0.00000000000E+00  0.34297248495E+03  0.34297248495E+03  0.00000000000E+00 0.  1.
          1   -1    0    0  501    0  0.00000000000E+00 -0.00000000000E+00 -0.34793304211E+02  0.34793304211E+02  0.00000000000E+00 0. -1.
          5    1    1    2  502    0 -0.15912568891E+02 -0.43003264593E+02  0.12972007092E+03  0.13766581788E+03  0.47000000000E+01 0.  1.
         -5    1    1    2    0  502  0.21715406204E+02  0.56532351378E+02  0.36628591281E+02  0.70931018026E+02  0.47000000000E+01 0.  1.
        -11    1    1    2    0    0 -0.28115512482E+02 -0.37395889403E+02  0.12267824765E+03  0.13129694221E+03  0.00000000000E+00 0.  1.
         11    1    1    2    0    0  0.22312675170E+02  0.23866802618E+02  0.19152270891E+02  0.37872011047E+02  0.00000000000E+00 0. -1.
<mgrwt>
<rscale>  0 0.11644147E+03</rscale>
<asrwt>0</asrwt>
<pdfrwt beam="2">  1        1 0.53528163E-02 0.12586009E+03</pdfrwt>
<pdfrwt beam="1">  1       -1 0.52764995E-01 0.12586009E+03</pdfrwt>
<totfact> 0.53290591E+03</totfact>
</mgrwt>
</event>
<event>
 6    1  0.6101889E-006  0.2569965E+03  0.7546771E-02  0.1116169E+00
         -2   -1    0    0    0  501 -0.00000000000E+00  0.00000000000E+00  0.20316160371E+03  0.20316160371E+03  0.00000000000E+00 0.  1.
          2   -1    0    0  501    0  0.00000000000E+00 -0.00000000000E+00 -0.52421221632E+03  0.52421221632E+03  0.00000000000E+00 0. -1.
          5    1    1    2  502    0 -0.17575493099E+03 -0.56499357171E+02 -0.20234813827E+03  0.27395041921E+03  0.47000000000E+01 0. -1.
         -5    1    1    2    0  502 -0.31059864193E+01 -0.18798541556E+02 -0.21698176010E+03  0.21786740586E+03  0.47000000000E+01 0.  1.
        -11    1    1    2    0    0  0.11319597831E+03  0.43423607651E+02  0.10940326500E+02  0.12173179516E+03  0.00000000000E+00 0. -1.
         11    1    1    2    0    0  0.65664939090E+02  0.31874291076E+02  0.87338959256E+02  0.11382419981E+03  0.00000000000E+00 0.  1.
<mgrwt>
<rscale>  0 0.24551982E+03</rscale>
<asrwt>0</asrwt>
<pdfrwt beam="2">  1        2 0.80648034E-01 0.25699652E+03</pdfrwt>
<pdfrwt beam="1">  1       -2 0.31255631E-01 0.25699652E+03</pdfrwt>
<totfact> 0.56234483E+02</totfact>
</mgrwt>
</event>
<event>
 6    1  0.6101889E-006  0.2530268E+03  0.7546771E-02  0.1111407E+00
          1   -1    0    0  501    0  0.00000000000E+00  0.00000000000E+00  0.11690510808E+03  0.11690510808E+03  0.00000000000E+00 0. -1.
         -1   -1    0    0    0  501 -0.00000000000E+00 -0.00000000000E+00 -0.13691141951E+03  0.13691141951E+03  0.00000000000E+00 0.  1.
          5    1    1    2  502    0  0.55194323836E+02 -0.24285616780E+02  0.72860128625E+02  0.94693679352E+02  0.47000000000E+01 0. -1.
         -5    1    1    2    0  502 -0.34614643141E+01  0.10731701305E+02 -0.42834544756E+02  0.44542556871E+02  0.47000000000E+01 0. -1.
        -11    1    1    2    0    0 -0.12937061156E+02  0.14086581776E+02 -0.68850729116E+02  0.71457835380E+02  0.00000000000E+00 0.  1.
         11    1    1    2    0    0 -0.38795798366E+02 -0.53266630024E+00  0.18818833810E+02  0.43122455985E+02  0.00000000000E+00 0. -1.
<mgrwt>
<rscale>  0 0.25302683E+03</rscale>
<asrwt>0</asrwt>
<pdfrwt beam="1">  1        1 0.17985401E-01 0.25302683E+03</pdfrwt>
<pdfrwt beam="2">  1       -1 0.21063295E-01 0.25302683E+03</pdfrwt>
<totfact> 0.53695488E+03</totfact>
</mgrwt>
</event>
<event>
 6    1  0.6101889E-006  0.3143022E+03  0.7546771E-02  0.1078302E+00
          1   -1    0    0  501    0  0.00000000000E+00  0.00000000000E+00  0.74105131707E+03  0.74105131707E+03  0.00000000000E+00 0. -1.
         -1   -1    0    0    0  501 -0.00000000000E+00 -0.00000000000E+00 -0.33326259479E+02  0.33326259479E+02  0.00000000000E+00 0.  1.
          5    1    1    2  502    0  0.58387030453E+02  0.99198220507E+02  0.44506235292E+03  0.45973026903E+03  0.47000000000E+01 0. -1.
         -5    1    1    2    0  502 -0.50500572312E+01  0.34435300010E+01 -0.69113949020E+01  0.10354629708E+02  0.47000000000E+01 0. -1.
        -11    1    1    2    0    0 -0.68654502375E+02 -0.50983279559E+02  0.18793188706E+03  0.20647307249E+03  0.00000000000E+00 0. -1.
         11    1    1    2    0    0  0.15317529153E+02 -0.51658470950E+02  0.81642212512E+02  0.97819605316E+02  0.00000000000E+00 0.  1.
<mgrwt>
<rscale>  0 0.31430220E+03</rscale>
<asrwt>0</asrwt>
<pdfrwt beam="1">  1        1 0.11400788E+00 0.31430220E+03</pdfrwt>
<pdfrwt beam="2">  1       -1 0.51271174E-02 0.31430220E+03</pdfrwt>
<totfact> 0.43952889E+03</totfact>
</mgrwt>
</event>
<event>
 6    1  0.6101889E-006  0.1283115E+03  0.7546771E-02  0.1248045E+00
         -1   -1    0    0    0  501 -0.00000000000E+00  0.00000000000E+00  0.62993509725E+02  0.62993509725E+02  0.00000000000E+00 0.  1.
          1   -1    0    0  501    0  0.00000000000E+00 -0.00000000000E+00 -0.19549781548E+03  0.19549781548E+03  0.00000000000E+00 0. -1.
          5    1    1    2  502    0  0.17398107721E+02 -0.23306741157E+02  0.15115966432E+02  0.33113151116E+02  0.47000000000E+01 0.  1.
         -5    1    1    2    0  502 -0.23859477477E+02  0.51535272047E+02 -0.11914554449E+03  0.13207160824E+03  0.47000000000E+01 0.  1.
        -11    1    1    2    0    0  0.23895802754E+02  0.15743226864E+02  0.12020877782E+02  0.31038042528E+02  0.00000000000E+00 0.  1.
         11    1    1    2    0    0 -0.17434432997E+02 -0.43971757754E+02 -0.40495605481E+02  0.62268523325E+02  0.00000000000E+00 0. -1.
<mgrwt>
<rscale>  0 0.11704973E+03</rscale>
<asrwt>0</asrwt>
<pdfrwt beam="2">  1        1 0.30076586E-01 0.12831154E+03</pdfrwt>
<pdfrwt beam="1">  1       -1 0.96913094E-02 0.12831154E+03</pdfrwt>
<totfact> 0.90849017E+03</totfact>
</mgrwt>
</event>
<event>
 6    1  0.6101889E-006  0.2773614E+03  0.7546771E-02  0.1097139E+00
         -1   -1    0    0    0  501 -0.00000000000E+00  0.00000000000E+00  0.16326969129E+02  0.16326969129E+02  0.00000000000E+00 0.  1.
          1   -1    0    0  501    0  0.00000000000E+00 -0.00000000000E+00 -0.11779488530E+04  0.11779488530E+04  0.00000000000E+00 0. -1.
          5    1    1    2  502    0 -0.22208489267E+01 -0.33932932256E+02 -0.80787400702E+02  0.87778529115E+02  0.47000000000E+01 0. -1.
         -5    1    1    2    0  502 -0.62678121221E+02  0.66138158087E+02 -0.74314276335E+03  0.74872295247E+03  0.47000000000E+01 0. -1.
        -11    1    1    2    0    0  0.29157365419E+02 -0.62281741028E+02 -0.16228873495E+03  0.17625776781E+03  0.00000000000E+00 0.  1.
         11    1    1    2    0    0  0.35741604730E+02  0.30076515197E+02 -0.17540298490E+03  0.18151657276E+03  0.00000000000E+00 0. -1.
<mgrwt>
<rscale>  0 0.27736139E+03</rscale>
<asrwt>0</asrwt>
<pdfrwt beam="2">  1        1 0.18122296E+00 0.27736139E+03</pdfrwt>
<pdfrwt beam="1">  1       -1 0.25118406E-02 0.27736139E+03</pdfrwt>
<totfact> 0.58200653E+03</totfact>
</mgrwt>
</event>
<event>
 6    1  0.6101889E-006  0.1258060E+03  0.7546771E-02  0.1248911E+00
          2   -1    0    0  501    0  0.00000000000E+00  0.00000000000E+00  0.25498669133E+02  0.25498669133E+02  0.00000000000E+00 0. -1.
         -2   -1    0    0    0  501 -0.00000000000E+00 -0.00000000000E+00 -0.46879145251E+03  0.46879145251E+03  0.00000000000E+00 0.  1.
          5    1    1    2  502    0 -0.27497486952E+02 -0.23257659342E+02 -0.13750728486E+02  0.38835589871E+02  0.47000000000E+01 0.  1.
         -5    1    1    2    0  502  0.40099170583E+02  0.29674850350E+02 -0.23081330214E+03  0.23618935342E+03  0.47000000000E+01 0.  1.
        -11    1    1    2    0    0  0.27092916578E+02 -0.21984688836E+02 -0.15222825242E+03  0.15617552147E+03  0.00000000000E+00 0.  1.
         11    1    1    2    0    0 -0.39694600208E+02  0.15567497827E+02 -0.46500500333E+02  0.63089656883E+02  0.00000000000E+00 0. -1.
<mgrwt>
<rscale>  0 0.11654346E+03</rscale>
<asrwt>0</asrwt>
<pdfrwt beam="1">  1        2 0.39228720E-02 0.12580602E+03</pdfrwt>
<pdfrwt beam="2">  1       -2 0.72121765E-01 0.12580602E+03</pdfrwt>
<totfact> 0.36810311E+03</totfact>
</mgrwt>
</event>
<event>
 6    1  0.6101889E-006  0.1383924E+03  0.7546771E-02  0.1231438E+00
         -1   -1    0    0    0  501 -0.00000000000E+00  0.00000000000E+00  0.63989287470E+02  0.63989287470E+02  0.00000000000E+00 0.  1.
          1   -1    0    0  501    0  0.00000000000E+00 -0.00000000000E+00 -0.13940408034E+04  0.13940408034E+04  0.00000000000E+00 0. -1.
          5    1    1    2  502    0  0.13794360453E+02 -0.51515250059E+02 -0.67648916517E+03  0.67860429262E+03  0.47000000000E+01 0. -1.
         -5    1    1    2    0  502  0.11174421528E+02  0.80981498148E+02 -0.67328245038E+03  0.67824348042E+03  0.47000000000E+01 0.  1.
        -11    1    1    2    0    0 -0.34080370548E+02 -0.11699281809E+02  0.51977254711E+02  0.63245393973E+02  0.00000000000E+00 0.  1.
         11    1    1    2    0    0  0.91115885665E+01 -0.17766966280E+02 -0.32257155059E+02  0.37936923828E+02  0.00000000000E+00 0. -1.
<mgrwt>
<rscale>  0 0.12735270E+03</rscale>
<asrwt>0</asrwt>
<pdfrwt beam="2">  1        1 0.21446781E+00 0.13839243E+03</pdfrwt>
<pdfrwt beam="1">  1       -1 0.98445063E-02 0.13839243E+03</pdfrwt>
<totfact> 0.53779063E+02</totfact>
</mgrwt>
</event>
<event>
 6    1  0.6101889E-006  0.1257084E+03  0.7546771E-02  0.1259358E+00
         -2   -1    0    0    0  501 -0.00000000000E+00  0.00000000000E+00  0.88237895226E+02  0.88237895226E+02  0.00000000000E+00 0.  1.
          2   -1    0    0  501    0  0.00000000000E+00 -0.00000000000E+00 -0.15040783045E+03  0.15040783045E+03  0.00000000000E+00 0. -1.
          5    1    1    2  502    0  0.60213295650E+01 -0.86952201734E-01  0.30805850562E+02  0.31738846848E+02  0.47000000000E+01 0.  1.
         -5    1    1    2    0  502  0.18660888536E+01 -0.10195854940E+02 -0.12456521164E+03  0.12508405052E+03  0.47000000000E+01 0.  1.
        -11    1    1    2    0    0 -0.20514213664E+02 -0.26990975477E+02  0.24516577308E+02  0.41837880950E+02  0.00000000000E+00 0.  1.
         11    1    1    2    0    0  0.12626795246E+02  0.37273782618E+02  0.70728485371E+01  0.39984947359E+02  0.00000000000E+00 0. -1.
<mgrwt>
<rscale>  0 0.11065723E+03</rscale>
<asrwt>0</asrwt>
<pdfrwt beam="2">  1        2 0.23139666E-01 0.12570841E+03</pdfrwt>
<pdfrwt beam="1">  1       -2 0.13575061E-01 0.12570841E+03</pdfrwt>
<totfact> 0.88964740E+03</totfact>
</mgrwt>
</event>
<event>
 6    1  0.6101889E-006  0.3247678E+03  0.7546771E-02  0.1073476E+00
         -2   -1    0    0    0  501 -0.00000000000E+00  0.00000000000E+00  0.17505343279E+03  0.17505343279E+03  0.00000000000E+00 0.  1.
          2   -1    0    0  501    0  0.00000000000E+00 -0.00000000000E+00 -0.15063130052E+03  0.15063130052E+03  0.00000000000E+00 0. -1.
          5    1    1    2  502    0  0.45105881921E+01 -0.20258257912E+02  0.27996001348E+02  0.35165444843E+02  0.47000000000E+01 0. -1.
         -5    1    1    2    0  502 -0.11435511685E+03  0.39425285742E+02 -0.61038182995E+02  0.13556989226E+03  0.47000000000E+01 0. -1.
        -11    1    1    2    0    0  0.46244513764E+02  0.29124106172E+02 -0.30777546339E+01  0.54737931887E+02  0.00000000000E+00 0. -1.
         11    1    1    2    0    0  0.63600014891E+02 -0.48291134002E+02  0.60542068552E+02  0.10021146432E+03  0.00000000000E+00 0.  1.
<mgrwt>
<rscale>  0 0.32476777E+03</rscale>
<asrwt>0</asrwt>
<pdfrwt beam="2">  1        2 0.23174046E-01 0.32476777E+03</pdfrwt>
<pdfrwt beam="1">  1       -2 0.26931297E-01 0.32476777E+03</pdfrwt>
<totfact> 0.29223645E+03</totfact>
</mgrwt>
</event>
<event>
 6    1  0.6101889E-006  0.1783698E+03  0.7546771E-02  0.1175107E+00
          2   -1    0    0  501    0  0.00000000000E+00  0.00000000000E+00  0.14387946739E+04  0.14387946739E+04  0.00000000000E+00 0. -1.
         -2   -1    0    0    0  501 -0.00000000000E+00 -0.00000000000E+00 -0.26519985770E+02  0.26519985770E+02  0.00000000000E+00 0.  1.
          5    1    1    2  502    0 -0.25905930352E+02  0.24087088070E+00  0.21556340852E+03  0.21716548607E+03  0.47000000000E+01 0. -1.
         -5    1    1    2    0  502  0.14027339822E+03  0.55527365625E+02  0.90083033500E+03  0.91338781306E+03  0.47000000000E+01 0. -1.
        -11    1    1    2    0    0 -0.16458748515E+02  0.15182795466E+02  0.11518914437E+03  0.11734541603E+03  0.00000000000E+00 0. -1.
         11    1    1    2    0    0 -0.97908719351E+02 -0.70951031971E+02  0.18069180028E+03  0.21741594456E+03  0.00000000000E+00 0.  1.
<mgrwt>
<rscale>  0 0.17265540E+03</rscale>
<asrwt>0</asrwt>
<pdfrwt beam="1">  1        2 0.22135297E+00 0.17836976E+03</pdfrwt>
<pdfrwt beam="2">  1       -2 0.40799989E-02 0.17836976E+03</pdfrwt>
<totfact> 0.39044258E+03</totfact>
</mgrwt>
</event>
<event>
 6    1  0.6101889E-006  0.3772755E+03  0.7546771E-02  0.1051945E+00
          1   -1    0    0  501    0  0.00000000000E+00  0.00000000000E+00  0.10042860449E+04  0.10042860449E+04  0.00000000000E+00 0. -1.
         -1   -1    0    0    0  501 -0.00000000000E+00 -0.00000000000E+00 -0.35432327244E+02  0.35432327244E+02  0.00000000000E+00 0.  1.
          5    1    1    2  502    0  0.51454271977E+02  0.16085048768E+02  0.76417133232E+02  0.93637274362E+02  0.47000000000E+01 0. -1.
         -5    1    1    2    0  502  0.67995668715E+02 -0.11260135334E+03  0.44721746705E+03  0.46618454348E+03  0.47000000000E+01 0. -1.
        -11    1    1    2    0    0 -0.41051706722E+02  0.55069687272E+02  0.31465066063E+03  0.32206047773E+03  0.00000000000E+00 0. -1.
         11    1    1    2    0    0 -0.78398233970E+02  0.41446617301E+02  0.13056845678E+03  0.15783607661E+03  0.00000000000E+00 0.  1.
<mgrwt>
<rscale>  0 0.37727545E+03</rscale>
<asrwt>0</asrwt>
<pdfrwt beam="1">  1        1 0.15450552E+00 0.37727545E+03</pdfrwt>
<pdfrwt beam="2">  1       -1 0.54511280E-02 0.37727545E+03</pdfrwt>
<totfact> 0.24574049E+03</totfact>
</mgrwt>
</event>
<event>
 6    1  0.6101889E-006  0.3427002E+03  0.7546771E-02  0.1065652E+00
         -2   -1    0    0    0  501 -0.00000000000E+00  0.00000000000E+00  0.19725818407E+03  0.19725818407E+03  0.00000000000E+00 0.  1.
          2   -1    0    0  501    0  0.00000000000E+00 -0.00000000000E+00 -0.14884477787E+03  0.14884477787E+03  0.00000000000E+00 0. -1.
          5    1    1    2  502    0  0.30613315543E+02  0.41183273509E+02 -0.52373674613E+02  0.73473320994E+02  0.47000000000E+01 0.  1.
         -5    1    1    2    0  502  0.56601364580E+02 -0.76148454074E+02 -0.12501174789E+02  0.95815817594E+02  0.47000000000E+01 0.  1.
        -11    1    1    2    0    0 -0.27176517332E+02  0.63155483201E+02  0.48870504116E+02  0.84353448804E+02  0.00000000000E+00 0.  1.
         11    1    1    2    0    0 -0.60038162792E+02 -0.28190302636E+02  0.64417751494E+02  0.92460374548E+02  0.00000000000E+00 0. -1.
<mgrwt>
<rscale>  0 0.34270016E+03</rscale>
<asrwt>0</asrwt>
<pdfrwt beam="2">  1        2 0.22899197E-01 0.34270016E+03</pdfrwt>
<pdfrwt beam="1">  1       -2 0.30347413E-01 0.34270016E+03</pdfrwt>
<totfact> 0.23889687E+03</totfact>
</mgrwt>
</event>
<event>
 6    1  0.6101889E-006  0.1287674E+03  0.7546771E-02  0.1245634E+00
         -2   -1    0    0    0  501 -0.00000000000E+00  0.00000000000E+00  0.84627264954E+02  0.84627264954E+02  0.00000000000E+00 0.  1.
          2   -1    0    0  501    0  0.00000000000E+00 -0.00000000000E+00 -0.14666443909E+03  0.14666443909E+03  0.00000000000E+00 0. -1.
          5    1    1    2  502    0 -0.33263018148E+01  0.20385596210E+02  0.34380183437E+02  0.40382221704E+02  0.47000000000E+01 0. -1.
         -5    1    1    2    0  502  0.26596245712E+02 -0.40798111597E+02 -0.84803135001E+02  0.97905607102E+02  0.47000000000E+01 0. -1.
        -11    1    1    2    0    0  0.64036984058E+01  0.14175483748E+02 -0.45172596381E+02  0.47775675365E+02  0.00000000000E+00 0. -1.
         11    1    1    2    0    0 -0.29673642303E+02  0.62370316393E+01  0.33558373808E+02  0.45228199874E+02  0.00000000000E+00 0.  1.
<mgrwt>
<rscale>  0 0.11847494E+03</rscale>
<asrwt>0</asrwt>
<pdfrwt beam="2">  1        2 0.22563759E-01 0.12876742E+03</pdfrwt>
<pdfrwt beam="1">  1       -2 0.13019579E-01 0.12876742E+03</pdfrwt>
<totfact> 0.98052061E+03</totfact>
</mgrwt>
</event>
<event>
 6    1  0.6101889E-006  0.1465010E+03  0.7546771E-02  0.1207237E+00
         -1   -1    0    0    0  501 -0.00000000000E+00  0.00000000000E+00  0.41310779320E+03  0.41310779320E+03  0.00000000000E+00 0.  1.
          1   -1    0    0  501    0  0.00000000000E+00 -0.00000000000E+00 -0.50527397287E+02  0.50527397287E+02  0.00000000000E+00 0. -1.
          5    1    1    2  502    0 -0.22946849305E+02 -0.21585029384E+02  0.20914777404E+03  0.21155933629E+03  0.47000000000E+01 0.  1.
         -5    1    1    2    0  502  0.20607996080E+01 -0.51900983952E+02  0.11681082729E+02  0.53446204018E+02  0.47000000000E+01 0.  1.
        -11    1    1    2    0    0 -0.83559877681E+01 -0.27875705802E+02  0.12191956256E+02  0.31551882716E+02  0.00000000000E+00 0. -1.
         11    1    1    2    0    0  0.29242037465E+02  0.10136171914E+03  0.12955958288E+03  0.16707776746E+03  0.00000000000E+00 0.  1.
<mgrwt>
<rscale>  0 0.14462533E+03</rscale>
<asrwt>0</asrwt>
<pdfrwt beam="2">  1        1 0.77734460E-02 0.14650103E+03</pdfrwt>
<pdfrwt beam="1">  1       -1 0.63555043E-01 0.14650103E+03</pdfrwt>
<totfact> 0.22852299E+03</totfact>
</mgrwt>
</event>
<event>
 6    1  0.6101889E-006  0.1262133E+03  0.7546771E-02  0.1247342E+00
          1   -1    0    0  501    0  0.00000000000E+00  0.00000000000E+00  0.55976437696E+03  0.55976437696E+03  0.00000000000E+00 0. -1.
         -1   -1    0    0    0  501 -0.00000000000E+00 -0.00000000000E+00 -0.23996644088E+02  0.23996644088E+02  0.00000000000E+00 0.  1.
          5    1    1    2  502    0  0.24287092308E+02 -0.18550351141E+02  0.15178282036E+02  0.34444863561E+02  0.47000000000E+01 0. -1.
         -5    1    1    2    0  502 -0.21309425895E+02  0.13306746864E+01  0.37505148465E+03  0.37568812660E+03  0.47000000000E+01 0. -1.
        -11    1    1    2    0    0  0.36714003314E+02 -0.11039815365E+02  0.99352969516E+02  0.10649323037E+03  0.00000000000E+00 0. -1.
         11    1    1    2    0    0 -0.39691669726E+02  0.28259491820E+02  0.46184996668E+02  0.67134800520E+02  0.00000000000E+00 0.  1.
<mgrwt>
<rscale>  0 0.11746271E+03</rscale>
<asrwt>0</asrwt>
<pdfrwt beam="1">  1        1 0.86117587E-01 0.12621331E+03</pdfrwt>
<pdfrwt beam="2">  1       -1 0.36917918E-02 0.12621331E+03</pdfrwt>
<totfact> 0.10186594E+04</totfact>
</mgrwt>
</event>
<event>
 6    1  0.6101889E-006  0.1805487E+03  0.7546771E-02  0.1171972E+00
         -2   -1    0    0    0  501 -0.00000000000E+00  0.00000000000E+00  0.56526966261E+02  0.56526966261E+02  0.00000000000E+00 0.  1.
          2   -1    0    0  501    0  0.00000000000E+00 -0.00000000000E+00 -0.53460261079E+03  0.53460261079E+03  0.00000000000E+00 0. -1.
          5    1    1    2  502    0  0.23832587956E+02  0.99788980904E+01 -0.20145553520E+03  0.20316001899E+03  0.47000000000E+01 0. -1.
         -5    1    1    2    0  502  0.10466224045E+03 -0.31430771254E+02 -0.99866466374E+02  0.14811306176E+03  0.47000000000E+01 0. -1.
        -11    1    1    2    0    0 -0.10911817694E+02 -0.13893000035E+02  0.68793712556E+01  0.18958084403E+02  0.00000000000E+00 0.  1.
         11    1    1    2    0    0 -0.11758301071E+03  0.35344873198E+02 -0.18363301421E+03  0.22089841190E+03  0.00000000000E+00 0. -1.
<mgrwt>
<rscale>  0 0.17575922E+03</rscale>
<asrwt>0</asrwt>
<pdfrwt beam="2">  1        2 0.82246558E-01 0.18054869E+03</pdfrwt>
<pdfrwt beam="1">  1       -2 0.86964561E-02 0.18054869E+03</pdfrwt>
<totfact> 0.46820058E+03</totfact>
</mgrwt>
</event>
<event>
 6    1  0.7854074E-006  0.2412516E+03  0.7546771E-02  0.1121756E+00
          1   -1    0    0  501    0  0.00000000000E+00  0.00000000000E+00  0.24980039228E+03  0.24980039228E+03  0.00000000000E+00 0. -1.
         -1   -1    0    0    0  501 -0.00000000000E+00 -0.00000000000E+00 -0.21776156592E+03  0.21776156592E+03  0.00000000000E+00 0.  1.
          5    1    1    2  502    0  0.26157586292E+02  0.53387707036E+02  0.11650461944E+02  0.60764215182E+02  0.47000000000E+01 0. -1.
         -5    1    1    2    0  502  0.17852150875E+03 -0.27224358289E+02 -0.24407151058E+01  0.18066306170E+03  0.47000000000E+01 0. -1.
        -11    1    1    2    0    0 -0.13578582220E+03 -0.43444116954E+02 -0.18809617913E+02  0.14380188641E+03  0.00000000000E+00 0.  1.
         11    1    1    2    0    0 -0.68893272844E+02  0.17280768207E+02  0.41638697444E+02  0.82332794911E+02  0.00000000000E+00 0. -1.
<mgrwt>
<rscale>  0 0.23707637E+03</rscale>
<asrwt>0</asrwt>
<pdfrwt beam="1">  1        1 0.38430830E-01 0.24125155E+03</pdfrwt>
<pdfrwt beam="2">  1       -1 0.33501779E-01 0.24125155E+03</pdfrwt>
<totfact> 0.93380202E+02</totfact>
</mgrwt>
</event>
<event>
 6    1  0.6101889E-006  0.3275567E+03  0.7546771E-02  0.1072223E+00
          2   -1    0    0  501    0  0.00000000000E+00  0.00000000000E+00  0.78588427924E+03  0.78588427924E+03  0.00000000000E+00 0. -1.
         -2   -1    0    0    0  501 -0.00000000000E+00 -0.00000000000E+00 -0.34131411776E+02  0.34131411776E+02  0.00000000000E+00 0.  1.
          5    1    1    2  502    0  0.88012582777E+02  0.72513701449E+02  0.31546776542E+03  0.33547943699E+03  0.47000000000E+01 0.  1.
         -5    1    1    2    0  502  0.31021963322E+02 -0.47154452206E+02  0.96269005843E+02  0.11169474498E+03  0.47000000000E+01 0.  1.
        -11    1    1    2    0    0 -0.63034736340E+02  0.23054521093E+02  0.91126548655E+02  0.11317657354E+03  0.00000000000E+00 0. -1.
         11    1    1    2    0    0 -0.55999809759E+02 -0.48413770335E+02  0.24888954754E+03  0.25966493550E+03  0.00000000000E+00 0.  1.
<mgrwt>
<rscale>  0 0.32755665E+03</rscale>
<asrwt>0</asrwt>
<pdfrwt beam="1">  1        2 0.12090526E+00 0.32755665E+03</pdfrwt>
<pdfrwt beam="2">  1       -2 0.52509870E-02 0.32755665E+03</pdfrwt>
<totfact> 0.66124819E+03</totfact>
</mgrwt>
</event>
<event>
 6    1  0.6101889E-006  0.1284280E+03  0.7546771E-02  0.1244059E+00
          3   -1    0    0  501    0  0.00000000000E+00  0.00000000000E+00  0.28952976219E+03  0.28952976219E+03  0.00000000000E+00 0. -1.
         -3   -1    0    0    0  501 -0.00000000000E+00 -0.00000000000E+00 -0.45066511895E+02  0.45066511895E+02  0.00000000000E+00 0.  1.
          5    1    1    2  502    0 -0.10338883764E+02 -0.26279606691E+02 -0.61930037402E+01  0.29290843973E+02  0.47000000000E+01 0. -1.
         -5    1    1    2    0  502  0.38559181192E+02  0.34721830560E+02  0.17639453995E+03  0.18392808295E+03  0.47000000000E+01 0. -1.
        -11    1    1    2    0    0  0.21479341465E+02 -0.33735383173E+02  0.35364923369E+02  0.53386477619E+02  0.00000000000E+00 0. -1.
         11    1    1    2    0    0 -0.49699638893E+02  0.25293159304E+02  0.38896790713E+02  0.67990869545E+02  0.00000000000E+00 0.  1.
<mgrwt>
<rscale>  0 0.11941870E+03</rscale>
<asrwt>0</asrwt>
<pdfrwt beam="1">  1        3 0.44543039E-01 0.12842799E+03</pdfrwt>
<pdfrwt beam="2">  1       -3 0.69333097E-02 0.12842799E+03</pdfrwt>
<totfact> 0.15435991E+03</totfact>
</mgrwt>
</event>
<event>
 6    1  0.6101889E-006  0.3642124E+03  0.7546771E-02  0.1056928E+00
          2   -1    0    0  501    0  0.00000000000E+00  0.00000000000E+00  0.12575426422E+03  0.12575426422E+03  0.00000000000E+00 0. -1.
         -2   -1    0    0    0  501 -0.00000000000E+00 -0.00000000000E+00 -0.26371006376E+03  0.26371006376E+03  0.00000000000E+00 0.  1.
          5    1    1    2  502    0 -0.33756124106E+02 -0.32587118910E+02 -0.22600354270E+02  0.52290173519E+02  0.47000000000E+01 0. -1.
         -5    1    1    2    0  502 -0.83621362654E+02  0.10979624913E+03 -0.87576194498E+01  0.13837100315E+03  0.47000000000E+01 0. -1.
        -11    1    1    2    0    0  0.29654330171E+02 -0.67982532520E+02 -0.73983844764E+02  0.10475978862E+03  0.00000000000E+00 0.  1.
         11    1    1    2    0    0  0.87723156589E+02 -0.92265976957E+01 -0.32613981053E+02  0.94043362695E+02  0.00000000000E+00 0. -1.
<mgrwt>
<rscale>  0 0.36421238E+03</rscale>
<asrwt>0</asrwt>
<pdfrwt beam="1">  1        2 0.19346810E-01 0.36421238E+03</pdfrwt>
<pdfrwt beam="2">  1       -2 0.40570778E-01 0.36421238E+03</pdfrwt>
<totfact> 0.16827354E+03</totfact>
</mgrwt>
</event>
<event>
 6    1  0.6101889E-006  0.1698343E+03  0.7546771E-02  0.1184755E+00
         -1   -1    0    0    0  501 -0.00000000000E+00  0.00000000000E+00  0.22265990858E+03  0.22265990858E+03  0.00000000000E+00 0.  1.
          1   -1    0    0  501    0  0.00000000000E+00 -0.00000000000E+00 -0.12282517616E+03  0.12282517616E+03  0.00000000000E+00 0. -1.
          5    1    1    2  502    0  0.62086152909E+02 -0.98209981335E+02 -0.11076101958E+02  0.11681036277E+03  0.47000000000E+01 0. -1.
         -5    1    1    2    0  502  0.35255813646E+02  0.37020834391E+02  0.13323222286E+02  0.53038786062E+02  0.47000000000E+01 0. -1.
        -11    1    1    2    0    0 -0.71695041978E+02  0.81956349083E+02  0.55696035478E+02  0.12230727929E+03  0.00000000000E+00 0. -1.
         11    1    1    2    0    0 -0.25646924576E+02 -0.20767202139E+02  0.41891576619E+02  0.53328656617E+02  0.00000000000E+00 0.  1.
<mgrwt>
<rscale>  0 0.16354197E+03</rscale>
<asrwt>0</asrwt>
<pdfrwt beam="2">  1        1 0.18896181E-01 0.16983428E+03</pdfrwt>
<pdfrwt beam="1">  1       -1 0.34255371E-01 0.16983428E+03</pdfrwt>
<totfact> 0.21908757E+03</totfact>
</mgrwt>
</event>
<event>
 6    1  0.6101889E-006  0.1967445E+03  0.7546771E-02  0.1157020E+00
          1   -1    0    0  501    0  0.00000000000E+00  0.00000000000E+00  0.36538763982E+03  0.36538763982E+03  0.00000000000E+00 0. -1.
         -1   -1    0    0    0  501 -0.00000000000E+00 -0.00000000000E+00 -0.15612395131E+03  0.15612395131E+03  0.00000000000E+00 0.  1.
          5    1    1    2  502    0  0.61020277095E+02 -0.19467866861E+02  0.11607559371E+03  0.13265785131E+03  0.47000000000E+01 0. -1.
         -5    1    1    2    0  502  0.54852843159E+02  0.11769247751E+03  0.15420232447E+03  0.20164523435E+03  0.47000000000E+01 0. -1.
        -11    1    1    2    0    0 -0.54724564293E+02 -0.80817418475E+02 -0.73793483572E+02  0.12235894444E+03  0.00000000000E+00 0.  1.
         11    1    1    2    0    0 -0.61148555962E+02 -0.17407192173E+02  0.12779253900E+02  0.64849561030E+02  0.00000000000E+00 0. -1.
<mgrwt>
<rscale>  0 0.19160733E+03</rscale>
<asrwt>0</asrwt>
<pdfrwt beam="1">  1        1 0.56213483E-01 0.19674450E+03</pdfrwt>
<pdfrwt beam="2">  1       -1 0.24019070E-01 0.19674450E+03</pdfrwt>
<totfact> 0.10129065E+03</totfact>
</mgrwt>
</event>
<event>
 6    1  0.6101889E-006  0.3826969E+03  0.7546771E-02  0.1050949E+00
         -2   -1    0    0    0  501 -0.00000000000E+00  0.00000000000E+00  0.12465347058E+03  0.12465347058E+03  0.00000000000E+00 0.  1.
          2   -1    0    0  501    0  0.00000000000E+00 -0.00000000000E+00 -0.32908652779E+04  0.32908652779E+04  0.00000000000E+00 0. -1.
          5    1    1    2  502    0  0.20184169793E+03  0.30555049647E+03 -0.29613315919E+04  0.29838914296E+04  0.47000000000E+01 0.  1.
         -5    1    1    2    0  502 -0.24035360046E+01 -0.37974154387E+01 -0.96494534854E+01  0.11636120569E+02  0.47000000000E+01 0.  1.
        -11    1    1    2    0    0 -0.17935085800E+03 -0.25161692427E+03 -0.19610924624E+03  0.36597355548E+03  0.00000000000E+00 0.  1.
         11    1    1    2    0    0 -0.20087303921E+02 -0.50136156755E+02  0.87848431698E+00  0.54017642745E+02  0.00000000000E+00 0. -1.
<mgrwt>
<rscale>  0 0.37995764E+03</rscale>
<asrwt>0</asrwt>
<pdfrwt beam="2">  1        2 0.50628695E+00 0.38269692E+03</pdfrwt>
<pdfrwt beam="1">  1       -2 0.19177458E-01 0.38269692E+03</pdfrwt>
<totfact> 0.30136201E+01</totfact>
</mgrwt>
</event>
<event>
 6    1  0.6101889E-006  0.2129072E+03  0.7546771E-02  0.1169498E+00
          1   -1    0    0  501    0  0.00000000000E+00  0.00000000000E+00  0.30067065394E+03  0.30067065394E+03  0.00000000000E+00 0. -1.
         -1   -1    0    0    0  501 -0.00000000000E+00 -0.00000000000E+00 -0.87827284799E+02  0.87827284799E+02  0.00000000000E+00 0.  1.
          5    1    1    2  502    0  0.45122145059E+02  0.82779709909E+02  0.31623871733E+01  0.94448817039E+02  0.47000000000E+01 0. -1.
         -5    1    1    2    0  502 -0.40567167028E+02 -0.32145440293E+02  0.17694764791E+03  0.18442229928E+03  0.47000000000E+01 0.  1.
        -11    1    1    2    0    0  0.23256194651E+02  0.13235447904E+02 -0.92254628236E+01  0.28304360710E+02  0.00000000000E+00 0.  1.
         11    1    1    2    0    0 -0.27811172682E+02 -0.63869717520E+02  0.41958796880E+02  0.81322461705E+02  0.00000000000E+00 0. -1.
<mgrwt>
<rscale>  0 0.17825943E+03</rscale>
<asrwt>0</asrwt>
<pdfrwt beam="1">  1        1 0.46257023E-01 0.21290720E+03</pdfrwt>
<pdfrwt beam="2">  1       -1 0.13511890E-01 0.21290720E+03</pdfrwt>
<totfact> 0.32721434E+03</totfact>
</mgrwt>
</event>
<event>
 6    1  0.6101889E-006  0.1408231E+03  0.7546771E-02  0.1222700E+00
         -1   -1    0    0    0  501 -0.00000000000E+00  0.00000000000E+00  0.23420693325E+02  0.23420693325E+02  0.00000000000E+00 0.  1.
          1   -1    0    0  501    0  0.00000000000E+00 -0.00000000000E+00 -0.69713063480E+03  0.69713063480E+03  0.00000000000E+00 0. -1.
          5    1    1    2  502    0  0.40721139935E+01 -0.44820388186E+02 -0.51264105782E+02  0.68377977823E+02  0.47000000000E+01 0.  1.
         -5    1    1    2    0  502 -0.63774065468E+02  0.19457135703E+02 -0.36476823601E+03  0.37084183631E+03  0.47000000000E+01 0.  1.
        -11    1    1    2    0    0  0.15161630174E+02 -0.30555428902E+02 -0.13594850997E+03  0.14016242944E+03  0.00000000000E+00 0.  1.
         11    1    1    2    0    0  0.44540321300E+02  0.55918681385E+02 -0.12172908971E+03  0.14116908454E+03  0.00000000000E+00 0. -1.
<mgrwt>
<rscale>  0 0.13325783E+03</rscale>
<asrwt>0</asrwt>
<pdfrwt beam="2">  1        1 0.10725086E+00 0.14082307E+03</pdfrwt>
<pdfrwt beam="1">  1       -1 0.36031839E-02 0.14082307E+03</pdfrwt>
<totfact> 0.78560277E+03</totfact>
</mgrwt>
</event>
<event>
 6    1  0.6101889E-006  0.2263459E+03  0.7546771E-02  0.1134682E+00
          2   -1    0    0  501    0  0.00000000000E+00  0.00000000000E+00  0.40650438866E+03  0.40650438866E+03  0.00000000000E+00 0. -1.
         -2   -1    0    0    0  501 -0.00000000000E+00 -0.00000000000E+00 -0.16467982898E+03  0.16467982898E+03  0.00000000000E+00 0.  1.
          5    1    1    2  502    0 -0.25417998436E+02 -0.17748498020E+02  0.54352479863E+02  0.62748433397E+02  0.47000000000E+01 0.  1.
         -5    1    1    2    0  502 -0.69314860116E+02  0.18094378470E+03  0.23508088487E+03  0.30468067790E+03  0.47000000000E+01 0.  1.
        -11    1    1    2    0    0  0.73643638403E+02 -0.94674952913E+02 -0.54473349806E+02  0.13173487779E+03  0.00000000000E+00 0.  1.
         11    1    1    2    0    0  0.21089220149E+02 -0.68520333770E+02  0.68645447473E+01  0.72020228554E+02  0.00000000000E+00 0. -1.
<mgrwt>
<rscale>  0 0.21893180E+03</rscale>
<asrwt>0</asrwt>
<pdfrwt beam="1">  1        2 0.62539136E-01 0.22634593E+03</pdfrwt>
<pdfrwt beam="2">  1       -2 0.25335359E-01 0.22634593E+03</pdfrwt>
<totfact> 0.10878107E+03</totfact>
</mgrwt>
</event>
<event>
 6    1  0.6101889E-006  0.1419554E+03  0.7546771E-02  0.1220914E+00
          1   -1    0    0  501    0  0.00000000000E+00  0.00000000000E+00  0.14077932677E+03  0.14077932677E+03  0.00000000000E+00 0. -1.
         -1   -1    0    0    0  501 -0.00000000000E+00 -0.00000000000E+00 -0.12516206871E+03  0.12516206871E+03  0.00000000000E+00 0.  1.
          5    1    1    2  502    0  0.37105561204E+02 -0.83797547689E+02  0.24142157984E+01  0.91797440645E+02  0.47000000000E+01 0.  1.
         -5    1    1    2    0  502 -0.35451477634E+02  0.16545758354E+02  0.40492979296E+02  0.56500803164E+02  0.47000000000E+01 0.  1.
        -11    1    1    2    0    0  0.23620560878E+02  0.64095662125E+02  0.13426131652E+02  0.69616419117E+02  0.00000000000E+00 0. -1.
         11    1    1    2    0    0 -0.25274644449E+02  0.31561272096E+01 -0.40716068682E+02  0.48026732555E+02  0.00000000000E+00 0.  1.
<mgrwt>
<rscale>  0 0.13450948E+03</rscale>
<asrwt>0</asrwt>
<pdfrwt beam="1">  1        1 0.21658358E-01 0.14195542E+03</pdfrwt>
<pdfrwt beam="2">  1       -1 0.19255703E-01 0.14195542E+03</pdfrwt>
<totfact> 0.47375814E+03</totfact>
</mgrwt>
</event>
<event>
 6    1  0.6101889E-006  0.3616420E+03  0.7546771E-02  0.1057936E+00
         -2   -1    0    0    0  501 -0.00000000000E+00  0.00000000000E+00  0.60252409675E+02  0.60252409675E+02  0.00000000000E+00 0.  1.
          2   -1    0    0  501    0  0.00000000000E+00 -0.00000000000E+00 -0.54265450060E+03  0.54265450060E+03  0.00000000000E+00 0. -1.
          5    1    1    2  502    0  0.30140658866E+02 -0.41578257800E+02 -0.66281913402E+02  0.83979717092E+02  0.47000000000E+01 0. -1.
         -5    1    1    2    0  502  0.82396409833E+02  0.89705701027E+02 -0.22074084330E+03  0.25216044704E+03  0.47000000000E+01 0. -1.
        -11    1    1    2    0    0 -0.45452557960E+00 -0.67147953196E+02 -0.84866075799E+02  0.10821878318E+03  0.00000000000E+00 0.  1.
         11    1    1    2    0    0 -0.11208254312E+03  0.19020509969E+02 -0.11051325843E+03  0.15854796296E+03  0.00000000000E+00 0. -1.
<mgrwt>
<rscale>  0 0.36164204E+03</rscale>
<asrwt>0</asrwt>
<pdfrwt beam="2">  1        2 0.83485304E-01 0.36164204E+03</pdfrwt>
<pdfrwt beam="1">  1       -2 0.92696019E-02 0.36164204E+03</pdfrwt>
<totfact> 0.42660387E+03</totfact>
</mgrwt>
</event>
<event>
 6    1  0.6101889E-006  0.1261204E+03  0.7546771E-02  0.1248651E+00
          1   -1    0    0  501    0  0.00000000000E+00  0.00000000000E+00  0.23248845100E+03  0.23248845100E+03  0.00000000000E+00 0. -1.
         -1   -1    0    0    0  501 -0.00000000000E+00 -0.00000000000E+00 -0.52411463477E+02  0.52411463477E+02  0.00000000000E+00 0.  1.
          5    1    1    2  502    0  0.62314123825E+02 -0.30115895730E+01  0.89635183284E+02  0.10930999855E+03  0.47000000000E+01 0.  1.
         -5    1    1    2    0  502 -0.56454250771E+02 -0.12704108520E+02  0.33882763080E+02  0.67220595336E+02  0.47000000000E+01 0.  1.
        -11    1    1    2    0    0  0.13194121344E+02 -0.24898555190E+01  0.75007855590E+02  0.76200148417E+02  0.00000000000E+00 0. -1.
         11    1    1    2    0    0 -0.19053994398E+02  0.18205553612E+02 -0.18448814430E+02  0.32169172179E+02  0.00000000000E+00 0.  1.
<mgrwt>
<rscale>  0 0.11669521E+03</rscale>
<asrwt>0</asrwt>
<pdfrwt beam="1">  1        1 0.35767453E-01 0.12612045E+03</pdfrwt>
<pdfrwt beam="2">  1       -1 0.80633022E-02 0.12612045E+03</pdfrwt>
<totfact> 0.96706655E+03</totfact>
</mgrwt>
</event>
<event>
 6    1  0.1246310E-005  0.2065551E+03  0.7546771E-02  0.1148200E+00
         -1   -1    0    0    0  501 -0.00000000000E+00  0.00000000000E+00  0.35527082684E+02  0.35527082684E+02  0.00000000000E+00 0.  1.
          1   -1    0    0  501    0  0.00000000000E+00 -0.00000000000E+00 -0.14894032992E+04  0.14894032992E+04  0.00000000000E+00 0. -1.
          5    1    1    2  502    0  0.23351431585E+01  0.61015050067E+02 -0.13908709339E+03  0.15197236188E+03  0.47000000000E+01 0. -1.
         -5    1    1    2    0  502  0.44616581314E+02  0.96577900435E+02 -0.10035550100E+04  0.10091891192E+04  0.47000000000E+01 0. -1.
        -11    1    1    2    0    0 -0.10447943559E+02 -0.15046082469E+03 -0.25747510857E+03  0.29839747121E+03  0.00000000000E+00 0.  1.
         11    1    1    2    0    0 -0.36503780913E+02 -0.71321258135E+01 -0.53759004599E+02  0.65371429654E+02  0.00000000000E+00 0. -1.
<mgrwt>
<rscale>  0 0.20183479E+03</rscale>
<asrwt>0</asrwt>
<pdfrwt beam="2">  1        1 0.22913898E+00 0.20655510E+03</pdfrwt>
<pdfrwt beam="1">  1       -1 0.54657047E-02 0.20655510E+03</pdfrwt>
<totfact> 0.11238729E+03</totfact>
</mgrwt>
</event>
<event>
 6    1  0.6101889E-006  0.1757818E+03  0.7546771E-02  0.1177815E+00
          1   -1    0    0  501    0  0.00000000000E+00  0.00000000000E+00  0.36781879915E+03  0.36781879915E+03  0.00000000000E+00 0. -1.
         -1   -1    0    0    0  501 -0.00000000000E+00 -0.00000000000E+00 -0.74920555470E+02  0.74920555470E+02  0.00000000000E+00 0.  1.
          5    1    1    2  502    0 -0.28439339653E+01 -0.43366068846E+02  0.57467638743E+02  0.72203347500E+02  0.47000000000E+01 0. -1.
         -5    1    1    2    0  502  0.12617532557E+03  0.35346893538E+02  0.12474963212E+03  0.18098114924E+03  0.47000000000E+01 0. -1.
        -11    1    1    2    0    0 -0.90433094934E+02  0.38015078744E+02  0.10656828569E+03  0.14484505648E+03  0.00000000000E+00 0. -1.
         11    1    1    2    0    0 -0.32898296667E+02 -0.29995903436E+02  0.41126871269E+01  0.44709801408E+02  0.00000000000E+00 0.  1.
<mgrwt>
<rscale>  0 0.17003173E+03</rscale>
<asrwt>0</asrwt>
<pdfrwt beam="1">  1        1 0.56587506E-01 0.17578184E+03</pdfrwt>
<pdfrwt beam="2">  1       -1 0.11526240E-01 0.17578184E+03</pdfrwt>
<totfact> 0.32300567E+03</totfact>
</mgrwt>
</event>
<event>
 6    1  0.6101889E-006  0.2407633E+03  0.7546771E-02  0.1121902E+00
         -2   -1    0    0    0  501 -0.00000000000E+00  0.00000000000E+00  0.47300213754E+02  0.47300213754E+02  0.00000000000E+00 0. -1.
          2   -1    0    0  501    0  0.00000000000E+00 -0.00000000000E+00 -0.12031330826E+04  0.12031330826E+04  0.00000000000E+00 0.  1.
          5    1    1    2  502    0 -0.62020285852E+02 -0.21259353592E+02 -0.15131013628E+03  0.16497067410E+03  0.47000000000E+01 0.  1.
         -5    1    1    2    0  502 -0.11276580912E+03  0.12985269069E+03 -0.57695919586E+03  0.60206465821E+03  0.47000000000E+01 0.  1.
        -11    1    1    2    0    0  0.13868070901E+03 -0.94948768304E+02 -0.40547294543E+03  0.43892586746E+03  0.00000000000E+00 0.  1.
         11    1    1    2    0    0  0.36105385961E+02 -0.13644568791E+02 -0.22090591329E+02  0.44472096624E+02  0.00000000000E+00 0. -1.
<mgrwt>
<rscale>  0 0.23686070E+03</rscale>
<asrwt>0</asrwt>
<pdfrwt beam="2">  1        2 0.18509741E+00 0.24076333E+03</pdfrwt>
<pdfrwt beam="1">  1       -2 0.72769556E-02 0.24076333E+03</pdfrwt>
<totfact> 0.21811617E+03</totfact>
</mgrwt>
</event>
<event>
 6    1  0.6101889E-006  0.3443493E+03  0.7546771E-02  0.1064958E+00
          1   -1    0    0  501    0  0.00000000000E+00  0.00000000000E+00  0.24427597068E+03  0.24427597068E+03  0.00000000000E+00 0. -1.
         -1   -1    0    0    0  501 -0.00000000000E+00 -0.00000000000E+00 -0.12135499822E+03  0.12135499822E+03  0.00000000000E+00 0.  1.
          5    1    1    2  502    0  0.21093568675E+02 -0.42391761701E+02 -0.16452223104E+02  0.50346457121E+02  0.47000000000E+01 0. -1.
         -5    1    1    2    0  502  0.10874752416E+03  0.58156863355E+02  0.52543074664E+02  0.13413094148E+03  0.47000000000E+01 0. -1.
        -11    1    1    2    0    0 -0.61471658755E+02  0.37658271045E+02  0.35740001840E+02  0.80462773627E+02  0.00000000000E+00 0.  1.
         11    1    1    2    0    0 -0.68369434081E+02 -0.53423372699E+02  0.51090119061E+02  0.10069079666E+03  0.00000000000E+00 0. -1.
<mgrwt>
<rscale>  0 0.34434930E+03</rscale>
<asrwt>0</asrwt>
<pdfrwt beam="1">  1        1 0.37580918E-01 0.34434930E+03</pdfrwt>
<pdfrwt beam="2">  1       -1 0.18670000E-01 0.34434930E+03</pdfrwt>
<totfact> 0.25737014E+03</totfact>
</mgrwt>
</event>
<event>
 6    1  0.6101889E-006  0.1108211E+03  0.7546771E-02  0.1268350E+00
          1   -1    0    0  501    0  0.00000000000E+00  0.00000000000E+00  0.77909716162E+03  0.77909716162E+03  0.00000000000E+00 0. -1.
         -1   -1    0    0    0  501 -0.00000000000E+00 -0.00000000000E+00 -0.13572478145E+02  0.13572478145E+02  0.00000000000E+00 0.  1.
          5    1    1    2  502    0 -0.10131334791E+02  0.23356272723E+02  0.42730952122E+03  0.42809306972E+03  0.47000000000E+01 0. -1.
         -5    1    1    2    0  502  0.10153225020E+02 -0.34662414489E+02  0.49683668978E+02  0.61604609565E+02  0.47000000000E+01 0.  1.
        -11    1    1    2    0    0  0.66021096857E+01 -0.36733855481E+02  0.72251050620E+02  0.81321450470E+02  0.00000000000E+00 0.  1.
         11    1    1    2    0    0 -0.66239999143E+01  0.48039997247E+02  0.21628044266E+03  0.22165051001E+03  0.00000000000E+00 0. -1.
<mgrwt>
<rscale>  0 0.10590321E+03</rscale>
<asrwt>0</asrwt>
<pdfrwt beam="1">  1        1 0.11986107E+00 0.11082109E+03</pdfrwt>
<pdfrwt beam="2">  1       -1 0.20880742E-02 0.11082109E+03</pdfrwt>
<totfact> 0.14507432E+04</totfact>
</mgrwt>
</event>
<event>
 6    1  0.6101889E-006  0.2436906E+03  0.7546771E-02  0.1117358E+00
          2   -1    0    0  501    0  0.00000000000E+00  0.00000000000E+00  0.15879954864E+03  0.15879954864E+03  0.00000000000E+00 0.  1.
         -2   -1    0    0    0  501 -0.00000000000E+00 -0.00000000000E+00 -0.93490687946E+02  0.93490687946E+02  0.00000000000E+00 0. -1.
          5    1    1    2  502    0 -0.61071644455E+02  0.13157600994E+02  0.10037310970E+03  0.11832040978E+03  0.47000000000E+01 0. -1.
         -5    1    1    2    0  502  0.20237746731E+02  0.11574116031E+01 -0.26104546644E+02  0.33383279495E+02  0.47000000000E+01 0. -1.
        -11    1    1    2    0    0  0.32628751676E+02  0.25125259632E+02  0.24760213686E+02  0.48051870820E+02  0.00000000000E+00 0.  1.
         11    1    1    2    0    0  0.82051460473E+01 -0.39440272229E+02 -0.33719916049E+02  0.52534676486E+02  0.00000000000E+00 0. -1.
<mgrwt>
<rscale>  0 0.24369062E+03</rscale>
<asrwt>0</asrwt>
<pdfrwt beam="1">  1        2 0.24430700E-01 0.24369062E+03</pdfrwt>
<pdfrwt beam="2">  1       -2 0.14383183E-01 0.24369062E+03</pdfrwt>
<totfact> 0.79757987E+03</totfact>
</mgrwt>
</event>
<event>
 6    1  0.6101889E-006  0.1314705E+03  0.7546771E-02  0.1238132E+00
          2   -1    0    0  501    0  0.00000000000E+00  0.00000000000E+00  0.30708228130E+03  0.30708228130E+03  0.00000000000E+00 0. -1.
         -2   -1    0    0    0  501 -0.00000000000E+00 -0.00000000000E+00 -0.48610357557E+02  0.48610357557E+02  0.00000000000E+00 0.  1.
          5    1    1    2  502    0 -0.18259220221E+02 -0.49979377360E+02  0.83732720624E+02  0.99320671501E+02  0.47000000000E+01 0.  1.
         -5    1    1    2    0  502 -0.12315123563E+02  0.76894097461E+02  0.11540036116E+03  0.13929715664E+03  0.47000000000E+01 0.  1.
        -11    1    1    2    0    0  0.10476255354E+02 -0.48688596545E+02 -0.10432892203E+01  0.49813851609E+02  0.00000000000E+00 0.  1.
         11    1    1    2    0    0  0.20098088431E+02  0.21773876443E+02  0.60382131174E+02  0.67260959100E+02  0.00000000000E+00 0. -1.
<mgrwt>
<rscale>  0 0.12306045E+03</rscale>
<asrwt>0</asrwt>
<pdfrwt beam="1">  1        2 0.47243427E-01 0.13147047E+03</pdfrwt>
<pdfrwt beam="2">  1       -2 0.74785167E-02 0.13147047E+03</pdfrwt>
<totfact> 0.10566317E+04</totfact>
</mgrwt>
</event>
<event>
 6    1  0.6101889E-006  0.2981486E+03  0.7546771E-02  0.1086170E+00
          4   -1    0    0  501    0  0.00000000000E+00  0.00000000000E+00  0.21770468377E+03  0.21770468377E+03  0.00000000000E+00 0. -1.
         -4   -1    0    0    0  501 -0.00000000000E+00 -0.00000000000E+00 -0.10207931424E+03  0.10207931424E+03  0.00000000000E+00 0.  1.
          5    1    1    2  502    0  0.95549409385E-01  0.33270981412E+02  0.52411700996E+01  0.34007752025E+02  0.47000000000E+01 0.  1.
         -5    1    1    2    0  502 -0.50641144353E+02 -0.85636690759E+02  0.13221891244E+03  0.16553579405E+03  0.47000000000E+01 0.  1.
        -11    1    1    2    0    0 -0.14246701558E+02  0.40569871585E+02 -0.32005295232E+02  0.53602443121E+02  0.00000000000E+00 0.  1.
         11    1    1    2    0    0  0.64792296502E+02  0.11795837763E+02  0.10170582222E+02  0.66638008803E+02  0.00000000000E+00 0. -1.
<mgrwt>
<rscale>  0 0.29814859E+03</rscale>
<asrwt>0</asrwt>
<pdfrwt beam="1">  1        4 0.33493028E-01 0.29814859E+03</pdfrwt>
<pdfrwt beam="2">  1       -4 0.15704510E-01 0.29814859E+03</pdfrwt>
<totfact> 0.56667935E+02</totfact>
</mgrwt>
</event>
<event>
 6    1  0.6101889E-006  0.1280280E+03  0.7546771E-02  0.1244820E+00
          1   -1    0    0  501    0  0.00000000000E+00  0.00000000000E+00  0.63625029257E+02  0.63625029257E+02  0.00000000000E+00 0. -1.
         -1   -1    0    0    0  501 -0.00000000000E+00 -0.00000000000E+00 -0.22161343434E+03  0.22161343434E+03  0.00000000000E+00 0.  1.
          5    1    1    2  502    0  0.36567163397E+01 -0.68281355698E+02 -0.13918820205E+02  0.69939535788E+02  0.47000000000E+01 0.  1.
         -5    1    1    2    0  502  0.20377290090E+02  0.54618415497E+02 -0.27447692480E+02  0.64605503522E+02  0.47000000000E+01 0.  1.
        -11    1    1    2    0    0 -0.50328418497E+02 -0.79029739517E+01 -0.33736527310E+02  0.61102863931E+02  0.00000000000E+00 0. -1.
         11    1    1    2    0    0  0.26294412066E+02  0.21565914152E+02 -0.82885365089E+02  0.89590560357E+02  0.00000000000E+00 0.  1.
<mgrwt>
<rscale>  0 0.11896132E+03</rscale>
<asrwt>0</asrwt>
<pdfrwt beam="1">  1        1 0.97884663E-02 0.12802804E+03</pdfrwt>
<pdfrwt beam="2">  1       -1 0.34094374E-01 0.12802804E+03</pdfrwt>
<totfact> 0.51345921E+03</totfact>
</mgrwt>
</event>
<event>
 6    1  0.6101889E-006  0.1496738E+03  0.7546771E-02  0.1215163E+00
         -2   -1    0    0    0  501 -0.00000000000E+00  0.00000000000E+00  0.11803239652E+03  0.11803239652E+03  0.00000000000E+00 0.  1.
          2   -1    0    0  501    0  0.00000000000E+00 -0.00000000000E+00 -0.14954895230E+03  0.14954895230E+03  0.00000000000E+00 0. -1.
          5    1    1    2  502    0 -0.35167243516E+02 -0.90037108250E+01  0.32001597099E+02  0.48620921855E+02  0.47000000000E+01 0. -1.
         -5    1    1    2    0  502 -0.16866392942E+02  0.72789139881E+02 -0.77641929025E+02  0.10785681823E+03  0.47000000000E+01 0. -1.
        -11    1    1    2    0    0  0.23266157981E+02  0.97225562542E+01  0.19658165530E+02  0.31973202519E+02  0.00000000000E+00 0.  1.
         11    1    1    2    0    0  0.28767478478E+02 -0.73507985310E+02 -0.55343893922E+01  0.79130406218E+02  0.00000000000E+00 0. -1.
<mgrwt>
<rscale>  0 0.13864586E+03</rscale>
<asrwt>0</asrwt>
<pdfrwt beam="2">  1        2 0.23007531E-01 0.14967379E+03</pdfrwt>
<pdfrwt beam="1">  1       -2 0.18158830E-01 0.14967379E+03</pdfrwt>
<totfact> 0.56205232E+03</totfact>
</mgrwt>
</event>
<event>
 6    1  0.6101889E-006  0.1259441E+03  0.7546771E-02  0.1251799E+00
         -2   -1    0    0    0  501 -0.00000000000E+00  0.00000000000E+00  0.36566291077E+02  0.36566291077E+02  0.00000000000E+00 0.  1.
          2   -1    0    0  501    0  0.00000000000E+00 -0.00000000000E+00 -0.37639593980E+03  0.37639593980E+03  0.00000000000E+00 0. -1.
          5    1    1    2  502    0  0.40860610948E+02  0.22826575768E+02 -0.49804317747E+02  0.68506949680E+02  0.47000000000E+01 0.  1.
         -5    1    1    2    0  502 -0.54725572008E+02 -0.29434356308E+02 -0.23080919949E+03  0.23907372531E+03  0.47000000000E+01 0.  1.
        -11    1    1    2    0    0  0.45436152758E+02  0.21900093210E+02 -0.44776106483E+02  0.67445961865E+02  0.00000000000E+00 0. -1.
         11    1    1    2    0    0 -0.31571191697E+02 -0.15292312670E+02 -0.14440025003E+02  0.37935594026E+02  0.00000000000E+00 0.  1.
<mgrwt>
<rscale>  0 0.11487514E+03</rscale>
<asrwt>0</asrwt>
<pdfrwt beam="2">  1        2 0.57907065E-01 0.12594414E+03</pdfrwt>
<pdfrwt beam="1">  1       -2 0.56255835E-02 0.12594414E+03</pdfrwt>
<totfact> 0.13088112E+04</totfact>
</mgrwt>
</event>
<event>
 6    1  0.6101889E-006  0.2191624E+03  0.7546771E-02  0.1149085E+00
         -2   -1    0    0    0  501 -0.00000000000E+00  0.00000000000E+00  0.45451688272E+02  0.45451688272E+02  0.00000000000E+00 0.  1.
          2   -1    0    0  501    0  0.00000000000E+00 -0.00000000000E+00 -0.95723262517E+03  0.95723262517E+03  0.00000000000E+00 0. -1.
          5    1    1    2  502    0  0.75097473043E+02 -0.13051943229E+03 -0.56482935242E+03  0.58457611995E+03  0.47000000000E+01 0. -1.
         -5    1    1    2    0  502 -0.63384709145E+02 -0.17784860216E+02 -0.17499028733E+03  0.18702302871E+03  0.47000000000E+01 0.  1.
        -11    1    1    2    0    0  0.11080074346E+02  0.97412448416E+02 -0.99941795571E+02  0.14000112734E+03  0.00000000000E+00 0.  1.
         11    1    1    2    0    0 -0.22792838243E+02  0.50891844090E+02 -0.72019501569E+02  0.91084037439E+02  0.00000000000E+00 0. -1.
<mgrwt>
<rscale>  0 0.20077713E+03</rscale>
<asrwt>0</asrwt>
<pdfrwt beam="2">  1        2 0.14726654E+00 0.21916238E+03</pdfrwt>
<pdfrwt beam="1">  1       -2 0.69925682E-02 0.21916238E+03</pdfrwt>
<totfact> 0.32399867E+03</totfact>
</mgrwt>
</event>
<event>
 6    1  0.6101889E-006  0.1845548E+03  0.7546771E-02  0.1189578E+00
         -2   -1    0    0    0  501 -0.00000000000E+00  0.00000000000E+00  0.64736463231E+02  0.64736463231E+02  0.00000000000E+00 0.  1.
          2   -1    0    0  501    0  0.00000000000E+00 -0.00000000000E+00 -0.38964863609E+03  0.38964863609E+03  0.00000000000E+00 0. -1.
          5    1    1    2  502    0  0.43692629993E+02  0.11607957840E+02 -0.29706453375E+03  0.30052157628E+03  0.47000000000E+01 0. -1.
         -5    1    1    2    0  502 -0.38712492827E+02  0.26625856744E+02  0.22739795386E+01  0.47274245961E+02  0.47000000000E+01 0.  1.
        -11    1    1    2    0    0 -0.44663964311E+02 -0.93755828502E+01  0.54823007470E+01  0.45965496661E+02  0.00000000000E+00 0. -1.
         11    1    1    2    0    0  0.39683827145E+02 -0.28858231733E+02 -0.35603919400E+02  0.60623780419E+02  0.00000000000E+00 0.  1.
<mgrwt>
<rscale>  0 0.15922237E+03</rscale>
<asrwt>0</asrwt>
<pdfrwt beam="2">  1        2 0.59945944E-01 0.18455477E+03</pdfrwt>
<pdfrwt beam="1">  1       -2 0.99594558E-02 0.18455477E+03</pdfrwt>
<totfact> 0.53568433E+03</totfact>
</mgrwt>
</event>
<event>
 6    1  0.6101889E-006  0.1466524E+03  0.7546771E-02  0.1214018E+00
          2   -1    0    0  501    0  0.00000000000E+00  0.00000000000E+00  0.70983273567E+03  0.70983273567E+03  0.00000000000E+00 0. -1.
         -2   -1    0    0    0  501 -0.00000000000E+00 -0.00000000000E+00 -0.35461496122E+02  0.35461496122E+02  0.00000000000E+00 0.  1.
          5    1    1    2  502    0  0.36472502293E+02  0.34350156114E+02  0.66373930897E+02  0.83293249133E+02  0.47000000000E+01 0.  1.
         -5    1    1    2    0  502 -0.16703152826E+02  0.39756697029E+02  0.49580816696E+03  0.49770213853E+03  0.47000000000E+01 0.  1.
        -11    1    1    2    0    0 -0.29948698784E+02 -0.15956747943E+02  0.97822904607E+02  0.10354160048E+03  0.00000000000E+00 0.  1.
         11    1    1    2    0    0  0.10179349317E+02 -0.58150105200E+02  0.14366237076E+02  0.60757243642E+02  0.00000000000E+00 0. -1.
<mgrwt>
<rscale>  0 0.13948942E+03</rscale>
<asrwt>0</asrwt>
<pdfrwt beam="1">  1        2 0.10920503E+00 0.14665241E+03</pdfrwt>
<pdfrwt beam="2">  1       -2 0.54556153E-02 0.14665241E+03</pdfrwt>
<totfact> 0.68391470E+03</totfact>
</mgrwt>
</event>
<event>
 6    1  0.6101889E-006  0.1476732E+03  0.7546771E-02  0.1212906E+00
         -3   -1    0    0    0  501 -0.00000000000E+00  0.00000000000E+00  0.77078933169E+03  0.77078933169E+03  0.00000000000E+00 0.  1.
          3   -1    0    0  501    0  0.00000000000E+00 -0.00000000000E+00 -0.23315314471E+02  0.23315314471E+02  0.00000000000E+00 0. -1.
          5    1    1    2  502    0 -0.24531530748E+02  0.10393472160E+02  0.22822475305E+03  0.22982264503E+03  0.47000000000E+01 0. -1.
         -5    1    1    2    0  502  0.94874467228E+02  0.24740451529E+02  0.19281113354E+03  0.21635960273E+03  0.47000000000E+01 0. -1.
        -11    1    1    2    0    0 -0.46492038972E+01  0.27373078422E+02  0.10566533903E+03  0.10925229697E+03  0.00000000000E+00 0.  1.
         11    1    1    2    0    0 -0.65693732582E+02 -0.62507002111E+02  0.22077279160E+03  0.23867010144E+03  0.00000000000E+00 0. -1.
<mgrwt>
<rscale>  0 0.14031461E+03</rscale>
<asrwt>0</asrwt>
<pdfrwt beam="2">  1        3 0.35869720E-02 0.14767322E+03</pdfrwt>
<pdfrwt beam="1">  1       -3 0.11858295E+00 0.14767322E+03</pdfrwt>
<totfact> 0.55056415E+02</totfact>
</mgrwt>
</event>
<event>
 6    1  0.6101889E-006  0.1378136E+03  0.7546771E-02  0.1227855E+00
          2   -1    0    0  501    0  0.00000000000E+00  0.00000000000E+00  0.78496632114E+03  0.78496632114E+03  0.00000000000E+00 0. -1.
         -2   -1    0    0    0  501 -0.00000000000E+00 -0.00000000000E+00 -0.19469340692E+02  0.19469340692E+02  0.00000000000E+00 0.  1.
          5    1    1    2  502    0 -0.39093491052E+01 -0.63943201856E+02  0.19036876972E+03  0.20091384860E+03  0.47000000000E+01 0. -1.
         -5    1    1    2    0  502  0.58112182588E+02  0.43196879237E+02  0.27748957496E+03  0.28681971751E+03  0.47000000000E+01 0. -1.
        -11    1    1    2    0    0 -0.20984107423E+02  0.44872449713E+02  0.24493857313E+03  0.24989752722E+03  0.00000000000E+00 0. -1.
         11    1    1    2    0    0 -0.33218726060E+02 -0.24126127095E+02  0.52700062634E+02  0.66804568491E+02  0.00000000000E+00 0.  1.
<mgrwt>
<rscale>  0 0.12973153E+03</rscale>
<asrwt>0</asrwt>
<pdfrwt beam="1">  1        2 0.12076402E+00 0.13781365E+03</pdfrwt>
<pdfrwt beam="2">  1       -2 0.29952838E-02 0.13781365E+03</pdfrwt>
<totfact> 0.14725367E+04</totfact>
</mgrwt>
</event>
<event>
 6    1  0.6101889E-006  0.3885521E+03  0.7546771E-02  0.1047817E+00
          1   -1    0    0  501    0  0.00000000000E+00  0.00000000000E+00  0.56825927083E+03  0.56825927083E+03  0.00000000000E+00 0. -1.
         -1   -1    0    0    0  501 -0.00000000000E+00 -0.00000000000E+00 -0.66418962886E+02  0.66418962886E+02  0.00000000000E+00 0.  1.
          5    1    1    2  502    0  0.68681987310E+01  0.23456722160E+02  0.40769234038E+03  0.40845137333E+03  0.47000000000E+01 0. -1.
         -5    1    1    2    0  502  0.46876319449E+02  0.41029902521E+02  0.77369724166E+02  0.99443483666E+02  0.47000000000E+01 0. -1.
        -11    1    1    2    0    0 -0.13256590284E+02 -0.39039483307E+02  0.52744984372E+02  0.66946634114E+02  0.00000000000E+00 0. -1.
         11    1    1    2    0    0 -0.40487927896E+02 -0.25447141374E+02 -0.35966740976E+02  0.59836742607E+02  0.00000000000E+00 0.  1.
<mgrwt>
<rscale>  0 0.38855214E+03</rscale>
<asrwt>0</asrwt>
<pdfrwt beam="1">  1        1 0.87424500E-01 0.38855214E+03</pdfrwt>
<pdfrwt beam="2">  1       -1 0.10218302E-01 0.38855214E+03</pdfrwt>
<totfact> 0.22443028E+03</totfact>
</mgrwt>
</event>
<event>
 6    1  0.6101889E-006  0.1405307E+03  0.7546771E-02  0.1223744E+00
          1   -1    0    0  501    0  0.00000000000E+00  0.00000000000E+00  0.94090399867E+02  0.94090399867E+02  0.00000000000E+00 0. -1.
         -1   -1    0    0    0  501 -0.00000000000E+00 -0.00000000000E+00 -0.16838199971E+03  0.16838199971E+03  0.00000000000E+00 0.  1.
          5    1    1    2  502    0  0.28986731720E+02 -0.62290879598E+02  0.22933682931E+02  0.72583938373E+02  0.47000000000E+01 0. -1.
         -5    1    1    2    0  502  0.25758061226E+02  0.28727859701E+02 -0.62170727737E+02  0.73321600013E+02  0.47000000000E+01 0. -1.
        -11    1    1    2    0    0 -0.21763907216E+02 -0.19007047298E+00 -0.59545888633E+02  0.63398869369E+02  0.00000000000E+00 0.  1.
         11    1    1    2    0    0 -0.32980885731E+02  0.33753090370E+02  0.24491333597E+02  0.53167991823E+02  0.00000000000E+00 0. -1.
<mgrwt>
<rscale>  0 0.13253372E+03</rscale>
<asrwt>0</asrwt>
<pdfrwt beam="1">  1        1 0.14475446E-01 0.14053071E+03</pdfrwt>
<pdfrwt beam="2">  1       -1 0.25904923E-01 0.14053071E+03</pdfrwt>
<totfact> 0.49017372E+03</totfact>
</mgrwt>
</event>
<event>
 6    1  0.6101889E-006  0.1458195E+03  0.7546771E-02  0.1215059E+00
         -2   -1    0    0    0  501 -0.00000000000E+00  0.00000000000E+00  0.32888133317E+03  0.32888133317E+03  0.00000000000E+00 0. -1.
          2   -1    0    0  501    0  0.00000000000E+00 -0.00000000000E+00 -0.53562941129E+02  0.53562941129E+02  0.00000000000E+00 0.  1.
          5    1    1    2  502    0 -0.19852364731E+02  0.64340510657E+02  0.16606320401E+03  0.17925650734E+03  0.47000000000E+01 0.  1.
         -5    1    1    2    0  502 -0.33256571426E+02 -0.11252974409E+02 -0.74531609525E+01  0.36197632302E+02  0.47000000000E+01 0.  1.
        -11    1    1    2    0    0  0.50727477951E+02 -0.25946229909E+02  0.11261367931E+02  0.58080136651E+02  0.00000000000E+00 0.  1.
         11    1    1    2    0    0  0.23814582055E+01 -0.27141306338E+02  0.10544698106E+03  0.10890999801E+03  0.00000000000E+00 0. -1.
<mgrwt>
<rscale>  0 0.13872198E+03</rscale>
<asrwt>0</asrwt>
<pdfrwt beam="2">  1        2 0.82404527E-02 0.14581955E+03</pdfrwt>
<pdfrwt beam="1">  1       -2 0.50597127E-01 0.14581955E+03</pdfrwt>
<totfact> 0.29571512E+03</totfact>
</mgrwt>
</event>
<event>
 6    1  0.6101889E-006  0.1328124E+03  0.7546771E-02  0.1236032E+00
          1   -1    0    0  501    0  0.00000000000E+00  0.00000000000E+00  0.19728653155E+03  0.19728653155E+03  0.00000000000E+00 0. -1.
         -1   -1    0    0    0  501 -0.00000000000E+00 -0.00000000000E+00 -0.75744527020E+02  0.75744527020E+02  0.00000000000E+00 0.  1.
          5    1    1    2  502    0 -0.71433469596E+02  0.39956848396E+02  0.57868646203E+02  0.10035018946E+03  0.47000000000E+01 0.  1.
         -5    1    1    2    0  502  0.26623822871E+02 -0.42406730581E+02  0.47595859100E+02  0.69243155231E+02  0.47000000000E+01 0.  1.
        -11    1    1    2    0    0  0.14473115819E+02  0.44418757193E+02 -0.60805410038E+01  0.47111251852E+02  0.00000000000E+00 0.  1.
         11    1    1    2    0    0  0.30336530906E+02 -0.41968875008E+02  0.22158040228E+02  0.56326462019E+02  0.00000000000E+00 0. -1.
<mgrwt>
<rscale>  0 0.12438590E+03</rscale>
<asrwt>0</asrwt>
<pdfrwt beam="1">  1        1 0.30351774E-01 0.13281243E+03</pdfrwt>
<pdfrwt beam="2">  1       -1 0.11653004E-01 0.13281243E+03</pdfrwt>
<totfact> 0.67925609E+03</totfact>
</mgrwt>
</event>
<event>
 6    1  0.6101889E-006  0.1858815E+03  0.7546771E-02  0.1167278E+00
          2   -1    0    0  501    0  0.00000000000E+00  0.00000000000E+00  0.18464755460E+03  0.18464755460E+03  0.00000000000E+00 0. -1.
         -2   -1    0    0    0  501 -0.00000000000E+00 -0.00000000000E+00 -0.17603947053E+03  0.17603947053E+03  0.00000000000E+00 0.  1.
          5    1    1    2  502    0  0.25023372988E+02  0.10098354229E+03  0.87997654830E+02  0.13634339832E+03  0.47000000000E+01 0.  1.
         -5    1    1    2    0  502  0.14235351467E+02  0.30870828086E+02 -0.42892970622E+02  0.54932232677E+02  0.47000000000E+01 0.  1.
        -11    1    1    2    0    0 -0.15043447951E+02 -0.31688208621E+02 -0.54486341976E+02  0.64801306729E+02  0.00000000000E+00 0.  1.
         11    1    1    2    0    0 -0.24215276504E+02 -0.10016616175E+03  0.17989741837E+02  0.10461008741E+03  0.00000000000E+00 0. -1.
<mgrwt>
<rscale>  0 0.18054396E+03</rscale>
<asrwt>0</asrwt>
<pdfrwt beam="1">  1        2 0.28407316E-01 0.18588151E+03</pdfrwt>
<pdfrwt beam="2">  1       -2 0.27082995E-01 0.18588151E+03</pdfrwt>
<totfact> 0.22577340E+03</totfact>
</mgrwt>
</event>
<event>
 6    1  0.6101889E-006  0.1589059E+03  0.7546771E-02  0.1198269E+00
          1   -1    0    0  501    0  0.00000000000E+00  0.00000000000E+00  0.26131380011E+03  0.26131380011E+03  0.00000000000E+00 0. -1.
         -1   -1    0    0    0  501 -0.00000000000E+00 -0.00000000000E+00 -0.16044038515E+03  0.16044038515E+03  0.00000000000E+00 0.  1.
          5    1    1    2  502    0 -0.53072675862E+02 -0.76467916148E+02  0.15892863726E+03  0.18424020426E+03  0.47000000000E+01 0. -1.
         -5    1    1    2    0  502  0.53967331208E+02 -0.21641779419E+02  0.41755636385E+02  0.71738850172E+02  0.47000000000E+01 0. -1.
        -11    1    1    2    0    0 -0.21552789746E+02  0.24884782513E+02 -0.80951398413E+02  0.87389381801E+02  0.00000000000E+00 0.  1.
         11    1    1    2    0    0  0.20658134400E+02  0.73224913053E+02 -0.18859460273E+02  0.78385749026E+02  0.00000000000E+00 0. -1.
<mgrwt>
<rscale>  0 0.15180789E+03</rscale>
<asrwt>0</asrwt>
<pdfrwt beam="1">  1        1 0.40202123E-01 0.15890594E+03</pdfrwt>
<pdfrwt beam="2">  1       -1 0.24683136E-01 0.15890594E+03</pdfrwt>
<totfact> 0.14675523E+03</totfact>
</mgrwt>
</event>
<event>
 6    1  0.6101889E-006  0.1563359E+03  0.7546771E-02  0.1201197E+00
         -2   -1    0    0    0  501 -0.00000000000E+00  0.00000000000E+00  0.38111612912E+02  0.38111612912E+02  0.00000000000E+00 0.  1.
          2   -1    0    0  501    0  0.00000000000E+00 -0.00000000000E+00 -0.14873488902E+04  0.14873488902E+04  0.00000000000E+00 0. -1.
          5    1    1    2  502    0  0.50844632096E+02 -0.20642833625E+02 -0.75546245799E+03  0.75746743734E+03  0.47000000000E+01 0.  1.
         -5    1    1    2    0  502 -0.55311692908E+02 -0.73142273824E+02 -0.60090568468E+03  0.60788066878E+03  0.47000000000E+01 0.  1.
        -11    1    1    2    0    0  0.33304636189E+02  0.38807324939E+02 -0.34505168117E+01  0.51255373639E+02  0.00000000000E+00 0.  1.
         11    1    1    2    0    0 -0.28837575378E+02  0.54977782510E+02 -0.89418617785E+02  0.10885702334E+03  0.00000000000E+00 0. -1.
<mgrwt>
<rscale>  0 0.14941226E+03</rscale>
<asrwt>0</asrwt>
<pdfrwt beam="2">  1        2 0.22882291E+00 0.15633590E+03</pdfrwt>
<pdfrwt beam="1">  1       -2 0.58633249E-02 0.15633590E+03</pdfrwt>
<totfact> 0.21279063E+03</totfact>
</mgrwt>
</event>
<event>
 6    1  0.6101889E-006  0.1819329E+03  0.7546771E-02  0.1171506E+00
          2   -1    0    0  501    0  0.00000000000E+00  0.00000000000E+00  0.62268795608E+03  0.62268795608E+03  0.00000000000E+00 0. -1.
         -2   -1    0    0    0  501 -0.00000000000E+00 -0.00000000000E+00 -0.50516774725E+02  0.50516774725E+02  0.00000000000E+00 0.  1.
          5    1    1    2  502    0 -0.59612603422E+02 -0.60764326755E+02  0.34058468886E+03  0.35109256070E+03  0.47000000000E+01 0.  1.
         -5    1    1    2    0  502  0.98076775981E+01 -0.61681700909E+02  0.51285855079E+02  0.80951539196E+02  0.47000000000E+01 0.  1.
        -11    1    1    2    0    0 -0.46671616240E+00  0.73792983997E+02  0.38946238293E+02  0.83441187601E+02  0.00000000000E+00 0.  1.
         11    1    1    2    0    0  0.50271641986E+02  0.48653043668E+02  0.14135439913E+03  0.15771944331E+03  0.00000000000E+00 0. -1.
<mgrwt>
<rscale>  0 0.17622586E+03</rscale>
<asrwt>0</asrwt>
<pdfrwt beam="1">  1        2 0.95798142E-01 0.18193290E+03</pdfrwt>
<pdfrwt beam="2">  1       -2 0.77718119E-02 0.18193290E+03</pdfrwt>
<totfact> 0.46888516E+03</totfact>
</mgrwt>
</event>
<event>
 6    1  0.6101889E-006  0.1277827E+03  0.7546771E-02  0.1244996E+00
          1   -1    0    0  501    0  0.00000000000E+00  0.00000000000E+00  0.57837127452E+03  0.57837127452E+03  0.00000000000E+00 0. -1.
         -1   -1    0    0    0  501 -0.00000000000E+00 -0.00000000000E+00 -0.27387878872E+02  0.27387878872E+02  0.00000000000E+00 0.  1.
          5    1    1    2  502    0 -0.64945884099E+02 -0.15295402807E+02  0.38360429163E+03  0.38939216706E+03  0.47000000000E+01 0. -1.
         -5    1    1    2    0  502  0.39346501384E+02  0.87871725799E+01  0.61462683264E+02  0.73655366452E+02  0.47000000000E+01 0. -1.
        -11    1    1    2    0    0  0.92345514645E+01  0.45178426240E+02  0.82810821256E+02  0.94783960961E+02  0.00000000000E+00 0.  1.
         11    1    1    2    0    0  0.16364831250E+02 -0.38670196014E+02  0.23105599495E+02  0.47927658920E+02  0.00000000000E+00 0. -1.
<mgrwt>
<rscale>  0 0.11885613E+03</rscale>
<asrwt>0</asrwt>
<pdfrwt beam="1">  1        1 0.88980187E-01 0.12778265E+03</pdfrwt>
<pdfrwt beam="2">  1       -1 0.42135203E-02 0.12778265E+03</pdfrwt>
<totfact> 0.80403966E+03</totfact>
</mgrwt>
</event>
<event>
 6    1  0.6101889E-006  0.2994453E+03  0.7546771E-02  0.1096987E+00
         -1   -1    0    0    0  501 -0.00000000000E+00  0.00000000000E+00  0.10505160751E+03  0.10505160751E+03  0.00000000000E+00 0.  1.
          1   -1    0    0  501    0  0.00000000000E+00 -0.00000000000E+00 -0.67860277770E+03  0.67860277770E+03  0.00000000000E+00 0. -1.
          5    1    1    2  502    0  0.21588277941E+03  0.11850036447E+03 -0.38766959149E+03  0.45930111364E+03  0.47000000000E+01 0. -1.
         -5    1    1    2    0  502 -0.37109179377E+02 -0.23687426703E+02 -0.25900589394E+02  0.51294404264E+02  0.47000000000E+01 0.  1.
        -11    1    1    2    0    0 -0.17335853751E+03 -0.10446415165E+03 -0.16478151274E+03  0.26099595485E+03  0.00000000000E+00 0.  1.
         11    1    1    2    0    0 -0.54150625172E+01  0.96512138899E+01  0.48005234403E+01  0.12062912456E+02  0.00000000000E+00 0. -1.
<mgrwt>
<rscale>  0 0.27763634E+03</rscale>
<asrwt>0</asrwt>
<pdfrwt beam="2">  1        1 0.10440043E+00 0.29944530E+03</pdfrwt>
<pdfrwt beam="1">  1       -1 0.16161786E-01 0.29944530E+03</pdfrwt>
<totfact> 0.84277596E+02</totfact>
</mgrwt>
</event>
<event>
 6    1  0.6101889E-006  0.2299059E+03  0.7546771E-02  0.1129885E+00
          2   -1    0    0  501    0  0.00000000000E+00  0.00000000000E+00  0.27248321183E+04  0.27248321183E+04  0.00000000000E+00 0. -1.
         -2   -1    0    0    0  501 -0.00000000000E+00 -0.00000000000E+00 -0.20079161591E+02  0.20079161591E+02  0.00000000000E+00 0.  1.
          5    1    1    2  502    0 -0.25852688370E+02  0.10094928069E+03  0.81406515558E+03  0.82072119888E+03  0.47000000000E+01 0. -1.
         -5    1    1    2    0  502 -0.12365457647E+03  0.21041213080E+02  0.10307665446E+04  0.10383809255E+04  0.47000000000E+01 0. -1.
        -11    1    1    2    0    0  0.63596523263E+02 -0.25273314188E+02  0.15980300153E+03  0.17383974654E+03  0.00000000000E+00 0.  1.
         11    1    1    2    0    0  0.85910741581E+02 -0.96717179578E+02  0.70011825501E+03  0.71196940899E+03  0.00000000000E+00 0. -1.
<mgrwt>
<rscale>  0 0.22544821E+03</rscale>
<asrwt>0</asrwt>
<pdfrwt beam="1">  1        2 0.41920465E+00 0.22990587E+03</pdfrwt>
<pdfrwt beam="2">  1       -2 0.30891039E-02 0.22990587E+03</pdfrwt>
<totfact> 0.12264333E+03</totfact>
</mgrwt>
</event>
<event>
 6    1  0.6101889E-006  0.1688744E+03  0.7546771E-02  0.1184595E+00
         -2   -1    0    0    0  501 -0.00000000000E+00  0.00000000000E+00  0.39018855539E+02  0.39018855539E+02  0.00000000000E+00 0.  1.
          2   -1    0    0  501    0  0.00000000000E+00 -0.00000000000E+00 -0.71882496491E+03  0.71882496491E+03  0.00000000000E+00 0. -1.
          5    1    1    2  502    0  0.89708122824E+02  0.95720846657E+02 -0.29801951933E+03  0.32564973773E+03  0.47000000000E+01 0. -1.
         -5    1    1    2    0  502 -0.42229632906E+01 -0.20939188942E+02 -0.17997856983E+03  0.18130267138E+03  0.47000000000E+01 0. -1.
        -11    1    1    2    0    0 -0.92303624064E+02 -0.47532342469E+02 -0.19658969012E+03  0.22232136393E+03  0.00000000000E+00 0. -1.
         11    1    1    2    0    0  0.68184645302E+01 -0.27249315246E+02 -0.52183300917E+01  0.28570047407E+02  0.00000000000E+00 0.  1.
<mgrwt>
<rscale>  0 0.16368767E+03</rscale>
<asrwt>0</asrwt>
<pdfrwt beam="2">  1        2 0.11058845E+00 0.16887443E+03</pdfrwt>
<pdfrwt beam="1">  1       -2 0.60029011E-02 0.16887443E+03</pdfrwt>
<totfact> 0.58664041E+03</totfact>
</mgrwt>
</event>
<event>
 6    1  0.6101889E-006  0.1421449E+03  0.7546771E-02  0.1220833E+00
         -1   -1    0    0    0  501 -0.00000000000E+00  0.00000000000E+00  0.17216788987E+03  0.17216788987E+03  0.00000000000E+00 0.  1.
          1   -1    0    0  501    0  0.00000000000E+00 -0.00000000000E+00 -0.14500556719E+03  0.14500556719E+03  0.00000000000E+00 0. -1.
          5    1    1    2  502    0  0.24752295831E+02 -0.56548136276E+02 -0.68294094421E+02  0.92176684676E+02  0.47000000000E+01 0. -1.
         -5    1    1    2    0  502 -0.68865583093E+02  0.53110278106E+01 -0.95431582605E+01  0.69884457648E+02  0.47000000000E+01 0. -1.
        -11    1    1    2    0    0  0.61237867931E+02  0.40919217944E+02  0.11189939208E+03  0.13396243061E+03  0.00000000000E+00 0.  1.
         11    1    1    2    0    0 -0.17124580668E+02  0.10317890521E+02 -0.68998167270E+01  0.21149884131E+02  0.00000000000E+00 0. -1.
<mgrwt>
<rscale>  0 0.13456652E+03</rscale>
<asrwt>0</asrwt>
<pdfrwt beam="2">  1        1 0.22308549E-01 0.14214491E+03</pdfrwt>
<pdfrwt beam="1">  1       -1 0.26487368E-01 0.14214491E+03</pdfrwt>
<totfact> 0.27162520E+03</totfact>
</mgrwt>
</event>
<event>
 6    1  0.6101889E-006  0.1500915E+03  0.7546771E-02  0.1210181E+00
          1   -1    0    0  501    0  0.00000000000E+00  0.00000000000E+00  0.70976687575E+03  0.70976687575E+03  0.00000000000E+00 0. -1.
         -1   -1    0    0    0  501 -0.00000000000E+00 -0.00000000000E+00 -0.26002602518E+02  0.26002602518E+02  0.00000000000E+00 0.  1.
          5    1    1    2  502    0  0.22682183147E+02  0.11322049605E+03  0.29690301943E+03  0.31860140475E+03  0.47000000000E+01 0.  1.
         -5    1    1    2    0  502 -0.15442874644E+02 -0.30503988104E+02  0.91792626676E+02  0.98066059264E+02  0.47000000000E+01 0.  1.
        -11    1    1    2    0    0  0.41519997818E+01  0.15632549014E+02  0.15041069985E+02  0.22087314847E+02  0.00000000000E+00 0.  1.
         11    1    1    2    0    0 -0.11391308285E+02 -0.98349056960E+02  0.28002755714E+03  0.29701469941E+03  0.00000000000E+00 0. -1.
<mgrwt>
<rscale>  0 0.14236563E+03</rscale>
<asrwt>0</asrwt>
<pdfrwt beam="1">  1        1 0.10919489E+00 0.15009154E+03</pdfrwt>
<pdfrwt beam="2">  1       -1 0.40004009E-02 0.15009154E+03</pdfrwt>
<totfact> 0.65890439E+03</totfact>
</mgrwt>
</event>
<event>
 6    1  0.6101889E-006  0.2438172E+03  0.7546771E-02  0.1117276E+00
         -2   -1    0    0    0  501 -0.00000000000E+00  0.00000000000E+00  0.10733170626E+03  0.10733170626E+03  0.00000000000E+00 0.  1.
          2   -1    0    0  501    0  0.00000000000E+00 -0.00000000000E+00 -0.13846525036E+03  0.13846525036E+03  0.00000000000E+00 0. -1.
          5    1    1    2  502    0  0.28656033953E+02 -0.55057648953E+01 -0.10208823332E+03  0.10628066198E+03  0.47000000000E+01 0. -1.
         -5    1    1    2    0  502 -0.22743450782E+01  0.12238587481E+02  0.35524658520E+02  0.37934773389E+02  0.47000000000E+01 0. -1.
        -11    1    1    2    0    0 -0.18019285450E+02  0.35511008662E+02  0.42162507487E+02  0.57994856857E+02  0.00000000000E+00 0.  1.
         11    1    1    2    0    0 -0.83624034253E+01 -0.42243831247E+02 -0.67324767903E+01  0.43586664397E+02  0.00000000000E+00 0. -1.
<mgrwt>
<rscale>  0 0.24381724E+03</rscale>
<asrwt>0</asrwt>
<pdfrwt beam="2">  1        2 0.21302346E-01 0.24381724E+03</pdfrwt>
<pdfrwt beam="1">  1       -2 0.16512570E-01 0.24381724E+03</pdfrwt>
<totfact> 0.74064366E+03</totfact>
</mgrwt>
</event>
<event>
 6    1  0.6101889E-006  0.1718683E+03  0.7546771E-02  0.1182149E+00
         -1   -1    0    0    0  501 -0.00000000000E+00  0.00000000000E+00  0.12828190847E+03  0.12828190847E+03  0.00000000000E+00 0.  1.
          1   -1    0    0  501    0  0.00000000000E+00 -0.00000000000E+00 -0.20287804806E+03  0.20287804806E+03  0.00000000000E+00 0. -1.
          5    1    1    2  502    0  0.40828402054E+02  0.73610062905E+02 -0.31273727303E+02  0.89919607398E+02  0.47000000000E+01 0.  1.
         -5    1    1    2    0  502 -0.78466515160E+02  0.38177638461E+02 -0.24129715574E+02  0.90657924383E+02  0.47000000000E+01 0.  1.
        -11    1    1    2    0    0  0.46342364861E+02 -0.44284359324E+02  0.25687862771E+02  0.69054945916E+02  0.00000000000E+00 0.  1.
         11    1    1    2    0    0 -0.87042517554E+01 -0.67503342042E+02 -0.44880559487E+02  0.81527478835E+02  0.00000000000E+00 0. -1.
<mgrwt>
<rscale>  0 0.16594005E+03</rscale>
<asrwt>0</asrwt>
<pdfrwt beam="2">  1        1 0.31212007E-01 0.17186827E+03</pdfrwt>
<pdfrwt beam="1">  1       -1 0.19735678E-01 0.17186827E+03</pdfrwt>
<totfact> 0.29035996E+03</totfact>
</mgrwt>
</event>
<event>
 6    1  0.6101889E-006  0.1423853E+03  0.7546771E-02  0.1222407E+00
          1   -1    0    0  501    0  0.00000000000E+00  0.00000000000E+00  0.25520768960E+03  0.25520768960E+03  0.00000000000E+00 0. -1.
         -1   -1    0    0    0  501 -0.00000000000E+00 -0.00000000000E+00 -0.62577840592E+02  0.62577840592E+02  0.00000000000E+00 0.  1.
          5    1    1    2  502    0  0.43178237646E+02  0.11951481705E+02  0.85430331342E+02  0.96579654350E+02  0.47000000000E+01 0.  1.
         -5    1    1    2    0  502 -0.25744449083E+02 -0.77871035718E+02  0.32664120296E+02  0.88406502120E+02  0.47000000000E+01 0.  1.
        -11    1    1    2    0    0  0.26158255105E+02  0.41761690167E+02  0.65791309333E+02  0.82199692576E+02  0.00000000000E+00 0. -1.
         11    1    1    2    0    0 -0.43592043668E+02  0.24157863846E+02  0.87440880386E+01  0.50599681149E+02  0.00000000000E+00 0.  1.
<mgrwt>
<rscale>  0 0.13346210E+03</rscale>
<asrwt>0</asrwt>
<pdfrwt beam="1">  1        1 0.39262721E-01 0.14238532E+03</pdfrwt>
<pdfrwt beam="2">  1       -1 0.96273602E-02 0.14238532E+03</pdfrwt>
<totfact> 0.66445691E+03</totfact>
</mgrwt>
</event>
<event>
 6    1  0.6101889E-006  0.1446621E+03  0.7546771E-02  0.1218413E+00
         -2   -1    0    0    0  501 -0.00000000000E+00  0.00000000000E+00  0.48682460974E+02  0.48682460974E+02  0.00000000000E+00 0. -1.
          2   -1    0    0  501    0  0.00000000000E+00 -0.00000000000E+00 -0.34465006665E+03  0.34465006665E+03  0.00000000000E+00 0.  1.
          5    1    1    2  502    0 -0.32158501837E+02  0.30860271707E+02  0.86224309665E+01  0.45639477714E+02  0.47000000000E+01 0. -1.
         -5    1    1    2    0  502 -0.30284970755E+02  0.65789815437E+01 -0.16275647374E+03  0.16574746512E+03  0.47000000000E+01 0. -1.
        -11    1    1    2    0    0  0.33377077230E+02  0.45985712713E+01 -0.27912302524E+01  0.33807796563E+02  0.00000000000E+00 0. -1.
         11    1    1    2    0    0  0.29066395362E+02 -0.42037824522E+02 -0.13904233265E+03  0.14813778822E+03  0.00000000000E+00 0.  1.
<mgrwt>
<rscale>  0 0.13628768E+03</rscale>
<asrwt>0</asrwt>
<pdfrwt beam="2">  1        2 0.53023090E-01 0.14466215E+03</pdfrwt>
<pdfrwt beam="1">  1       -2 0.74896090E-02 0.14466215E+03</pdfrwt>
<totfact> 0.93923054E+03</totfact>
</mgrwt>
</event>
<event>
 6    1  0.6101889E-006  0.1452623E+03  0.7546771E-02  0.1215512E+00
          2   -1    0    0  501    0  0.00000000000E+00  0.00000000000E+00  0.47279012490E+03  0.47279012490E+03  0.00000000000E+00 0. -1.
         -2   -1    0    0    0  501 -0.00000000000E+00 -0.00000000000E+00 -0.50543102458E+02  0.50543102458E+02  0.00000000000E+00 0.  1.
          5    1    1    2  502    0  0.55407151102E+02  0.22974804555E+02  0.31806764761E+03  0.32370806678E+03  0.47000000000E+01 0. -1.
         -5    1    1    2    0  502  0.14686213107E+02 -0.46714074320E+02  0.42458479025E+02  0.64982320951E+02  0.47000000000E+01 0. -1.
        -11    1    1    2    0    0 -0.86649311051E+02  0.61039802827E+01  0.24500870198E+02  0.90253278729E+02  0.00000000000E+00 0. -1.
         11    1    1    2    0    0  0.16555946842E+02  0.17635289483E+02  0.37220025606E+02  0.44389560902E+02  0.00000000000E+00 0.  1.
<mgrwt>
<rscale>  0 0.13838996E+03</rscale>
<asrwt>0</asrwt>
<pdfrwt beam="1">  1        2 0.72736939E-01 0.14526228E+03</pdfrwt>
<pdfrwt beam="2">  1       -2 0.77758622E-02 0.14526228E+03</pdfrwt>
<totfact> 0.63138934E+03</totfact>
</mgrwt>
</event>
<event>
 6    1  0.6101889E-006  0.1598714E+03  0.7546771E-02  0.1196487E+00
         -4   -1    0    0    0  501 -0.00000000000E+00  0.00000000000E+00  0.27944684669E+03  0.27944684669E+03  0.00000000000E+00 0.  1.
          4   -1    0    0  501    0  0.00000000000E+00 -0.00000000000E+00 -0.11014030691E+03  0.11014030691E+03  0.00000000000E+00 0. -1.
          5    1    1    2  502    0 -0.10875255380E+02 -0.37225933250E+02  0.24252558093E+02  0.45981712234E+02  0.47000000000E+01 0.  1.
         -5    1    1    2    0  502  0.10689991286E+03  0.10511105105E+02 -0.39782932809E+02  0.11464225418E+03  0.47000000000E+01 0.  1.
        -11    1    1    2    0    0 -0.10703569986E+03  0.72837054883E+01  0.12298426100E+03  0.16320178266E+03  0.00000000000E+00 0. -1.
         11    1    1    2    0    0  0.11011042373E+02  0.19431122658E+02  0.61852653495E+02  0.65761404534E+02  0.00000000000E+00 0.  1.
<mgrwt>
<rscale>  0 0.15329009E+03</rscale>
<asrwt>0</asrwt>
<pdfrwt beam="2">  1        4 0.16944663E-01 0.15987140E+03</pdfrwt>
<pdfrwt beam="1">  1       -4 0.42991822E-01 0.15987140E+03</pdfrwt>
<totfact> 0.27451120E+02</totfact>
</mgrwt>
</event>
<event>
 6    1  0.6101889E-006  0.1317114E+03  0.7546771E-02  0.1238026E+00
         -2   -1    0    0    0  501 -0.00000000000E+00  0.00000000000E+00  0.32625796418E+03  0.32625796418E+03  0.00000000000E+00 0.  1.
          2   -1    0    0  501    0  0.00000000000E+00 -0.00000000000E+00 -0.41606147180E+02  0.41606147180E+02  0.00000000000E+00 0. -1.
          5    1    1    2  502    0 -0.15385028689E+02 -0.38663687556E+02  0.12093534337E+03  0.12798057321E+03  0.47000000000E+01 0. -1.
         -5    1    1    2    0  502  0.56168186565E+02  0.30946139689E+02  0.26033313288E+02  0.69371118950E+02  0.47000000000E+01 0. -1.
        -11    1    1    2    0    0 -0.27812719463E+02 -0.38069391613E+02  0.39901485114E+02  0.61765317582E+02  0.00000000000E+00 0. -1.
         11    1    1    2    0    0 -0.12970438413E+02  0.45786939480E+02  0.97781675229E+02  0.10874710162E+03  0.00000000000E+00 0.  1.
<mgrwt>
<rscale>  0 0.12312708E+03</rscale>
<asrwt>0</asrwt>
<pdfrwt beam="2">  1        2 0.64009459E-02 0.13171144E+03</pdfrwt>
<pdfrwt beam="1">  1       -2 0.50193531E-01 0.13171144E+03</pdfrwt>
<totfact> 0.41106008E+03</totfact>
</mgrwt>
</event>
<event>
 6    1  0.6101889E-006  0.1282651E+03  0.7546771E-02  0.1244011E+00
         -1   -1    0    0    0  501 -0.00000000000E+00  0.00000000000E+00  0.74588604419E+02  0.74588604419E+02  0.00000000000E+00 0.  1.
          1   -1    0    0  501    0  0.00000000000E+00 -0.00000000000E+00 -0.22863316773E+03  0.22863316773E+03  0.00000000000E+00 0. -1.
          5    1    1    2  502    0  0.16174458421E+02  0.27277620704E+02  0.47596022109E+01  0.32410268584E+02  0.47000000000E+01 0. -1.
         -5    1    1    2    0  502 -0.44646583439E+02 -0.23292764122E+02 -0.16652359712E+03  0.17403467664E+03  0.47000000000E+01 0. -1.
        -11    1    1    2    0    0 -0.26143500011E+02  0.18335902180E+02  0.18344974156E+02  0.36826973516E+02  0.00000000000E+00 0.  1.
         11    1    1    2    0    0  0.54615625029E+02 -0.22320758762E+02 -0.10625542551E+02  0.59949853407E+02  0.00000000000E+00 0. -1.
<mgrwt>
<rscale>  0 0.11944765E+03</rscale>
<asrwt>0</asrwt>
<pdfrwt beam="2">  1        1 0.35174333E-01 0.12826506E+03</pdfrwt>
<pdfrwt beam="1">  1       -1 0.11475170E-01 0.12826506E+03</pdfrwt>
<totfact> 0.57800019E+03</totfact>
</mgrwt>
</event>
<event>
 6    1  0.6101889E-006  0.1743991E+03  0.7546771E-02  0.1195121E+00
         -1   -1    0    0    0  501 -0.00000000000E+00  0.00000000000E+00  0.12557050251E+03  0.12557050251E+03  0.00000000000E+00 0.  1.
          1   -1    0    0  501    0  0.00000000000E+00 -0.00000000000E+00 -0.18867782292E+03  0.18867782292E+03  0.00000000000E+00 0. -1.
          5    1    1    2  502    0  0.26572415079E+02 -0.56536275335E+02 -0.14080486809E+03  0.15411211681E+03  0.47000000000E+01 0. -1.
         -5    1    1    2    0  502 -0.21879154319E+02 -0.19214107825E+01  0.41055847241E+02  0.46798096177E+02  0.47000000000E+01 0.  1.
        -11    1    1    2    0    0  0.17959541742E+02  0.74085615014E+02  0.39162135638E+02  0.85702370792E+02  0.00000000000E+00 0.  1.
         11    1    1    2    0    0 -0.22652802502E+02 -0.15627928896E+02 -0.25204351963E+01  0.27635741647E+02  0.00000000000E+00 0. -1.
<mgrwt>
<rscale>  0 0.15443978E+03</rscale>
<asrwt>0</asrwt>
<pdfrwt beam="2">  1        1 0.29027357E-01 0.17439910E+03</pdfrwt>
<pdfrwt beam="1">  1       -1 0.19318539E-01 0.17439910E+03</pdfrwt>
<totfact> 0.32933584E+03</totfact>
</mgrwt>
</event>
<event>
 6    1  0.6101889E-006  0.1797055E+03  0.7546771E-02  0.1174186E+00
         -2   -1    0    0    0  501 -0.00000000000E+00  0.00000000000E+00  0.85210355940E+02  0.85210355940E+02  0.00000000000E+00 0.  1.
          2   -1    0    0  501    0  0.00000000000E+00 -0.00000000000E+00 -0.42619780470E+03  0.42619780470E+03  0.00000000000E+00 0. -1.
          5    1    1    2  502    0 -0.10192648305E+02  0.66411348248E+02 -0.41107331481E+02  0.78906653439E+02  0.47000000000E+01 0.  1.
         -5    1    1    2    0  502  0.58689259358E+02  0.53238809087E+02 -0.25900201515E+03  0.27089284562E+03  0.47000000000E+01 0.  1.
        -11    1    1    2    0    0 -0.18131396336E+02  0.86261083641E+01 -0.19640663913E+02  0.28087594371E+02  0.00000000000E+00 0. -1.
         11    1    1    2    0    0 -0.30365214717E+02 -0.12827626570E+03 -0.21237438216E+02  0.13352106721E+03  0.00000000000E+00 0.  1.
<mgrwt>
<rscale>  0 0.17355925E+03</rscale>
<asrwt>0</asrwt>
<pdfrwt beam="2">  1        2 0.65568895E-01 0.17970551E+03</pdfrwt>
<pdfrwt beam="1">  1       -2 0.13109285E-01 0.17970551E+03</pdfrwt>
<totfact> 0.31277026E+03</totfact>
</mgrwt>
</event>
<event>
 6    1  0.6101889E-006  0.1331742E+03  0.7546771E-02  0.1231439E+00
          2   -1    0    0  501    0  0.00000000000E+00  0.00000000000E+00  0.96403824409E+02  0.96403824409E+02  0.00000000000E+00 0. -1.
         -2   -1    0    0    0  501 -0.00000000000E+00 -0.00000000000E+00 -0.15530362617E+03  0.15530362617E+03  0.00000000000E+00 0.  1.
          5    1    1    2  502    0 -0.42108975628E+02 -0.19895585199E+02  0.13070390600E+02  0.48599642481E+02  0.47000000000E+01 0. -1.
         -5    1    1    2    0  502  0.76598305837E+02 -0.10446994508E+02 -0.40385006436E+02  0.87346888303E+02  0.47000000000E+01 0. -1.
        -11    1    1    2    0    0 -0.21287298464E+02  0.82530967925E+01 -0.67682586949E+02  0.71429652517E+02  0.00000000000E+00 0.  1.
         11    1    1    2    0    0 -0.13202031745E+02  0.22089482914E+02  0.36097401026E+02  0.44331267277E+02  0.00000000000E+00 0. -1.
<mgrwt>
<rscale>  0 0.12735201E+03</rscale>
<asrwt>0</asrwt>
<pdfrwt beam="1">  1        2 0.14831358E-01 0.13317421E+03</pdfrwt>
<pdfrwt beam="2">  1       -2 0.23892865E-01 0.13317421E+03</pdfrwt>
<totfact> 0.57729249E+03</totfact>
</mgrwt>
</event>
<event>
 6    1  0.6101889E-006  0.1269029E+03  0.7546771E-02  0.1246554E+00
          2   -1    0    0  501    0  0.00000000000E+00  0.00000000000E+00  0.78520666454E+03  0.78520666454E+03  0.00000000000E+00 0. -1.
         -2   -1    0    0    0  501 -0.00000000000E+00 -0.00000000000E+00 -0.15914951797E+02  0.15914951797E+02  0.00000000000E+00 0.  1.
          5    1    1    2  502    0 -0.35477897961E+01  0.17052286197E+02  0.46860963564E+03  0.46895676548E+03  0.47000000000E+01 0.  1.
         -5    1    1    2    0  502  0.25330153809E+02 -0.18747482292E+02  0.24421769913E+02  0.40144708617E+02  0.47000000000E+01 0.  1.
        -11    1    1    2    0    0 -0.32499123691E+02  0.40177124035E+02  0.11843136194E+03  0.12921447994E+03  0.00000000000E+00 0.  1.
         11    1    1    2    0    0  0.10716759677E+02 -0.38481927940E+02  0.15782894525E+03  0.16280566229E+03  0.00000000000E+00 0. -1.
<mgrwt>
<rscale>  0 0.11792827E+03</rscale>
<asrwt>0</asrwt>
<pdfrwt beam="1">  1        2 0.12080100E+00 0.12690289E+03</pdfrwt>
<pdfrwt beam="2">  1       -2 0.24484547E-02 0.12690289E+03</pdfrwt>
<totfact> 0.19649398E+04</totfact>
</mgrwt>
</event>
<event>
 6    1  0.6101889E-006  0.1588272E+03  0.7546771E-02  0.1198761E+00
          2   -1    0    0  501    0  0.00000000000E+00  0.00000000000E+00  0.84920091199E+03  0.84920091199E+03  0.00000000000E+00 0. -1.
         -2   -1    0    0    0  501 -0.00000000000E+00 -0.00000000000E+00 -0.24786132673E+02  0.24786132673E+02  0.00000000000E+00 0.  1.
          5    1    1    2  502    0  0.26183878599E+02 -0.54792045128E+02  0.63762982749E+02  0.88179202065E+02  0.47000000000E+01 0.  1.
         -5    1    1    2    0  502  0.25869514148E+02 -0.28226556222E+02  0.40349607299E+03  0.40533583749E+03  0.47000000000E+01 0.  1.
        -11    1    1    2    0    0  0.19750748230E+02 -0.18239842756E+01  0.61134025142E+02  0.64271206651E+02  0.00000000000E+00 0. -1.
         11    1    1    2    0    0 -0.71804140976E+02  0.84842585626E+02  0.29602169843E+03  0.31620079845E+03  0.00000000000E+00 0.  1.
<mgrwt>
<rscale>  0 0.15140167E+03</rscale>
<asrwt>0</asrwt>
<pdfrwt beam="1">  1        2 0.13064627E+00 0.15882717E+03</pdfrwt>
<pdfrwt beam="2">  1       -2 0.38132518E-02 0.15882717E+03</pdfrwt>
<totfact> 0.94143281E+03</totfact>
</mgrwt>
</event>
<event>
 6    1  0.6101889E-006  0.1257022E+03  0.7546771E-02  0.1248862E+00
          1   -1    0    0  501    0  0.00000000000E+00  0.00000000000E+00  0.17180503272E+03  0.17180503272E+03  0.00000000000E+00 0. -1.
         -1   -1    0    0    0  501 -0.00000000000E+00 -0.00000000000E+00 -0.72754481913E+02  0.72754481913E+02  0.00000000000E+00 0.  1.
          5    1    1    2  502    0  0.99001310208E+01 -0.62685074461E+02  0.42200836922E+02  0.76357264168E+02  0.47000000000E+01 0.  1.
         -5    1    1    2    0  502 -0.22219999721E+02  0.57754954716E+02  0.39675877411E+02  0.73658865252E+02  0.47000000000E+01 0.  1.
        -11    1    1    2    0    0  0.22545982910E+02 -0.32498343996E+02 -0.16798058298E+02  0.42972531581E+02  0.00000000000E+00 0.  1.
         11    1    1    2    0    0 -0.10226114210E+02  0.37428463741E+02  0.33971894771E+02  0.51570853631E+02  0.00000000000E+00 0. -1.
<mgrwt>
<rscale>  0 0.11657178E+03</rscale>
<asrwt>0</asrwt>
<pdfrwt beam="1">  1        1 0.26431543E-01 0.12570220E+03</pdfrwt>
<pdfrwt beam="2">  1       -1 0.11192997E-01 0.12570220E+03</pdfrwt>
<totfact> 0.85489506E+03</totfact>
</mgrwt>
</event>
<event>
 6    1  0.6101889E-006  0.1278361E+03  0.7546771E-02  0.1245164E+00
         -2   -1    0    0    0  501 -0.00000000000E+00  0.00000000000E+00  0.22708620899E+02  0.22708620899E+02  0.00000000000E+00 0.  1.
          2   -1    0    0  501    0  0.00000000000E+00 -0.00000000000E+00 -0.11173981006E+04  0.11173981006E+04  0.00000000000E+00 0. -1.
          5    1    1    2  502    0  0.28329551528E+02 -0.45515511523E+02 -0.90379711986E+03  0.90539800593E+03  0.47000000000E+01 0. -1.
         -5    1    1    2    0  502 -0.28811556651E+02  0.18714971980E+02 -0.87705748834E+02  0.94311952325E+02  0.47000000000E+01 0. -1.
        -11    1    1    2    0    0  0.25627983583E+02  0.43749598282E+02 -0.24992337169E+02  0.56528203665E+02  0.00000000000E+00 0.  1.
         11    1    1    2    0    0 -0.25145978460E+02 -0.16949058739E+02 -0.78194273886E+02  0.83868559624E+02  0.00000000000E+00 0. -1.
<mgrwt>
<rscale>  0 0.11875549E+03</rscale>
<asrwt>0</asrwt>
<pdfrwt beam="2">  1        2 0.17190738E+00 0.12783607E+03</pdfrwt>
<pdfrwt beam="1">  1       -2 0.34936344E-02 0.12783607E+03</pdfrwt>
<totfact> 0.72927140E+03</totfact>
</mgrwt>
</event>
<event>
 6    1  0.6101889E-006  0.1157576E+03  0.7546771E-02  0.1257647E+00
          1   -1    0    0  501    0  0.00000000000E+00  0.00000000000E+00  0.48422300118E+03  0.48422300118E+03  0.00000000000E+00 0. -1.
         -1   -1    0    0    0  501 -0.00000000000E+00 -0.00000000000E+00 -0.29255042541E+02  0.29255042541E+02  0.00000000000E+00 0.  1.
          5    1    1    2  502    0  0.23207464235E+01 -0.67040121897E+02  0.21207341883E+03  0.22247918730E+03  0.47000000000E+01 0. -1.
         -5    1    1    2    0  502  0.19248314628E+02  0.44129241945E+02  0.13734936026E+03  0.14561876382E+03  0.47000000000E+01 0.  1.
        -11    1    1    2    0    0  0.28569649560E+02  0.31777615463E+02  0.74092543283E+02  0.85532138350E+02  0.00000000000E+00 0. -1.
         11    1    1    2    0    0 -0.50138710612E+02 -0.88667355113E+01  0.31452636260E+02  0.59847954252E+02  0.00000000000E+00 0.  1.
<mgrwt>
<rscale>  0 0.11159332E+03</rscale>
<asrwt>0</asrwt>
<pdfrwt beam="1">  1        1 0.74495841E-01 0.11575760E+03</pdfrwt>
<pdfrwt beam="2">  1       -1 0.45007761E-02 0.11575760E+03</pdfrwt>
<totfact> 0.91573401E+03</totfact>
</mgrwt>
</event>
<event>
 6    1  0.6101889E-006  0.1225247E+03  0.7546771E-02  0.1252188E+00
          2   -1    0    0  501    0  0.00000000000E+00  0.00000000000E+00  0.62620549721E+03  0.62620549721E+03  0.00000000000E+00 0. -1.
         -2   -1    0    0    0  501 -0.00000000000E+00 -0.00000000000E+00 -0.20826644460E+02  0.20826644460E+02  0.00000000000E+00 0.  1.
          5    1    1    2  502    0  0.29461402683E+02  0.39756029286E+01  0.43842893611E+03  0.43946080791E+03  0.47000000000E+01 0. -1.
         -5    1    1    2    0  502 -0.17064398462E+02  0.34970845243E+01  0.25476083770E+01  0.18220966041E+02  0.47000000000E+01 0.  1.
        -11    1    1    2    0    0  0.32265766371E+02  0.23157480748E+02  0.73213071632E+02  0.83291670963E+02  0.00000000000E+00 0.  1.
         11    1    1    2    0    0 -0.44662770592E+02 -0.30630168201E+02  0.91189236629E+02  0.10605869676E+03  0.00000000000E+00 0. -1.
<mgrwt>
<rscale>  0 0.11465281E+03</rscale>
<asrwt>0</asrwt>
<pdfrwt beam="1">  1        2 0.96339293E-01 0.12252466E+03</pdfrwt>
<pdfrwt beam="2">  1       -2 0.32040996E-02 0.12252466E+03</pdfrwt>
<totfact> 0.17283975E+04</totfact>
</mgrwt>
</event>
<event>
 6    1  0.6101889E-006  0.3040886E+03  0.7546771E-02  0.1083214E+00
         -2   -1    0    0    0  501 -0.00000000000E+00  0.00000000000E+00  0.39945819742E+02  0.39945819742E+02  0.00000000000E+00 0. -1.
          2   -1    0    0  501    0  0.00000000000E+00 -0.00000000000E+00 -0.57872079408E+03  0.57872079408E+03  0.00000000000E+00 0.  1.
          5    1    1    2  502    0  0.30108853392E+02  0.39519800701E+00 -0.38900039978E+02  0.49416620123E+02  0.47000000000E+01 0.  1.
         -5    1    1    2    0  502 -0.93471591245E+02  0.28214544331E+02 -0.42184213804E+03  0.43301948953E+03  0.47000000000E+01 0.  1.
        -11    1    1    2    0    0  0.31672771658E+02  0.21928937656E+02 -0.64395954034E+02  0.75039200869E+02  0.00000000000E+00 0.  1.
         11    1    1    2    0    0  0.31689966195E+02 -0.50538679994E+02 -0.13636842288E+02  0.61191303308E+02  0.00000000000E+00 0. -1.
<mgrwt>
<rscale>  0 0.30408865E+03</rscale>
<asrwt>0</asrwt>
<pdfrwt beam="2">  1        2 0.89033962E-01 0.30408865E+03</pdfrwt>
<pdfrwt beam="1">  1       -2 0.61455111E-02 0.30408865E+03</pdfrwt>
<totfact> 0.75042211E+03</totfact>
</mgrwt>
</event>
<event>
 6    1  0.6101889E-006  0.1537289E+03  0.7546771E-02  0.1205148E+00
          1   -1    0    0  501    0  0.00000000000E+00  0.00000000000E+00  0.13254322925E+04  0.13254322925E+04  0.00000000000E+00 0. -1.
         -1   -1    0    0    0  501 -0.00000000000E+00 -0.00000000000E+00 -0.16634214841E+02  0.16634214841E+02  0.00000000000E+00 0.  1.
          5    1    1    2  502    0  0.11178849979E+02  0.74631767154E+02  0.68039178981E+03  0.68458012314E+03  0.47000000000E+01 0.  1.
         -5    1    1    2    0  502 -0.65652958436E+02 -0.36350680148E+01  0.25625028423E+03  0.26459369388E+03  0.47000000000E+01 0.  1.
        -11    1    1    2    0    0  0.71429513187E+02 -0.33524001955E+02  0.18248707041E+03  0.19881540415E+03  0.00000000000E+00 0. -1.
         11    1    1    2    0    0 -0.16955404731E+02 -0.37472697185E+02  0.18966893317E+03  0.19407728614E+03  0.00000000000E+00 0.  1.
<mgrwt>
<rscale>  0 0.14625816E+03</rscale>
<asrwt>0</asrwt>
<pdfrwt beam="1">  1        1 0.20391258E+00 0.15372885E+03</pdfrwt>
<pdfrwt beam="2">  1       -1 0.25591110E-02 0.15372885E+03</pdfrwt>
<totfact> 0.44151557E+03</totfact>
</mgrwt>
</event>
<event>
 6    1  0.6101889E-006  0.1267301E+03  0.7546771E-02  0.1249195E+00
         -2   -1    0    0    0  501 -0.00000000000E+00  0.00000000000E+00  0.18300175159E+02  0.18300175159E+02  0.00000000000E+00 0.  1.
          2   -1    0    0  501    0  0.00000000000E+00 -0.00000000000E+00 -0.66977009818E+03  0.66977009818E+03  0.00000000000E+00 0. -1.
          5    1    1    2  502    0 -0.22722653655E+02  0.63160011289E+01 -0.41992112656E+03  0.42060914563E+03  0.47000000000E+01 0.  1.
         -5    1    1    2    0  502  0.32099374762E+02  0.12331330903E+02 -0.27113046558E+02  0.44041331447E+02  0.47000000000E+01 0.  1.
        -11    1    1    2    0    0  0.13119015676E+02  0.30919471382E+02 -0.55779924024E+02  0.65111613457E+02  0.00000000000E+00 0.  1.
         11    1    1    2    0    0 -0.22495736784E+02 -0.49566803414E+02 -0.14865582588E+03  0.15830818280E+03  0.00000000000E+00 0. -1.
<mgrwt>
<rscale>  0 0.11637790E+03</rscale>
<asrwt>0</asrwt>
<pdfrwt beam="2">  1        2 0.10304154E+00 0.12673008E+03</pdfrwt>
<pdfrwt beam="1">  1       -2 0.28154119E-02 0.12673008E+03</pdfrwt>
<totfact> 0.19384273E+04</totfact>
</mgrwt>
</event>
<event>
 6    1  0.6101889E-006  0.1582256E+03  0.7546771E-02  0.1198711E+00
         -1   -1    0    0    0  501 -0.00000000000E+00  0.00000000000E+00  0.90155162277E+02  0.90155162277E+02  0.00000000000E+00 0.  1.
          1   -1    0    0  501    0  0.00000000000E+00 -0.00000000000E+00 -0.26859551623E+03  0.26859551623E+03  0.00000000000E+00 0. -1.
          5    1    1    2  502    0 -0.78195053554E+02  0.30819325029E+02 -0.33658824357E+02  0.90660375318E+02  0.47000000000E+01 0. -1.
         -5    1    1    2    0  502 -0.18135785923E+02 -0.42148267987E+02 -0.12575162521E+03  0.13394381086E+03  0.47000000000E+01 0. -1.
        -11    1    1    2    0    0  0.55532085035E+02 -0.33761814278E+02  0.11667194613E+02  0.66028751327E+02  0.00000000000E+00 0.  1.
         11    1    1    2    0    0  0.40798754442E+02  0.45090757236E+02 -0.30697098999E+02  0.68117741001E+02  0.00000000000E+00 0. -1.
<mgrwt>
<rscale>  0 0.15144287E+03</rscale>
<asrwt>0</asrwt>
<pdfrwt beam="2">  1        1 0.41322387E-01 0.15822563E+03</pdfrwt>
<pdfrwt beam="1">  1       -1 0.13870025E-01 0.15822563E+03</pdfrwt>
<totfact> 0.35706785E+03</totfact>
</mgrwt>
</event>
<event>
 6    1  0.6101889E-006  0.1287566E+03  0.7546771E-02  0.1243138E+00
          2   -1    0    0  501    0  0.00000000000E+00  0.00000000000E+00  0.62034145654E+03  0.62034145654E+03  0.00000000000E+00 0. -1.
         -2   -1    0    0    0  501 -0.00000000000E+00 -0.00000000000E+00 -0.20723868470E+02  0.20723868470E+02  0.00000000000E+00 0.  1.
          5    1    1    2  502    0  0.67013226001E+02  0.41227347068E+02  0.25805793369E+03  0.26982671059E+03  0.47000000000E+01 0. -1.
         -5    1    1    2    0  502 -0.38978384642E+02 -0.28270232730E+02  0.11243801371E+03  0.12240472807E+03  0.47000000000E+01 0. -1.
        -11    1    1    2    0    0  0.10412255919E+02  0.33989569646E+02  0.10088533808E+03  0.10696521564E+03  0.00000000000E+00 0. -1.
         11    1    1    2    0    0 -0.38447097277E+02 -0.46946683984E+02  0.12823630260E+03  0.14186867072E+03  0.00000000000E+00 0.  1.
<mgrwt>
<rscale>  0 0.11997548E+03</rscale>
<asrwt>0</asrwt>
<pdfrwt beam="1">  1        2 0.95437133E-01 0.12875657E+03</pdfrwt>
<pdfrwt beam="2">  1       -2 0.31882879E-02 0.12875657E+03</pdfrwt>
<totfact> 0.17670802E+04</totfact>
</mgrwt>
</event>
<event>
 6    1  0.6101889E-006  0.2498462E+03  0.7546771E-02  0.1116035E+00
         -1   -1    0    0    0  501 -0.00000000000E+00  0.00000000000E+00  0.71818175401E+02  0.71818175401E+02  0.00000000000E+00 0.  1.
          1   -1    0    0  501    0  0.00000000000E+00 -0.00000000000E+00 -0.11528021130E+04  0.11528021130E+04  0.00000000000E+00 0. -1.
          5    1    1    2  502    0 -0.10081387343E+02 -0.20615439750E+03 -0.69785915267E+03  0.72775734757E+03  0.47000000000E+01 0.  1.
         -5    1    1    2    0  502  0.41157686283E+02 -0.79365737711E+01 -0.18704798541E+03  0.19174457799E+03  0.47000000000E+01 0.  1.
        -11    1    1    2    0    0  0.21451736108E+02  0.10326308844E+03 -0.57725900545E+02  0.12023195087E+03  0.00000000000E+00 0.  1.
         11    1    1    2    0    0 -0.52528035049E+02  0.11082788283E+03 -0.13835089895E+03  0.18488641194E+03  0.00000000000E+00 0. -1.
<mgrwt>
<rscale>  0 0.24572791E+03</rscale>
<asrwt>0</asrwt>
<pdfrwt beam="2">  1        1 0.17735416E+00 0.24984625E+03</pdfrwt>
<pdfrwt beam="1">  1       -1 0.11048951E-01 0.24984625E+03</pdfrwt>
<totfact> 0.64789060E+02</totfact>
</mgrwt>
</event>
<event>
 6    1  0.6101889E-006  0.3347619E+03  0.7546771E-02  0.1069049E+00
          1   -1    0    0  501    0  0.00000000000E+00  0.00000000000E+00  0.15056817573E+04  0.15056817573E+04  0.00000000000E+00 0. -1.
         -1   -1    0    0    0  501 -0.00000000000E+00 -0.00000000000E+00 -0.18607110332E+02  0.18607110332E+02  0.00000000000E+00 0.  1.
          5    1    1    2  502    0 -0.23381629264E+02 -0.10841010006E+02  0.77243009944E+02  0.81564702354E+02  0.47000000000E+01 0.  1.
         -5    1    1    2    0  502  0.61331022687E+02  0.10573128031E+03  0.10746350658E+04  0.10815744138E+04  0.47000000000E+01 0.  1.
        -11    1    1    2    0    0 -0.44344695077E+02 -0.37974753662E+02  0.76742925446E+02  0.96426191998E+02  0.00000000000E+00 0.  1.
         11    1    1    2    0    0  0.63953016544E+01 -0.56915516644E+02  0.25845364579E+03  0.26472355947E+03  0.00000000000E+00 0. -1.
<mgrwt>
<rscale>  0 0.33476192E+03</rscale>
<asrwt>0</asrwt>
<pdfrwt beam="1">  1        1 0.23164325E+00 0.33476192E+03</pdfrwt>
<pdfrwt beam="2">  1       -1 0.28626335E-02 0.33476192E+03</pdfrwt>
<totfact> 0.28702520E+03</totfact>
</mgrwt>
</event>
<event>
 6    1  0.6101889E-006  0.1919053E+03  0.7546771E-02  0.1161478E+00
          1   -1    0    0  501    0  0.00000000000E+00  0.00000000000E+00  0.63064937836E+03  0.63064937836E+03  0.00000000000E+00 0. -1.
         -1   -1    0    0    0  501 -0.00000000000E+00 -0.00000000000E+00 -0.52506146803E+02  0.52506146803E+02  0.00000000000E+00 0.  1.
          5    1    1    2  502    0 -0.88204851263E+02  0.12717927592E+02  0.58267783264E+02  0.10657891928E+03  0.47000000000E+01 0. -1.
         -5    1    1    2    0  502 -0.45406220867E+02  0.45173430860E+02  0.23720039101E+03  0.24574067479E+03  0.47000000000E+01 0. -1.
        -11    1    1    2    0    0  0.10931017268E+03 -0.27784677542E+01  0.15524738332E+03  0.18988992539E+03  0.00000000000E+00 0. -1.
         11    1    1    2    0    0  0.24300899451E+02 -0.55112890697E+02  0.12742767396E+03  0.14094600571E+03  0.00000000000E+00 0.  1.
<mgrwt>
<rscale>  0 0.18669378E+03</rscale>
<asrwt>0</asrwt>
<pdfrwt beam="1">  1        1 0.97022976E-01 0.19190533E+03</pdfrwt>
<pdfrwt beam="2">  1       -1 0.80778692E-02 0.19190533E+03</pdfrwt>
<totfact> 0.27505981E+03</totfact>
</mgrwt>
</event>
<event>
 6    1  0.6101889E-006  0.1293183E+03  0.7546771E-02  0.1242147E+00
         -3   -1    0    0    0  501 -0.00000000000E+00  0.00000000000E+00  0.51699364424E+03  0.51699364424E+03  0.00000000000E+00 0.  1.
          3   -1    0    0  501    0  0.00000000000E+00 -0.00000000000E+00 -0.25265300861E+02  0.25265300861E+02  0.00000000000E+00 0. -1.
          5    1    1    2  502    0 -0.65689778733E+02 -0.37212237038E+01  0.23563774606E+03  0.24469620329E+03  0.47000000000E+01 0.  1.
         -5    1    1    2    0  502  0.32814752182E+02 -0.32253789412E+00  0.13092684270E+02  0.35642956848E+02  0.47000000000E+01 0.  1.
        -11    1    1    2    0    0  0.58291750737E+02  0.96353645565E+01  0.96668435438E+02  0.11329410781E+03  0.00000000000E+00 0. -1.
         11    1    1    2    0    0 -0.25416724186E+02 -0.55916029585E+01  0.14632947761E+03  0.14862567715E+03  0.00000000000E+00 0.  1.
<mgrwt>
<rscale>  0 0.12057799E+03</rscale>
<asrwt>0</asrwt>
<pdfrwt beam="2">  1        3 0.38869697E-02 0.12931828E+03</pdfrwt>
<pdfrwt beam="1">  1       -3 0.79537476E-01 0.12931828E+03</pdfrwt>
<totfact> 0.11726965E+03</totfact>
</mgrwt>
</event>
<event>
 6    1  0.6101889E-006  0.1707386E+03  0.7546771E-02  0.1183442E+00
         -1   -1    0    0    0  501 -0.00000000000E+00  0.00000000000E+00  0.72860336468E+02  0.72860336468E+02  0.00000000000E+00 0.  1.
          1   -1    0    0  501    0  0.00000000000E+00 -0.00000000000E+00 -0.35245239039E+03  0.35245239039E+03  0.00000000000E+00 0. -1.
          5    1    1    2  502    0 -0.75290146708E+02  0.10429207525E+03 -0.11433480943E+03  0.17216266087E+03  0.47000000000E+01 0.  1.
         -5    1    1    2    0  502 -0.18326412642E+02 -0.35288649746E+02 -0.57561274466E+02  0.70118018507E+02  0.47000000000E+01 0.  1.
        -11    1    1    2    0    0  0.59946792531E+02 -0.70848388675E+02 -0.11575161016E+03  0.14836289081E+03  0.00000000000E+00 0. -1.
         11    1    1    2    0    0  0.33669766819E+02  0.18449631731E+01  0.80556401343E+01  0.34669156678E+02  0.00000000000E+00 0.  1.
<mgrwt>
<rscale>  0 0.16474415E+03</rscale>
<asrwt>0</asrwt>
<pdfrwt beam="2">  1        1 0.54223444E-01 0.17073858E+03</pdfrwt>
<pdfrwt beam="1">  1       -1 0.11209283E-01 0.17073858E+03</pdfrwt>
<totfact> 0.35545270E+03</totfact>
</mgrwt>
</event>
<event>
 6    1  0.6101889E-006  0.1482861E+03  0.7546771E-02  0.1211713E+00
         -1   -1    0    0    0  501 -0.00000000000E+00  0.00000000000E+00  0.18278365294E+03  0.18278365294E+03  0.00000000000E+00 0.  1.
          1   -1    0    0  501    0  0.00000000000E+00 -0.00000000000E+00 -0.10837089613E+03  0.10837089613E+03  0.00000000000E+00 0. -1.
          5    1    1    2  502    0  0.26990331595E+02 -0.50540233354E+02 -0.51203700352E+02  0.76985077235E+02  0.47000000000E+01 0.  1.
         -5    1    1    2    0  502  0.45953111524E+02  0.18226655939E+02  0.51164887355E+02  0.71301017830E+02  0.47000000000E+01 0.  1.
        -11    1    1    2    0    0 -0.46789990625E+02 -0.38481442117E+01 -0.94004536800E+01  0.47879849268E+02  0.00000000000E+00 0. -1.
         11    1    1    2    0    0 -0.26153452494E+02  0.36161721627E+02  0.83852023488E+02  0.94988604745E+02  0.00000000000E+00 0.  1.
<mgrwt>
<rscale>  0 0.14120764E+03</rscale>
<asrwt>0</asrwt>
<pdfrwt beam="2">  1        1 0.16672446E-01 0.14828609E+03</pdfrwt>
<pdfrwt beam="1">  1       -1 0.28120562E-01 0.14828609E+03</pdfrwt>
<totfact> 0.35737552E+03</totfact>
</mgrwt>
</event>
<event>
 6    1  0.6101889E-006  0.1314336E+03  0.7546771E-02  0.1237069E+00
          1   -1    0    0  501    0  0.00000000000E+00  0.00000000000E+00  0.14868439298E+03  0.14868439298E+03  0.00000000000E+00 0. -1.
         -1   -1    0    0    0  501 -0.00000000000E+00 -0.00000000000E+00 -0.95995972437E+02  0.95995972437E+02  0.00000000000E+00 0.  1.
          5    1    1    2  502    0  0.43466382841E+02  0.14018755032E+02  0.95525734385E+01  0.46895560442E+02  0.47000000000E+01 0. -1.
         -5    1    1    2    0  502 -0.73192296514E+02 -0.41656186599E+02  0.42753126842E+02  0.94563576528E+02  0.47000000000E+01 0. -1.
        -11    1    1    2    0    0  0.48313891806E+01  0.55889189705E+02 -0.21022640880E+02  0.59907389167E+02  0.00000000000E+00 0.  1.
         11    1    1    2    0    0  0.24894524493E+02 -0.28251758137E+02  0.21405361146E+02  0.43313839282E+02  0.00000000000E+00 0. -1.
<mgrwt>
<rscale>  0 0.12372897E+03</rscale>
<asrwt>0</asrwt>
<pdfrwt beam="1">  1        1 0.22874522E-01 0.13143364E+03</pdfrwt>
<pdfrwt beam="2">  1       -1 0.14768611E-01 0.13143364E+03</pdfrwt>
<totfact> 0.66946258E+03</totfact>
</mgrwt>
</event>
<event>
 6    1  0.6101889E-006  0.1324124E+03  0.7546771E-02  0.1238675E+00
         -2   -1    0    0    0  501 -0.00000000000E+00  0.00000000000E+00  0.31875448996E+02  0.31875448996E+02  0.00000000000E+00 0.  1.
          2   -1    0    0  501    0  0.00000000000E+00 -0.00000000000E+00 -0.44744076190E+03  0.44744076190E+03  0.00000000000E+00 0. -1.
          5    1    1    2  502    0  0.50373205032E+02  0.37485603764E+02 -0.61535479608E+02  0.88041669256E+02  0.47000000000E+01 0. -1.
         -5    1    1    2    0  502 -0.89368910288E+01 -0.23641571169E+02 -0.23889846472E+03  0.24027766928E+03  0.47000000000E+01 0. -1.
        -11    1    1    2    0    0  0.72034047150E+01 -0.38525621283E+02 -0.69902390941E+02  0.80140232056E+02  0.00000000000E+00 0.  1.
         11    1    1    2    0    0 -0.48639718719E+02  0.24681588688E+02 -0.45228977632E+02  0.70856640302E+02  0.00000000000E+00 0. -1.
<mgrwt>
<rscale>  0 0.12272058E+03</rscale>
<asrwt>0</asrwt>
<pdfrwt beam="2">  1        2 0.68837042E-01 0.13241236E+03</pdfrwt>
<pdfrwt beam="1">  1       -2 0.49039151E-02 0.13241236E+03</pdfrwt>
<totfact> 0.13426232E+04</totfact>
</mgrwt>
</event>
<event>
 6    1  0.6101889E-006  0.1360495E+03  0.7546771E-02  0.1231333E+00
         -2   -1    0    0    0  501 -0.00000000000E+00  0.00000000000E+00  0.55295821038E+02  0.55295821038E+02  0.00000000000E+00 0.  1.
          2   -1    0    0  501    0  0.00000000000E+00 -0.00000000000E+00 -0.26299800805E+03  0.26299800805E+03  0.00000000000E+00 0. -1.
          5    1    1    2  502    0  0.34398219683E+02 -0.15756138325E+02 -0.14947527702E+03  0.15426095376E+03  0.47000000000E+01 0. -1.
         -5    1    1    2    0  502  0.19188041026E+02  0.10951460239E+02  0.22467164935E+02  0.31858733497E+02  0.47000000000E+01 0. -1.
        -11    1    1    2    0    0 -0.34308039355E+02  0.47059447917E+02 -0.45028412719E+02  0.73615155740E+02  0.00000000000E+00 0. -1.
         11    1    1    2    0    0 -0.19278221355E+02 -0.42254769832E+02 -0.35665662205E+02  0.58558986097E+02  0.00000000000E+00 0.  1.
<mgrwt>
<rscale>  0 0.12742116E+03</rscale>
<asrwt>0</asrwt>
<pdfrwt beam="2">  1        2 0.40461231E-01 0.13604954E+03</pdfrwt>
<pdfrwt beam="1">  1       -2 0.85070495E-02 0.13604954E+03</pdfrwt>
<totfact> 0.10232510E+04</totfact>
</mgrwt>
</event>
<event>
 6    1  0.6101889E-006  0.1364754E+03  0.7546771E-02  0.1230716E+00
          2   -1    0    0  501    0  0.00000000000E+00  0.00000000000E+00  0.26751260838E+03  0.26751260838E+03  0.00000000000E+00 0. -1.
         -2   -1    0    0    0  501 -0.00000000000E+00 -0.00000000000E+00 -0.85315928365E+02  0.85315928365E+02  0.00000000000E+00 0.  1.
          5    1    1    2  502    0 -0.78170143982E+02 -0.22920399227E+02  0.10496418981E+03  0.13294919050E+03  0.47000000000E+01 0.  1.
         -5    1    1    2    0  502  0.28112142196E+02  0.45086947557E+02  0.99145558188E+02  0.11258355602E+03  0.47000000000E+01 0.  1.
        -11    1    1    2    0    0 -0.44117846281E+01 -0.16615187271E+02  0.28229904802E+02  0.33052319386E+02  0.00000000000E+00 0. -1.
         11    1    1    2    0    0  0.54469786414E+02 -0.55513610583E+01 -0.50142972788E+02  0.74243470835E+02  0.00000000000E+00 0.  1.
<mgrwt>
<rscale>  0 0.12782730E+03</rscale>
<asrwt>0</asrwt>
<pdfrwt beam="1">  1        2 0.41155785E-01 0.13647542E+03</pdfrwt>
<pdfrwt beam="2">  1       -2 0.13125528E-01 0.13647542E+03</pdfrwt>
<totfact> 0.50669374E+03</totfact>
</mgrwt>
</event>
<event>
 6    1  0.6101889E-006  0.1462231E+03  0.7546771E-02  0.1214977E+00
         -4   -1    0    0    0  501 -0.00000000000E+00  0.00000000000E+00  0.53978923557E+02  0.53978923557E+02  0.00000000000E+00 0.  1.
          4   -1    0    0  501    0  0.00000000000E+00 -0.00000000000E+00 -0.39077189468E+03  0.39077189468E+03  0.00000000000E+00 0. -1.
          5    1    1    2  502    0 -0.76101672750E+02 -0.50169400485E+02 -0.15778899027E+03  0.18228518533E+03  0.47000000000E+01 0.  1.
         -5    1    1    2    0  502  0.34638242477E+00  0.54150118365E+02 -0.11604183684E+03  0.12814114560E+03  0.47000000000E+01 0.  1.
        -11    1    1    2    0    0  0.56261605565E+02 -0.35670815671E+02 -0.68086620867E+01  0.66963670978E+02  0.00000000000E+00 0.  1.
         11    1    1    2    0    0  0.19493684760E+02  0.31690097792E+02 -0.56153481925E+02  0.67360816324E+02  0.00000000000E+00 0. -1.
<mgrwt>
<rscale>  0 0.13878188E+03</rscale>
<asrwt>0</asrwt>
<pdfrwt beam="2">  1        4 0.60118754E-01 0.14622307E+03</pdfrwt>
<pdfrwt beam="1">  1       -4 0.83044497E-02 0.14622307E+03</pdfrwt>
<totfact> 0.46173326E+02</totfact>
</mgrwt>
</event>
<event>
 6    1  0.6101889E-006  0.1264672E+03  0.7546771E-02  0.1247808E+00
          1   -1    0    0  501    0  0.00000000000E+00  0.00000000000E+00  0.41142567064E+02  0.41142567064E+02  0.00000000000E+00 0. -1.
         -1   -1    0    0    0  501 -0.00000000000E+00 -0.00000000000E+00 -0.32360793709E+03  0.32360793709E+03  0.00000000000E+00 0.  1.
          5    1    1    2  502    0 -0.29939938951E+02 -0.49869158556E+02 -0.67460204303E+02  0.89198105833E+02  0.47000000000E+01 0.  1.
         -5    1    1    2    0  502  0.48156986396E+02  0.43691731011E+02 -0.37919073056E+02  0.75418888873E+02  0.47000000000E+01 0.  1.
        -11    1    1    2    0    0  0.11381813723E+02 -0.32165778216E+02 -0.30547334158E+02  0.45796534760E+02  0.00000000000E+00 0. -1.
         11    1    1    2    0    0 -0.29598861167E+02  0.38343205761E+02 -0.14653875851E+03  0.15433697469E+03  0.00000000000E+00 0.  1.
<mgrwt>
<rscale>  0 0.11718866E+03</rscale>
<asrwt>0</asrwt>
<pdfrwt beam="1">  1        1 0.63296259E-02 0.12646724E+03</pdfrwt>
<pdfrwt beam="2">  1       -1 0.49785835E-01 0.12646724E+03</pdfrwt>
<totfact> 0.47235584E+03</totfact>
</mgrwt>
</event>
<event>
 6    1  0.6101889E-006  0.1965910E+03  0.7546771E-02  0.1157158E+00
         -1   -1    0    0    0  501 -0.00000000000E+00  0.00000000000E+00  0.97256072551E+02  0.97256072551E+02  0.00000000000E+00 0.  1.
          1   -1    0    0  501    0  0.00000000000E+00 -0.00000000000E+00 -0.44080679608E+03  0.44080679608E+03  0.00000000000E+00 0. -1.
          5    1    1    2  502    0  0.31939553193E+01  0.13013671479E+02 -0.97447626473E+02  0.98476834338E+02  0.47000000000E+01 0.  1.
         -5    1    1    2    0  502  0.52764245045E+02 -0.15403563755E+03 -0.19788209405E+03  0.25630149499E+03  0.47000000000E+01 0.  1.
        -11    1    1    2    0    0 -0.17738902640E+02  0.60595019604E+01  0.19908531772E+02  0.27344759429E+02  0.00000000000E+00 0.  1.
         11    1    1    2    0    0 -0.38219297724E+02  0.13496246411E+03 -0.68129534783E+02  0.15593977987E+03  0.00000000000E+00 0. -1.
<mgrwt>
<rscale>  0 0.19145211E+03</rscale>
<asrwt>0</asrwt>
<pdfrwt beam="2">  1        1 0.67816430E-01 0.19659099E+03</pdfrwt>
<pdfrwt beam="1">  1       -1 0.14962473E-01 0.19659099E+03</pdfrwt>
<totfact> 0.17103831E+03</totfact>
</mgrwt>
</event>
<event>
 6    1  0.6101889E-006  0.1462022E+03  0.7546771E-02  0.1213205E+00
          2   -1    0    0  501    0  0.00000000000E+00  0.00000000000E+00  0.19834523524E+04  0.19834523524E+04  0.00000000000E+00 0. -1.
         -2   -1    0    0    0  501 -0.00000000000E+00 -0.00000000000E+00 -0.10930554675E+02  0.10930554675E+02  0.00000000000E+00 0.  1.
          5    1    1    2  502    0  0.48459808306E+02  0.88647957597E+02  0.78627253641E+03  0.79275053133E+03  0.47000000000E+01 0. -1.
         -5    1    1    2    0  502  0.30645407232E+01 -0.33034002788E+02  0.67139789035E+03  0.67223348170E+03  0.47000000000E+01 0. -1.
        -11    1    1    2    0    0  0.26125978142E+01  0.10608091416E+02  0.43140440732E+01  0.11745988554E+02  0.00000000000E+00 0.  1.
         11    1    1    2    0    0 -0.54136946843E+02 -0.66222046225E+02  0.51053732693E+03  0.51765290554E+03  0.00000000000E+00 0. -1.
<mgrwt>
<rscale>  0 0.14009242E+03</rscale>
<asrwt>0</asrwt>
<pdfrwt beam="1">  1        2 0.30514623E+00 0.14620221E+03</pdfrwt>
<pdfrwt beam="2">  1       -2 0.16816254E-02 0.14620221E+03</pdfrwt>
<totfact> 0.74786330E+03</totfact>
</mgrwt>
</event>
<event>
 6    1  0.6101889E-006  0.1296770E+03  0.7546771E-02  0.1241270E+00
          2   -1    0    0  501    0  0.00000000000E+00  0.00000000000E+00  0.18979769324E+03  0.18979769324E+03  0.00000000000E+00 0. -1.
         -2   -1    0    0    0  501 -0.00000000000E+00 -0.00000000000E+00 -0.68965193448E+02  0.68965193448E+02  0.00000000000E+00 0.  1.
          5    1    1    2  502    0  0.11793361622E+02  0.48872096432E+02  0.35974691311E+02  0.61998658074E+02  0.47000000000E+01 0.  1.
         -5    1    1    2    0  502 -0.41142144673E+02 -0.66997169104E+02  0.40811489768E+02  0.88707183662E+02  0.47000000000E+01 0.  1.
        -11    1    1    2    0    0 -0.39553926358E+01  0.47796640180E+02  0.40230078102E+01  0.48128458683E+02  0.00000000000E+00 0. -1.
         11    1    1    2    0    0  0.33304175687E+02 -0.29671567508E+02  0.40023310904E+02  0.59928586270E+02  0.00000000000E+00 0.  1.
<mgrwt>
<rscale>  0 0.12111453E+03</rscale>
<asrwt>0</asrwt>
<pdfrwt beam="1">  1        2 0.29199645E-01 0.12967703E+03</pdfrwt>
<pdfrwt beam="2">  1       -2 0.10610030E-01 0.12967703E+03</pdfrwt>
<totfact> 0.10237699E+04</totfact>
</mgrwt>
</event>
<event>
 6    1  0.6101889E-006  0.1276182E+03  0.7546771E-02  0.1243252E+00
          1   -1    0    0  501    0  0.00000000000E+00  0.00000000000E+00  0.11776433545E+03  0.11776433545E+03  0.00000000000E+00 0. -1.
         -1   -1    0    0    0  501 -0.00000000000E+00 -0.00000000000E+00 -0.11248043562E+03  0.11248043562E+03  0.00000000000E+00 0.  1.
          5    1    1    2  502    0  0.23448762510E+02 -0.39391455470E+02 -0.33973329227E+02  0.57252146912E+02  0.47000000000E+01 0. -1.
         -5    1    1    2    0  502  0.15218837747E+01  0.45721677832E+02  0.55651781069E+02  0.72194173519E+02  0.47000000000E+01 0. -1.
        -11    1    1    2    0    0 -0.57472419715E+02 -0.74587970328E+01  0.10128559142E+02  0.58832817299E+02  0.00000000000E+00 0. -1.
         11    1    1    2    0    0  0.32501773430E+02  0.11285746715E+01 -0.26523111153E+02  0.41965633346E+02  0.00000000000E+00 0.  1.
<mgrwt>
<rscale>  0 0.11990640E+03</rscale>
<asrwt>0</asrwt>
<pdfrwt beam="1">  1        1 0.18117590E-01 0.12761816E+03</pdfrwt>
<pdfrwt beam="2">  1       -1 0.17304682E-01 0.12761816E+03</pdfrwt>
<totfact> 0.69972736E+03</totfact>
</mgrwt>
</event>
<event>
 6    1  0.6101889E-006  0.1634918E+03  0.7546771E-02  0.1192118E+00
          2   -1    0    0  501    0  0.00000000000E+00  0.00000000000E+00  0.38207725747E+03  0.38207725747E+03  0.00000000000E+00 0. -1.
         -2   -1    0    0    0  501 -0.00000000000E+00 -0.00000000000E+00 -0.98316156805E+02  0.98316156805E+02  0.00000000000E+00 0.  1.
          5    1    1    2  502    0  0.19757824935E+02  0.78566566590E+02  0.20831145244E+03  0.22355945127E+03  0.47000000000E+01 0. -1.
         -5    1    1    2    0  502 -0.73037561827E+02  0.12357771716E+02  0.90409388817E+02  0.11697498684E+03  0.47000000000E+01 0. -1.
        -11    1    1    2    0    0  0.38181034092E+02 -0.28600835408E+02 -0.48040300198E+02  0.67702803439E+02  0.00000000000E+00 0.  1.
         11    1    1    2    0    0  0.15098702800E+02 -0.62323502899E+02  0.33080559605E+02  0.72156172734E+02  0.00000000000E+00 0. -1.
<mgrwt>
<rscale>  0 0.15700730E+03</rscale>
<asrwt>0</asrwt>
<pdfrwt beam="1">  1        2 0.58781116E-01 0.16349178E+03</pdfrwt>
<pdfrwt beam="2">  1       -2 0.15125563E-01 0.16349178E+03</pdfrwt>
<totfact> 0.27765905E+03</totfact>
</mgrwt>
</event>
<event>
 6    1  0.6101889E-006  0.1593451E+03  0.7546771E-02  0.1210524E+00
         -2   -1    0    0    0  501 -0.00000000000E+00  0.00000000000E+00  0.82704468508E+02  0.82704468508E+02  0.00000000000E+00 0.  1.
          2   -1    0    0  501    0  0.00000000000E+00 -0.00000000000E+00 -0.26452615833E+03  0.26452615833E+03  0.00000000000E+00 0. -1.
          5    1    1    2  502    0 -0.51280428531E+02  0.68101046115E+01 -0.14997786807E+03  0.15871833790E+03  0.47000000000E+01 0. -1.
         -5    1    1    2    0  502  0.72787999943E+02  0.30270921683E+02 -0.37785848222E+02  0.87545884890E+02  0.47000000000E+01 0.  1.
        -11    1    1    2    0    0 -0.39636024171E+02  0.60780211415E+01 -0.22708529656E+02  0.46082904338E+02  0.00000000000E+00 0. -1.
         11    1    1    2    0    0  0.18128452759E+02 -0.43159047436E+02  0.28650556120E+02  0.54883499715E+02  0.00000000000E+00 0.  1.
<mgrwt>
<rscale>  0 0.14210517E+03</rscale>
<asrwt>0</asrwt>
<pdfrwt beam="2">  1        2 0.40696331E-01 0.15934508E+03</pdfrwt>
<pdfrwt beam="1">  1       -2 0.12723765E-01 0.15934508E+03</pdfrwt>
<totfact> 0.54400855E+03</totfact>
</mgrwt>
</event>
<event>
 6    1  0.6101889E-006  0.1330777E+03  0.7546771E-02  0.1236033E+00
          1   -1    0    0  501    0  0.00000000000E+00  0.00000000000E+00  0.11040200484E+03  0.11040200484E+03  0.00000000000E+00 0. -1.
         -1   -1    0    0    0  501 -0.00000000000E+00 -0.00000000000E+00 -0.15229539899E+03  0.15229539899E+03  0.00000000000E+00 0.  1.
          5    1    1    2  502    0  0.27556720707E+02 -0.28360854779E+02 -0.17274312362E+02  0.43407404984E+02  0.47000000000E+01 0. -1.
         -5    1    1    2    0  502 -0.73184704855E+02  0.30242782902E+02  0.49543398288E+02  0.93526815707E+02  0.47000000000E+01 0. -1.
        -11    1    1    2    0    0  0.30491439533E+02 -0.29123679842E+01 -0.95097538420E+02  0.99908716265E+02  0.00000000000E+00 0.  1.
         11    1    1    2    0    0  0.15136544615E+02  0.10304398611E+01  0.20935058350E+02  0.25854466873E+02  0.00000000000E+00 0. -1.
<mgrwt>
<rscale>  0 0.12438546E+03</rscale>
<asrwt>0</asrwt>
<pdfrwt beam="1">  1        1 0.16984924E-01 0.13307775E+03</pdfrwt>
<pdfrwt beam="2">  1       -1 0.23430061E-01 0.13307775E+03</pdfrwt>
<totfact> 0.46859470E+03</totfact>
</mgrwt>
</event>
<event>
 6    1  0.6101889E-006  0.1432680E+03  0.7546771E-02  0.1218772E+00
         -2   -1    0    0    0  501 -0.00000000000E+00  0.00000000000E+00  0.72604731040E+02  0.72604731040E+02  0.00000000000E+00 0. -1.
          2   -1    0    0  501    0  0.00000000000E+00 -0.00000000000E+00 -0.28897947095E+03  0.28897947095E+03  0.00000000000E+00 0.  1.
          5    1    1    2  502    0 -0.45484780264E+02 -0.69457745605E+02 -0.19303611540E+03  0.21018628763E+03  0.47000000000E+01 0. -1.
         -5    1    1    2    0  502 -0.12537506818E+02  0.30291452902E+02 -0.38975719607E+01  0.33347297691E+02  0.47000000000E+01 0. -1.
        -11    1    1    2    0    0  0.46113947352E+02  0.23657848801E+02  0.33433523742E+02  0.61676498442E+02  0.00000000000E+00 0. -1.
         11    1    1    2    0    0  0.11908339731E+02  0.15508443902E+02 -0.52874576293E+02  0.56374118224E+02  0.00000000000E+00 0.  1.
<mgrwt>
<rscale>  0 0.13603054E+03</rscale>
<asrwt>0</asrwt>
<pdfrwt beam="2">  1        2 0.44458380E-01 0.14326804E+03</pdfrwt>
<pdfrwt beam="1">  1       -2 0.11169959E-01 0.14326804E+03</pdfrwt>
<totfact> 0.60600362E+03</totfact>
</mgrwt>
</event>
<event>
 6    1  0.6101889E-006  0.1282549E+03  0.7546771E-02  0.1244661E+00
         -2   -1    0    0    0  501 -0.00000000000E+00  0.00000000000E+00  0.27017622752E+02  0.27017622752E+02  0.00000000000E+00 0.  1.
          2   -1    0    0  501    0  0.00000000000E+00 -0.00000000000E+00 -0.95870196408E+03  0.95870196408E+03  0.00000000000E+00 0. -1.
          5    1    1    2  502    0  0.31813183397E+02 -0.35491052994E+02 -0.73470354857E+03  0.73626292027E+03  0.47000000000E+01 0.  1.
         -5    1    1    2    0  502 -0.42964548735E+01  0.43682013949E+02 -0.11713999291E+03  0.12518165123E+03  0.47000000000E+01 0.  1.
        -11    1    1    2    0    0 -0.36102374394E+02 -0.42552827621E+02 -0.30672797608E+02  0.63678450739E+02  0.00000000000E+00 0. -1.
         11    1    1    2    0    0  0.85856458709E+01  0.34361866666E+02 -0.49168002244E+02  0.60596564593E+02  0.00000000000E+00 0.  1.
<mgrwt>
<rscale>  0 0.11905698E+03</rscale>
<asrwt>0</asrwt>
<pdfrwt beam="2">  1        2 0.14749261E+00 0.12825494E+03</pdfrwt>
<pdfrwt beam="1">  1       -2 0.41565572E-02 0.12825494E+03</pdfrwt>
<totfact> 0.69863206E+03</totfact>
</mgrwt>
</event>
<event>
 6    1  0.6101889E-006  0.1472216E+03  0.7546771E-02  0.1213861E+00
         -2   -1    0    0    0  501 -0.00000000000E+00  0.00000000000E+00  0.29778793421E+02  0.29778793421E+02  0.00000000000E+00 0.  1.
          2   -1    0    0  501    0  0.00000000000E+00 -0.00000000000E+00 -0.60034632642E+03  0.60034632642E+03  0.00000000000E+00 0. -1.
          5    1    1    2  502    0  0.53192537374E+02 -0.31601437310E+02 -0.33393651113E+03  0.33965244050E+03  0.47000000000E+01 0.  1.
         -5    1    1    2    0  502 -0.82010373425E+01 -0.31837160817E+02 -0.10343234052E+02  0.34784110065E+02  0.47000000000E+01 0.  1.
        -11    1    1    2    0    0 -0.23636791155E+02  0.85265008669E+02 -0.17043784775E+03  0.19203614124E+03  0.00000000000E+00 0. -1.
         11    1    1    2    0    0 -0.21354708876E+02 -0.21826410542E+02 -0.55849940073E+02  0.63652428032E+02  0.00000000000E+00 0.  1.
<mgrwt>
<rscale>  0 0.13960521E+03</rscale>
<asrwt>0</asrwt>
<pdfrwt beam="2">  1        2 0.92360970E-01 0.14722156E+03</pdfrwt>
<pdfrwt beam="1">  1       -2 0.45813530E-02 0.14722156E+03</pdfrwt>
<totfact> 0.10818349E+04</totfact>
</mgrwt>
</event>
<event>
 6    1  0.6101889E-006  0.1405965E+03  0.7546771E-02  0.1224193E+00
         -1   -1    0    0    0  501 -0.00000000000E+00  0.00000000000E+00  0.22137056507E+03  0.22137056507E+03  0.00000000000E+00 0.  1.
          1   -1    0    0  501    0  0.00000000000E+00 -0.00000000000E+00 -0.73225522361E+02  0.73225522361E+02  0.00000000000E+00 0. -1.
          5    1    1    2  502    0  0.36626738863E+02 -0.34480798798E+02  0.59678473707E+01  0.50873850727E+02  0.47000000000E+01 0. -1.
         -5    1    1    2    0  502  0.75077968818E+00  0.86866447887E+02  0.50861035752E+02  0.10077340123E+03  0.47000000000E+01 0. -1.
        -11    1    1    2    0    0 -0.17901296736E+02 -0.41816348585E+01  0.89030626435E+02  0.90908717615E+02  0.00000000000E+00 0.  1.
         11    1    1    2    0    0 -0.19476221815E+02 -0.48204014230E+02  0.22855331473E+01  0.52040117850E+02  0.00000000000E+00 0. -1.
<mgrwt>
<rscale>  0 0.13222385E+03</rscale>
<asrwt>0</asrwt>
<pdfrwt beam="2">  1        1 0.11265465E-01 0.14059647E+03</pdfrwt>
<pdfrwt beam="1">  1       -1 0.34057010E-01 0.14059647E+03</pdfrwt>
<totfact> 0.42978650E+03</totfact>
</mgrwt>
</event>
<event>
 6    1  0.6101889E-006  0.1512617E+03  0.7546771E-02  0.1207654E+00
          3   -1    0    0  501    0  0.00000000000E+00  0.00000000000E+00  0.11058074432E+03  0.11058074432E+03  0.00000000000E+00 0. -1.
         -3   -1    0    0    0  501 -0.00000000000E+00 -0.00000000000E+00 -0.19809464500E+03  0.19809464500E+03  0.00000000000E+00 0.  1.
          5    1    1    2  502    0  0.27488823543E+02 -0.37525460800E+02  0.12326583130E+02  0.48351114565E+02  0.47000000000E+01 0.  1.
         -5    1    1    2    0  502  0.31507889909E+02  0.97930351813E+02 -0.48453081038E+01  0.10309543124E+03  0.47000000000E+01 0.  1.
        -11    1    1    2    0    0 -0.73400152264E+02 -0.24267495865E+02 -0.33038797123E+02  0.84071730227E+02  0.00000000000E+00 0.  1.
         11    1    1    2    0    0  0.14403438813E+02 -0.36137395147E+02 -0.61956378579E+02  0.73157113286E+02  0.00000000000E+00 0. -1.
<mgrwt>
<rscale>  0 0.14430225E+03</rscale>
<asrwt>0</asrwt>
<pdfrwt beam="1">  1        3 0.17012422E-01 0.15126165E+03</pdfrwt>
<pdfrwt beam="2">  1       -3 0.30476099E-01 0.15126165E+03</pdfrwt>
<totfact> 0.73075213E+02</totfact>
</mgrwt>
</event>
<event>
 6    1  0.6101889E-006  0.1619604E+03  0.7546771E-02  0.1195028E+00
         -1   -1    0    0    0  501 -0.00000000000E+00  0.00000000000E+00  0.40102164683E+03  0.40102164683E+03  0.00000000000E+00 0.  1.
          1   -1    0    0  501    0  0.00000000000E+00 -0.00000000000E+00 -0.71285630339E+02  0.71285630339E+02  0.00000000000E+00 0. -1.
          5    1    1    2  502    0 -0.17407209895E+02  0.30387435863E+02  0.30810151843E+02  0.46880301526E+02  0.47000000000E+01 0.  1.
         -5    1    1    2    0  502  0.12022541973E+03 -0.24386427185E+02  0.32302061095E+02  0.12694235909E+03  0.47000000000E+01 0.  1.
        -11    1    1    2    0    0 -0.91145124739E+02  0.26331176502E+02  0.15541196351E+03  0.18208141866E+03  0.00000000000E+00 0.  1.
         11    1    1    2    0    0 -0.11673085093E+02 -0.32332185180E+02  0.11121184005E+03  0.11640319790E+03  0.00000000000E+00 0. -1.
<mgrwt>
<rscale>  0 0.15451839E+03</rscale>
<asrwt>0</asrwt>
<pdfrwt beam="2">  1        1 0.10967020E-01 0.16196038E+03</pdfrwt>
<pdfrwt beam="1">  1       -1 0.61695637E-01 0.16196038E+03</pdfrwt>
<totfact> 0.15337855E+03</totfact>
</mgrwt>
</event>
<event>
 6    1  0.6101889E-006  0.3685778E+03  0.7546771E-02  0.1055238E+00
         -2   -1    0    0    0  501 -0.00000000000E+00  0.00000000000E+00  0.83099688033E+02  0.83099688033E+02  0.00000000000E+00 0.  1.
          2   -1    0    0  501    0  0.00000000000E+00 -0.00000000000E+00 -0.40869466143E+03  0.40869466143E+03  0.00000000000E+00 0. -1.
          5    1    1    2  502    0 -0.16506384675E+03 -0.12064955980E+02 -0.19783018916E+03  0.25797385606E+03  0.47000000000E+01 0.  1.
         -5    1    1    2    0  502  0.17875768565E+02  0.11882732383E+02 -0.59404103300E+01  0.22762269342E+02  0.47000000000E+01 0.  1.
        -11    1    1    2    0    0  0.62431457126E+02  0.14054408618E+02 -0.10586486938E+03  0.12370361276E+03  0.00000000000E+00 0. -1.
         11    1    1    2    0    0  0.84756621059E+02 -0.13872185021E+02 -0.15959504521E+02  0.87354611299E+02  0.00000000000E+00 0.  1.
<mgrwt>
<rscale>  0 0.36857780E+03</rscale>
<asrwt>0</asrwt>
<pdfrwt beam="2">  1        2 0.62876102E-01 0.36857780E+03</pdfrwt>
<pdfrwt beam="1">  1       -2 0.12784567E-01 0.36857780E+03</pdfrwt>
<totfact> 0.34921261E+03</totfact>
</mgrwt>
</event>
<event>
 6    1  0.6101889E-006  0.1263771E+03  0.7546771E-02  0.1247322E+00
         -1   -1    0    0    0  501 -0.00000000000E+00  0.00000000000E+00  0.19115883567E+02  0.19115883567E+02  0.00000000000E+00 0.  1.
          1   -1    0    0  501    0  0.00000000000E+00 -0.00000000000E+00 -0.74425176147E+03  0.74425176147E+03  0.00000000000E+00 0. -1.
          5    1    1    2  502    0 -0.30284722173E+02 -0.18913062436E+02 -0.44785960005E+02  0.57469474866E+02  0.47000000000E+01 0.  1.
         -5    1    1    2    0  502  0.20493091855E+02  0.34692072667E+02 -0.50625171517E+03  0.50787438981E+03  0.47000000000E+01 0.  1.
        -11    1    1    2    0    0  0.33104440477E+02 -0.42002621194E+02 -0.69484278891E+02  0.87682319651E+02  0.00000000000E+00 0.  1.
         11    1    1    2    0    0 -0.23312810159E+02  0.26223610963E+02 -0.10461392384E+03  0.11034146071E+03  0.00000000000E+00 0. -1.
<mgrwt>
<rscale>  0 0.11747480E+03</rscale>
<asrwt>0</asrwt>
<pdfrwt beam="2">  1        1 0.11450029E+00 0.12637708E+03</pdfrwt>
<pdfrwt beam="1">  1       -1 0.29409048E-02 0.12637708E+03</pdfrwt>
<totfact> 0.95503299E+03</totfact>
</mgrwt>
</event>
<event>
 6    1  0.6101889E-006  0.3983435E+03  0.7546771E-02  0.1044355E+00
         -2   -1    0    0    0  501 -0.00000000000E+00  0.00000000000E+00  0.13404643409E+03  0.13404643409E+03  0.00000000000E+00 0.  1.
          2   -1    0    0  501    0  0.00000000000E+00 -0.00000000000E+00 -0.29593766759E+03  0.29593766759E+03  0.00000000000E+00 0. -1.
          5    1    1    2  502    0  0.22539747083E+02  0.13235202494E+01 -0.21897893420E+02  0.31802509974E+02  0.47000000000E+01 0.  1.
         -5    1    1    2    0  502 -0.16445978942E+03  0.65914818170E+02 -0.12229057332E+03  0.21533429805E+03  0.47000000000E+01 0.  1.
        -11    1    1    2    0    0  0.94599812131E+02 -0.28663728790E+01  0.16268715945E+02  0.96031305663E+02  0.00000000000E+00 0.  1.
         11    1    1    2    0    0  0.47320230210E+02 -0.64371965540E+02 -0.33971482711E+02  0.86815987999E+02  0.00000000000E+00 0. -1.
<mgrwt>
<rscale>  0 0.39834352E+03</rscale>
<asrwt>0</asrwt>
<pdfrwt beam="2">  1        2 0.45528871E-01 0.39834352E+03</pdfrwt>
<pdfrwt beam="1">  1       -2 0.20622529E-01 0.39834352E+03</pdfrwt>
<totfact> 0.22262335E+03</totfact>
</mgrwt>
</event>
<event>
 6    1  0.6101889E-006  0.3749209E+03  0.7546771E-02  0.1052827E+00
         -2   -1    0    0    0  501 -0.00000000000E+00  0.00000000000E+00  0.78437228987E+02  0.78437228987E+02  0.00000000000E+00 0.  1.
          2   -1    0    0  501    0  0.00000000000E+00 -0.00000000000E+00 -0.44801974660E+03  0.44801974660E+03  0.00000000000E+00 0. -1.
          5    1    1    2  502    0  0.36329115278E+02  0.15636110207E+02 -0.56913619448E+02  0.69466125831E+02  0.47000000000E+01 0.  1.
         -5    1    1    2    0  502 -0.94847329542E+02  0.12204809474E+03 -0.17725202491E+03  0.23522781231E+03  0.47000000000E+01 0.  1.
        -11    1    1    2    0    0  0.25109486833E+02 -0.68959676923E+02 -0.88544665105E+01  0.73921072419E+02  0.00000000000E+00 0. -1.
         11    1    1    2    0    0  0.33408727431E+02 -0.68724528027E+02 -0.12656240675E+03  0.14784196503E+03  0.00000000000E+00 0.  1.
<mgrwt>
<rscale>  0 0.37492094E+03</rscale>
<asrwt>0</asrwt>
<pdfrwt beam="2">  1        2 0.68926115E-01 0.37492094E+03</pdfrwt>
<pdfrwt beam="1">  1       -2 0.12067266E-01 0.37492094E+03</pdfrwt>
<totfact> 0.34672235E+03</totfact>
</mgrwt>
</event>
<event>
 6    1  0.6101889E-006  0.1305630E+03  0.7546771E-02  0.1239220E+00
         -1   -1    0    0    0  501 -0.00000000000E+00  0.00000000000E+00  0.14648464948E+02  0.14648464948E+02  0.00000000000E+00 0.  1.
          1   -1    0    0  501    0  0.00000000000E+00 -0.00000000000E+00 -0.92168831191E+03  0.92168831191E+03  0.00000000000E+00 0. -1.
          5    1    1    2  502    0 -0.58186215445E+02 -0.42370645745E+02 -0.19263730021E+03  0.20569911696E+03  0.47000000000E+01 0.  1.
         -5    1    1    2    0  502  0.36961808982E+02  0.11203460482E+02 -0.36265034927E+03  0.36473148846E+03  0.47000000000E+01 0.  1.
        -11    1    1    2    0    0 -0.36852494945E+01  0.58468013945E+02 -0.15476169188E+03  0.16547891404E+03  0.00000000000E+00 0.  1.
         11    1    1    2    0    0  0.24909655957E+02 -0.27300828683E+02 -0.19699050560E+03  0.20042725739E+03  0.00000000000E+00 0. -1.
<mgrwt>
<rscale>  0 0.12238119E+03</rscale>
<asrwt>0</asrwt>
<pdfrwt beam="2">  1        1 0.14179819E+00 0.13056302E+03</pdfrwt>
<pdfrwt beam="1">  1       -1 0.22536101E-02 0.13056302E+03</pdfrwt>
<totfact> 0.10147633E+04</totfact>
</mgrwt>
</event>
<event>
 6    1  0.6101889E-006  0.3211231E+03  0.7546771E-02  0.1075134E+00
         -2   -1    0    0    0  501 -0.00000000000E+00  0.00000000000E+00  0.25685142186E+02  0.25685142186E+02  0.00000000000E+00 0.  1.
          2   -1    0    0  501    0  0.00000000000E+00 -0.00000000000E+00 -0.10036937191E+04  0.10036937191E+04  0.00000000000E+00 0. -1.
          5    1    1    2  502    0 -0.78003500458E+01 -0.12997976013E+02 -0.43019925365E+03  0.43049190548E+03  0.47000000000E+01 0.  1.
         -5    1    1    2    0  502 -0.91293371685E+02  0.44334495327E+02 -0.27407580750E+03  0.29230064223E+03  0.47000000000E+01 0.  1.
        -11    1    1    2    0    0  0.39008612267E+01 -0.31950755160E+02 -0.13188292496E+03  0.13575409154E+03  0.00000000000E+00 0. -1.
         11    1    1    2    0    0  0.95192860504E+02  0.61423584631E+00 -0.14185059081E+03  0.17083222204E+03  0.00000000000E+00 0.  1.
<mgrwt>
<rscale>  0 0.32112313E+03</rscale>
<asrwt>0</asrwt>
<pdfrwt beam="2">  1        2 0.15441439E+00 0.32112313E+03</pdfrwt>
<pdfrwt beam="1">  1       -2 0.39515611E-02 0.32112313E+03</pdfrwt>
<totfact> 0.73316573E+03</totfact>
</mgrwt>
</event>
<event>
 6    1  0.6101889E-006  0.2566547E+03  0.7546771E-02  0.1111386E+00
         -2   -1    0    0    0  501 -0.00000000000E+00  0.00000000000E+00  0.43264664573E+02  0.43264664573E+02  0.00000000000E+00 0.  1.
          2   -1    0    0  501    0  0.00000000000E+00 -0.00000000000E+00 -0.15295386947E+04  0.15295386947E+04  0.00000000000E+00 0. -1.
          5    1    1    2  502    0 -0.95769215502E+02 -0.11550960139E+03 -0.37732347824E+03  0.40609027060E+03  0.47000000000E+01 0.  1.
         -5    1    1    2    0  502 -0.67044525708E+02 -0.38555888119E+02 -0.57557656501E+03  0.58076845397E+03  0.47000000000E+01 0.  1.
        -11    1    1    2    0    0  0.12187435409E+03  0.59143654713E+02 -0.25066135296E+03  0.28492533048E+03  0.00000000000E+00 0. -1.
         11    1    1    2    0    0  0.40939387117E+02  0.94921834799E+02 -0.28271263395E+03  0.30101930425E+03  0.00000000000E+00 0.  1.
<mgrwt>
<rscale>  0 0.25306034E+03</rscale>
<asrwt>0</asrwt>
<pdfrwt beam="2">  1        2 0.23531364E+00 0.25665473E+03</pdfrwt>
<pdfrwt beam="1">  1       -2 0.66561025E-02 0.25665473E+03</pdfrwt>
<totfact> 0.16599013E+03</totfact>
</mgrwt>
</event>
<event>
 6    1  0.6101889E-006  0.1319018E+03  0.7546771E-02  0.1238193E+00
          1   -1    0    0  501    0  0.00000000000E+00  0.00000000000E+00  0.10863656537E+03  0.10863656537E+03  0.00000000000E+00 0. -1.
         -1   -1    0    0    0  501 -0.00000000000E+00 -0.00000000000E+00 -0.12394220108E+03  0.12394220108E+03  0.00000000000E+00 0.  1.
          5    1    1    2  502    0 -0.40782913064E+02  0.38551068657E+02  0.25422955985E+02  0.61788733468E+02  0.47000000000E+01 0.  1.
         -5    1    1    2    0  502  0.58063111480E+02 -0.14579901859E+00 -0.40551452479E+02  0.70977859014E+02  0.47000000000E+01 0.  1.
        -11    1    1    2    0    0  0.63573877586E+01  0.23797644943E+02 -0.18485113774E+02  0.30796813393E+02  0.00000000000E+00 0.  1.
         11    1    1    2    0    0 -0.23637586174E+02 -0.62202914581E+02  0.18307974565E+02  0.69015360574E+02  0.00000000000E+00 0. -1.
<mgrwt>
<rscale>  0 0.12302231E+03</rscale>
<asrwt>0</asrwt>
<pdfrwt beam="1">  1        1 0.16713318E-01 0.13190184E+03</pdfrwt>
<pdfrwt beam="2">  1       -1 0.19068031E-01 0.13190184E+03</pdfrwt>
<totfact> 0.66661404E+03</totfact>
</mgrwt>
</event>
<event>
 6    1  0.6101889E-006  0.1294744E+03  0.7546771E-02  0.1242439E+00
          2   -1    0    0  501    0  0.00000000000E+00  0.00000000000E+00  0.77005703433E+03  0.77005703433E+03  0.00000000000E+00 0. -1.
         -2   -1    0    0    0  501 -0.00000000000E+00 -0.00000000000E+00 -0.20238632532E+02  0.20238632532E+02  0.00000000000E+00 0.  1.
          5    1    1    2  502    0  0.47836762987E+02  0.23477602626E+02  0.56446720603E+03  0.56699635837E+03  0.47000000000E+01 0. -1.
         -5    1    1    2    0  502 -0.24244814064E+02  0.77925260674E+00  0.20432673084E+02  0.32062476090E+02  0.47000000000E+01 0. -1.
        -11    1    1    2    0    0 -0.42522855399E+02 -0.17932698166E+02  0.16494304634E+03  0.17127750416E+03  0.00000000000E+00 0. -1.
         11    1    1    2    0    0  0.18930906476E+02 -0.63241570666E+01 -0.24523658037E-01  0.19959328246E+02  0.00000000000E+00 0.  1.
<mgrwt>
<rscale>  0 0.12039961E+03</rscale>
<asrwt>0</asrwt>
<pdfrwt beam="1">  1        2 0.11847029E+00 0.12947439E+03</pdfrwt>
<pdfrwt beam="2">  1       -2 0.31136364E-02 0.12947439E+03</pdfrwt>
<totfact> 0.14179043E+04</totfact>
</mgrwt>
</event>
<event>
 6    1  0.6101889E-006  0.3154318E+03  0.7546771E-02  0.1077771E+00
         -2   -1    0    0    0  501 -0.00000000000E+00  0.00000000000E+00  0.32481484680E+02  0.32481484680E+02  0.00000000000E+00 0. -1.
          2   -1    0    0  501    0  0.00000000000E+00 -0.00000000000E+00 -0.76579936931E+03  0.76579936931E+03  0.00000000000E+00 0.  1.
          5    1    1    2  502    0 -0.58754574771E+02  0.75792439717E+02 -0.52453121427E+03  0.53324635837E+03  0.47000000000E+01 0.  1.
         -5    1    1    2    0  502  0.26775646301E+01  0.90989849435E+01  0.42648623384E+01  0.11412271032E+02  0.47000000000E+01 0.  1.
        -11    1    1    2    0    0  0.93561847293E+01 -0.87567752602E+02 -0.16183855134E+03  0.18424811041E+03  0.00000000000E+00 0.  1.
         11    1    1    2    0    0  0.46720825412E+02  0.26763279411E+01 -0.51212981360E+02  0.69374114179E+02  0.00000000000E+00 0. -1.
<mgrwt>
<rscale>  0 0.31543177E+03</rscale>
<asrwt>0</asrwt>
<pdfrwt beam="2">  1        2 0.11781529E+00 0.31543177E+03</pdfrwt>
<pdfrwt beam="1">  1       -2 0.49971514E-02 0.31543177E+03</pdfrwt>
<totfact> 0.73635505E+03</totfact>
</mgrwt>
</event>
<event>
 6    1  0.6101889E-006  0.1350156E+03  0.7546771E-02  0.1232327E+00
         -1   -1    0    0    0  501 -0.00000000000E+00  0.00000000000E+00  0.80313109215E+02  0.80313109215E+02  0.00000000000E+00 0.  1.
          1   -1    0    0  501    0  0.00000000000E+00 -0.00000000000E+00 -0.18574809917E+03  0.18574809917E+03  0.00000000000E+00 0. -1.
          5    1    1    2  502    0  0.64090293181E+02  0.24603988004E+02 -0.85037601705E+02  0.10939106732E+03  0.47000000000E+01 0. -1.
         -5    1    1    2    0  502 -0.17693754173E+02 -0.46009034647E+02  0.12078021334E+01  0.49532302509E+02  0.47000000000E+01 0. -1.
        -11    1    1    2    0    0 -0.30752723486E+02  0.53920225625E+02 -0.31658728341E+02  0.69680670300E+02  0.00000000000E+00 0. -1.
         11    1    1    2    0    0 -0.15643815522E+02 -0.32515178982E+02  0.10053537956E+02  0.37457168256E+02  0.00000000000E+00 0.  1.
<mgrwt>
<rscale>  0 0.12677097E+03</rscale>
<asrwt>0</asrwt>
<pdfrwt beam="2">  1        1 0.28576630E-01 0.13501556E+03</pdfrwt>
<pdfrwt beam="1">  1       -1 0.12355863E-01 0.13501556E+03</pdfrwt>
<totfact> 0.66964691E+03</totfact>
</mgrwt>
</event>
<event>
 6    1  0.6101889E-006  0.1259433E+03  0.7546771E-02  0.1248566E+00
          3   -1    0    0  501    0  0.00000000000E+00  0.00000000000E+00  0.27914502407E+02  0.27914502407E+02  0.00000000000E+00 0. -1.
         -3   -1    0    0    0  501 -0.00000000000E+00 -0.00000000000E+00 -0.55111588375E+03  0.55111588375E+03  0.00000000000E+00 0.  1.
          5    1    1    2  502    0  0.39504509741E+02  0.48801867156E+02 -0.64066335756E+02  0.89826576830E+02  0.47000000000E+01 0.  1.
         -5    1    1    2    0  502 -0.25728387703E+02 -0.55636168379E+02 -0.93278158965E+02  0.11171498604E+03  0.47000000000E+01 0.  1.
        -11    1    1    2    0    0  0.20020903219E+02  0.36701449566E+02 -0.24393765532E+03  0.24749426792E+03  0.00000000000E+00 0.  1.
         11    1    1    2    0    0 -0.33797025257E+02 -0.29867148343E+02 -0.12191923130E+03  0.12999455538E+03  0.00000000000E+00 0. -1.
<mgrwt>
<rscale>  0 0.11674455E+03</rscale>
<asrwt>0</asrwt>
<pdfrwt beam="1">  1        3 0.42945390E-02 0.12594329E+03</pdfrwt>
<pdfrwt beam="2">  1       -3 0.84787056E-01 0.12594329E+03</pdfrwt>
<totfact> 0.86914169E+02</totfact>
</mgrwt>
</event>
<event>
 6    1  0.6101889E-006  0.1419980E+03  0.7546771E-02  0.1221786E+00
         -1   -1    0    0    0  501 -0.00000000000E+00  0.00000000000E+00  0.19083487299E+03  0.19083487299E+03  0.00000000000E+00 0.  1.
          1   -1    0    0  501    0  0.00000000000E+00 -0.00000000000E+00 -0.13266533497E+03  0.13266533497E+03  0.00000000000E+00 0. -1.
          5    1    1    2  502    0  0.29943871283E+02 -0.29595099174E+02 -0.87242489005E+00  0.42371646743E+02  0.47000000000E+01 0.  1.
         -5    1    1    2    0  502 -0.83528237472E+01  0.93411171034E+02 -0.64714510301E+02  0.11404154674E+03  0.47000000000E+01 0.  1.
        -11    1    1    2    0    0 -0.40735067932E+02 -0.60136141048E+01  0.86243000308E+02  0.95568637200E+02  0.00000000000E+00 0.  1.
         11    1    1    2    0    0  0.19144020396E+02 -0.57802457755E+02  0.37513472904E+02  0.71518377280E+02  0.00000000000E+00 0. -1.
<mgrwt>
<rscale>  0 0.13389625E+03</rscale>
<asrwt>0</asrwt>
<pdfrwt beam="2">  1        1 0.20410052E-01 0.14199803E+03</pdfrwt>
<pdfrwt beam="1">  1       -1 0.29359211E-01 0.14199803E+03</pdfrwt>
<totfact> 0.25611326E+03</totfact>
</mgrwt>
</event>
<event>
 6    1  0.6101889E-006  0.1341787E+03  0.7546771E-02  0.1233539E+00
          2   -1    0    0  501    0  0.00000000000E+00  0.00000000000E+00  0.13610981144E+04  0.13610981144E+04  0.00000000000E+00 0. -1.
         -2   -1    0    0    0  501 -0.00000000000E+00 -0.00000000000E+00 -0.12952481709E+02  0.12952481709E+02  0.00000000000E+00 0.  1.
          5    1    1    2  502    0  0.16396308612E+02  0.64911312533E+02  0.81764626587E+03  0.82039613817E+03  0.47000000000E+01 0. -1.
         -5    1    1    2    0  502 -0.36598582972E+02 -0.36112411080E+02  0.22495571938E+03  0.23080452377E+03  0.47000000000E+01 0.  1.
        -11    1    1    2    0    0  0.35575305179E+02  0.24691668748E+02  0.85042073726E+02  0.95432882948E+02  0.00000000000E+00 0. -1.
         11    1    1    2    0    0 -0.15373030819E+02 -0.53490570201E+02  0.22050157368E+03  0.22741705119E+03  0.00000000000E+00 0.  1.
<mgrwt>
<rscale>  0 0.12598453E+03</rscale>
<asrwt>0</asrwt>
<pdfrwt beam="1">  1        2 0.20939960E+00 0.13417873E+03</pdfrwt>
<pdfrwt beam="2">  1       -2 0.19926906E-02 0.13417873E+03</pdfrwt>
<totfact> 0.12221487E+04</totfact>
</mgrwt>
</event>
<event>
 6    1  0.6101889E-006  0.1909351E+03  0.7546771E-02  0.1162622E+00
         -1   -1    0    0    0  501 -0.00000000000E+00  0.00000000000E+00  0.46474978953E+02  0.46474978953E+02  0.00000000000E+00 0.  1.
          1   -1    0    0  501    0  0.00000000000E+00 -0.00000000000E+00 -0.71188651039E+03  0.71188651039E+03  0.00000000000E+00 0. -1.
          5    1    1    2  502    0 -0.49513405560E+02 -0.64445456392E+01 -0.11585564506E+03  0.12624472263E+03  0.47000000000E+01 0. -1.
         -5    1    1    2    0  502 -0.13577269579E+02  0.13625786693E+03 -0.18823478648E+03  0.23281961557E+03  0.47000000000E+01 0. -1.
        -11    1    1    2    0    0  0.48978563194E+02 -0.23903909510E+02 -0.68145317481E+02  0.87258700638E+02  0.00000000000E+00 0.  1.
         11    1    1    2    0    0  0.14112111946E+02 -0.10590941178E+03 -0.29317578241E+03  0.31203845051E+03  0.00000000000E+00 0. -1.
<mgrwt>
<rscale>  0 0.18545941E+03</rscale>
<asrwt>0</asrwt>
<pdfrwt beam="2">  1        1 0.10952100E+00 0.19093509E+03</pdfrwt>
<pdfrwt beam="1">  1       -1 0.71499972E-02 0.19093509E+03</pdfrwt>
<totfact> 0.27844030E+03</totfact>
</mgrwt>
</event>
<event>
 6    1  0.6101889E-006  0.1612303E+03  0.7546771E-02  0.1195367E+00
          2   -1    0    0  501    0  0.00000000000E+00  0.00000000000E+00  0.44467011656E+03  0.44467011656E+03  0.00000000000E+00 0. -1.
         -2   -1    0    0    0  501 -0.00000000000E+00 -0.00000000000E+00 -0.51326447005E+02  0.51326447005E+02  0.00000000000E+00 0.  1.
          5    1    1    2  502    0 -0.25260035286E+02  0.10667590478E+02 -0.24798442318E+01  0.27930386619E+02  0.47000000000E+01 0.  1.
         -5    1    1    2    0  502 -0.56815070882E+02 -0.70945661125E+02  0.26451159483E+03  0.27973150146E+03  0.47000000000E+01 0.  1.
        -11    1    1    2    0    0  0.79641675089E+02  0.16517944658E+02  0.48658791476E+02  0.94780361334E+02  0.00000000000E+00 0.  1.
         11    1    1    2    0    0  0.24334310791E+01  0.43760125989E+02  0.82653127484E+02  0.93554314151E+02  0.00000000000E+00 0. -1.
<mgrwt>
<rscale>  0 0.15423208E+03</rscale>
<asrwt>0</asrwt>
<pdfrwt beam="1">  1        2 0.68410785E-01 0.16123027E+03</pdfrwt>
<pdfrwt beam="2">  1       -2 0.78963768E-02 0.16123027E+03</pdfrwt>
<totfact> 0.66305500E+03</totfact>
</mgrwt>
</event>
<event>
 6    1  0.6101889E-006  0.1343846E+03  0.7546771E-02  0.1232387E+00
         -1   -1    0    0    0  501 -0.00000000000E+00  0.00000000000E+00  0.29942864009E+03  0.29942864009E+03  0.00000000000E+00 0.  1.
          1   -1    0    0  501    0  0.00000000000E+00 -0.00000000000E+00 -0.49132273838E+02  0.49132273838E+02  0.00000000000E+00 0. -1.
          5    1    1    2  502    0  0.43024131979E+02 -0.99053401591E+01  0.12517910102E+02  0.46130031103E+02  0.47000000000E+01 0.  1.
         -5    1    1    2    0  502 -0.75751796817E+02 -0.27010781523E+02  0.10534433350E+03  0.13261762945E+03  0.47000000000E+01 0.  1.
        -11    1    1    2    0    0  0.59119597937E+02  0.10042991107E+02  0.11179758314E+03  0.12686484197E+03  0.00000000000E+00 0.  1.
         11    1    1    2    0    0 -0.26391933100E+02  0.26873130575E+02  0.20636539498E+02  0.42948411404E+02  0.00000000000E+00 0. -1.
<mgrwt>
<rscale>  0 0.12673194E+03</rscale>
<asrwt>0</asrwt>
<pdfrwt beam="2">  1        1 0.75588115E-02 0.13438459E+03</pdfrwt>
<pdfrwt beam="1">  1       -1 0.46065944E-01 0.13438459E+03</pdfrwt>
<totfact> 0.42962820E+03</totfact>
</mgrwt>
</event>
<event>
 6    1  0.6101889E-006  0.3710180E+03  0.7546771E-02  0.1055204E+00
          2   -1    0    0  501    0  0.00000000000E+00  0.00000000000E+00  0.13830587077E+03  0.13830587077E+03  0.00000000000E+00 0.  1.
         -2   -1    0    0    0  501 -0.00000000000E+00 -0.00000000000E+00 -0.97337713539E+03  0.97337713539E+03  0.00000000000E+00 0. -1.
          5    1    1    2  502    0 -0.82958720162E+02  0.89751526942E+01 -0.14347186825E+03  0.16603906045E+03  0.47000000000E+01 0. -1.
         -5    1    1    2    0  502 -0.20348202706E+03  0.19097861461E+03 -0.24884154459E+03  0.37392776159E+03  0.47000000000E+01 0. -1.
        -11    1    1    2    0    0  0.87427268224E+02 -0.73934387515E+02 -0.81876466266E+02  0.14076070693E+03  0.00000000000E+00 0. -1.
         11    1    1    2    0    0  0.19901347900E+03 -0.12601937979E+03 -0.36088138551E+03  0.43095547718E+03  0.00000000000E+00 0.  1.
<mgrwt>
<rscale>  0 0.36866552E+03</rscale>
<asrwt>0</asrwt>
<pdfrwt beam="1">  1        2 0.21277827E-01 0.37101800E+03</pdfrwt>
<pdfrwt beam="2">  1       -2 0.14975033E+00 0.37101800E+03</pdfrwt>
<totfact> 0.82059167E+01</totfact>
</mgrwt>
</event>
<event>
 6    1  0.6101889E-006  0.1262731E+03  0.7546771E-02  0.1247274E+00
          2   -1    0    0  501    0  0.00000000000E+00  0.00000000000E+00  0.36151908596E+03  0.36151908596E+03  0.00000000000E+00 0. -1.
         -2   -1    0    0    0  501 -0.00000000000E+00 -0.00000000000E+00 -0.33961709491E+02  0.33961709491E+02  0.00000000000E+00 0.  1.
          5    1    1    2  502    0 -0.44705553577E+02  0.25634313598E+02  0.25871459425E+02  0.57854359965E+02  0.47000000000E+01 0. -1.
         -5    1    1    2    0  502  0.37379240855E+02 -0.93068592986E+01  0.17622933248E+03  0.18045135882E+03  0.47000000000E+01 0. -1.
        -11    1    1    2    0    0 -0.31176479170E+02 -0.36717353320E+02  0.85107421565E+02  0.97792689367E+02  0.00000000000E+00 0.  1.
         11    1    1    2    0    0  0.38502791892E+02  0.20389899020E+02  0.40349163001E+02  0.59382387291E+02  0.00000000000E+00 0. -1.
<mgrwt>
<rscale>  0 0.11750320E+03</rscale>
<asrwt>0</asrwt>
<pdfrwt beam="1">  1        2 0.55618318E-01 0.12627306E+03</pdfrwt>
<pdfrwt beam="2">  1       -2 0.52248786E-02 0.12627306E+03</pdfrwt>
<totfact> 0.15270755E+04</totfact>
</mgrwt>
</event>
<event>
 6    1  0.6101889E-006  0.1400533E+03  0.7546771E-02  0.1224349E+00
          1   -1    0    0  501    0  0.00000000000E+00  0.00000000000E+00  0.15547034185E+03  0.15547034185E+03  0.00000000000E+00 0. -1.
         -1   -1    0    0    0  501 -0.00000000000E+00 -0.00000000000E+00 -0.10327304071E+03  0.10327304071E+03  0.00000000000E+00 0.  1.
          5    1    1    2  502    0 -0.40634832177E+02 -0.13048661781E+02  0.10613583943E+02  0.44228896939E+02  0.47000000000E+01 0.  1.
         -5    1    1    2    0  502  0.94811569867E+02 -0.19424063956E+02  0.36348692191E+02  0.10348838324E+03  0.47000000000E+01 0.  1.
        -11    1    1    2    0    0  0.10836067672E+02 -0.15632029163E+02 -0.18710587579E+02  0.26680831807E+02  0.00000000000E+00 0.  1.
         11    1    1    2    0    0 -0.65012805362E+02  0.48104754899E+02  0.23945612585E+02  0.84345270567E+02  0.00000000000E+00 0. -1.
<mgrwt>
<rscale>  0 0.13211604E+03</rscale>
<asrwt>0</asrwt>
<pdfrwt beam="1">  1        1 0.23918514E-01 0.14005335E+03</pdfrwt>
<pdfrwt beam="2">  1       -1 0.15888160E-01 0.14005335E+03</pdfrwt>
<totfact> 0.56667087E+03</totfact>
</mgrwt>
</event>
<event>
 6    1  0.6101889E-006  0.1296892E+03  0.7546771E-02  0.1241962E+00
         -1   -1    0    0    0  501 -0.00000000000E+00  0.00000000000E+00  0.38080769372E+02  0.38080769372E+02  0.00000000000E+00 0.  1.
          1   -1    0    0  501    0  0.00000000000E+00 -0.00000000000E+00 -0.44909593892E+03  0.44909593892E+03  0.00000000000E+00 0. -1.
          5    1    1    2  502    0 -0.46105641060E+02 -0.61707560256E+02 -0.27424370294E+03  0.28489515920E+03  0.47000000000E+01 0.  1.
         -5    1    1    2    0  502  0.33933830121E+02  0.29364774001E+02 -0.73496141209E+02  0.86241333196E+02  0.47000000000E+01 0.  1.
        -11    1    1    2    0    0  0.20105888486E+02  0.31044487574E+01  0.19324820981E+02  0.28059455801E+02  0.00000000000E+00 0.  1.
         11    1    1    2    0    0 -0.79340775464E+01  0.29238337497E+02 -0.82600146375E+02  0.87980760098E+02  0.00000000000E+00 0. -1.
<mgrwt>
<rscale>  0 0.12069056E+03</rscale>
<asrwt>0</asrwt>
<pdfrwt beam="2">  1        1 0.69091680E-01 0.12968923E+03</pdfrwt>
<pdfrwt beam="1">  1       -1 0.58585801E-02 0.12968923E+03</pdfrwt>
<totfact> 0.68860858E+03</totfact>
</mgrwt>
</event>
<event>
 6    1  0.6101889E-006  0.2756855E+03  0.7546771E-02  0.1098069E+00
          1   -1    0    0  501    0  0.00000000000E+00  0.00000000000E+00  0.41604895584E+03  0.41604895584E+03  0.00000000000E+00 0. -1.
         -1   -1    0    0    0  501 -0.00000000000E+00 -0.00000000000E+00 -0.45669201185E+02  0.45669201185E+02  0.00000000000E+00 0.  1.
          5    1    1    2  502    0  0.66203301479E+02 -0.47827096201E+02  0.69844044566E+02  0.10756667151E+03  0.47000000000E+01 0.  1.
         -5    1    1    2    0  502  0.97415767473E+01  0.26050685048E+02  0.18447902420E+03  0.18662298058E+03  0.47000000000E+01 0.  1.
        -11    1    1    2    0    0 -0.37451197118E+02 -0.26066712153E+02  0.89832762108E+02  0.10075708807E+03  0.00000000000E+00 0. -1.
         11    1    1    2    0    0 -0.38493681109E+02  0.47843123306E+02  0.26223923780E+02  0.66771416874E+02  0.00000000000E+00 0.  1.
<mgrwt>
<rscale>  0 0.27568550E+03</rscale>
<asrwt>0</asrwt>
<pdfrwt beam="1">  1        1 0.64007529E-01 0.27568550E+03</pdfrwt>
<pdfrwt beam="2">  1       -1 0.70260312E-02 0.27568550E+03</pdfrwt>
<totfact> 0.60151714E+03</totfact>
</mgrwt>
</event>
<event>
 6    1  0.6101889E-006  0.1623706E+03  0.7546771E-02  0.1193154E+00
          1   -1    0    0  501    0  0.00000000000E+00  0.00000000000E+00  0.10298783932E+03  0.10298783932E+03  0.00000000000E+00 0. -1.
         -1   -1    0    0    0  501 -0.00000000000E+00 -0.00000000000E+00 -0.23094654826E+03  0.23094654826E+03  0.00000000000E+00 0.  1.
          5    1    1    2  502    0 -0.80752727126E+02  0.84971907585E+02 -0.18246081178E+02  0.11872757681E+03  0.47000000000E+01 0.  1.
         -5    1    1    2    0  502 -0.13669847901E+02 -0.42212003702E+02 -0.14470774282E+02  0.46906410079E+02  0.47000000000E+01 0.  1.
        -11    1    1    2    0    0  0.20048296918E+01 -0.38398155622E+02 -0.55703802439E+02  0.67685680195E+02  0.00000000000E+00 0.  1.
         11    1    1    2    0    0  0.92417745335E+02 -0.43617482606E+01 -0.39538051040E+02  0.10061472050E+03  0.00000000000E+00 0. -1.
<mgrwt>
<rscale>  0 0.15611542E+03</rscale>
<asrwt>0</asrwt>
<pdfrwt beam="1">  1        1 0.15844283E-01 0.16237064E+03</pdfrwt>
<pdfrwt beam="2">  1       -1 0.35530238E-01 0.16237064E+03</pdfrwt>
<totfact> 0.25775469E+03</totfact>
</mgrwt>
</event>
<event>
 6    1  0.6101889E-006  0.2486686E+03  0.7546771E-02  0.1114149E+00
          1   -1    0    0  501    0  0.00000000000E+00  0.00000000000E+00  0.25650461787E+03  0.25650461787E+03  0.00000000000E+00 0. -1.
         -1   -1    0    0    0  501 -0.00000000000E+00 -0.00000000000E+00 -0.60267988218E+02  0.60267988218E+02  0.00000000000E+00 0.  1.
          5    1    1    2  502    0 -0.43020517019E+02  0.76269945829E+02  0.10933456503E+03  0.14015707842E+03  0.47000000000E+01 0. -1.
         -5    1    1    2    0  502  0.31134389340E+01 -0.15806998744E+02 -0.15618646561E+02  0.22925680615E+02  0.47000000000E+01 0.  1.
        -11    1    1    2    0    0  0.57093424427E+02 -0.64140223140E+01  0.45749985408E+02  0.73442902720E+02  0.00000000000E+00 0.  1.
         11    1    1    2    0    0 -0.17186346342E+02 -0.54048924771E+02  0.56770725775E+02  0.80246944331E+02  0.00000000000E+00 0. -1.
<mgrwt>
<rscale>  0 0.24866859E+03</rscale>
<asrwt>0</asrwt>
<pdfrwt beam="1">  1        1 0.39462248E-01 0.24866859E+03</pdfrwt>
<pdfrwt beam="2">  1       -1 0.92719983E-02 0.24866859E+03</pdfrwt>
<totfact> 0.72304878E+03</totfact>
</mgrwt>
</event>
<event>
 6    1  0.6101889E-006  0.1630892E+03  0.7546771E-02  0.1192607E+00
          1   -1    0    0  501    0  0.00000000000E+00  0.00000000000E+00  0.12409463689E+03  0.12409463689E+03  0.00000000000E+00 0. -1.
         -1   -1    0    0    0  501 -0.00000000000E+00 -0.00000000000E+00 -0.18417502002E+03  0.18417502002E+03  0.00000000000E+00 0.  1.
          5    1    1    2  502    0 -0.43745756510E+02 -0.83007733407E+02  0.21261510602E+02  0.96322981946E+02  0.47000000000E+01 0. -1.
         -5    1    1    2    0  502 -0.44877418275E+02  0.27160711329E+02 -0.43434503095E+02  0.68266631454E+02  0.47000000000E+01 0. -1.
        -11    1    1    2    0    0  0.97772019619E+02  0.51108159913E+02 -0.63762777490E+01  0.11050822932E+03  0.00000000000E+00 0. -1.
         11    1    1    2    0    0 -0.91488448336E+01  0.47388621641E+01 -0.31531112891E+02  0.33171814189E+02  0.00000000000E+00 0.  1.
<mgrwt>
<rscale>  0 0.15658544E+03</rscale>
<asrwt>0</asrwt>
<pdfrwt beam="1">  1        1 0.19091483E-01 0.16308924E+03</pdfrwt>
<pdfrwt beam="2">  1       -1 0.28334619E-01 0.16308924E+03</pdfrwt>
<totfact> 0.29787663E+03</totfact>
</mgrwt>
</event>
<event>
 6    1  0.6101889E-006  0.1703424E+03  0.7546771E-02  0.1183141E+00
          2   -1    0    0  501    0  0.00000000000E+00  0.00000000000E+00  0.10561525322E+04  0.10561525322E+04  0.00000000000E+00 0.  1.
         -2   -1    0    0    0  501 -0.00000000000E+00 -0.00000000000E+00 -0.24337756882E+02  0.24337756882E+02  0.00000000000E+00 0. -1.
          5    1    1    2  502    0  0.30457730121E+02  0.11319687053E+03  0.54092704723E+03  0.55350281413E+03  0.47000000000E+01 0.  1.
         -5    1    1    2    0  502 -0.29303405707E+02  0.25208417648E+01  0.29920449052E+02  0.42218094471E+02  0.47000000000E+01 0.  1.
        -11    1    1    2    0    0  0.19491758235E+02 -0.10398880873E+03  0.44168937821E+03  0.45418400214E+03  0.00000000000E+00 0.  1.
         11    1    1    2    0    0 -0.20646082648E+02 -0.11728903570E+02  0.19277900814E+02  0.30585378328E+02  0.00000000000E+00 0. -1.
<mgrwt>
<rscale>  0 0.16502141E+03</rscale>
<asrwt>0</asrwt>
<pdfrwt beam="1">  1        2 0.16248497E+00 0.17034241E+03</pdfrwt>
<pdfrwt beam="2">  1       -2 0.37442711E-02 0.17034241E+03</pdfrwt>
<totfact> 0.72274252E+03</totfact>
</mgrwt>
</event>
<event>
 6    1  0.6101889E-006  0.1257024E+03  0.7546771E-02  0.1248430E+00
         -1   -1    0    0    0  501 -0.00000000000E+00  0.00000000000E+00  0.18502595794E+03  0.18502595794E+03  0.00000000000E+00 0.  1.
          1   -1    0    0  501    0  0.00000000000E+00 -0.00000000000E+00 -0.11103387857E+03  0.11103387857E+03  0.00000000000E+00 0. -1.
          5    1    1    2  502    0  0.25477513387E+02 -0.51897656271E+02 -0.66478980876E+02  0.88227066782E+02  0.47000000000E+01 0. -1.
         -5    1    1    2    0  502 -0.26748702364E+02  0.38695847575E+02  0.11997803049E+02  0.48773957966E+02  0.47000000000E+01 0. -1.
        -11    1    1    2    0    0  0.20752327784E+02  0.48490045314E+02  0.82474915519E+02  0.97898188404E+02  0.00000000000E+00 0. -1.
         11    1    1    2    0    0 -0.19481138807E+02 -0.35288236618E+02  0.45998341681E+02  0.61160623364E+02  0.00000000000E+00 0.  1.
<mgrwt>
<rscale>  0 0.11682422E+03</rscale>
<asrwt>0</asrwt>
<pdfrwt beam="2">  1        1 0.17082135E-01 0.12570235E+03</pdfrwt>
<pdfrwt beam="1">  1       -1 0.28465532E-01 0.12570235E+03</pdfrwt>
<totfact> 0.33642274E+03</totfact>
</mgrwt>
</event>
<event>
 6    1  0.6101889E-006  0.1524159E+03  0.7546771E-02  0.1273646E+00
          2   -1    0    0  501    0  0.00000000000E+00  0.00000000000E+00  0.31559009439E+03  0.31559009439E+03  0.00000000000E+00 0. -1.
         -2   -1    0    0    0  501 -0.00000000000E+00 -0.00000000000E+00 -0.35130251384E+02  0.35130251384E+02  0.00000000000E+00 0.  1.
          5    1    1    2  502    0  0.25798147339E+02  0.33599120397E+02  0.25946351406E+03  0.26294077361E+03  0.47000000000E+01 0. -1.
         -5    1    1    2    0  502 -0.46683031101E+02 -0.22058768619E+02  0.20360826462E+02  0.55700519926E+02  0.47000000000E+01 0.  1.
        -11    1    1    2    0    0  0.33643364045E+01 -0.13743074825E+02 -0.17635359498E+01  0.14258363304E+02  0.00000000000E+00 0.  1.
         11    1    1    2    0    0  0.17520547358E+02  0.22027230467E+01  0.23990384273E+01  0.17820688929E+02  0.00000000000E+00 0. -1.
<mgrwt>
<rscale>  0 0.10323021E+03</rscale>
<asrwt>0</asrwt>
<pdfrwt beam="1">  1        2 0.48552320E-01 0.15241592E+03</pdfrwt>
<pdfrwt beam="2">  1       -2 0.54046543E-02 0.15241592E+03</pdfrwt>
<totfact> 0.17034473E+04</totfact>
</mgrwt>
</event>
<event>
 6    1  0.6101889E-006  0.1574621E+03  0.7546771E-02  0.1199601E+00
         -1   -1    0    0    0  501 -0.00000000000E+00  0.00000000000E+00  0.21795795240E+02  0.21795795240E+02  0.00000000000E+00 0.  1.
          1   -1    0    0  501    0  0.00000000000E+00 -0.00000000000E+00 -0.11061226238E+04  0.11061226238E+04  0.00000000000E+00 0. -1.
          5    1    1    2  502    0  0.57043588822E+02 -0.36419591090E+02 -0.48629809961E+03  0.49100742288E+03  0.47000000000E+01 0.  1.
         -5    1    1    2    0  502  0.30447303455E+02  0.75567995975E+02 -0.29994615183E+03  0.31084939166E+03  0.47000000000E+01 0.  1.
        -11    1    1    2    0    0 -0.37587998180E+02  0.29112336151E+02 -0.10312525646E+03  0.11355705281E+03  0.00000000000E+00 0. -1.
         11    1    1    2    0    0 -0.49902894097E+02 -0.68260741036E+02 -0.19495732069E+03  0.21250455171E+03  0.00000000000E+00 0.  1.
<mgrwt>
<rscale>  0 0.15071165E+03</rscale>
<asrwt>0</asrwt>
<pdfrwt beam="2">  1        1 0.17017271E+00 0.15746215E+03</pdfrwt>
<pdfrwt beam="1">  1       -1 0.33531993E-02 0.15746215E+03</pdfrwt>
<totfact> 0.42093802E+03</totfact>
</mgrwt>
</event>
<event>
 6    1  0.6101889E-006  0.1523908E+03  0.7546771E-02  0.1207102E+00
          1   -1    0    0  501    0  0.00000000000E+00  0.00000000000E+00  0.12880866640E+03  0.12880866640E+03  0.00000000000E+00 0. -1.
         -1   -1    0    0    0  501 -0.00000000000E+00 -0.00000000000E+00 -0.14892396301E+03  0.14892396301E+03  0.00000000000E+00 0.  1.
          5    1    1    2  502    0 -0.29088386727E+02  0.23617790727E+02  0.36496953710E+02  0.52517158256E+02  0.47000000000E+01 0. -1.
         -5    1    1    2    0  502  0.82924239799E+02  0.40165112249E+02 -0.38276260310E+02  0.99884072262E+02  0.47000000000E+01 0.  1.
        -11    1    1    2    0    0  0.78932151814E+01 -0.20795019390E+02 -0.41106086530E+02  0.46738057588E+02  0.00000000000E+00 0.  1.
         11    1    1    2    0    0 -0.61729068253E+02 -0.42987883587E+02  0.22770096517E+02  0.78593341309E+02  0.00000000000E+00 0. -1.
<mgrwt>
<rscale>  0 0.14473034E+03</rscale>
<asrwt>0</asrwt>
<pdfrwt beam="1">  1        1 0.19816718E-01 0.15239084E+03</pdfrwt>
<pdfrwt beam="2">  1       -1 0.22911379E-01 0.15239084E+03</pdfrwt>
<totfact> 0.40210855E+03</totfact>
</mgrwt>
</event>
<event>
 6    1  0.6101889E-006  0.2267477E+03  0.7546771E-02  0.1132076E+00
         -2   -1    0    0    0  501 -0.00000000000E+00  0.00000000000E+00  0.62149295353E+02  0.62149295353E+02  0.00000000000E+00 0.  1.
          2   -1    0    0  501    0  0.00000000000E+00 -0.00000000000E+00 -0.78467065630E+03  0.78467065630E+03  0.00000000000E+00 0. -1.
          5    1    1    2  502    0 -0.10684056614E+03  0.51610966478E+02 -0.13115330424E+03  0.17692336659E+03  0.47000000000E+01 0.  1.
         -5    1    1    2    0  502 -0.76501127406E+02 -0.49649134913E+01 -0.30655259332E+03  0.31602793442E+03  0.47000000000E+01 0.  1.
        -11    1    1    2    0    0  0.12486152056E+03 -0.73317578184E+02 -0.18135146793E+03  0.23206512342E+03  0.00000000000E+00 0.  1.
         11    1    1    2    0    0  0.58480172989E+02  0.26671525198E+02 -0.10346399546E+03  0.12180352723E+03  0.00000000000E+00 0. -1.
<mgrwt>
<rscale>  0 0.22244156E+03</rscale>
<asrwt>0</asrwt>
<pdfrwt beam="2">  1        2 0.12071857E+00 0.22674773E+03</pdfrwt>
<pdfrwt beam="1">  1       -2 0.95614295E-02 0.22674773E+03</pdfrwt>
<totfact> 0.25794095E+03</totfact>
</mgrwt>
</event>
<event>
 6    1  0.6101889E-006  0.2879498E+03  0.7546771E-02  0.1091424E+00
          2   -1    0    0  501    0  0.00000000000E+00  0.00000000000E+00  0.41095051008E+03  0.41095051008E+03  0.00000000000E+00 0.  1.
         -2   -1    0    0    0  501 -0.00000000000E+00 -0.00000000000E+00 -0.50441025500E+02  0.50441025500E+02  0.00000000000E+00 0. -1.
          5    1    1    2  502    0 -0.55540100368E+01 -0.71870379082E+02  0.29473356412E+03  0.30345701876E+03  0.47000000000E+01 0. -1.
         -5    1    1    2    0  502 -0.55611549883E+00 -0.36828832667E+01 -0.12794376928E+02  0.14130073410E+02  0.47000000000E+01 0. -1.
        -11    1    1    2    0    0  0.34501624057E+02  0.79208347340E+02  0.75994512131E+02  0.11506298373E+03  0.00000000000E+00 0.  1.
         11    1    1    2    0    0 -0.28391498522E+02 -0.36550849912E+01  0.25757852568E+01  0.28741459676E+02  0.00000000000E+00 0. -1.
<mgrwt>
<rscale>  0 0.28794975E+03</rscale>
<asrwt>0</asrwt>
<pdfrwt beam="1">  1        2 0.63223153E-01 0.28794975E+03</pdfrwt>
<pdfrwt beam="2">  1       -2 0.77601580E-02 0.28794975E+03</pdfrwt>
<totfact> 0.76543967E+03</totfact>
</mgrwt>
</event>
<event>
 6    1  0.6101889E-006  0.1303978E+03  0.7546771E-02  0.1236369E+00
         -1   -1    0    0    0  501 -0.00000000000E+00  0.00000000000E+00  0.33416360098E+03  0.33416360098E+03  0.00000000000E+00 0.  1.
          1   -1    0    0  501    0  0.00000000000E+00 -0.00000000000E+00 -0.58170901361E+02  0.58170901361E+02  0.00000000000E+00 0. -1.
          5    1    1    2  502    0  0.54514143445E+02  0.68667096678E+02  0.33405455303E+02  0.93941345774E+02  0.47000000000E+01 0. -1.
         -5    1    1    2    0  502 -0.40283797910E+02 -0.12626210257E+02  0.12068666108E+02  0.44158218501E+02  0.47000000000E+01 0.  1.
        -11    1    1    2    0    0 -0.26070578798E+02  0.88825337958E+01  0.13721010279E+03  0.13994708569E+03  0.00000000000E+00 0. -1.
         11    1    1    2    0    0  0.11840233263E+02 -0.64923420217E+02  0.93308475424E+02  0.11428785238E+03  0.00000000000E+00 0.  1.
<mgrwt>
<rscale>  0 0.12417206E+03</rscale>
<asrwt>0</asrwt>
<pdfrwt beam="2">  1        1 0.89493696E-02 0.13039783E+03</pdfrwt>
<pdfrwt beam="1">  1       -1 0.51409784E-01 0.13039783E+03</pdfrwt>
<totfact> 0.28034163E+03</totfact>
</mgrwt>
</event>
<event>
 6    1  0.6101889E-006  0.4093385E+03  0.7546771E-02  0.1040593E+00
         -2   -1    0    0    0  501 -0.00000000000E+00  0.00000000000E+00  0.17526627319E+03  0.17526627319E+03  0.00000000000E+00 0.  1.
          2   -1    0    0  501    0  0.00000000000E+00 -0.00000000000E+00 -0.23900488569E+03  0.23900488569E+03  0.00000000000E+00 0. -1.
          5    1    1    2  502    0 -0.29176413504E+02  0.38294463327E+02 -0.16284949884E+01  0.48399080802E+02  0.47000000000E+01 0. -1.
         -5    1    1    2    0  502  0.12765935592E+03  0.10394181581E+03 -0.29014472678E+02  0.16722661825E+03  0.47000000000E+01 0. -1.
        -11    1    1    2    0    0 -0.74793807306E+02 -0.79933976755E+02 -0.62209002402E+02  0.12591073914E+03  0.00000000000E+00 0. -1.
         11    1    1    2    0    0 -0.23689135106E+02 -0.62302302383E+02  0.29113357568E+02  0.72734720685E+02  0.00000000000E+00 0.  1.
<mgrwt>
<rscale>  0 0.40933847E+03</rscale>
<asrwt>0</asrwt>
<pdfrwt beam="2">  1        2 0.36769982E-01 0.40933847E+03</pdfrwt>
<pdfrwt beam="1">  1       -2 0.26964042E-01 0.40933847E+03</pdfrwt>
<totfact> 0.17516295E+03</totfact>
</mgrwt>
</event>
<event>
 6    1  0.6101889E-006  0.1403637E+03  0.7546771E-02  0.1224030E+00
         -3   -1    0    0    0  501 -0.00000000000E+00  0.00000000000E+00  0.45550027994E+02  0.45550027994E+02  0.00000000000E+00 0.  1.
          3   -1    0    0  501    0  0.00000000000E+00 -0.00000000000E+00 -0.34943755111E+03  0.34943755111E+03  0.00000000000E+00 0. -1.
          5    1    1    2  502    0  0.47980188852E+02 -0.39667752036E+02 -0.19427658892E+03  0.20406153993E+03  0.47000000000E+01 0. -1.
         -5    1    1    2    0  502  0.14242015736E+02  0.25309815887E+02  0.67441839476E+01  0.30182707129E+02  0.47000000000E+01 0. -1.
        -11    1    1    2    0    0  0.12748062840E+02  0.31447773073E+02 -0.38437802822E+02  0.51273192052E+02  0.00000000000E+00 0.  1.
         11    1    1    2    0    0 -0.74970267428E+02 -0.17089836924E+02 -0.77917315319E+02  0.10947014000E+03  0.00000000000E+00 0. -1.
<mgrwt>
<rscale>  0 0.13233624E+03</rscale>
<asrwt>0</asrwt>
<pdfrwt beam="2">  1        3 0.53759624E-01 0.14036369E+03</pdfrwt>
<pdfrwt beam="1">  1       -3 0.70076965E-02 0.14036369E+03</pdfrwt>
<totfact> 0.10594395E+03</totfact>
</mgrwt>
</event>
<event>
 6    1  0.6101889E-006  0.1388704E+03  0.7546771E-02  0.1226165E+00
          2   -1    0    0  501    0  0.00000000000E+00  0.00000000000E+00  0.37823574257E+03  0.37823574257E+03  0.00000000000E+00 0. -1.
         -2   -1    0    0    0  501 -0.00000000000E+00 -0.00000000000E+00 -0.43297736093E+02  0.43297736093E+02  0.00000000000E+00 0.  1.
          5    1    1    2  502    0 -0.34115970434E+02  0.20475308137E+02  0.60051124714E+02  0.72189786407E+02  0.47000000000E+01 0.  1.
         -5    1    1    2    0  502  0.94006946245E+02 -0.28944275693E+02  0.17645742199E+03  0.20207520583E+03  0.47000000000E+01 0.  1.
        -11    1    1    2    0    0 -0.24396149949E+02 -0.35277726878E+01 -0.14284946217E+02  0.28489945610E+02  0.00000000000E+00 0.  1.
         11    1    1    2    0    0 -0.35494825863E+02  0.11996740244E+02  0.11271440600E+03  0.11877854082E+03  0.00000000000E+00 0. -1.
<mgrwt>
<rscale>  0 0.13087400E+03</rscale>
<asrwt>0</asrwt>
<pdfrwt beam="1">  1        2 0.58190112E-01 0.13887042E+03</pdfrwt>
<pdfrwt beam="2">  1       -2 0.66611904E-02 0.13887042E+03</pdfrwt>
<totfact> 0.10151952E+04</totfact>
</mgrwt>
</event>
<event>
 6    1  0.6101889E-006  0.3070118E+03  0.7546771E-02  0.1081787E+00
         -3   -1    0    0    0  501 -0.00000000000E+00  0.00000000000E+00  0.44962422879E+02  0.44962422879E+02  0.00000000000E+00 0.  1.
          3   -1    0    0  501    0  0.00000000000E+00 -0.00000000000E+00 -0.52408349407E+03  0.52408349407E+03  0.00000000000E+00 0. -1.
          5    1    1    2  502    0  0.12156921902E+03  0.33117925350E+02 -0.18450415048E+03  0.22347201959E+03  0.47000000000E+01 0. -1.
         -5    1    1    2    0  502 -0.24899399629E+02  0.68089335435E+01 -0.11037615089E+03  0.11345186805E+03  0.47000000000E+01 0. -1.
        -11    1    1    2    0    0 -0.60390727895E+02 -0.58482227063E+00 -0.16423783352E+03  0.17498985111E+03  0.00000000000E+00 0. -1.
         11    1    1    2    0    0 -0.36279091499E+02 -0.39342036623E+02 -0.20002936297E+02  0.57132178202E+02  0.00000000000E+00 0.  1.
<mgrwt>
<rscale>  0 0.30701182E+03</rscale>
<asrwt>0</asrwt>
<pdfrwt beam="2">  1        3 0.80628238E-01 0.30701182E+03</pdfrwt>
<pdfrwt beam="1">  1       -3 0.69172952E-02 0.30701182E+03</pdfrwt>
<totfact> 0.50870169E+02</totfact>
</mgrwt>
</event>
<event>
 6    1  0.6101889E-006  0.1524809E+03  0.7546771E-02  0.1206447E+00
          1   -1    0    0  501    0  0.00000000000E+00  0.00000000000E+00  0.40726955866E+02  0.40726955866E+02  0.00000000000E+00 0. -1.
         -1   -1    0    0    0  501 -0.00000000000E+00 -0.00000000000E+00 -0.48587877797E+03  0.48587877797E+03  0.00000000000E+00 0.  1.
          5    1    1    2  502    0 -0.58895037606E+02 -0.12948429091E+02 -0.69513794938E+02  0.92144153136E+02  0.47000000000E+01 0. -1.
         -5    1    1    2    0  502  0.53060072104E+02 -0.74176947860E+02 -0.13384819604E+03  0.16203401010E+03  0.47000000000E+01 0. -1.
        -11    1    1    2    0    0 -0.35371148056E+02  0.43184733950E+02 -0.16879781996E+03  0.17778847933E+03  0.00000000000E+00 0.  1.
         11    1    1    2    0    0  0.41206113558E+02  0.43940643001E+02 -0.72992011178E+02  0.94639091277E+02  0.00000000000E+00 0. -1.
<mgrwt>
<rscale>  0 0.14524029E+03</rscale>
<asrwt>0</asrwt>
<pdfrwt beam="1">  1        1 0.62656852E-02 0.15248095E+03</pdfrwt>
<pdfrwt beam="2">  1       -1 0.74750585E-01 0.15248095E+03</pdfrwt>
<totfact> 0.22263906E+03</totfact>
</mgrwt>
</event>
<event>
 6    1  0.6101889E-006  0.3530928E+03  0.7546771E-02  0.1061353E+00
          2   -1    0    0  501    0  0.00000000000E+00  0.00000000000E+00  0.91642932450E+03  0.91642932450E+03  0.00000000000E+00 0. -1.
         -2   -1    0    0    0  501 -0.00000000000E+00 -0.00000000000E+00 -0.34010941288E+02  0.34010941288E+02  0.00000000000E+00 0.  1.
          5    1    1    2  502    0 -0.13137127123E+02 -0.60886629875E+02  0.79830377605E+03  0.80074388831E+03  0.47000000000E+01 0.  1.
         -5    1    1    2    0  502 -0.12164867099E+01 -0.35862620089E+01 -0.32003238741E+01  0.68317778075E+01  0.47000000000E+01 0.  1.
        -11    1    1    2    0    0  0.37866077271E+02  0.55259691553E+02  0.18401709860E+02  0.69470110438E+02  0.00000000000E+00 0.  1.
         11    1    1    2    0    0 -0.23512463439E+02  0.92132003306E+01  0.68913221179E+02  0.73394489239E+02  0.00000000000E+00 0. -1.
<mgrwt>
<rscale>  0 0.35309276E+03</rscale>
<asrwt>0</asrwt>
<pdfrwt beam="1">  1        2 0.14098911E+00 0.35309276E+03</pdfrwt>
<pdfrwt beam="2">  1       -2 0.52324532E-02 0.35309276E+03</pdfrwt>
<totfact> 0.54378288E+03</totfact>
</mgrwt>
</event>
<event>
 6    1  0.6101889E-006  0.1869041E+03  0.7546771E-02  0.1166510E+00
          1   -1    0    0  501    0  0.00000000000E+00  0.00000000000E+00  0.53501725226E+03  0.53501725226E+03  0.00000000000E+00 0. -1.
         -1   -1    0    0    0  501 -0.00000000000E+00 -0.00000000000E+00 -0.58496065875E+02  0.58496065875E+02  0.00000000000E+00 0.  1.
          5    1    1    2  502    0 -0.71352199049E+02 -0.82995139330E+02  0.88162569045E+02  0.14062026185E+03  0.47000000000E+01 0. -1.
         -5    1    1    2    0  502  0.82618805031E+01 -0.40815998320E+02  0.18956358027E+03  0.19414078745E+03  0.47000000000E+01 0. -1.
        -11    1    1    2    0    0  0.48816593905E+02  0.11819069556E+02  0.83105180823E+02  0.97104177692E+02  0.00000000000E+00 0. -1.
         11    1    1    2    0    0  0.14273724641E+02  0.11199206809E+03  0.11568985625E+03  0.16164809114E+03  0.00000000000E+00 0.  1.
<mgrwt>
<rscale>  0 0.18134218E+03</rscale>
<asrwt>0</asrwt>
<pdfrwt beam="1">  1        1 0.82310343E-01 0.18690411E+03</pdfrwt>
<pdfrwt beam="2">  1       -1 0.89993951E-02 0.18690411E+03</pdfrwt>
<totfact> 0.29180649E+03</totfact>
</mgrwt>
</event>
<event>
 6    1  0.6101889E-006  0.3155805E+03  0.7546771E-02  0.1077701E+00
          4   -1    0    0  501    0  0.00000000000E+00  0.00000000000E+00  0.39791149349E+02  0.39791149349E+02  0.00000000000E+00 0. -1.
         -4   -1    0    0    0  501 -0.00000000000E+00 -0.00000000000E+00 -0.62571104426E+03  0.62571104426E+03  0.00000000000E+00 0.  1.
          5    1    1    2  502    0  0.11622932223E+02  0.20593333923E+01 -0.28945216464E+03  0.28973087344E+03  0.47000000000E+01 0.  1.
         -5    1    1    2    0  502  0.83288289621E+02 -0.41111204587E+02 -0.13015738458E+03  0.15996907542E+03  0.47000000000E+01 0.  1.
        -11    1    1    2    0    0 -0.61474046769E+00  0.28224877428E+02 -0.89046070349E+02  0.93414261525E+02  0.00000000000E+00 0.  1.
         11    1    1    2    0    0 -0.94296481377E+02  0.10826993767E+02 -0.77264275347E+02  0.12238798323E+03  0.00000000000E+00 0. -1.
<mgrwt>
<rscale>  0 0.31558049E+03</rscale>
<asrwt>0</asrwt>
<pdfrwt beam="1">  1        4 0.61217154E-02 0.31558049E+03</pdfrwt>
<pdfrwt beam="2">  1       -4 0.96263236E-01 0.31558049E+03</pdfrwt>
<totfact> 0.30462099E+02</totfact>
</mgrwt>
</event>
<event>
 6    1  0.6101889E-006  0.1598348E+03  0.7546771E-02  0.1196298E+00
          2   -1    0    0  501    0  0.00000000000E+00  0.00000000000E+00  0.13782111084E+03  0.13782111084E+03  0.00000000000E+00 0.  1.
         -2   -1    0    0    0  501 -0.00000000000E+00 -0.00000000000E+00 -0.16366188975E+03  0.16366188975E+03  0.00000000000E+00 0. -1.
          5    1    1    2  502    0  0.69671729714E+01 -0.15816338728E+02  0.40756294503E+02  0.44518126776E+02  0.47000000000E+01 0. -1.
         -5    1    1    2    0  502  0.86886022974E+02 -0.17527040644E+02 -0.81327662455E+02  0.12038545104E+03  0.47000000000E+01 0. -1.
        -11    1    1    2    0    0  0.81463952176E+01  0.17061577975E+02  0.26572128047E+02  0.32611948531E+02  0.00000000000E+00 0.  1.
         11    1    1    2    0    0 -0.10199959116E+03  0.16281801397E+02 -0.11841539002E+02  0.10396747424E+03  0.00000000000E+00 0. -1.
<mgrwt>
<rscale>  0 0.15344918E+03</rscale>
<asrwt>0</asrwt>
<pdfrwt beam="1">  1        2 0.21203248E-01 0.15983477E+03</pdfrwt>
<pdfrwt beam="2">  1       -2 0.25178752E-01 0.15983477E+03</pdfrwt>
<totfact> 0.35324904E+03</totfact>
</mgrwt>
</event>
<event>
 6    1  0.6101889E-006  0.1235034E+03  0.7546771E-02  0.1248896E+00
         -1   -1    0    0    0  501 -0.00000000000E+00  0.00000000000E+00  0.96231888343E+02  0.96231888343E+02  0.00000000000E+00 0.  1.
          1   -1    0    0  501    0  0.00000000000E+00 -0.00000000000E+00 -0.66118120725E+03  0.66118120725E+03  0.00000000000E+00 0. -1.
          5    1    1    2  502    0 -0.46752391557E+02  0.46444569195E+02 -0.45199162057E+03  0.45679470136E+03  0.47000000000E+01 0. -1.
         -5    1    1    2    0  502  0.19937798586E+01 -0.50736381882E+02 -0.17659094360E+03  0.18380589481E+03  0.47000000000E+01 0.  1.
        -11    1    1    2    0    0  0.29881534096E+02  0.45144081206E+02  0.30402446059E+02  0.62090280030E+02  0.00000000000E+00 0. -1.
         11    1    1    2    0    0  0.14877077603E+02 -0.40852268518E+02  0.33230799198E+02  0.54722219403E+02  0.00000000000E+00 0.  1.
<mgrwt>
<rscale>  0 0.11655213E+03</rscale>
<asrwt>0</asrwt>
<pdfrwt beam="2">  1        1 0.10172018E+00 0.12350338E+03</pdfrwt>
<pdfrwt beam="1">  1       -1 0.14804906E-01 0.12350338E+03</pdfrwt>
<totfact> 0.10049353E+03</totfact>
</mgrwt>
</event>
<event>
 6    1  0.6101889E-006  0.2465988E+03  0.7546771E-02  0.1115473E+00
         -2   -1    0    0    0  501 -0.00000000000E+00  0.00000000000E+00  0.76518011148E+02  0.76518011148E+02  0.00000000000E+00 0. -1.
          2   -1    0    0  501    0  0.00000000000E+00 -0.00000000000E+00 -0.19868186279E+03  0.19868186279E+03  0.00000000000E+00 0.  1.
          5    1    1    2  502    0  0.13928728902E+02 -0.14647304901E+02  0.26657156536E+02  0.33782347820E+02  0.47000000000E+01 0. -1.
         -5    1    1    2    0  502  0.28759252519E+02  0.52122629163E+02 -0.11471592993E+03  0.12932786883E+03  0.47000000000E+01 0. -1.
        -11    1    1    2    0    0 -0.26908190328E+02 -0.12275090029E+02 -0.63642409148E+02  0.70178948298E+02  0.00000000000E+00 0.  1.
         11    1    1    2    0    0 -0.15779791093E+02 -0.25200234234E+02  0.29537330893E+02  0.41910708997E+02  0.00000000000E+00 0. -1.
<mgrwt>
<rscale>  0 0.24659879E+03</rscale>
<asrwt>0</asrwt>
<pdfrwt beam="2">  1        2 0.30566440E-01 0.24659879E+03</pdfrwt>
<pdfrwt beam="1">  1       -2 0.11772002E-01 0.24659879E+03</pdfrwt>
<totfact> 0.86269971E+03</totfact>
</mgrwt>
</event>
<event>
 6    1  0.6101889E-006  0.1355677E+03  0.7546771E-02  0.1232657E+00
          1   -1    0    0  501    0  0.00000000000E+00  0.00000000000E+00  0.38245421154E+03  0.38245421154E+03  0.00000000000E+00 0. -1.
         -1   -1    0    0    0  501 -0.00000000000E+00 -0.00000000000E+00 -0.46450138316E+02  0.46450138316E+02  0.00000000000E+00 0.  1.
          5    1    1    2  502    0 -0.21853857092E+02 -0.21698155423E+02  0.17776999549E+03  0.18047898026E+03  0.47000000000E+01 0.  1.
         -5    1    1    2    0  502  0.71280866495E+02  0.39359300182E+02  0.10364825376E+03  0.13189073867E+03  0.47000000000E+01 0.  1.
        -11    1    1    2    0    0  0.12125504681E+02  0.10767407964E+02 -0.13013685828E+02  0.20792329279E+02  0.00000000000E+00 0.  1.
         11    1    1    2    0    0 -0.61552514083E+02 -0.28428552722E+02  0.67599509804E+02  0.95742301652E+02  0.00000000000E+00 0. -1.
<mgrwt>
<rscale>  0 0.12655640E+03</rscale>
<asrwt>0</asrwt>
<pdfrwt beam="1">  1        1 0.58839107E-01 0.13556773E+03</pdfrwt>
<pdfrwt beam="2">  1       -1 0.71461754E-02 0.13556773E+03</pdfrwt>
<totfact> 0.62890892E+03</totfact>
</mgrwt>
</event>
<event>
 6    1  0.6101889E-006  0.2960196E+03  0.7546771E-02  0.1087247E+00
          2   -1    0    0  501    0  0.00000000000E+00  0.00000000000E+00  0.77687453382E+03  0.77687453382E+03  0.00000000000E+00 0. -1.
         -2   -1    0    0    0  501 -0.00000000000E+00 -0.00000000000E+00 -0.28198753630E+02  0.28198753630E+02  0.00000000000E+00 0.  1.
          5    1    1    2  502    0 -0.29011796516E+02 -0.26695117968E+02  0.57400339595E+02  0.69794001505E+02  0.47000000000E+01 0. -1.
         -5    1    1    2    0  502  0.10737680815E+03 -0.37286807073E+02  0.35820005953E+03  0.37583168780E+03  0.47000000000E+01 0. -1.
        -11    1    1    2    0    0 -0.54330384424E+02 -0.31401984922E+01  0.21262052944E+03  0.21947469344E+03  0.00000000000E+00 0.  1.
         11    1    1    2    0    0 -0.24034627209E+02  0.67122123533E+02  0.12045485162E+03  0.13997290471E+03  0.00000000000E+00 0. -1.
<mgrwt>
<rscale>  0 0.29601955E+03</rscale>
<asrwt>0</asrwt>
<pdfrwt beam="1">  1        2 0.11951914E+00 0.29601955E+03</pdfrwt>
<pdfrwt beam="2">  1       -2 0.43382704E-02 0.29601955E+03</pdfrwt>
<totfact> 0.89485298E+03</totfact>
</mgrwt>
</event>
<event>
 6    1  0.6101889E-006  0.1466795E+03  0.7546771E-02  0.1214357E+00
         -1   -1    0    0    0  501 -0.00000000000E+00  0.00000000000E+00  0.47350384751E+02  0.47350384751E+02  0.00000000000E+00 0.  1.
          1   -1    0    0  501    0  0.00000000000E+00 -0.00000000000E+00 -0.40430224703E+03  0.40430224703E+03  0.00000000000E+00 0. -1.
          5    1    1    2  502    0  0.36773752285E+02  0.70048085694E+02 -0.10471862052E+03  0.13132830102E+03  0.47000000000E+01 0. -1.
         -5    1    1    2    0  502  0.37180013072E+02 -0.49727402401E+02 -0.15339317448E+03  0.16554976260E+03  0.47000000000E+01 0. -1.
        -11    1    1    2    0    0 -0.77907689319E+02 -0.35431670580E+02 -0.41070253294E+02  0.94930379967E+02  0.00000000000E+00 0.  1.
         11    1    1    2    0    0  0.39539239618E+01  0.15110987287E+02 -0.57769813994E+02  0.59844188192E+02  0.00000000000E+00 0. -1.
<mgrwt>
<rscale>  0 0.13923836E+03</rscale>
<asrwt>0</asrwt>
<pdfrwt beam="2">  1        1 0.62200344E-01 0.14667953E+03</pdfrwt>
<pdfrwt beam="1">  1       -1 0.72846748E-02 0.14667953E+03</pdfrwt>
<totfact> 0.57233159E+03</totfact>
</mgrwt>
</event>
<event>
 6    1  0.6101889E-006  0.1369567E+03  0.7546771E-02  0.1229043E+00
         -2   -1    0    0    0  501 -0.00000000000E+00  0.00000000000E+00  0.37988304111E+02  0.37988304111E+02  0.00000000000E+00 0.  1.
          2   -1    0    0  501    0  0.00000000000E+00 -0.00000000000E+00 -0.44973124699E+03  0.44973124699E+03  0.00000000000E+00 0. -1.
          5    1    1    2  502    0  0.63594637932E+02  0.48276108493E+02 -0.14754653318E+03  0.16783006310E+03  0.47000000000E+01 0. -1.
         -5    1    1    2    0  502 -0.77846474790E+01 -0.52484342586E+02 -0.16560980966E+03  0.17396524368E+03  0.47000000000E+01 0. -1.
        -11    1    1    2    0    0 -0.78411373500E+02  0.57062871502E+00 -0.52208522802E+02  0.94204028388E+02  0.00000000000E+00 0.  1.
         11    1    1    2    0    0  0.22601383047E+02  0.36376053775E+01 -0.46378077226E+02  0.51720215928E+02  0.00000000000E+00 0. -1.
<mgrwt>
<rscale>  0 0.12893640E+03</rscale>
<asrwt>0</asrwt>
<pdfrwt beam="2">  1        2 0.69189423E-01 0.13695670E+03</pdfrwt>
<pdfrwt beam="1">  1       -2 0.58443545E-02 0.13695670E+03</pdfrwt>
<totfact> 0.10276560E+04</totfact>
</mgrwt>
</event>
<event>
 6    1  0.6101889E-006  0.1397984E+03  0.7546771E-02  0.1223960E+00
          2   -1    0    0  501    0  0.00000000000E+00  0.00000000000E+00  0.13115300085E+03  0.13115300085E+03  0.00000000000E+00 0.  1.
         -2   -1    0    0    0  501 -0.00000000000E+00 -0.00000000000E+00 -0.12561757193E+03  0.12561757193E+03  0.00000000000E+00 0. -1.
          5    1    1    2  502    0 -0.52025270057E+02  0.82665750859E+02  0.37798735915E+02  0.10483839719E+03  0.47000000000E+01 0. -1.
         -5    1    1    2    0  502  0.14723348261E+02 -0.32374080840E+02 -0.10964278572E+02  0.37512178007E+02  0.47000000000E+01 0. -1.
        -11    1    1    2    0    0 -0.51988315212E+01  0.11158750788E+02 -0.36197164661E+02  0.38233235514E+02  0.00000000000E+00 0. -1.
         11    1    1    2    0    0  0.42500753318E+02 -0.61450420807E+02  0.14898136237E+02  0.76186762061E+02  0.00000000000E+00 0.  1.
<mgrwt>
<rscale>  0 0.13238468E+03</rscale>
<asrwt>0</asrwt>
<pdfrwt beam="1">  1        2 0.20177385E-01 0.13979842E+03</pdfrwt>
<pdfrwt beam="2">  1       -2 0.19325780E-01 0.13979842E+03</pdfrwt>
<totfact> 0.58401431E+03</totfact>
</mgrwt>
</event>
<event>
 6    1  0.6101889E-006  0.1255279E+03  0.7546771E-02  0.1251221E+00
         -2   -1    0    0    0  501 -0.00000000000E+00  0.00000000000E+00  0.36149886868E+02  0.36149886868E+02  0.00000000000E+00 0.  1.
          2   -1    0    0  501    0  0.00000000000E+00 -0.00000000000E+00 -0.37525636991E+03  0.37525636991E+03  0.00000000000E+00 0. -1.
          5    1    1    2  502    0  0.12087151851E+02 -0.59487710855E+02 -0.11129981061E+03  0.12686459247E+03  0.47000000000E+01 0.  1.
         -5    1    1    2    0  502 -0.23538553835E+02  0.58460922264E+02 -0.16174828985E+03  0.17365581538E+03  0.47000000000E+01 0.  1.
        -11    1    1    2    0    0 -0.33562397100E+02  0.10377446508E+02 -0.66306201992E+01  0.35750398869E+02  0.00000000000E+00 0.  1.
         11    1    1    2    0    0  0.45013799084E+02 -0.93506579163E+01 -0.59427762385E+02  0.75135450045E+02  0.00000000000E+00 0. -1.
<mgrwt>
<rscale>  0 0.11520670E+03</rscale>
<asrwt>0</asrwt>
<pdfrwt beam="2">  1        2 0.57731747E-01 0.12552789E+03</pdfrwt>
<pdfrwt beam="1">  1       -2 0.55615213E-02 0.12552789E+03</pdfrwt>
<totfact> 0.13355284E+04</totfact>
</mgrwt>
</event>
<event>
 6    1  0.6101889E-006  0.1374388E+03  0.7546771E-02  0.1222511E+00
         -2   -1    0    0    0  501 -0.00000000000E+00  0.00000000000E+00  0.37548091739E+02  0.37548091739E+02  0.00000000000E+00 0.  1.
          2   -1    0    0  501    0  0.00000000000E+00 -0.00000000000E+00 -0.74738011774E+03  0.74738011774E+03  0.00000000000E+00 0. -1.
          5    1    1    2  502    0  0.57040267349E+02  0.57276015850E+02 -0.45690608475E+03  0.46402520877E+03  0.47000000000E+01 0. -1.
         -5    1    1    2    0  502  0.22680668276E+02 -0.45609080080E+02 -0.15886598520E+03  0.16689844862E+03  0.47000000000E+01 0.  1.
        -11    1    1    2    0    0 -0.79614735182E+02 -0.34502324283E+02 -0.40451889475E+02  0.95735426051E+02  0.00000000000E+00 0.  1.
         11    1    1    2    0    0 -0.10620044326E+00  0.22835388513E+02 -0.53608066572E+02  0.58269126033E+02  0.00000000000E+00 0. -1.
<mgrwt>
<rscale>  0 0.13338940E+03</rscale>
<asrwt>0</asrwt>
<pdfrwt beam="2">  1        2 0.11498155E+00 0.13743878E+03</pdfrwt>
<pdfrwt beam="1">  1       -2 0.57766297E-02 0.13743878E+03</pdfrwt>
<totfact> 0.58760711E+03</totfact>
</mgrwt>
</event>
<event>
 6    1  0.6101889E-006  0.1327097E+03  0.7546771E-02  0.1238505E+00
         -2   -1    0    0    0  501 -0.00000000000E+00  0.00000000000E+00  0.67844283706E+02  0.67844283706E+02  0.00000000000E+00 0.  1.
          2   -1    0    0  501    0  0.00000000000E+00 -0.00000000000E+00 -0.19582218185E+03  0.19582218185E+03  0.00000000000E+00 0. -1.
          5    1    1    2  502    0  0.45625197430E+01 -0.84042936006E+01  0.29867650743E+02  0.31711437972E+02  0.47000000000E+01 0. -1.
         -5    1    1    2    0  502 -0.25264187552E+02  0.47876984447E+02 -0.11165897281E+03  0.12417850466E+03  0.47000000000E+01 0. -1.
        -11    1    1    2    0    0  0.42494820001E+02 -0.48569566804E+02 -0.52655324571E+02  0.83291030442E+02  0.00000000000E+00 0. -1.
         11    1    1    2    0    0 -0.21793152192E+02  0.90968759573E+01  0.64687484946E+01  0.24485492474E+02  0.00000000000E+00 0.  1.
<mgrwt>
<rscale>  0 0.12282668E+03</rscale>
<asrwt>0</asrwt>
<pdfrwt beam="2">  1        2 0.30126489E-01 0.13270966E+03</pdfrwt>
<pdfrwt beam="1">  1       -2 0.10437582E-01 0.13270966E+03</pdfrwt>
<totfact> 0.10175121E+04</totfact>
</mgrwt>
</event>
<event>
 6    1  0.6583671E-006  0.2157229E+03  0.7546771E-02  0.1140656E+00
          1   -1    0    0  501    0  0.00000000000E+00  0.00000000000E+00  0.27802657404E+03  0.27802657404E+03  0.00000000000E+00 0. -1.
         -1   -1    0    0    0  501 -0.00000000000E+00 -0.00000000000E+00 -0.17383374750E+03  0.17383374750E+03  0.00000000000E+00 0.  1.
          5    1    1    2  502    0 -0.11527752659E+03 -0.56800952211E+01  0.91870616596E+02  0.14759224848E+03  0.47000000000E+01 0. -1.
         -5    1    1    2    0  502 -0.39829645202E+02  0.88460193736E+02  0.38596619015E+02  0.10451504921E+03  0.47000000000E+01 0. -1.
        -11    1    1    2    0    0  0.41741939775E+02 -0.17017873070E+02 -0.49173985779E+02  0.66708908081E+02  0.00000000000E+00 0.  1.
         11    1    1    2    0    0  0.11336523202E+03 -0.65762225444E+02  0.22899576716E+02  0.13304411576E+03  0.00000000000E+00 0. -1.
<mgrwt>
<rscale>  0 0.21115343E+03</rscale>
<asrwt>0</asrwt>
<pdfrwt beam="1">  1        1 0.42773319E-01 0.21572295E+03</pdfrwt>
<pdfrwt beam="2">  1       -1 0.26743653E-01 0.21572295E+03</pdfrwt>
<totfact> 0.11961023E+03</totfact>
</mgrwt>
</event>
<event>
 6    1  0.6101889E-006  0.1348293E+03  0.7546771E-02  0.1233311E+00
          2   -1    0    0  501    0  0.00000000000E+00  0.00000000000E+00  0.31571613815E+03  0.31571613815E+03  0.00000000000E+00 0. -1.
         -2   -1    0    0    0  501 -0.00000000000E+00 -0.00000000000E+00 -0.51993466961E+02  0.51993466961E+02  0.00000000000E+00 0.  1.
          5    1    1    2  502    0 -0.25476284513E+02 -0.37543971626E+02  0.13395716590E+03  0.14151043486E+03  0.47000000000E+01 0.  1.
         -5    1    1    2    0  502  0.73885108898E+02  0.23202592079E+02  0.80444131464E+02  0.11176188028E+03  0.47000000000E+01 0.  1.
        -11    1    1    2    0    0  0.98968177501E+01 -0.16463814566E+02 -0.13406119140E+02  0.23424948709E+02  0.00000000000E+00 0.  1.
         11    1    1    2    0    0 -0.58305642135E+02  0.30805194112E+02  0.62727492963E+02  0.91012341264E+02  0.00000000000E+00 0. -1.
<mgrwt>
<rscale>  0 0.12613184E+03</rscale>
<asrwt>0</asrwt>
<pdfrwt beam="1">  1        2 0.48571713E-01 0.13482933E+03</pdfrwt>
<pdfrwt beam="2">  1       -2 0.79989951E-02 0.13482933E+03</pdfrwt>
<totfact> 0.92680189E+03</totfact>
</mgrwt>
</event>
<event>
 6    1  0.6101889E-006  0.1715303E+03  0.7546771E-02  0.1182238E+00
          1   -1    0    0  501    0  0.00000000000E+00  0.00000000000E+00  0.25588340397E+03  0.25588340397E+03  0.00000000000E+00 0. -1.
         -1   -1    0    0    0  501 -0.00000000000E+00 -0.00000000000E+00 -0.10097287026E+03  0.10097287026E+03  0.00000000000E+00 0.  1.
          5    1    1    2  502    0 -0.16015923426E+02  0.16277998282E+02 -0.65439202820E+01  0.24215613226E+02  0.47000000000E+01 0.  1.
         -5    1    1    2    0  502  0.95762963008E+02 -0.10253285771E+03  0.87940316473E+02  0.16564758149E+03  0.47000000000E+01 0.  1.
        -11    1    1    2    0    0 -0.58412815009E+02  0.87840614282E+02  0.17368394720E+02  0.10690973580E+03  0.00000000000E+00 0.  1.
         11    1    1    2    0    0 -0.21334224573E+02 -0.15857548584E+01  0.56145742798E+02  0.60083343707E+02  0.00000000000E+00 0. -1.
<mgrwt>
<rscale>  0 0.16585782E+03</rscale>
<asrwt>0</asrwt>
<pdfrwt beam="1">  1        1 0.39366677E-01 0.17153035E+03</pdfrwt>
<pdfrwt beam="2">  1       -1 0.15534288E-01 0.17153035E+03</pdfrwt>
<totfact> 0.31847666E+03</totfact>
</mgrwt>
</event>
<event>
 6    1  0.6101889E-006  0.1327521E+03  0.7546771E-02  0.1223771E+00
         -2   -1    0    0    0  501 -0.00000000000E+00  0.00000000000E+00  0.29151348124E+02  0.29151348124E+02  0.00000000000E+00 0.  1.
          2   -1    0    0  501    0  0.00000000000E+00 -0.00000000000E+00 -0.68856874911E+03  0.68856874911E+03  0.00000000000E+00 0. -1.
          5    1    1    2  502    0 -0.13177636201E+02  0.23549134210E+02 -0.36294067640E+03  0.36397285119E+03  0.47000000000E+01 0. -1.
         -5    1    1    2    0  502 -0.58305198108E+02 -0.17819619650E+02 -0.96330705957E+02  0.11409964891E+03  0.47000000000E+01 0.  1.
        -11    1    1    2    0    0 -0.26851780534E+02 -0.38539812896E+00 -0.79490711316E+02  0.83904349321E+02  0.00000000000E+00 0.  1.
         11    1    1    2    0    0  0.98334614843E+02 -0.53441164305E+01 -0.12065530732E+03  0.15574324782E+03  0.00000000000E+00 0. -1.
<mgrwt>
<rscale>  0 0.13251465E+03</rscale>
<asrwt>0</asrwt>
<pdfrwt beam="2">  1        2 0.10593366E+00 0.13275207E+03</pdfrwt>
<pdfrwt beam="1">  1       -2 0.44848227E-02 0.13275207E+03</pdfrwt>
<totfact> 0.94635213E+03</totfact>
</mgrwt>
</event>
<event>
 6    1  0.6101889E-006  0.3031882E+03  0.7546771E-02  0.1083658E+00
          2   -1    0    0  501    0  0.00000000000E+00  0.00000000000E+00  0.10538365764E+04  0.10538365764E+04  0.00000000000E+00 0. -1.
         -2   -1    0    0    0  501 -0.00000000000E+00 -0.00000000000E+00 -0.21806767886E+02  0.21806767886E+02  0.00000000000E+00 0.  1.
          5    1    1    2  502    0 -0.14030970532E+02  0.11499485565E+01  0.37549479597E+03  0.37578800183E+03  0.47000000000E+01 0. -1.
         -5    1    1    2    0  502  0.46303298296E+01 -0.10424007988E+03  0.26223835832E+03  0.28227376921E+03  0.47000000000E+01 0. -1.
        -11    1    1    2    0    0  0.43742914432E+02  0.42914069742E+02  0.12091033876E+03  0.13555209317E+03  0.00000000000E+00 0.  1.
         11    1    1    2    0    0 -0.34342273730E+02  0.60176061578E+02  0.27338631547E+03  0.28202948009E+03  0.00000000000E+00 0. -1.
<mgrwt>
<rscale>  0 0.30318819E+03</rscale>
<asrwt>0</asrwt>
<pdfrwt beam="1">  1        2 0.16212866E+00 0.30318819E+03</pdfrwt>
<pdfrwt beam="2">  1       -2 0.33548882E-02 0.30318819E+03</pdfrwt>
<totfact> 0.87317785E+03</totfact>
</mgrwt>
</event>
<event>
 6    1  0.6101889E-006  0.1366850E+03  0.7546771E-02  0.1235286E+00
          2   -1    0    0  501    0  0.00000000000E+00  0.00000000000E+00  0.45281659824E+03  0.45281659824E+03  0.00000000000E+00 0. -1.
         -2   -1    0    0    0  501 -0.00000000000E+00 -0.00000000000E+00 -0.33139626959E+02  0.33139626959E+02  0.00000000000E+00 0.  1.
          5    1    1    2  502    0  0.63577307395E+02 -0.18736024488E+02  0.76936902843E+02  0.10165869195E+03  0.47000000000E+01 0.  1.
         -5    1    1    2    0  502 -0.11566506169E+02  0.37494690062E+02  0.24389685563E+03  0.24707772468E+03  0.47000000000E+01 0.  1.
        -11    1    1    2    0    0 -0.42433981025E+02  0.23483550845E+01  0.10496896691E+03  0.11324593384E+03  0.00000000000E+00 0. -1.
         11    1    1    2    0    0 -0.95768202012E+01 -0.21107020658E+02 -0.61257541022E+01  0.23973874730E+02  0.00000000000E+00 0.  1.
<mgrwt>
<rscale>  0 0.12486118E+03</rscale>
<asrwt>0</asrwt>
<pdfrwt beam="1">  1        2 0.69664087E-01 0.13668499E+03</pdfrwt>
<pdfrwt beam="2">  1       -2 0.50984045E-02 0.13668499E+03</pdfrwt>
<totfact> 0.12532393E+04</totfact>
</mgrwt>
</event>
<event>
 6    1  0.6101889E-006  0.3254479E+03  0.7546771E-02  0.1073169E+00
         -1   -1    0    0    0  501 -0.00000000000E+00  0.00000000000E+00  0.23344020977E+03  0.23344020977E+03  0.00000000000E+00 0.  1.
          1   -1    0    0  501    0  0.00000000000E+00 -0.00000000000E+00 -0.11342984735E+03  0.11342984735E+03  0.00000000000E+00 0. -1.
          5    1    1    2  502    0 -0.14082924969E+02 -0.88733980336E+02  0.24277231001E+01  0.90000177119E+02  0.47000000000E+01 0.  1.
         -5    1    1    2    0  502  0.26153090691E+02  0.27509565062E+02 -0.38547451064E+02  0.54302452119E+02  0.47000000000E+01 0.  1.
        -11    1    1    2    0    0 -0.26917853624E+02  0.18499833933E+02  0.15385015030E+03  0.15727899875E+03  0.00000000000E+00 0.  1.
         11    1    1    2    0    0  0.14847687902E+02  0.42724581341E+02  0.22799400810E+01  0.45288429136E+02  0.00000000000E+00 0. -1.
<mgrwt>
<rscale>  0 0.32544792E+03</rscale>
<asrwt>0</asrwt>
<pdfrwt beam="2">  1        1 0.17450746E-01 0.32544792E+03</pdfrwt>
<pdfrwt beam="1">  1       -1 0.35913878E-01 0.32544792E+03</pdfrwt>
<totfact> 0.22853552E+03</totfact>
</mgrwt>
</event>
<event>
 6    1  0.6101889E-006  0.1488648E+03  0.7546771E-02  0.1210795E+00
          2   -1    0    0  501    0  0.00000000000E+00  0.00000000000E+00  0.30210629137E+03  0.30210629137E+03  0.00000000000E+00 0. -1.
         -2   -1    0    0    0  501 -0.00000000000E+00 -0.00000000000E+00 -0.64256295751E+02  0.64256295751E+02  0.00000000000E+00 0.  1.
          5    1    1    2  502    0  0.84142461033E+02 -0.10685265809E+02  0.63412399273E+02  0.10600637262E+03  0.47000000000E+01 0. -1.
         -5    1    1    2    0  502 -0.27781896034E+02 -0.47267783794E+02  0.10662696557E+03  0.11998948670E+03  0.47000000000E+01 0. -1.
        -11    1    1    2    0    0 -0.53148581987E+02  0.44116562630E+02 -0.20237627224E+01  0.69102376813E+02  0.00000000000E+00 0.  1.
         11    1    1    2    0    0 -0.32119830118E+01  0.13836486972E+02  0.69834393495E+02  0.71264350986E+02  0.00000000000E+00 0. -1.
<mgrwt>
<rscale>  0 0.14190005E+03</rscale>
<asrwt>0</asrwt>
<pdfrwt beam="1">  1        2 0.46477890E-01 0.14886485E+03</pdfrwt>
<pdfrwt beam="2">  1       -2 0.98855842E-02 0.14886485E+03</pdfrwt>
<totfact> 0.70287709E+03</totfact>
</mgrwt>
</event>
<event>
 6    1  0.6101889E-006  0.1296936E+03  0.7546771E-02  0.1239586E+00
          3   -1    0    0  501    0  0.00000000000E+00  0.00000000000E+00  0.21836480072E+02  0.21836480072E+02  0.00000000000E+00 0. -1.
         -3   -1    0    0    0  501 -0.00000000000E+00 -0.00000000000E+00 -0.68312081419E+03  0.68312081419E+03  0.00000000000E+00 0.  1.
          5    1    1    2  502    0  0.55943343274E+02 -0.48908875517E+02 -0.22244629232E+03  0.23457659459E+03  0.47000000000E+01 0.  1.
         -5    1    1    2    0  502 -0.28701217160E+02  0.27573958386E+02 -0.33028873742E+02  0.51933414564E+02  0.47000000000E+01 0.  1.
        -11    1    1    2    0    0 -0.59231269199E+02  0.32587077795E+02 -0.24905445895E+03  0.25806662785E+03  0.00000000000E+00 0.  1.
         11    1    1    2    0    0  0.31989143086E+02 -0.11252160664E+02 -0.15675470911E+03  0.16038065726E+03  0.00000000000E+00 0. -1.
<mgrwt>
<rscale>  0 0.12215379E+03</rscale>
<asrwt>0</asrwt>
<pdfrwt beam="1">  1        3 0.33594593E-02 0.12969358E+03</pdfrwt>
<pdfrwt beam="2">  1       -3 0.10509548E+00 0.12969358E+03</pdfrwt>
<totfact> 0.79153781E+02</totfact>
</mgrwt>
</event>
<event>
 6    1  0.6101889E-006  0.1560723E+03  0.7546771E-02  0.1201466E+00
         -1   -1    0    0    0  501 -0.00000000000E+00  0.00000000000E+00  0.15071914950E+03  0.15071914950E+03  0.00000000000E+00 0. -1.
          1   -1    0    0  501    0  0.00000000000E+00 -0.00000000000E+00 -0.26194235194E+03  0.26194235194E+03  0.00000000000E+00 0.  1.
          5    1    1    2  502    0 -0.21891585720E+01 -0.17480239589E+02 -0.10806650500E+03  0.10959384423E+03  0.47000000000E+01 0.  1.
         -5    1    1    2    0  502  0.19644951830E+02  0.10929176179E+03 -0.92878357753E+02  0.14484161234E+03  0.47000000000E+01 0.  1.
        -11    1    1    2    0    0  0.25187001024E+02 -0.64202426282E+01  0.46883937954E+02  0.53606978781E+02  0.00000000000E+00 0.  1.
         11    1    1    2    0    0 -0.42642794283E+02 -0.85391279571E+02  0.42837722362E+02  0.10461906608E+03  0.00000000000E+00 0. -1.
<mgrwt>
<rscale>  0 0.14919497E+03</rscale>
<asrwt>0</asrwt>
<pdfrwt beam="2">  1        1 0.40298823E-01 0.15607230E+03</pdfrwt>
<pdfrwt beam="1">  1       -1 0.23187562E-01 0.15607230E+03</pdfrwt>
<totfact> 0.16204300E+03</totfact>
</mgrwt>
</event>
<event>
 6    1  0.6101889E-006  0.1360325E+03  0.7546771E-02  0.1232193E+00
          1   -1    0    0  501    0  0.00000000000E+00  0.00000000000E+00  0.49724145982E+03  0.49724145982E+03  0.00000000000E+00 0. -1.
         -1   -1    0    0    0  501 -0.00000000000E+00 -0.00000000000E+00 -0.28926176540E+02  0.28926176540E+02  0.00000000000E+00 0.  1.
          5    1    1    2  502    0  0.11401853061E+02  0.38875042338E+02  0.69681413315E+02  0.80739460808E+02  0.47000000000E+01 0. -1.
         -5    1    1    2    0  502 -0.20598575596E+02 -0.91736750705E+02  0.21980227446E+03  0.23911307494E+03  0.47000000000E+01 0. -1.
        -11    1    1    2    0    0  0.27006122754E+02  0.23280913262E+01  0.95225932330E+01  0.28730305555E+02  0.00000000000E+00 0.  1.
         11    1    1    2    0    0 -0.17809400219E+02  0.50533617041E+02  0.16930900227E+03  0.17758479506E+03  0.00000000000E+00 0. -1.
<mgrwt>
<rscale>  0 0.12685841E+03</rscale>
<asrwt>0</asrwt>
<pdfrwt beam="1">  1        1 0.76498680E-01 0.13603249E+03</pdfrwt>
<pdfrwt beam="2">  1       -1 0.44501814E-02 0.13603249E+03</pdfrwt>
<totfact> 0.90985634E+03</totfact>
</mgrwt>
</event>
<event>
 6    1  0.6101889E-006  0.1553957E+03  0.7546771E-02  0.1203568E+00
         -2   -1    0    0    0  501 -0.00000000000E+00  0.00000000000E+00  0.15686268952E+02  0.15686268952E+02  0.00000000000E+00 0.  1.
          2   -1    0    0  501    0  0.00000000000E+00 -0.00000000000E+00 -0.13244078563E+04  0.13244078563E+04  0.00000000000E+00 0. -1.
          5    1    1    2  502    0  0.37238073272E+02  0.82948727150E+02 -0.57791689233E+03  0.58504460504E+03  0.47000000000E+01 0.  1.
         -5    1    1    2    0  502  0.45653532772E+02 -0.42245651205E+02 -0.28416706522E+03  0.29093289786E+03  0.47000000000E+01 0.  1.
        -11    1    1    2    0    0 -0.55658045664E+02  0.65655309196E+01 -0.33731173339E+03  0.34193585616E+03  0.00000000000E+00 0. -1.
         11    1    1    2    0    0 -0.27233560381E+02 -0.47268606864E+02 -0.10932589645E+03  0.12218076624E+03  0.00000000000E+00 0.  1.
<mgrwt>
<rscale>  0 0.14750917E+03</rscale>
<asrwt>0</asrwt>
<pdfrwt beam="2">  1        2 0.20375505E+00 0.15539574E+03</pdfrwt>
<pdfrwt beam="1">  1       -2 0.24132723E-02 0.15539574E+03</pdfrwt>
<totfact> 0.97397192E+03</totfact>
</mgrwt>
</event>
<event>
 6    1  0.6101889E-006  0.1302177E+03  0.7546771E-02  0.1240340E+00
          2   -1    0    0  501    0  0.00000000000E+00  0.00000000000E+00  0.47541702250E+03  0.47541702250E+03  0.00000000000E+00 0. -1.
         -2   -1    0    0    0  501 -0.00000000000E+00 -0.00000000000E+00 -0.28172041002E+02  0.28172041002E+02  0.00000000000E+00 0.  1.
          5    1    1    2  502    0 -0.34652533758E+02 -0.31739305146E+02  0.89147344178E+02  0.10088369819E+03  0.47000000000E+01 0. -1.
         -5    1    1    2    0  502  0.51227754972E+02  0.64267461465E+02  0.19633605401E+03  0.21289557437E+03  0.47000000000E+01 0. -1.
        -11    1    1    2    0    0  0.35235055280E+02 -0.12008169497E+02  0.99587474956E+02  0.10631731008E+03  0.00000000000E+00 0. -1.
         11    1    1    2    0    0 -0.51810276494E+02 -0.20519986822E+02  0.62174108350E+02  0.83492480851E+02  0.00000000000E+00 0.  1.
<mgrwt>
<rscale>  0 0.12168652E+03</rscale>
<asrwt>0</asrwt>
<pdfrwt beam="1">  1        2 0.73141075E-01 0.13021775E+03</pdfrwt>
<pdfrwt beam="2">  1       -2 0.43341605E-02 0.13021775E+03</pdfrwt>
<totfact> 0.15099843E+04</totfact>
</mgrwt>
</event>
<event>
 6    1  0.6101889E-006  0.2717227E+03  0.7546771E-02  0.1102405E+00
         -2   -1    0    0    0  501 -0.00000000000E+00  0.00000000000E+00  0.71631971970E+02  0.71631971970E+02  0.00000000000E+00 0.  1.
          2   -1    0    0  501    0  0.00000000000E+00 -0.00000000000E+00 -0.99939315615E+03  0.99939315615E+03  0.00000000000E+00 0. -1.
          5    1    1    2  502    0 -0.17594968407E+03 -0.11773089933E+02 -0.25751595245E+03  0.31214332083E+03  0.47000000000E+01 0.  1.
         -5    1    1    2    0  502 -0.64858419316E+02  0.26590927159E+02 -0.29929922914E+03  0.30743423773E+03  0.47000000000E+01 0.  1.
        -11    1    1    2    0    0  0.23240431629E+03 -0.84338895164E+01 -0.37404722318E+03  0.44044775160E+03  0.00000000000E+00 0. -1.
         11    1    1    2    0    0  0.84037871003E+01 -0.63839477093E+01  0.31012205911E+01  0.10999817959E+02  0.00000000000E+00 0.  1.
<mgrwt>
<rscale>  0 0.26804327E+03</rscale>
<asrwt>0</asrwt>
<pdfrwt beam="2">  1        2 0.15375279E+00 0.27172266E+03</pdfrwt>
<pdfrwt beam="1">  1       -2 0.11020304E-01 0.27172266E+03</pdfrwt>
<totfact> 0.14918609E+03</totfact>
</mgrwt>
</event>
<event>
 6    1  0.6101889E-006  0.1309094E+03  0.7546771E-02  0.1239748E+00
         -2   -1    0    0    0  501 -0.00000000000E+00  0.00000000000E+00  0.89933102907E+01  0.89933102907E+01  0.00000000000E+00 0.  1.
          2   -1    0    0  501    0  0.00000000000E+00 -0.00000000000E+00 -0.18417221647E+04  0.18417221647E+04  0.00000000000E+00 0. -1.
          5    1    1    2  502    0  0.39008089546E+02  0.71419563006E+02 -0.89044878850E+03  0.89417197449E+03  0.47000000000E+01 0.  1.
         -5    1    1    2    0  502 -0.75042820712E+01 -0.48595576602E+02 -0.54101690357E+03  0.54326717576E+03  0.47000000000E+01 0.  1.
        -11    1    1    2    0    0 -0.25773786092E+02 -0.57897854841E+02 -0.25493307591E+03  0.26269244915E+03  0.00000000000E+00 0.  1.
         11    1    1    2    0    0 -0.57300213830E+01  0.35073868437E+02 -0.14633008639E+03  0.15058387555E+03  0.00000000000E+00 0. -1.
<mgrwt>
<rscale>  0 0.12205327E+03</rscale>
<asrwt>0</asrwt>
<pdfrwt beam="2">  1        2 0.28334141E+00 0.13090945E+03</pdfrwt>
<pdfrwt beam="1">  1       -2 0.13835885E-02 0.13090945E+03</pdfrwt>
<totfact> 0.11669524E+04</totfact>
</mgrwt>
</event>
<event>
 6    1  0.6101889E-006  0.1418393E+03  0.7546771E-02  0.1221274E+00
         -1   -1    0    0    0  501 -0.00000000000E+00  0.00000000000E+00  0.19187464579E+02  0.19187464579E+02  0.00000000000E+00 0.  1.
          1   -1    0    0  501    0  0.00000000000E+00 -0.00000000000E+00 -0.15116116550E+04  0.15116116550E+04  0.00000000000E+00 0. -1.
          5    1    1    2  502    0  0.70330647804E+02  0.52255791473E+02 -0.92507596786E+03  0.92922801512E+03  0.47000000000E+01 0.  1.
         -5    1    1    2    0  502 -0.50157835259E+02  0.11670565132E+02 -0.37112399496E+03  0.37470938094E+03  0.47000000000E+01 0.  1.
        -11    1    1    2    0    0  0.12191980969E+02 -0.77303869596E+02 -0.12467943740E+03  0.14720562069E+03  0.00000000000E+00 0.  1.
         11    1    1    2    0    0 -0.32364793514E+02  0.13377512991E+02 -0.71544790221E+02  0.79656102847E+02  0.00000000000E+00 0. -1.
<mgrwt>
<rscale>  0 0.13425569E+03</rscale>
<asrwt>0</asrwt>
<pdfrwt beam="2">  1        1 0.23255560E+00 0.14183931E+03</pdfrwt>
<pdfrwt beam="1">  1       -1 0.29519181E-02 0.14183931E+03</pdfrwt>
<totfact> 0.27011453E+03</totfact>
</mgrwt>
</event>
<event>
 6    1  0.6101889E-006  0.1357151E+03  0.7546771E-02  0.1228660E+00
          1   -1    0    0  501    0  0.00000000000E+00  0.00000000000E+00  0.43108579915E+03  0.43108579915E+03  0.00000000000E+00 0. -1.
         -1   -1    0    0    0  501 -0.00000000000E+00 -0.00000000000E+00 -0.35657644393E+02  0.35657644393E+02  0.00000000000E+00 0.  1.
          5    1    1    2  502    0  0.66294390258E+02 -0.40229718134E+02  0.12282412012E+03  0.14533145180E+03  0.47000000000E+01 0. -1.
         -5    1    1    2    0  502 -0.87740386227E+01  0.56566249196E+02  0.11288532318E+03  0.12665666383E+03  0.47000000000E+01 0.  1.
        -11    1    1    2    0    0 -0.41884952851E+02 -0.24492506337E+02  0.16829207923E+03  0.17514695565E+03  0.00000000000E+00 0. -1.
         11    1    1    2    0    0 -0.15635398785E+02  0.81559752752E+01 -0.85733677709E+01  0.19608372262E+02  0.00000000000E+00 0.  1.
<mgrwt>
<rscale>  0 0.12919167E+03</rscale>
<asrwt>0</asrwt>
<pdfrwt beam="1">  1        1 0.66320889E-01 0.13571512E+03</pdfrwt>
<pdfrwt beam="2">  1       -1 0.54857917E-02 0.13571512E+03</pdfrwt>
<totfact> 0.80226532E+03</totfact>
</mgrwt>
</event>
<event>
 6    1  0.6101889E-006  0.6038876E+03  0.7546771E-02  0.9897373E-01
          2   -1    0    0  501    0  0.00000000000E+00  0.00000000000E+00  0.13206598695E+04  0.13206598695E+04  0.00000000000E+00 0. -1.
         -2   -1    0    0    0  501 -0.00000000000E+00 -0.00000000000E+00 -0.69033710496E+02  0.69033710496E+02  0.00000000000E+00 0.  1.
          5    1    1    2  502    0  0.13791299600E+02 -0.22749115846E+02  0.11895074899E+03  0.12197988728E+03  0.47000000000E+01 0. -1.
         -5    1    1    2    0  502 -0.16164566266E+03  0.44002024899E+02  0.65281022727E+03  0.67397980777E+03  0.47000000000E+01 0. -1.
        -11    1    1    2    0    0 -0.86183091766E+02  0.53684779616E+02  0.17303587268E+03  0.20062650399E+03  0.00000000000E+00 0.  1.
         11    1    1    2    0    0  0.23403745483E+03 -0.74937688669E+02  0.30682931007E+03  0.39310738096E+03  0.00000000000E+00 0. -1.
<mgrwt>
<rscale>  0 0.60388758E+03</rscale>
<asrwt>0</asrwt>
<pdfrwt beam="1">  1        2 0.20317842E+00 0.60388758E+03</pdfrwt>
<pdfrwt beam="2">  1       -2 0.10620572E-01 0.60388758E+03</pdfrwt>
<totfact> 0.10147034E+03</totfact>
</mgrwt>
</event>
<event>
 6    1  0.6101889E-006  0.1262932E+03  0.7546771E-02  0.1249313E+00
         -1   -1    0    0    0  501 -0.00000000000E+00  0.00000000000E+00  0.46369547831E+02  0.46369547831E+02  0.00000000000E+00 0.  1.
          1   -1    0    0  501    0  0.00000000000E+00 -0.00000000000E+00 -0.31987939747E+03  0.31987939747E+03  0.00000000000E+00 0. -1.
          5    1    1    2  502    0  0.40212568334E+02 -0.32356480642E+02 -0.21223845017E+03  0.21847480913E+03  0.47000000000E+01 0.  1.
         -5    1    1    2    0  502 -0.40625683956E+02  0.14341692350E+02 -0.24346861440E+02  0.49709053485E+02  0.47000000000E+01 0.  1.
        -11    1    1    2    0    0  0.15857977926E+01  0.51708056206E+02 -0.55816443611E+01  0.52032610784E+02  0.00000000000E+00 0.  1.
         11    1    1    2    0    0 -0.11726821704E+01 -0.33693267914E+02 -0.31342893664E+02  0.46032471902E+02  0.00000000000E+00 0. -1.
<mgrwt>
<rscale>  0 0.11630910E+03</rscale>
<asrwt>0</asrwt>
<pdfrwt beam="2">  1        1 0.49212215E-01 0.12629321E+03</pdfrwt>
<pdfrwt beam="1">  1       -1 0.71337766E-02 0.12629321E+03</pdfrwt>
<totfact> 0.78409088E+03</totfact>
</mgrwt>
</event>
<event>
 6    1  0.6101889E-006  0.2466059E+03  0.7546771E-02  0.1117885E+00
         -1   -1    0    0    0  501 -0.00000000000E+00  0.00000000000E+00  0.23200867975E+03  0.23200867975E+03  0.00000000000E+00 0.  1.
          1   -1    0    0  501    0  0.00000000000E+00 -0.00000000000E+00 -0.25067404483E+03  0.25067404483E+03  0.00000000000E+00 0. -1.
          5    1    1    2  502    0 -0.13785449529E+02  0.14059883641E+02 -0.56943684557E+01  0.21029378945E+02  0.47000000000E+01 0. -1.
         -5    1    1    2    0  502  0.22612297735E+03 -0.38900334058E+01 -0.33556153969E+02  0.22868064788E+03  0.47000000000E+01 0. -1.
        -11    1    1    2    0    0 -0.48794904912E+02 -0.37812323819E+02 -0.14566775759E+02  0.63426378850E+02  0.00000000000E+00 0.  1.
         11    1    1    2    0    0 -0.16354262291E+03  0.27642473583E+02  0.35151933108E+02  0.16954631891E+03  0.00000000000E+00 0. -1.
<mgrwt>
<rscale>  0 0.24288653E+03</rscale>
<asrwt>0</asrwt>
<pdfrwt beam="2">  1        1 0.38565237E-01 0.24660595E+03</pdfrwt>
<pdfrwt beam="1">  1       -1 0.35693643E-01 0.24660595E+03</pdfrwt>
<totfact> 0.83289970E+02</totfact>
</mgrwt>
</event>
<event>
 6    1  0.6101889E-006  0.1306391E+03  0.7546771E-02  0.1240229E+00
          1   -1    0    0  501    0  0.00000000000E+00  0.00000000000E+00  0.90867380900E+03  0.90867380900E+03  0.00000000000E+00 0. -1.
         -1   -1    0    0    0  501 -0.00000000000E+00 -0.00000000000E+00 -0.15407266512E+02  0.15407266512E+02  0.00000000000E+00 0.  1.
          5    1    1    2  502    0  0.41888986653E+02  0.39206728832E+02  0.13665605220E+03  0.14828628187E+03  0.47000000000E+01 0. -1.
         -5    1    1    2    0  502 -0.43730121475E+02 -0.13088705456E+01  0.48247841327E+03  0.48448069718E+03  0.47000000000E+01 0. -1.
        -11    1    1    2    0    0 -0.17759563191E+02 -0.46762900545E+02  0.26176252581E+03  0.26649913859E+03  0.00000000000E+00 0. -1.
         11    1    1    2    0    0  0.19600698014E+02  0.88650422591E+01  0.12369551202E+02  0.24814957865E+02  0.00000000000E+00 0.  1.
<mgrwt>
<rscale>  0 0.12175532E+03</rscale>
<asrwt>0</asrwt>
<pdfrwt beam="1">  1        1 0.13979593E+00 0.13063906E+03</pdfrwt>
<pdfrwt beam="2">  1       -1 0.23703494E-02 0.13063906E+03</pdfrwt>
<totfact> 0.96511589E+03</totfact>
</mgrwt>
</event>
<event>
 6    1  0.6101889E-006  0.1699257E+03  0.7546771E-02  0.1184404E+00
          2   -1    0    0  501    0  0.00000000000E+00  0.00000000000E+00  0.73863137382E+02  0.73863137382E+02  0.00000000000E+00 0. -1.
         -2   -1    0    0    0  501 -0.00000000000E+00 -0.00000000000E+00 -0.34015172224E+03  0.34015172224E+03  0.00000000000E+00 0.  1.
          5    1    1    2  502    0 -0.20276400129E+02 -0.45945491244E+02 -0.41271221782E+02  0.65173033650E+02  0.47000000000E+01 0.  1.
         -5    1    1    2    0  502  0.11848366119E+03 -0.14092537348E+02 -0.10789957616E+03  0.16093907578E+03  0.47000000000E+01 0.  1.
        -11    1    1    2    0    0 -0.10206425464E+03  0.77854136751E+02 -0.10658697025E+03  0.16685071445E+03  0.00000000000E+00 0. -1.
         11    1    1    2    0    0  0.38569935786E+01 -0.17816108159E+02 -0.10530816661E+02  0.21052035744E+02  0.00000000000E+00 0.  1.
<mgrwt>
<rscale>  0 0.16386196E+03</rscale>
<asrwt>0</asrwt>
<pdfrwt beam="1">  1        2 0.11363560E-01 0.16992575E+03</pdfrwt>
<pdfrwt beam="2">  1       -2 0.52331034E-01 0.16992575E+03</pdfrwt>
<totfact> 0.18734292E+03</totfact>
</mgrwt>
</event>
<event>
 6    1  0.6101889E-006  0.1322116E+03  0.7546771E-02  0.1238416E+00
          1   -1    0    0  501    0  0.00000000000E+00  0.00000000000E+00  0.33179986907E+02  0.33179986907E+02  0.00000000000E+00 0. -1.
         -1   -1    0    0    0  501 -0.00000000000E+00 -0.00000000000E+00 -0.40748232395E+03  0.40748232395E+03  0.00000000000E+00 0.  1.
          5    1    1    2  502    0  0.46972711297E+02 -0.46685985686E+02 -0.62436836830E+02  0.91139812703E+02  0.47000000000E+01 0. -1.
         -5    1    1    2    0  502 -0.55580610746E+01  0.58496151836E+02 -0.12537006059E+03  0.13853676016E+03  0.47000000000E+01 0. -1.
        -11    1    1    2    0    0 -0.42504337658E+02 -0.45009280492E+02 -0.92597655215E+02  0.11138572530E+03  0.00000000000E+00 0. -1.
         11    1    1    2    0    0  0.10896874357E+01  0.33199114342E+02 -0.93897784403E+02  0.99600012688E+02  0.00000000000E+00 0.  1.
<mgrwt>
<rscale>  0 0.12288275E+03</rscale>
<asrwt>0</asrwt>
<pdfrwt beam="1">  1        1 0.51046134E-02 0.13221156E+03</pdfrwt>
<pdfrwt beam="2">  1       -1 0.62689588E-01 0.13221156E+03</pdfrwt>
<totfact> 0.41267540E+03</totfact>
</mgrwt>
</event>
<event>
 6    1  0.6101889E-006  0.1309013E+03  0.7546771E-02  0.1247618E+00
         -1   -1    0    0    0  501 -0.00000000000E+00  0.00000000000E+00  0.14951602746E+03  0.14951602746E+03  0.00000000000E+00 0.  1.
          1   -1    0    0  501    0  0.00000000000E+00 -0.00000000000E+00 -0.77789892254E+02  0.77789892254E+02  0.00000000000E+00 0. -1.
          5    1    1    2  502    0  0.48899506099E+02  0.22697994626E+02 -0.10328532091E+02  0.55092006969E+02  0.47000000000E+01 0.  1.
         -5    1    1    2    0  502 -0.64212967938E+02  0.12989736779E+02  0.47266016671E+02  0.80920979016E+02  0.47000000000E+01 0.  1.
        -11    1    1    2    0    0  0.24201496629E+02 -0.29684708719E+02  0.55813303826E+02  0.67690614229E+02  0.00000000000E+00 0.  1.
         11    1    1    2    0    0 -0.88880347901E+01 -0.60030226858E+01 -0.21024653198E+02  0.23602319502E+02  0.00000000000E+00 0. -1.
<mgrwt>
<rscale>  0 0.11730044E+03</rscale>
<asrwt>0</asrwt>
<pdfrwt beam="2">  1        1 0.11967676E-01 0.13090132E+03</pdfrwt>
<pdfrwt beam="1">  1       -1 0.23002466E-01 0.13090132E+03</pdfrwt>
<totfact> 0.75959999E+03</totfact>
</mgrwt>
</event>
<event>
 6    1  0.6101889E-006  0.1983061E+03  0.7546771E-02  0.1155561E+00
          2   -1    0    0  501    0  0.00000000000E+00  0.00000000000E+00  0.17068319626E+04  0.17068319626E+04  0.00000000000E+00 0. -1.
         -2   -1    0    0    0  501 -0.00000000000E+00 -0.00000000000E+00 -0.21064619972E+02  0.21064619972E+02  0.00000000000E+00 0.  1.
          5    1    1    2  502    0 -0.19394547363E+02  0.74373371779E+02  0.23068695722E+03  0.24319973093E+03  0.47000000000E+01 0.  1.
         -5    1    1    2    0  502  0.10195150359E+03  0.55563583411E+02  0.56503101393E+03  0.57685661788E+03  0.47000000000E+01 0.  1.
        -11    1    1    2    0    0 -0.10199811527E+03 -0.10348885335E+03  0.69222944089E+03  0.70731545799E+03  0.00000000000E+00 0. -1.
         11    1    1    2    0    0  0.19441159039E+02 -0.26448101837E+02  0.19781993057E+03  0.20052477575E+03  0.00000000000E+00 0.  1.
<mgrwt>
<rscale>  0 0.19325117E+03</rscale>
<asrwt>0</asrwt>
<pdfrwt beam="1">  1        2 0.26258942E+00 0.19830614E+03</pdfrwt>
<pdfrwt beam="2">  1       -2 0.32407121E-02 0.19830614E+03</pdfrwt>
<totfact> 0.39873528E+03</totfact>
</mgrwt>
</event>
<event>
 6    1  0.6101889E-006  0.1280896E+03  0.7546771E-02  0.1244270E+00
          1   -1    0    0  501    0  0.00000000000E+00  0.00000000000E+00  0.30597123511E+03  0.30597123511E+03  0.00000000000E+00 0. -1.
         -1   -1    0    0    0  501 -0.00000000000E+00 -0.00000000000E+00 -0.42248743657E+02  0.42248743657E+02  0.00000000000E+00 0.  1.
          5    1    1    2  502    0 -0.48806189474E+02 -0.13631978935E+01  0.15012614306E+02  0.51296891015E+02  0.47000000000E+01 0.  1.
         -5    1    1    2    0  502  0.32699593711E+02  0.24197082102E+02  0.16265145312E+03  0.16772700264E+03  0.47000000000E+01 0.  1.
        -11    1    1    2    0    0 -0.59153042655E+01 -0.55677531064E+02  0.41986730239E+02  0.69984739809E+02  0.00000000000E+00 0. -1.
         11    1    1    2    0    0  0.22021900028E+02  0.32843646855E+02  0.44071693782E+02  0.59211345301E+02  0.00000000000E+00 0.  1.
<mgrwt>
<rscale>  0 0.11929205E+03</rscale>
<asrwt>0</asrwt>
<pdfrwt beam="1">  1        1 0.47072496E-01 0.12808960E+03</pdfrwt>
<pdfrwt beam="2">  1       -1 0.64998069E-02 0.12808960E+03</pdfrwt>
<totfact> 0.95307872E+03</totfact>
</mgrwt>
</event>
<event>
 6    1  0.6101889E-006  0.4685122E+03  0.7546771E-02  0.1055801E+00
         -2   -1    0    0    0  501 -0.00000000000E+00  0.00000000000E+00  0.95349372509E+02  0.95349372509E+02  0.00000000000E+00 0.  1.
          2   -1    0    0  501    0  0.00000000000E+00 -0.00000000000E+00 -0.14770962068E+04  0.14770962068E+04  0.00000000000E+00 0. -1.
          5    1    1    2  502    0  0.10946476265E+03  0.22361711268E+03 -0.10531132225E+04  0.10821537306E+04  0.47000000000E+01 0. -1.
         -5    1    1    2    0  502  0.29767997236E+02 -0.16549663552E+03 -0.23889398915E+03  0.29217751125E+03  0.47000000000E+01 0.  1.
        -11    1    1    2    0    0 -0.14604861778E+03 -0.44344210998E+02 -0.97276887587E+02  0.18099558189E+03  0.00000000000E+00 0.  1.
         11    1    1    2    0    0  0.68158578891E+01 -0.13776266170E+02  0.75372649387E+01  0.17118755537E+02  0.00000000000E+00 0. -1.
<mgrwt>
<rscale>  0 0.36711593E+03</rscale>
<asrwt>0</asrwt>
<pdfrwt beam="2">  1        2 0.22724556E+00 0.46851225E+03</pdfrwt>
<pdfrwt beam="1">  1       -2 0.14669135E-01 0.46851225E+03</pdfrwt>
<totfact> 0.49067970E+02</totfact>
</mgrwt>
</event>
<event>
 6    1  0.6101889E-006  0.2636848E+03  0.7546771E-02  0.1116454E+00
          1   -1    0    0  501    0  0.00000000000E+00  0.00000000000E+00  0.44865394840E+03  0.44865394840E+03  0.00000000000E+00 0. -1.
         -1   -1    0    0    0  501 -0.00000000000E+00 -0.00000000000E+00 -0.14073976101E+03  0.14073976101E+03  0.00000000000E+00 0.  1.
          5    1    1    2  502    0 -0.17234988516E+03  0.10400557049E+02  0.16452270244E+03  0.23854237384E+03  0.47000000000E+01 0. -1.
         -5    1    1    2    0  502  0.15740616414E+02 -0.86758438729E+02  0.12524169881E+03  0.15323957327E+03  0.47000000000E+01 0.  1.
        -11    1    1    2    0    0  0.15958317943E+03  0.88450893905E+02  0.10003089022E+02  0.18273043966E+03  0.00000000000E+00 0.  1.
         11    1    1    2    0    0 -0.29739106862E+01 -0.12093012224E+02  0.81466971117E+01  0.14881322631E+02  0.00000000000E+00 0. -1.
<mgrwt>
<rscale>  0 0.24507960E+03</rscale>
<asrwt>0</asrwt>
<pdfrwt beam="1">  1        1 0.69023684E-01 0.26368482E+03</pdfrwt>
<pdfrwt beam="2">  1       -1 0.21652271E-01 0.26368482E+03</pdfrwt>
<totfact> 0.92456107E+02</totfact>
</mgrwt>
</event>
<event>
 6    1  0.6101889E-006  0.1481783E+03  0.7546771E-02  0.1218535E+00
         -2   -1    0    0    0  501 -0.00000000000E+00  0.00000000000E+00  0.16728279346E+03  0.16728279346E+03  0.00000000000E+00 0.  1.
          2   -1    0    0  501    0  0.00000000000E+00 -0.00000000000E+00 -0.96949372077E+02  0.96949372077E+02  0.00000000000E+00 0. -1.
          5    1    1    2  502    0 -0.57227521621E+02  0.25062071265E+02 -0.91940965338E+01  0.63322334591E+02  0.47000000000E+01 0. -1.
         -5    1    1    2    0  502  0.56055070212E+02  0.54543860527E+02  0.40203126133E+02  0.88065799085E+02  0.47000000000E+01 0. -1.
        -11    1    1    2    0    0 -0.91686143653E+01 -0.41411725994E+02  0.55707997880E+02  0.70016966279E+02  0.00000000000E+00 0.  1.
         11    1    1    2    0    0  0.10341065775E+02 -0.38194205797E+02 -0.16383606094E+02  0.42827065583E+02  0.00000000000E+00 0. -1.
<mgrwt>
<rscale>  0 0.13620073E+03</rscale>
<asrwt>0</asrwt>
<pdfrwt beam="2">  1        2 0.14915288E-01 0.14817829E+03</pdfrwt>
<pdfrwt beam="1">  1       -2 0.25735814E-01 0.14817829E+03</pdfrwt>
<totfact> 0.50733222E+03</totfact>
</mgrwt>
</event>
<event>
 6    1  0.6101889E-006  0.1329116E+03  0.7546771E-02  0.1235529E+00
          4   -1    0    0  501    0  0.00000000000E+00  0.00000000000E+00  0.25040845131E+03  0.25040845131E+03  0.00000000000E+00 0. -1.
         -4   -1    0    0    0  501 -0.00000000000E+00 -0.00000000000E+00 -0.56368261919E+02  0.56368261919E+02  0.00000000000E+00 0.  1.
          5    1    1    2  502    0 -0.33883257995E+02 -0.29292971537E+02  0.95230558840E+02  0.10534278661E+03  0.47000000000E+01 0.  1.
         -5    1    1    2    0  502 -0.30590934845E+01  0.55287287393E+02 -0.42377829344E+01  0.55732315620E+02  0.47000000000E+01 0.  1.
        -11    1    1    2    0    0  0.61138985865E+01 -0.38680746409E+02  0.19054125820E+01  0.39207276057E+02  0.00000000000E+00 0.  1.
         11    1    1    2    0    0  0.30828452893E+02  0.12686430553E+02  0.10114200090E+03  0.10649433494E+03  0.00000000000E+00 0. -1.
<mgrwt>
<rscale>  0 0.12470609E+03</rscale>
<asrwt>0</asrwt>
<pdfrwt beam="1">  1        4 0.38524377E-01 0.13291164E+03</pdfrwt>
<pdfrwt beam="2">  1       -4 0.86720404E-02 0.13291164E+03</pdfrwt>
<totfact> 0.10391889E+03</totfact>
</mgrwt>
</event>
<event>
 6    1  0.6101889E-006  0.1372569E+03  0.7546771E-02  0.1229026E+00
         -4   -1    0    0    0  501 -0.00000000000E+00  0.00000000000E+00  0.36805075671E+02  0.36805075671E+02  0.00000000000E+00 0.  1.
          4   -1    0    0  501    0  0.00000000000E+00 -0.00000000000E+00 -0.43407991423E+03  0.43407991423E+03  0.00000000000E+00 0. -1.
          5    1    1    2  502    0  0.32150388549E+02 -0.17578184200E+02 -0.18632583998E+03  0.18995275383E+03  0.47000000000E+01 0.  1.
         -5    1    1    2    0  502 -0.25754700514E+02  0.73911032839E+02 -0.95862649613E+02  0.12384620690E+03  0.47000000000E+01 0.  1.
        -11    1    1    2    0    0  0.82606811511E+01 -0.34152228119E+02  0.37274273146E+01  0.35334222122E+02  0.00000000000E+00 0.  1.
         11    1    1    2    0    0 -0.14656369186E+02 -0.22180620519E+02 -0.11881377628E+03  0.12175180705E+03  0.00000000000E+00 0. -1.
<mgrwt>
<rscale>  0 0.12894716E+03</rscale>
<asrwt>0</asrwt>
<pdfrwt beam="2">  1        4 0.66781528E-01 0.13725685E+03</pdfrwt>
<pdfrwt beam="1">  1       -4 0.56623191E-02 0.13725685E+03</pdfrwt>
<totfact> 0.68421275E+02</totfact>
</mgrwt>
</event>
<event>
 6    1  0.6101889E-006  0.1331860E+03  0.7546771E-02  0.1235078E+00
         -1   -1    0    0    0  501 -0.00000000000E+00  0.00000000000E+00  0.17882123852E+03  0.17882123852E+03  0.00000000000E+00 0.  1.
          1   -1    0    0  501    0  0.00000000000E+00 -0.00000000000E+00 -0.82191471186E+02  0.82191471186E+02  0.00000000000E+00 0. -1.
          5    1    1    2  502    0  0.44234438237E+01 -0.87683688561E+02  0.77525617972E+01  0.88262043424E+02  0.47000000000E+01 0.  1.
         -5    1    1    2    0  502 -0.11121823603E+02  0.42180174766E+02  0.17828865589E+02  0.47358426407E+02  0.47000000000E+01 0.  1.
        -11    1    1    2    0    0  0.20157924457E+02  0.16109036205E+02  0.85989111371E+02  0.89777337008E+02  0.00000000000E+00 0.  1.
         11    1    1    2    0    0 -0.13459544678E+02  0.29394477590E+02 -0.14940771421E+02  0.35614902869E+02  0.00000000000E+00 0. -1.
<mgrwt>
<rscale>  0 0.12499470E+03</rscale>
<asrwt>0</asrwt>
<pdfrwt beam="2">  1        1 0.12644842E-01 0.13318597E+03</pdfrwt>
<pdfrwt beam="1">  1       -1 0.27510960E-01 0.13318597E+03</pdfrwt>
<totfact> 0.52738638E+03</totfact>
</mgrwt>
</event>
<event>
 6    1  0.6101889E-006  0.1965492E+03  0.7546771E-02  0.1183114E+00
          1   -1    0    0  501    0  0.00000000000E+00  0.00000000000E+00  0.25285027883E+04  0.25285027883E+04  0.00000000000E+00 0. -1.
         -1   -1    0    0    0  501 -0.00000000000E+00 -0.00000000000E+00 -0.16009468611E+02  0.16009468611E+02  0.00000000000E+00 0.  1.
          5    1    1    2  502    0 -0.43183561511E+02 -0.83899777504E+02  0.18838035290E+04  0.18861712061E+04  0.47000000000E+01 0. -1.
         -5    1    1    2    0  502  0.53069356092E+02  0.49071731573E+02  0.43922034683E+03  0.44515277654E+03  0.47000000000E+01 0.  1.
        -11    1    1    2    0    0 -0.27646651461E+02  0.54454569818E+02  0.16909462873E+03  0.17978495759E+03  0.00000000000E+00 0.  1.
         11    1    1    2    0    0  0.17760856880E+02 -0.19626523887E+02  0.20374815133E+02  0.33403316732E+02  0.00000000000E+00 0. -1.
<mgrwt>
<rscale>  0 0.16504680E+03</rscale>
<asrwt>0</asrwt>
<pdfrwt beam="1">  1        1 0.38900011E+00 0.19654919E+03</pdfrwt>
<pdfrwt beam="2">  1       -1 0.24629972E-02 0.19654919E+03</pdfrwt>
<totfact> 0.77429654E+02</totfact>
</mgrwt>
</event>
<event>
 6    1  0.6101889E-006  0.1287722E+03  0.7546771E-02  0.1244890E+00
          4   -1    0    0  501    0  0.00000000000E+00  0.00000000000E+00  0.26400084573E+03  0.26400084573E+03  0.00000000000E+00 0. -1.
         -4   -1    0    0    0  501 -0.00000000000E+00 -0.00000000000E+00 -0.54827209227E+02  0.54827209227E+02  0.00000000000E+00 0.  1.
          5    1    1    2  502    0 -0.13031039344E+02 -0.10005998077E+02 -0.13925394425E+02  0.22043924193E+02  0.47000000000E+01 0. -1.
         -5    1    1    2    0  502  0.43134900640E+02  0.17159031786E+02  0.19277135930E+03  0.19833794139E+03  0.47000000000E+01 0. -1.
        -11    1    1    2    0    0  0.21407828386E+01 -0.14839626174E+02 -0.27768957455E+02  0.31558080649E+02  0.00000000000E+00 0.  1.
         11    1    1    2    0    0 -0.32244644134E+02  0.76865924654E+01  0.58096629084E+02  0.66888108733E+02  0.00000000000E+00 0. -1.
<mgrwt>
<rscale>  0 0.11891956E+03</rscale>
<asrwt>0</asrwt>
<pdfrwt beam="1">  1        4 0.40615514E-01 0.12877223E+03</pdfrwt>
<pdfrwt beam="2">  1       -4 0.84349554E-02 0.12877223E+03</pdfrwt>
<totfact> 0.97427528E+02</totfact>
</mgrwt>
</event>
<event>
 6    1  0.6101889E-006  0.1799303E+03  0.7546771E-02  0.1173393E+00
          2   -1    0    0  501    0  0.00000000000E+00  0.00000000000E+00  0.13163971613E+03  0.13163971613E+03  0.00000000000E+00 0. -1.
         -2   -1    0    0    0  501 -0.00000000000E+00 -0.00000000000E+00 -0.23678077467E+03  0.23678077467E+03  0.00000000000E+00 0.  1.
          5    1    1    2  502    0 -0.31477413477E+02  0.38069686038E+02 -0.39321768275E+02  0.63312084269E+02  0.47000000000E+01 0. -1.
         -5    1    1    2    0  502  0.70938291823E+02  0.85195865443E+02  0.35977605855E+02  0.11664928143E+03  0.47000000000E+01 0. -1.
        -11    1    1    2    0    0 -0.32981937616E+02 -0.47867564224E+02 -0.96426465292E+02  0.11259296214E+03  0.00000000000E+00 0.  1.
         11    1    1    2    0    0 -0.64789407298E+01 -0.75397987258E+02 -0.53704308238E+01  0.75866162963E+02  0.00000000000E+00 0. -1.
<mgrwt>
<rscale>  0 0.17434303E+03</rscale>
<asrwt>0</asrwt>
<pdfrwt beam="1">  1        2 0.20252264E-01 0.17993029E+03</pdfrwt>
<pdfrwt beam="2">  1       -2 0.36427811E-01 0.17993029E+03</pdfrwt>
<totfact> 0.19168243E+03</totfact>
</mgrwt>
</event>
<event>
 6    1  0.6101889E-006  0.1419140E+03  0.7546771E-02  0.1223245E+00
          3   -1    0    0  501    0  0.00000000000E+00  0.00000000000E+00  0.35943177651E+03  0.35943177651E+03  0.00000000000E+00 0. -1.
         -3   -1    0    0    0  501 -0.00000000000E+00 -0.00000000000E+00 -0.43856683433E+02  0.43856683433E+02  0.00000000000E+00 0.  1.
          5    1    1    2  502    0 -0.83314476277E+02  0.36271447593E+02  0.79578754466E+02  0.12087922911E+03  0.47000000000E+01 0.  1.
         -5    1    1    2    0  502  0.16132360169E+02 -0.35113577237E+02  0.10476077892E+03  0.11175923743E+03  0.47000000000E+01 0.  1.
        -11    1    1    2    0    0  0.71497034992E+02 -0.23676850467E+02  0.12652163900E+03  0.14724178889E+03  0.00000000000E+00 0. -1.
         11    1    1    2    0    0 -0.43149188839E+01  0.22518980112E+02  0.47139206909E+01  0.23408204513E+02  0.00000000000E+00 0.  1.
<mgrwt>
<rscale>  0 0.13287896E+03</rscale>
<asrwt>0</asrwt>
<pdfrwt beam="1">  1        3 0.55297194E-01 0.14191403E+03</pdfrwt>
<pdfrwt beam="2">  1       -3 0.67471823E-02 0.14191403E+03</pdfrwt>
<totfact> 0.10654736E+03</totfact>
</mgrwt>
</event>
<event>
 6    1  0.6101889E-006  0.1422608E+03  0.7546771E-02  0.1218926E+00
          3   -1    0    0  501    0  0.00000000000E+00  0.00000000000E+00  0.78856006863E+02  0.78856006863E+02  0.00000000000E+00 0. -1.
         -3   -1    0    0    0  501 -0.00000000000E+00 -0.00000000000E+00 -0.22139290052E+03  0.22139290052E+03  0.00000000000E+00 0.  1.
          5    1    1    2  502    0 -0.60132971364E+02 -0.19663849928E+02 -0.43930945442E+02  0.77166438343E+02  0.47000000000E+01 0. -1.
         -5    1    1    2    0  502  0.16948236689E+02  0.72090202749E+02 -0.95574971900E+01  0.74817616988E+02  0.47000000000E+01 0. -1.
        -11    1    1    2    0    0  0.69402764466E+02 -0.42163345185E+02 -0.88490177083E+02  0.12010413329E+03  0.00000000000E+00 0.  1.
         11    1    1    2    0    0 -0.26218029790E+02 -0.10263007636E+02 -0.55827394645E+00  0.28160718770E+02  0.00000000000E+00 0. -1.
<mgrwt>
<rscale>  0 0.13592035E+03</rscale>
<asrwt>0</asrwt>
<pdfrwt beam="1">  1        3 0.12131693E-01 0.14226082E+03</pdfrwt>
<pdfrwt beam="2">  1       -3 0.34060446E-01 0.14226082E+03</pdfrwt>
<totfact> 0.10472514E+03</totfact>
</mgrwt>
</event>
<event>
 6    1  0.6101889E-006  0.1385837E+03  0.7546771E-02  0.1226582E+00
         -1   -1    0    0    0  501 -0.00000000000E+00  0.00000000000E+00  0.14641025817E+03  0.14641025817E+03  0.00000000000E+00 0.  1.
          1   -1    0    0  501    0  0.00000000000E+00 -0.00000000000E+00 -0.16342808096E+03  0.16342808096E+03  0.00000000000E+00 0. -1.
          5    1    1    2  502    0  0.30955119671E+02  0.37930676843E+02 -0.58029366223E+02  0.76068738808E+02  0.47000000000E+01 0. -1.
         -5    1    1    2    0  502 -0.84396923909E+02 -0.11149128340E+02 -0.43419224681E+02  0.95678957456E+02  0.47000000000E+01 0. -1.
        -11    1    1    2    0    0 -0.21516497957E+02  0.12229851057E+02  0.18006005523E+02  0.30606293080E+02  0.00000000000E+00 0.  1.
         11    1    1    2    0    0  0.74958302195E+02 -0.39011399560E+02  0.66424762588E+02  0.10748434978E+03  0.00000000000E+00 0. -1.
<mgrwt>
<rscale>  0 0.13059060E+03</rscale>
<asrwt>0</asrwt>
<pdfrwt beam="2">  1        1 0.25142782E-01 0.13858375E+03</pdfrwt>
<pdfrwt beam="1">  1       -1 0.22524655E-01 0.13858375E+03</pdfrwt>
<totfact> 0.30439591E+03</totfact>
</mgrwt>
</event>
<event>
 6    1  0.6101889E-006  0.1351732E+03  0.7546771E-02  0.1231380E+00
         -2   -1    0    0    0  501 -0.00000000000E+00  0.00000000000E+00  0.16233006251E+02  0.16233006251E+02  0.00000000000E+00 0.  1.
          2   -1    0    0  501    0  0.00000000000E+00 -0.00000000000E+00 -0.91943876549E+03  0.91943876549E+03  0.00000000000E+00 0. -1.
          5    1    1    2  502    0 -0.70909252412E+02  0.10248360677E+02 -0.42550706985E+03  0.43152231398E+03  0.47000000000E+01 0.  1.
         -5    1    1    2    0  502  0.42802753135E+02  0.32839948638E+02 -0.14507640291E+03  0.15485409450E+03  0.47000000000E+01 0.  1.
        -11    1    1    2    0    0 -0.21557183653E+02 -0.11254685896E+02 -0.20975429632E+02  0.32114619255E+02  0.00000000000E+00 0.  1.
         11    1    1    2    0    0  0.49663682930E+02 -0.31833623419E+02 -0.31164685685E+03  0.31718074400E+03  0.00000000000E+00 0. -1.
<mgrwt>
<rscale>  0 0.12739031E+03</rscale>
<asrwt>0</asrwt>
<pdfrwt beam="2">  1        2 0.14145215E+00 0.13517320E+03</pdfrwt>
<pdfrwt beam="1">  1       -2 0.24973851E-02 0.13517320E+03</pdfrwt>
<totfact> 0.15688933E+04</totfact>
</mgrwt>
</event>
<event>
 6    1  0.6101889E-006  0.1281384E+03  0.7546771E-02  0.1244324E+00
          2   -1    0    0  501    0  0.00000000000E+00  0.00000000000E+00  0.13284316735E+04  0.13284316735E+04  0.00000000000E+00 0.  1.
         -2   -1    0    0    0  501 -0.00000000000E+00 -0.00000000000E+00 -0.12308858551E+02  0.12308858551E+02  0.00000000000E+00 0. -1.
          5    1    1    2  502    0  0.12180894782E+02 -0.60689574723E+02  0.53612052168E+03  0.53970260556E+03  0.47000000000E+01 0.  1.
         -5    1    1    2    0  502  0.15759462659E+02  0.63810322837E+02  0.51373704348E+03  0.51794590239E+03  0.47000000000E+01 0.  1.
        -11    1    1    2    0    0  0.77070885483E+01 -0.42403827708E+02  0.11981655001E+03  0.12733220124E+03  0.00000000000E+00 0.  1.
         11    1    1    2    0    0 -0.35647445989E+02  0.39283079594E+02  0.14644869975E+03  0.15575982283E+03  0.00000000000E+00 0. -1.
<mgrwt>
<rscale>  0 0.11925910E+03</rscale>
<asrwt>0</asrwt>
<pdfrwt beam="1">  1        2 0.20437399E+00 0.12813844E+03</pdfrwt>
<pdfrwt beam="2">  1       -2 0.18936716E-02 0.12813844E+03</pdfrwt>
<totfact> 0.13662980E+04</totfact>
</mgrwt>
</event>
<event>
 6    1  0.6101889E-006  0.1370798E+03  0.7546771E-02  0.1228956E+00
          1   -1    0    0  501    0  0.00000000000E+00  0.00000000000E+00  0.11212588872E+04  0.11212588872E+04  0.00000000000E+00 0. -1.
         -1   -1    0    0    0  501 -0.00000000000E+00 -0.00000000000E+00 -0.18196009505E+02  0.18196009505E+02  0.00000000000E+00 0.  1.
          5    1    1    2  502    0  0.45470239615E+02  0.78950805436E+02  0.77164452691E+03  0.77701875027E+03  0.47000000000E+01 0.  1.
         -5    1    1    2    0  502 -0.13976051253E+02 -0.32325439273E+02  0.12164989422E+03  0.12673220111E+03  0.47000000000E+01 0.  1.
        -11    1    1    2    0    0 -0.48370211749E+02 -0.64268427161E+02  0.13607243676E+03  0.15806902340E+03  0.00000000000E+00 0.  1.
         11    1    1    2    0    0  0.16876023387E+02  0.17643060999E+02  0.73696019843E+02  0.77634921958E+02  0.00000000000E+00 0. -1.
<mgrwt>
<rscale>  0 0.12899397E+03</rscale>
<asrwt>0</asrwt>
<pdfrwt beam="1">  1        1 0.17250131E+00 0.13707976E+03</pdfrwt>
<pdfrwt beam="2">  1       -1 0.27993870E-02 0.13707976E+03</pdfrwt>
<totfact> 0.53206466E+03</totfact>
</mgrwt>
</event>
<event>
 6    1  0.6101889E-006  0.2357094E+03  0.7546771E-02  0.1122685E+00
          3   -1    0    0  501    0  0.00000000000E+00  0.00000000000E+00  0.98950040427E+02  0.98950040427E+02  0.00000000000E+00 0. -1.
         -3   -1    0    0    0  501 -0.00000000000E+00 -0.00000000000E+00 -0.14037117822E+03  0.14037117822E+03  0.00000000000E+00 0.  1.
          5    1    1    2  502    0  0.89655678619E+01 -0.22262433558E+02 -0.51958657352E+02  0.57426382690E+02  0.47000000000E+01 0. -1.
         -5    1    1    2    0  502 -0.94425750835E+00  0.34784525969E+01  0.70311312412E+02  0.70560342317E+02  0.47000000000E+01 0. -1.
        -11    1    1    2    0    0 -0.25939169087E+02  0.10783262363E+02  0.16498830605E+02  0.32578070100E+02  0.00000000000E+00 0. -1.
         11    1    1    2    0    0  0.17917858734E+02  0.80007185984E+01 -0.76272623462E+02  0.78756423544E+02  0.00000000000E+00 0.  1.
<mgrwt>
<rscale>  0 0.23570943E+03</rscale>
<asrwt>0</asrwt>
<pdfrwt beam="1">  1        3 0.15223083E-01 0.23570943E+03</pdfrwt>
<pdfrwt beam="2">  1       -3 0.21595566E-01 0.23570943E+03</pdfrwt>
<totfact> 0.17699491E+03</totfact>
</mgrwt>
</event>
<event>
 6    1  0.1278256E-005  0.3038242E+03  0.7546771E-02  0.1084872E+00
          2   -1    0    0  501    0  0.00000000000E+00  0.00000000000E+00  0.19428296156E+04  0.19428296156E+04  0.00000000000E+00 0. -1.
         -2   -1    0    0    0  501 -0.00000000000E+00 -0.00000000000E+00 -0.46977763792E+02  0.46977763792E+02  0.00000000000E+00 0.  1.
          5    1    1    2  502    0  0.10007689030E+03  0.22257095985E+03  0.89548013731E+03  0.92814868553E+03  0.47000000000E+01 0.  1.
         -5    1    1    2    0  502 -0.36369692617E+02  0.46920186711E+02  0.23968956307E+03  0.24697658817E+03  0.47000000000E+01 0.  1.
        -11    1    1    2    0    0 -0.28640253486E+02 -0.18542422310E+03  0.38734183788E+03  0.43039064349E+03  0.00000000000E+00 0.  1.
         11    1    1    2    0    0 -0.35066944200E+02 -0.84066923458E+02  0.37334031359E+03  0.38429146224E+03  0.00000000000E+00 0. -1.
<mgrwt>
<rscale>  0 0.30073820E+03</rscale>
<asrwt>0</asrwt>
<pdfrwt beam="1">  1        2 0.29889680E+00 0.30382423E+03</pdfrwt>
<pdfrwt beam="2">  1       -2 0.72273498E-02 0.30382423E+03</pdfrwt>
<totfact> 0.87980976E+02</totfact>
</mgrwt>
</event>
<event>
 6    1  0.6101889E-006  0.1349238E+03  0.7546771E-02  0.1231422E+00
          1   -1    0    0  501    0  0.00000000000E+00  0.00000000000E+00  0.78161469504E+03  0.78161469504E+03  0.00000000000E+00 0. -1.
         -1   -1    0    0    0  501 -0.00000000000E+00 -0.00000000000E+00 -0.19114680896E+02  0.19114680896E+02  0.00000000000E+00 0.  1.
          5    1    1    2  502    0  0.82683668866E+02 -0.95434351420E+00  0.31718076481E+03  0.32781584378E+03  0.47000000000E+01 0. -1.
         -5    1    1    2    0  502 -0.41297214080E+02  0.30495445607E+02  0.16267803902E+03  0.17065071483E+03  0.47000000000E+01 0. -1.
        -11    1    1    2    0    0  0.91316149435E+01 -0.42874521976E+02  0.19799820973E+03  0.20279275649E+03  0.00000000000E+00 0. -1.
         11    1    1    2    0    0 -0.50518069730E+02  0.13333419883E+02  0.84643000577E+02  0.99470060831E+02  0.00000000000E+00 0.  1.
<mgrwt>
<rscale>  0 0.12736318E+03</rscale>
<asrwt>0</asrwt>
<pdfrwt beam="1">  1        1 0.12024839E+00 0.13492382E+03</pdfrwt>
<pdfrwt beam="2">  1       -1 0.29407207E-02 0.13492382E+03</pdfrwt>
<totfact> 0.89221694E+03</totfact>
</mgrwt>
</event>
<event>
 6    1  0.6101889E-006  0.1688800E+03  0.7546771E-02  0.1187197E+00
         -1   -1    0    0    0  501 -0.00000000000E+00  0.00000000000E+00  0.64890348617E+02  0.64890348617E+02  0.00000000000E+00 0.  1.
          1   -1    0    0  501    0  0.00000000000E+00 -0.00000000000E+00 -0.43957719093E+03  0.43957719093E+03  0.00000000000E+00 0. -1.
          5    1    1    2  502    0  0.15710842937E+02 -0.50997023960E+02 -0.14753209985E+03  0.15695648290E+03  0.47000000000E+01 0.  1.
         -5    1    1    2    0  502 -0.10783595136E+03 -0.15397777866E+02 -0.15475488511E+03  0.18930622926E+03  0.47000000000E+01 0.  1.
        -11    1    1    2    0    0  0.51604697230E+02  0.47678386725E+02 -0.86461045030E+02  0.11140819379E+03  0.00000000000E+00 0. -1.
         11    1    1    2    0    0  0.40520411190E+02  0.18716415102E+02  0.14061187676E+02  0.46796633599E+02  0.00000000000E+00 0.  1.
<mgrwt>
<rscale>  0 0.16133596E+03</rscale>
<asrwt>0</asrwt>
<pdfrwt beam="2">  1        1 0.67627259E-01 0.16887997E+03</pdfrwt>
<pdfrwt beam="1">  1       -1 0.99831307E-02 0.16887997E+03</pdfrwt>
<totfact> 0.32084260E+03</totfact>
</mgrwt>
</event>
<event>
 6    1  0.6101889E-006  0.1361005E+03  0.7546771E-02  0.1228239E+00
          2   -1    0    0  501    0  0.00000000000E+00  0.00000000000E+00  0.23398961508E+03  0.23398961508E+03  0.00000000000E+00 0. -1.
         -2   -1    0    0    0  501 -0.00000000000E+00 -0.00000000000E+00 -0.66722518106E+02  0.66722518106E+02  0.00000000000E+00 0.  1.
          5    1    1    2  502    0 -0.54930193997E+02 -0.39321491412E+02  0.77049504855E+02  0.10257788308E+03  0.47000000000E+01 0. -1.
         -5    1    1    2    0  502  0.63224868174E+02 -0.13870974301E+02  0.35139041142E+02  0.73801287903E+02  0.47000000000E+01 0. -1.
        -11    1    1    2    0    0  0.36199996946E+02  0.40566975063E+02  0.26721561293E+01  0.54435830691E+02  0.00000000000E+00 0. -1.
         11    1    1    2    0    0 -0.44494671123E+02  0.12625490650E+02  0.52406394851E+02  0.69897131514E+02  0.00000000000E+00 0.  1.
<mgrwt>
<rscale>  0 0.12947382E+03</rscale>
<asrwt>0</asrwt>
<pdfrwt beam="1">  1        2 0.35998402E-01 0.13610049E+03</pdfrwt>
<pdfrwt beam="2">  1       -2 0.10265003E-01 0.13610049E+03</pdfrwt>
<totfact> 0.86418372E+03</totfact>
</mgrwt>
</event>
<event>
 6    1  0.6101889E-006  0.1396938E+03  0.7546771E-02  0.1224365E+00
         -2   -1    0    0    0  501 -0.00000000000E+00  0.00000000000E+00  0.91916254910E+02  0.91916254910E+02  0.00000000000E+00 0.  1.
          2   -1    0    0  501    0  0.00000000000E+00 -0.00000000000E+00 -0.34151957883E+03  0.34151957883E+03  0.00000000000E+00 0. -1.
          5    1    1    2  502    0 -0.25990549187E+02  0.11355681953E+02 -0.20017579046E+03  0.20222981295E+03  0.47000000000E+01 0.  1.
         -5    1    1    2    0  502  0.24076849017E+02 -0.73688230810E+02 -0.83857467776E+02  0.11429704686E+03  0.47000000000E+01 0.  1.
        -11    1    1    2    0    0 -0.23817106693E+02 -0.34566493213E+01  0.39317089139E+02  0.46098118119E+02  0.00000000000E+00 0.  1.
         11    1    1    2    0    0  0.25730806863E+02  0.65789198178E+02 -0.48871548229E+01  0.70810855813E+02  0.00000000000E+00 0. -1.
<mgrwt>
<rscale>  0 0.13210512E+03</rscale>
<asrwt>0</asrwt>
<pdfrwt beam="2">  1        2 0.52541475E-01 0.13969381E+03</pdfrwt>
<pdfrwt beam="1">  1       -2 0.14140962E-01 0.13969381E+03</pdfrwt>
<totfact> 0.34706194E+03</totfact>
</mgrwt>
</event>
<event>
 6    1  0.6101889E-006  0.2304034E+03  0.7546771E-02  0.1129374E+00
          1   -1    0    0  501    0  0.00000000000E+00  0.00000000000E+00  0.11643725063E+04  0.11643725063E+04  0.00000000000E+00 0. -1.
         -1   -1    0    0    0  501 -0.00000000000E+00 -0.00000000000E+00 -0.42538779851E+02  0.42538779851E+02  0.00000000000E+00 0.  1.
          5    1    1    2  502    0 -0.12961255956E+03  0.15732075836E+03  0.50419732058E+03  0.54386235822E+03  0.47000000000E+01 0.  1.
         -5    1    1    2    0  502 -0.59829121388E+01 -0.19279721886E+02  0.11413548381E+03  0.11600216195E+03  0.47000000000E+01 0.  1.
        -11    1    1    2    0    0  0.73128604478E+02 -0.28524437620E+02  0.27600575841E+03  0.28695054454E+03  0.00000000000E+00 0. -1.
         11    1    1    2    0    0  0.62466867216E+02 -0.10951659885E+03  0.22749516364E+03  0.26009622143E+03  0.00000000000E+00 0.  1.
<mgrwt>
<rscale>  0 0.22615801E+03</rscale>
<asrwt>0</asrwt>
<pdfrwt beam="1">  1        1 0.17913421E+00 0.23040340E+03</pdfrwt>
<pdfrwt beam="2">  1       -1 0.65444285E-02 0.23040340E+03</pdfrwt>
<totfact> 0.14218985E+03</totfact>
</mgrwt>
</event>
<event>
 6    1  0.6101889E-006  0.5220246E+03  0.7546771E-02  0.1008185E+00
         -1   -1    0    0    0  501 -0.00000000000E+00  0.00000000000E+00  0.29064832646E+03  0.29064832646E+03  0.00000000000E+00 0.  1.
          1   -1    0    0  501    0  0.00000000000E+00 -0.00000000000E+00 -0.23439810800E+03  0.23439810800E+03  0.00000000000E+00 0. -1.
          5    1    1    2  502    0 -0.92190276650E+01 -0.41509825989E+02 -0.33496244642E+02  0.54333640867E+02  0.47000000000E+01 0. -1.
         -5    1    1    2    0  502  0.13454131407E+03  0.15858884723E+02 -0.13869799515E+03  0.19393837494E+03  0.47000000000E+01 0. -1.
        -11    1    1    2    0    0 -0.91796343667E+02 -0.20603122772E+02  0.10644129120E+03  0.14205916321E+03  0.00000000000E+00 0. -1.
         11    1    1    2    0    0 -0.33525942735E+02  0.46254064038E+02  0.12200316706E+03  0.13471525544E+03  0.00000000000E+00 0.  1.
<mgrwt>
<rscale>  0 0.52202459E+03</rscale>
<asrwt>0</asrwt>
<pdfrwt beam="2">  1        1 0.36061247E-01 0.52202459E+03</pdfrwt>
<pdfrwt beam="1">  1       -1 0.44715127E-01 0.52202459E+03</pdfrwt>
<totfact> 0.60492845E+02</totfact>
</mgrwt>
</event>
<event>
 6    1  0.6101889E-006  0.1641085E+03  0.7546771E-02  0.1191328E+00
          2   -1    0    0  501    0  0.00000000000E+00  0.00000000000E+00  0.67475394981E+03  0.67475394981E+03  0.00000000000E+00 0. -1.
         -2   -1    0    0    0  501 -0.00000000000E+00 -0.00000000000E+00 -0.39286191848E+02  0.39286191848E+02  0.00000000000E+00 0.  1.
          5    1    1    2  502    0 -0.47781336654E+02  0.44975117070E+01  0.27141817457E+03  0.27566864027E+03  0.47000000000E+01 0.  1.
         -5    1    1    2    0  502 -0.60880311632E+00 -0.99181409499E+02  0.19590714143E+03  0.21963383322E+03  0.47000000000E+01 0.  1.
        -11    1    1    2    0    0 -0.43423490560E+01  0.27112287656E+02 -0.27093782247E+01  0.27591173727E+02  0.00000000000E+00 0.  1.
         11    1    1    2    0    0  0.52732488826E+02  0.67571610136E+02  0.17085182019E+03  0.19114649444E+03  0.00000000000E+00 0. -1.
<mgrwt>
<rscale>  0 0.15769175E+03</rscale>
<asrwt>0</asrwt>
<pdfrwt beam="1">  1        2 0.10380829E+00 0.16410847E+03</pdfrwt>
<pdfrwt beam="2">  1       -2 0.60440300E-02 0.16410847E+03</pdfrwt>
<totfact> 0.62536019E+03</totfact>
</mgrwt>
</event>
<event>
 6    1  0.6101889E-006  0.1251910E+03  0.7546771E-02  0.1250402E+00
          1   -1    0    0  501    0  0.00000000000E+00  0.00000000000E+00  0.17679753523E+03  0.17679753523E+03  0.00000000000E+00 0. -1.
         -1   -1    0    0    0  501 -0.00000000000E+00 -0.00000000000E+00 -0.73470206382E+02  0.73470206382E+02  0.00000000000E+00 0.  1.
          5    1    1    2  502    0  0.30211820465E+02  0.15748437322E+02  0.11171104680E+03  0.11688547964E+03  0.47000000000E+01 0. -1.
         -5    1    1    2    0  502 -0.36793618466E+02 -0.13758768724E+02 -0.13954760648E+02  0.41951155185E+02  0.47000000000E+01 0. -1.
        -11    1    1    2    0    0 -0.36529303563E+02  0.68262458761E+01 -0.18242077226E+02  0.41397596948E+02  0.00000000000E+00 0.  1.
         11    1    1    2    0    0  0.43111101564E+02 -0.88159144740E+01  0.23813119917E+02  0.50033509833E+02  0.00000000000E+00 0. -1.
<mgrwt>
<rscale>  0 0.11567816E+03</rscale>
<asrwt>0</asrwt>
<pdfrwt beam="1">  1        1 0.27199621E-01 0.12519099E+03</pdfrwt>
<pdfrwt beam="2">  1       -1 0.11303109E-01 0.12519099E+03</pdfrwt>
<totfact> 0.81233147E+03</totfact>
</mgrwt>
</event>
<event>
 6    1  0.6101889E-006  0.1500034E+03  0.7546771E-02  0.1209745E+00
          2   -1    0    0  501    0  0.00000000000E+00  0.00000000000E+00  0.19456954893E+03  0.19456954893E+03  0.00000000000E+00 0. -1.
         -2   -1    0    0    0  501 -0.00000000000E+00 -0.00000000000E+00 -0.11228511519E+03  0.11228511519E+03  0.00000000000E+00 0.  1.
          5    1    1    2  502    0 -0.32668150195E+02  0.20813327779E+02 -0.24641183775E+02  0.46148462469E+02  0.47000000000E+01 0.  1.
         -5    1    1    2    0  502 -0.26643762639E+02  0.37118987330E+02  0.12806570668E+03  0.13605375605E+03  0.47000000000E+01 0.  1.
        -11    1    1    2    0    0 -0.13697095529E+01 -0.17957098868E+02 -0.44757809929E+02  0.48245155753E+02  0.00000000000E+00 0.  1.
         11    1    1    2    0    0  0.60681622388E+02 -0.39975216241E+02  0.23617720765E+02  0.76407289857E+02  0.00000000000E+00 0. -1.
<mgrwt>
<rscale>  0 0.14269762E+03</rscale>
<asrwt>0</asrwt>
<pdfrwt beam="1">  1        2 0.29933777E-01 0.15000339E+03</pdfrwt>
<pdfrwt beam="2">  1       -2 0.17274633E-01 0.15000339E+03</pdfrwt>
<totfact> 0.45730894E+03</totfact>
</mgrwt>
</event>
<event>
 6    1  0.6101889E-006  0.1287768E+03  0.7546771E-02  0.1244402E+00
          2   -1    0    0  501    0  0.00000000000E+00  0.00000000000E+00  0.45208443858E+02  0.45208443858E+02  0.00000000000E+00 0. -1.
         -2   -1    0    0    0  501 -0.00000000000E+00 -0.00000000000E+00 -0.27588111727E+03  0.27588111727E+03  0.00000000000E+00 0.  1.
          5    1    1    2  502    0  0.37456618681E+01 -0.48339862905E+02 -0.68163318136E+02  0.83780070827E+02  0.47000000000E+01 0. -1.
         -5    1    1    2    0  502  0.72637810524E+01  0.77293860533E+02 -0.63696543598E+02  0.10053080651E+03  0.47000000000E+01 0. -1.
        -11    1    1    2    0    0 -0.69784223360E+01 -0.53766273755E+02 -0.97556225090E+02  0.11160971116E+03  0.00000000000E+00 0.  1.
         11    1    1    2    0    0 -0.40310205845E+01  0.24812276126E+02 -0.12565865916E+01  0.25168972633E+02  0.00000000000E+00 0. -1.
<mgrwt>
<rscale>  0 0.11921268E+03</rscale>
<asrwt>0</asrwt>
<pdfrwt beam="1">  1        2 0.69551453E-02 0.12877685E+03</pdfrwt>
<pdfrwt beam="2">  1       -2 0.42443248E-01 0.12877685E+03</pdfrwt>
<totfact> 0.51148251E+03</totfact>
</mgrwt>
</event>
<event>
 6    1  0.6101889E-006  0.1395957E+03  0.7546771E-02  0.1224898E+00
         -1   -1    0    0    0  501 -0.00000000000E+00  0.00000000000E+00  0.31576591475E+03  0.31576591475E+03  0.00000000000E+00 0.  1.
          1   -1    0    0  501    0  0.00000000000E+00 -0.00000000000E+00 -0.59045977283E+02  0.59045977283E+02  0.00000000000E+00 0. -1.
          5    1    1    2  502    0 -0.82520541099E+02  0.52507776132E+02  0.66623348983E+02  0.11843760757E+03  0.47000000000E+01 0.  1.
         -5    1    1    2    0  502  0.30793951617E+02 -0.18244661737E+02 -0.32525278065E+00  0.36101674856E+02  0.47000000000E+01 0.  1.
        -11    1    1    2    0    0  0.76572745604E+02 -0.23313297597E+02  0.11501349265E+03  0.14012493963E+03  0.00000000000E+00 0. -1.
         11    1    1    2    0    0 -0.24846156121E+02 -0.10949816799E+02  0.75408348608E+02  0.80147669970E+02  0.00000000000E+00 0.  1.
<mgrwt>
<rscale>  0 0.13173867E+03</rscale>
<asrwt>0</asrwt>
<pdfrwt beam="2">  1        1 0.90839967E-02 0.13959567E+03</pdfrwt>
<pdfrwt beam="1">  1       -1 0.48579371E-01 0.13959567E+03</pdfrwt>
<totfact> 0.30582733E+03</totfact>
</mgrwt>
</event>
<event>
 6    1  0.6101889E-006  0.1290652E+03  0.7546771E-02  0.1243003E+00
         -1   -1    0    0    0  501 -0.00000000000E+00  0.00000000000E+00  0.30427080429E+02  0.30427080429E+02  0.00000000000E+00 0.  1.
          1   -1    0    0  501    0  0.00000000000E+00 -0.00000000000E+00 -0.46493910339E+03  0.46493910339E+03  0.00000000000E+00 0. -1.
          5    1    1    2  502    0  0.71607996335E+01  0.19952183734E+02  0.97498458644E+00  0.21734932300E+02  0.47000000000E+01 0.  1.
         -5    1    1    2    0  502 -0.36338658909E+02 -0.64766259818E+01 -0.32384984133E+03  0.32598045117E+03  0.47000000000E+01 0.  1.
        -11    1    1    2    0    0  0.46869339346E+02 -0.30809910318E+02 -0.10920052426E+03  0.12276294247E+03  0.00000000000E+00 0. -1.
         11    1    1    2    0    0 -0.17691480070E+02  0.17334352566E+02 -0.24366419585E+01  0.24887857883E+02  0.00000000000E+00 0.  1.
<mgrwt>
<rscale>  0 0.12005712E+03</rscale>
<asrwt>0</asrwt>
<pdfrwt beam="2">  1        1 0.71529094E-01 0.12906516E+03</pdfrwt>
<pdfrwt beam="1">  1       -1 0.46810892E-02 0.12906516E+03</pdfrwt>
<totfact> 0.91782135E+03</totfact>
</mgrwt>
</event>
<event>
 6    1  0.6101889E-006  0.1371940E+03  0.7546771E-02  0.1228840E+00
          1   -1    0    0  501    0  0.00000000000E+00  0.00000000000E+00  0.78680101505E+03  0.78680101505E+03  0.00000000000E+00 0. -1.
         -1   -1    0    0    0  501 -0.00000000000E+00 -0.00000000000E+00 -0.19184500011E+02  0.19184500011E+02  0.00000000000E+00 0.  1.
          5    1    1    2  502    0  0.59988693012E+01  0.86745566154E+02  0.33769842774E+03  0.34874503263E+03  0.47000000000E+01 0.  1.
         -5    1    1    2    0  502  0.26129330035E+02 -0.40213281491E+02  0.12922691548E+03  0.13791858316E+03  0.47000000000E+01 0.  1.
        -11    1    1    2    0    0 -0.43840606982E+01 -0.54536119566E+02  0.27587430790E+03  0.28124729702E+03  0.00000000000E+00 0.  1.
         11    1    1    2    0    0 -0.27744138638E+02  0.80038349030E+01  0.24816863918E+02  0.38074602252E+02  0.00000000000E+00 0. -1.
<mgrwt>
<rscale>  0 0.12907146E+03</rscale>
<asrwt>0</asrwt>
<pdfrwt beam="1">  1        1 0.12104628E+00 0.13719402E+03</pdfrwt>
<pdfrwt beam="2">  1       -1 0.29514622E-02 0.13719402E+03</pdfrwt>
<totfact> 0.87963038E+03</totfact>
</mgrwt>
</event>
<event>
 6    1  0.6101889E-006  0.1474458E+03  0.7546771E-02  0.1213259E+00
          1   -1    0    0  501    0  0.00000000000E+00  0.00000000000E+00  0.47985761072E+03  0.47985761072E+03  0.00000000000E+00 0. -1.
         -1   -1    0    0    0  501 -0.00000000000E+00 -0.00000000000E+00 -0.49647563479E+02  0.49647563479E+02  0.00000000000E+00 0.  1.
          5    1    1    2  502    0 -0.19376153122E+02  0.10946144842E+03  0.24689748042E+03  0.27080934223E+03  0.47000000000E+01 0. -1.
         -5    1    1    2    0  502  0.34354930162E-01 -0.33687141966E+02  0.11643256530E+03  0.12129903947E+03  0.47000000000E+01 0. -1.
        -11    1    1    2    0    0  0.32607442003E+02 -0.65867906571E+02  0.85322253786E+02  0.11261311372E+03  0.00000000000E+00 0. -1.
         11    1    1    2    0    0 -0.13265643811E+02 -0.99063998845E+01 -0.18442252277E+02  0.24783678771E+02  0.00000000000E+00 0.  1.
<mgrwt>
<rscale>  0 0.14005165E+03</rscale>
<asrwt>0</asrwt>
<pdfrwt beam="1">  1        1 0.73824245E-01 0.14744579E+03</pdfrwt>
<pdfrwt beam="2">  1       -1 0.76380870E-02 0.14744579E+03</pdfrwt>
<totfact> 0.42804771E+03</totfact>
</mgrwt>
</event>
<event>
 6    1  0.6101889E-006  0.2787180E+03  0.7546771E-02  0.1098207E+00
         -1   -1    0    0    0  501 -0.00000000000E+00  0.00000000000E+00  0.75738543868E+02  0.75738543868E+02  0.00000000000E+00 0.  1.
          1   -1    0    0  501    0  0.00000000000E+00 -0.00000000000E+00 -0.20861948487E+04  0.20861948487E+04  0.00000000000E+00 0. -1.
          5    1    1    2  502    0  0.46786631164E+02 -0.69712317704E+02 -0.10346405185E+04  0.10380519682E+04  0.47000000000E+01 0.  1.
         -5    1    1    2    0  502  0.12770712364E+03 -0.10805334004E+03 -0.76921923651E+03  0.78721341295E+03  0.47000000000E+01 0.  1.
        -11    1    1    2    0    0 -0.86542813495E+02  0.45929755078E+02 -0.12375054534E+03  0.15783978726E+03  0.00000000000E+00 0. -1.
         11    1    1    2    0    0 -0.87950941311E+02  0.13183590267E+03 -0.82846004495E+02  0.17882822420E+03  0.00000000000E+00 0.  1.
<mgrwt>
<rscale>  0 0.27543738E+03</rscale>
<asrwt>0</asrwt>
<pdfrwt beam="2">  1        1 0.32095297E+00 0.27871795E+03</pdfrwt>
<pdfrwt beam="1">  1       -1 0.11652087E-01 0.27871795E+03</pdfrwt>
<totfact> 0.14245272E+02</totfact>
</mgrwt>
</event>
<event>
 6    1  0.6101889E-006  0.1348395E+03  0.7546771E-02  0.1241832E+00
          3   -1    0    0  501    0  0.00000000000E+00  0.00000000000E+00  0.86156863369E+03  0.86156863369E+03  0.00000000000E+00 0. -1.
         -3   -1    0    0    0  501 -0.00000000000E+00 -0.00000000000E+00 -0.23388973407E+02  0.23388973407E+02  0.00000000000E+00 0.  1.
          5    1    1    2  502    0 -0.56307657713E+02 -0.22212794307E+02  0.40865457356E+03  0.41313994123E+03  0.47000000000E+01 0.  1.
         -5    1    1    2    0  502  0.29943992920E+02  0.65368561103E+02  0.33840427891E+03  0.34599022743E+03  0.47000000000E+01 0.  1.
        -11    1    1    2    0    0  0.24895626059E+02 -0.84237587290E+00  0.77417330483E+02  0.81326163398E+02  0.00000000000E+00 0. -1.
         11    1    1    2    0    0  0.14680387335E+01 -0.42313390923E+02  0.13703477330E+02  0.44501275039E+02  0.00000000000E+00 0.  1.
<mgrwt>
<rscale>  0 0.12076994E+03</rscale>
<asrwt>0</asrwt>
<pdfrwt beam="1">  1        3 0.13254900E+00 0.13483947E+03</pdfrwt>
<pdfrwt beam="2">  1       -3 0.35983043E-02 0.13483947E+03</pdfrwt>
<totfact> 0.41617147E+02</totfact>
</mgrwt>
</event>
<event>
 6    1  0.6101889E-006  0.2460023E+03  0.7546771E-02  0.1115858E+00
         -2   -1    0    0    0  501 -0.00000000000E+00  0.00000000000E+00  0.19830391437E+02  0.19830391437E+02  0.00000000000E+00 0.  1.
          2   -1    0    0  501    0  0.00000000000E+00 -0.00000000000E+00 -0.76293436993E+03  0.76293436993E+03  0.00000000000E+00 0. -1.
          5    1    1    2  502    0 -0.20118172102E+02 -0.35046517714E+02 -0.47109346670E+03  0.47284685007E+03  0.47000000000E+01 0. -1.
         -5    1    1    2    0  502 -0.15713507432E+02  0.27643499479E+01  0.21475582780E+01  0.16770746942E+02  0.47000000000E+01 0.  1.
        -11    1    1    2    0    0  0.44778252847E+02 -0.62671523114E+01 -0.58752425921E+02  0.74136473330E+02  0.00000000000E+00 0.  1.
         11    1    1    2    0    0 -0.89465733134E+01  0.38549320077E+02 -0.21540564415E+03  0.21901069103E+03  0.00000000000E+00 0. -1.
<mgrwt>
<rscale>  0 0.24600233E+03</rscale>
<asrwt>0</asrwt>
<pdfrwt beam="2">  1        2 0.11737453E+00 0.24600233E+03</pdfrwt>
<pdfrwt beam="1">  1       -2 0.30508292E-02 0.24600233E+03</pdfrwt>
<totfact> 0.15407716E+04</totfact>
</mgrwt>
</event>
<event>
 6    1  0.6101889E-006  0.1349113E+03  0.7546771E-02  0.1229525E+00
          2   -1    0    0  501    0  0.00000000000E+00  0.00000000000E+00  0.72818094409E+03  0.72818094409E+03  0.00000000000E+00 0. -1.
         -2   -1    0    0    0  501 -0.00000000000E+00 -0.00000000000E+00 -0.21676701363E+02  0.21676701363E+02  0.00000000000E+00 0.  1.
          5    1    1    2  502    0 -0.40136311233E+02 -0.12655948050E+01  0.62452413364E+02  0.74397037203E+02  0.47000000000E+01 0.  1.
         -5    1    1    2    0  502  0.60670236329E+02  0.47702205102E+02  0.39671693709E+03  0.40418163754E+03  0.47000000000E+01 0.  1.
        -11    1    1    2    0    0 -0.59204751143E+01  0.28122024598E+02  0.11641731667E+03  0.11991201739E+03  0.00000000000E+00 0. -1.
         11    1    1    2    0    0 -0.14613449982E+02 -0.74558634895E+02  0.13091757560E+03  0.15136695333E+03  0.00000000000E+00 0.  1.
<mgrwt>
<rscale>  0 0.12861496E+03</rscale>
<asrwt>0</asrwt>
<pdfrwt beam="1">  1        2 0.11202782E+00 0.13491129E+03</pdfrwt>
<pdfrwt beam="2">  1       -2 0.33348777E-02 0.13491129E+03</pdfrwt>
<totfact> 0.13755185E+04</totfact>
</mgrwt>
</event>
<event>
 6    1  0.6101889E-006  0.1393570E+03  0.7546771E-02  0.1232330E+00
          3   -1    0    0  501    0  0.00000000000E+00  0.00000000000E+00  0.12052831112E+03  0.12052831112E+03  0.00000000000E+00 0. -1.
         -3   -1    0    0    0  501 -0.00000000000E+00 -0.00000000000E+00 -0.12254922129E+03  0.12254922129E+03  0.00000000000E+00 0.  1.
          5    1    1    2  502    0 -0.46612578239E+02 -0.19635020822E+02  0.72880886473E+02  0.88836817288E+02  0.47000000000E+01 0. -1.
         -5    1    1    2    0  502  0.30012564580E+02 -0.98572230984E+01 -0.43123064634E+02  0.53661975209E+02  0.47000000000E+01 0.  1.
        -11    1    1    2    0    0  0.51372049631E+02  0.30379686475E+02 -0.26863993686E+02  0.65449881515E+02  0.00000000000E+00 0.  1.
         11    1    1    2    0    0 -0.34772035971E+02 -0.88744255493E+00 -0.49147383215E+01  0.35128858402E+02  0.00000000000E+00 0. -1.
<mgrwt>
<rscale>  0 0.12676920E+03</rscale>
<asrwt>0</asrwt>
<pdfrwt beam="1">  1        3 0.18542817E-01 0.13935702E+03</pdfrwt>
<pdfrwt beam="2">  1       -3 0.18853726E-01 0.13935702E+03</pdfrwt>
<totfact> 0.14752819E+03</totfact>
</mgrwt>
</event>
<event>
 6    1  0.6101889E-006  0.1705068E+03  0.7546771E-02  0.1182548E+00
          1   -1    0    0  501    0  0.00000000000E+00  0.00000000000E+00  0.64698270479E+02  0.64698270479E+02  0.00000000000E+00 0. -1.
         -1   -1    0    0    0  501 -0.00000000000E+00 -0.00000000000E+00 -0.40325627092E+03  0.40325627092E+03  0.00000000000E+00 0.  1.
          5    1    1    2  502    0  0.20928634497E+02 -0.61820591483E+02 -0.30050182199E+01  0.65505063985E+02  0.47000000000E+01 0. -1.
         -5    1    1    2    0  502  0.51679168693E+02 -0.29637801106E+02 -0.15832883635E+03  0.16923133915E+03  0.47000000000E+01 0. -1.
        -11    1    1    2    0    0  0.30745275096E+01  0.49567016823E+02 -0.11899613190E+03  0.12894348096E+03  0.00000000000E+00 0.  1.
         11    1    1    2    0    0 -0.75682330699E+02  0.41891375766E+02 -0.58228013976E+02  0.10427465730E+03  0.00000000000E+00 0. -1.
<mgrwt>
<rscale>  0 0.16556954E+03</rscale>
<asrwt>0</asrwt>
<pdfrwt beam="1">  1        1 0.99535802E-02 0.17050679E+03</pdfrwt>
<pdfrwt beam="2">  1       -1 0.62039426E-01 0.17050679E+03</pdfrwt>
<totfact> 0.17292860E+03</totfact>
</mgrwt>
</event>
<event>
 6    1  0.6101889E-006  0.2494366E+03  0.7546771E-02  0.1116130E+00
         -4   -1    0    0    0  501 -0.00000000000E+00  0.00000000000E+00  0.17648082151E+03  0.17648082151E+03  0.00000000000E+00 0.  1.
          4   -1    0    0  501    0  0.00000000000E+00 -0.00000000000E+00 -0.46850019670E+03  0.46850019670E+03  0.00000000000E+00 0. -1.
          5    1    1    2  502    0  0.53131839730E+02 -0.86304104882E+02 -0.21570925407E+03  0.23837777414E+03  0.47000000000E+01 0.  1.
         -5    1    1    2    0  502 -0.29270021973E+02 -0.12823336855E+03 -0.10779959953E+03  0.17012752468E+03  0.47000000000E+01 0.  1.
        -11    1    1    2    0    0 -0.43585412223E+02  0.81509546817E+02 -0.16097696001E+02  0.93822333150E+02  0.00000000000E+00 0. -1.
         11    1    1    2    0    0  0.19723594466E+02  0.13302792662E+03  0.47587174401E+02  0.14265338624E+03  0.00000000000E+00 0.  1.
<mgrwt>
<rscale>  0 0.24558140E+03</rscale>
<asrwt>0</asrwt>
<pdfrwt beam="2">  1        4 0.72076952E-01 0.24943657E+03</pdfrwt>
<pdfrwt beam="1">  1       -4 0.27150896E-01 0.24943657E+03</pdfrwt>
<totfact> 0.41797416E+01</totfact>
</mgrwt>
</event>
<event>
 6    1  0.6101889E-006  0.1690833E+03  0.7546771E-02  0.1185545E+00
         -2   -1    0    0    0  501 -0.00000000000E+00  0.00000000000E+00  0.14661159874E+03  0.14661159874E+03  0.00000000000E+00 0.  1.
          2   -1    0    0  501    0  0.00000000000E+00 -0.00000000000E+00 -0.17153667460E+03  0.17153667460E+03  0.00000000000E+00 0. -1.
          5    1    1    2  502    0 -0.56568756896E+02  0.67642873485E+02 -0.28931249781E+02  0.92923031612E+02  0.47000000000E+01 0. -1.
         -5    1    1    2    0  502  0.64588333243E+02  0.45909405062E+02 -0.50558456492E+01  0.79542302201E+02  0.47000000000E+01 0. -1.
        -11    1    1    2    0    0 -0.33888220745E+02 -0.10000125942E+03 -0.16504967274E+02  0.10686944060E+03  0.00000000000E+00 0. -1.
         11    1    1    2    0    0  0.25868644397E+02 -0.13551019131E+02  0.25566986845E+02  0.38813498924E+02  0.00000000000E+00 0.  1.
<mgrwt>
<rscale>  0 0.16282358E+03</rscale>
<asrwt>0</asrwt>
<pdfrwt beam="2">  1        2 0.26390257E-01 0.16908332E+03</pdfrwt>
<pdfrwt beam="1">  1       -2 0.22555631E-01 0.16908332E+03</pdfrwt>
<totfact> 0.33606449E+03</totfact>
</mgrwt>
</event>
<event>
 6    1  0.6101889E-006  0.2133603E+03  0.7546771E-02  0.1142495E+00
         -2   -1    0    0    0  501 -0.00000000000E+00  0.00000000000E+00  0.24931044593E+02  0.24931044593E+02  0.00000000000E+00 0.  1.
          2   -1    0    0  501    0  0.00000000000E+00 -0.00000000000E+00 -0.16993742616E+04  0.16993742616E+04  0.00000000000E+00 0. -1.
          5    1    1    2  502    0  0.70722049377E+02  0.12014435115E+03 -0.45169709754E+03  0.47274584219E+03  0.47000000000E+01 0. -1.
         -5    1    1    2    0  502  0.68742474568E+02 -0.17912904528E+02 -0.32637169782E+03  0.33404636669E+03  0.47000000000E+01 0. -1.
        -11    1    1    2    0    0 -0.81040627842E+02 -0.11004083631E+03 -0.64530456210E+03  0.65961696983E+03  0.00000000000E+00 0.  1.
         11    1    1    2    0    0 -0.58423896103E+02  0.78093896865E+01 -0.25106985958E+03  0.25789612752E+03  0.00000000000E+00 0. -1.
<mgrwt>
<rscale>  0 0.20883161E+03</rscale>
<asrwt>0</asrwt>
<pdfrwt beam="2">  1        2 0.26144216E+00 0.21336030E+03</pdfrwt>
<pdfrwt beam="1">  1       -2 0.38355458E-02 0.21336030E+03</pdfrwt>
<totfact> 0.31291501E+03</totfact>
</mgrwt>
</event>
<event>
 6    1  0.6101889E-006  0.1547753E+03  0.7546771E-02  0.1203506E+00
         -2   -1    0    0    0  501 -0.00000000000E+00  0.00000000000E+00  0.39104988111E+02  0.39104988111E+02  0.00000000000E+00 0. -1.
          2   -1    0    0  501    0  0.00000000000E+00 -0.00000000000E+00 -0.67614072658E+03  0.67614072658E+03  0.00000000000E+00 0.  1.
          5    1    1    2  502    0 -0.81762117141E+02 -0.55980789057E+02 -0.33940845101E+03  0.35360865255E+03  0.47000000000E+01 0. -1.
         -5    1    1    2    0  502 -0.94986959360E+01  0.54487575066E+02 -0.17830368001E+03  0.18674424587E+03  0.47000000000E+01 0. -1.
        -11    1    1    2    0    0  0.57077768177E+02 -0.84184960786E+01 -0.12609115987E+03  0.13866406634E+03  0.00000000000E+00 0.  1.
         11    1    1    2    0    0  0.34183044900E+02  0.99117100696E+01  0.67675524273E+01  0.36228749923E+02  0.00000000000E+00 0. -1.
<mgrwt>
<rscale>  0 0.14755841E+03</rscale>
<asrwt>0</asrwt>
<pdfrwt beam="2">  1        2 0.10402165E+00 0.15477533E+03</pdfrwt>
<pdfrwt beam="1">  1       -2 0.60161522E-02 0.15477533E+03</pdfrwt>
<totfact> 0.62646197E+03</totfact>
</mgrwt>
</event>
<event>
 6    1  0.6101889E-006  0.2572759E+03  0.7546771E-02  0.1111597E+00
          2   -1    0    0  501    0  0.00000000000E+00  0.00000000000E+00  0.28881829934E+04  0.28881829934E+04  0.00000000000E+00 0. -1.
         -2   -1    0    0    0  501 -0.00000000000E+00 -0.00000000000E+00 -0.61596943303E+02  0.61596943303E+02  0.00000000000E+00 0.  1.
          5    1    1    2  502    0  0.48475834217E+02 -0.17332465727E+02  0.27414318931E+03  0.27897472846E+03  0.47000000000E+01 0.  1.
         -5    1    1    2    0  502  0.52378508640E+02 -0.18366252354E+03  0.23483586982E+04  0.23561167407E+04  0.47000000000E+01 0.  1.
        -11    1    1    2    0    0 -0.47049647356E+01  0.97959324517E+02  0.94181981108E+02  0.13597209831E+03  0.00000000000E+00 0.  1.
         11    1    1    2    0    0 -0.96149378122E+02  0.10303566475E+03  0.10990218154E+03  0.17871636923E+03  0.00000000000E+00 0. -1.
<mgrwt>
<rscale>  0 0.25272197E+03</rscale>
<asrwt>0</asrwt>
<pdfrwt beam="1">  1        2 0.44433574E+00 0.25727592E+03</pdfrwt>
<pdfrwt beam="2">  1       -2 0.94764551E-02 0.25727592E+03</pdfrwt>
<totfact> 0.17640963E+02</totfact>
</mgrwt>
</event>
<event>
 6    1  0.6101889E-006  0.1291525E+03  0.7546771E-02  0.1242207E+00
         -2   -1    0    0    0  501 -0.00000000000E+00  0.00000000000E+00  0.45439705903E+02  0.45439705903E+02  0.00000000000E+00 0. -1.
          2   -1    0    0  501    0  0.00000000000E+00 -0.00000000000E+00 -0.34969195918E+03  0.34969195918E+03  0.00000000000E+00 0.  1.
          5    1    1    2  502    0  0.69780374304E+02  0.21700233362E+02 -0.10888097574E+03  0.13121492920E+03  0.47000000000E+01 0.  1.
         -5    1    1    2    0  502 -0.39001880298E+02 -0.32091255507E+02 -0.14522931771E+03  0.15383315660E+03  0.47000000000E+01 0.  1.
        -11    1    1    2    0    0 -0.48797035533E+02  0.32377259149E+02 -0.56036281259E+02  0.81052466983E+02  0.00000000000E+00 0. -1.
         11    1    1    2    0    0  0.18018541527E+02 -0.21986237004E+02  0.58943214329E+01  0.29031112302E+02  0.00000000000E+00 0.  1.
<mgrwt>
<rscale>  0 0.12054096E+03</rscale>
<asrwt>0</asrwt>
<pdfrwt beam="2">  1        2 0.53798762E-01 0.12915251E+03</pdfrwt>
<pdfrwt beam="1">  1       -2 0.69907241E-02 0.12915251E+03</pdfrwt>
<totfact> 0.10196404E+04</totfact>
</mgrwt>
</event>
<event>
 6    1  0.6101889E-006  0.4830598E+03  0.7546771E-02  0.1047021E+00
         -1   -1    0    0    0  501 -0.00000000000E+00  0.00000000000E+00  0.45756948236E+03  0.45756948236E+03  0.00000000000E+00 0.  1.
          1   -1    0    0  501    0  0.00000000000E+00 -0.00000000000E+00 -0.26972987947E+03  0.26972987947E+03  0.00000000000E+00 0. -1.
          5    1    1    2  502    0 -0.17482828684E+03  0.19475081809E+03 -0.14584251423E+02  0.26215949614E+03  0.47000000000E+01 0. -1.
         -5    1    1    2    0  502 -0.10207569976E+02 -0.20996998155E+03  0.81502008570E+02  0.22551331455E+03  0.47000000000E+01 0.  1.
        -11    1    1    2    0    0  0.91529041241E+02  0.47332520973E+02  0.35558533140E+02  0.10900615676E+03  0.00000000000E+00 0. -1.
         11    1    1    2    0    0  0.93506815572E+02 -0.32113357519E+02  0.85363312604E+02  0.13062039438E+03  0.00000000000E+00 0.  1.
<mgrwt>
<rscale>  0 0.39077756E+03</rscale>
<asrwt>0</asrwt>
<pdfrwt beam="2">  1        1 0.41496905E-01 0.48305981E+03</pdfrwt>
<pdfrwt beam="1">  1       -1 0.70395305E-01 0.48305981E+03</pdfrwt>
<totfact> 0.21080736E+02</totfact>
</mgrwt>
</event>
<event>
 6    1  0.6101889E-006  0.1480561E+03  0.7546771E-02  0.1211565E+00
          2   -1    0    0  501    0  0.00000000000E+00  0.00000000000E+00  0.40956308532E+03  0.40956308532E+03  0.00000000000E+00 0. -1.
         -2   -1    0    0    0  501 -0.00000000000E+00 -0.00000000000E+00 -0.45190610795E+02  0.45190610795E+02  0.00000000000E+00 0.  1.
          5    1    1    2  502    0  0.88358820829E+02 -0.49888073216E+02  0.79695466408E+02  0.12911064415E+03  0.47000000000E+01 0. -1.
         -5    1    1    2    0  502 -0.13020513756E+02  0.24988349484E+02  0.98539824196E+02  0.10259697043E+03  0.47000000000E+01 0. -1.
        -11    1    1    2    0    0 -0.62584056793E+02  0.16027863755E+01  0.18624573545E+03  0.19648614980E+03  0.00000000000E+00 0. -1.
         11    1    1    2    0    0 -0.12754250281E+02  0.23296937357E+02 -0.10855152901E+00  0.26559931737E+02  0.00000000000E+00 0.  1.
<mgrwt>
<rscale>  0 0.14131907E+03</rscale>
<asrwt>0</asrwt>
<pdfrwt beam="1">  1        2 0.63009703E-01 0.14805607E+03</pdfrwt>
<pdfrwt beam="2">  1       -2 0.69524019E-02 0.14805607E+03</pdfrwt>
<totfact> 0.87713610E+03</totfact>
</mgrwt>
</event>
<event>
 6    1  0.6101889E-006  0.1186573E+03  0.7546771E-02  0.1256781E+00
         -1   -1    0    0    0  501 -0.00000000000E+00  0.00000000000E+00  0.36919658156E+02  0.36919658156E+02  0.00000000000E+00 0.  1.
          1   -1    0    0  501    0  0.00000000000E+00 -0.00000000000E+00 -0.33376117219E+03  0.33376117219E+03  0.00000000000E+00 0. -1.
          5    1    1    2  502    0  0.44976911865E+02  0.15676343548E+02 -0.16983882821E+03  0.17645392576E+03  0.47000000000E+01 0. -1.
         -5    1    1    2    0  502 -0.52032276002E+02  0.53876474157E+01 -0.45847586902E+02  0.69717112070E+02  0.47000000000E+01 0.  1.
        -11    1    1    2    0    0  0.30709633165E+02  0.16379154787E+02 -0.33280035970E+01  0.34963322048E+02  0.00000000000E+00 0. -1.
         11    1    1    2    0    0 -0.23654269027E+02 -0.37443145751E+02 -0.77827095326E+02  0.89546470471E+02  0.00000000000E+00 0.  1.
<mgrwt>
<rscale>  0 0.11207154E+03</rscale>
<asrwt>0</asrwt>
<pdfrwt beam="2">  1        1 0.51347873E-01 0.11865728E+03</pdfrwt>
<pdfrwt beam="1">  1       -1 0.56799473E-02 0.11865728E+03</pdfrwt>
<totfact> 0.10396645E+04</totfact>
</mgrwt>
</event>
<event>
 6    1  0.6101889E-006  0.1294581E+03  0.7546771E-02  0.1242052E+00
         -1   -1    0    0    0  501 -0.00000000000E+00  0.00000000000E+00  0.45913634904E+03  0.45913634904E+03  0.00000000000E+00 0.  1.
          1   -1    0    0  501    0  0.00000000000E+00 -0.00000000000E+00 -0.28964409521E+02  0.28964409521E+02  0.00000000000E+00 0. -1.
          5    1    1    2  502    0 -0.77537845018E+01  0.61210813030E+01  0.20814311146E+03  0.20843040483E+03  0.47000000000E+01 0. -1.
         -5    1    1    2    0  502 -0.22825111239E+02 -0.20243441835E+02 -0.61617926669E+01  0.31477616321E+02  0.47000000000E+01 0. -1.
        -11    1    1    2    0    0  0.58390287903E+02  0.14618930240E+02  0.19885890580E+03  0.20776911046E+03  0.00000000000E+00 0.  1.
         11    1    1    2    0    0 -0.27811392163E+02 -0.49656970819E+00  0.29331714921E+02  0.40423626949E+02  0.00000000000E+00 0. -1.
<mgrwt>
<rscale>  0 0.12063575E+03</rscale>
<asrwt>0</asrwt>
<pdfrwt beam="2">  1        1 0.44560633E-02 0.12945812E+03</pdfrwt>
<pdfrwt beam="1">  1       -1 0.70636356E-01 0.12945812E+03</pdfrwt>
<totfact> 0.39339190E+03</totfact>
</mgrwt>
</event>
<event>
 6    1  0.6101889E-006  0.1882420E+03  0.7546771E-02  0.1164902E+00
          2   -1    0    0  501    0  0.00000000000E+00  0.00000000000E+00  0.24169365091E+03  0.24169365091E+03  0.00000000000E+00 0. -1.
         -2   -1    0    0    0  501 -0.00000000000E+00 -0.00000000000E+00 -0.18986759743E+03  0.18986759743E+03  0.00000000000E+00 0.  1.
          5    1    1    2  502    0  0.36557476702E+02 -0.97929801108E+02  0.39566548244E+02  0.11186731778E+03  0.47000000000E+01 0. -1.
         -5    1    1    2    0  502  0.67655577466E+02  0.33227284907E+01  0.10691048183E+03  0.12665014336E+03  0.47000000000E+01 0. -1.
        -11    1    1    2    0    0 -0.96990970274E+02  0.46068212775E+02 -0.95882991017E+02  0.14395511977E+03  0.00000000000E+00 0.  1.
         11    1    1    2    0    0 -0.72220838941E+01  0.48538859843E+02  0.12320144183E+01  0.49088667431E+02  0.00000000000E+00 0. -1.
<mgrwt>
<rscale>  0 0.18303087E+03</rscale>
<asrwt>0</asrwt>
<pdfrwt beam="1">  1        2 0.37183639E-01 0.18824202E+03</pdfrwt>
<pdfrwt beam="2">  1       -2 0.29210400E-01 0.18824202E+03</pdfrwt>
<totfact> 0.14719618E+03</totfact>
</mgrwt>
</event>
<event>
 6    1  0.6101889E-006  0.1487398E+03  0.7546771E-02  0.1211542E+00
          1   -1    0    0  501    0  0.00000000000E+00  0.00000000000E+00  0.29701888461E+02  0.29701888461E+02  0.00000000000E+00 0. -1.
         -1   -1    0    0    0  501 -0.00000000000E+00 -0.00000000000E+00 -0.65862620498E+03  0.65862620498E+03  0.00000000000E+00 0.  1.
          5    1    1    2  502    0  0.77740765469E+02 -0.43999733686E+02 -0.17368313438E+03  0.19536510525E+03  0.47000000000E+01 0. -1.
         -5    1    1    2    0  502 -0.48585519615E+02 -0.31163983850E+02 -0.81055040563E+02  0.99618051609E+02  0.47000000000E+01 0. -1.
        -11    1    1    2    0    0 -0.57574589102E+02  0.51324564794E+02 -0.18294350496E+03  0.19853808266E+03  0.00000000000E+00 0. -1.
         11    1    1    2    0    0  0.28419343248E+02  0.23839152741E+02 -0.19124263662E+03  0.19480685392E+03  0.00000000000E+00 0.  1.
<mgrwt>
<rscale>  0 0.14133619E+03</rscale>
<asrwt>0</asrwt>
<pdfrwt beam="1">  1        1 0.45695217E-02 0.14873979E+03</pdfrwt>
<pdfrwt beam="2">  1       -1 0.10132710E+00 0.14873979E+03</pdfrwt>
<totfact> 0.18038087E+03</totfact>
</mgrwt>
</event>
<event>
 6    1  0.6101889E-006  0.1559344E+03  0.7546771E-02  0.1202274E+00
         -2   -1    0    0    0  501 -0.00000000000E+00  0.00000000000E+00  0.25664649202E+02  0.25664649202E+02  0.00000000000E+00 0.  1.
          2   -1    0    0  501    0  0.00000000000E+00 -0.00000000000E+00 -0.98501386045E+03  0.98501386045E+03  0.00000000000E+00 0. -1.
          5    1    1    2  502    0  0.10341859085E+02  0.66104204413E+02 -0.23069610031E+03  0.24024883056E+03  0.47000000000E+01 0. -1.
         -5    1    1    2    0  502  0.76299810909E+02 -0.31695032637E+02 -0.51150901921E+03  0.51816001677E+03  0.47000000000E+01 0. -1.
        -11    1    1    2    0    0 -0.23259595045E+02 -0.28935091844E+02 -0.14469326347E+02  0.39844820323E+02  0.00000000000E+00 0.  1.
         11    1    1    2    0    0 -0.63382074949E+02 -0.54740799328E+01 -0.20267476538E+03  0.21242484200E+03  0.00000000000E+00 0. -1.
<mgrwt>
<rscale>  0 0.14854357E+03</rscale>
<asrwt>0</asrwt>
<pdfrwt beam="2">  1        2 0.15154060E+00 0.15593441E+03</pdfrwt>
<pdfrwt beam="1">  1       -2 0.39484073E-02 0.15593441E+03</pdfrwt>
<totfact> 0.73355408E+03</totfact>
</mgrwt>
</event>
<event>
 6    1  0.7149457E-006  0.2408614E+03  0.7546771E-02  0.1121961E+00
         -2   -1    0    0    0  501 -0.00000000000E+00  0.00000000000E+00  0.18635689356E+03  0.18635689356E+03  0.00000000000E+00 0. -1.
          2   -1    0    0  501    0  0.00000000000E+00 -0.00000000000E+00 -0.31992187305E+03  0.31992187305E+03  0.00000000000E+00 0.  1.
          5    1    1    2  502    0 -0.40525424132E+02 -0.48742160223E+02 -0.20091577676E+02  0.66662355777E+02  0.47000000000E+01 0. -1.
         -5    1    1    2    0  502 -0.16525237715E+03  0.55420040275E+02 -0.12478031423E+03  0.21441069432E+03  0.47000000000E+01 0. -1.
        -11    1    1    2    0    0  0.11674157555E+03 -0.48598019035E+02  0.38304096671E+01  0.12651100725E+03  0.00000000000E+00 0. -1.
         11    1    1    2    0    0  0.89036225734E+02  0.41920138983E+02  0.74765027468E+01  0.98694709273E+02  0.00000000000E+00 0.  1.
<mgrwt>
<rscale>  0 0.23677355E+03</rscale>
<asrwt>0</asrwt>
<pdfrwt beam="2">  1        2 0.49218750E-01 0.24086136E+03</pdfrwt>
<pdfrwt beam="1">  1       -2 0.28670291E-01 0.24086136E+03</pdfrwt>
<totfact> 0.11313273E+03</totfact>
</mgrwt>
</event>
<event>
 6    1  0.6101889E-006  0.1293274E+03  0.7546771E-02  0.1240313E+00
         -4   -1    0    0    0  501 -0.00000000000E+00  0.00000000000E+00  0.78061931913E+02  0.78061931913E+02  0.00000000000E+00 0. -1.
          4   -1    0    0  501    0  0.00000000000E+00 -0.00000000000E+00 -0.17684075451E+03  0.17684075451E+03  0.00000000000E+00 0.  1.
          5    1    1    2  502    0 -0.65361815807E+02 -0.38483861765E+02 -0.22811072134E+02  0.79344877552E+02  0.47000000000E+01 0.  1.
         -5    1    1    2    0  502  0.42783259587E+02  0.14179792817E+02 -0.56254135352E+02  0.72236359055E+02  0.47000000000E+01 0.  1.
        -11    1    1    2    0    0  0.31483028555E+02  0.20831043841E+01 -0.53382500658E+02  0.62009771708E+02  0.00000000000E+00 0.  1.
         11    1    1    2    0    0 -0.89044723358E+01  0.22220964564E+02  0.33668885550E+02  0.41311678105E+02  0.00000000000E+00 0. -1.
<mgrwt>
<rscale>  0 0.12170328E+03</rscale>
<asrwt>0</asrwt>
<pdfrwt beam="2">  1        4 0.27206270E-01 0.12932735E+03</pdfrwt>
<pdfrwt beam="1">  1       -4 0.12009528E-01 0.12932735E+03</pdfrwt>
<totfact> 0.11585793E+03</totfact>
</mgrwt>
</event>
<event>
 6    1  0.6101889E-006  0.1417302E+03  0.7546771E-02  0.1222023E+00
          1   -1    0    0  501    0  0.00000000000E+00  0.00000000000E+00  0.69389114237E+03  0.69389114237E+03  0.00000000000E+00 0. -1.
         -1   -1    0    0    0  501 -0.00000000000E+00 -0.00000000000E+00 -0.24336434746E+02  0.24336434746E+02  0.00000000000E+00 0.  1.
          5    1    1    2  502    0 -0.14811443458E+02 -0.70097268856E+02  0.13007995785E+03  0.14857957932E+03  0.47000000000E+01 0.  1.
         -5    1    1    2    0  502 -0.36932910085E+02  0.28328229121E+02  0.31684317934E+03  0.32027834567E+03  0.47000000000E+01 0.  1.
        -11    1    1    2    0    0 -0.12869289595E+02  0.28343655674E+02  0.21879243597E+02  0.38048426144E+02  0.00000000000E+00 0.  1.
         11    1    1    2    0    0  0.64613643138E+02  0.13425384060E+02  0.20075232684E+03  0.21132122598E+03  0.00000000000E+00 0. -1.
<mgrwt>
<rscale>  0 0.13373069E+03</rscale>
<asrwt>0</asrwt>
<pdfrwt beam="1">  1        1 0.10675247E+00 0.14173025E+03</pdfrwt>
<pdfrwt beam="2">  1       -1 0.37440674E-02 0.14173025E+03</pdfrwt>
<totfact> 0.74788044E+03</totfact>
</mgrwt>
</event>
<event>
 6    1  0.6101889E-006  0.1730158E+03  0.7546771E-02  0.1181274E+00
          2   -1    0    0  501    0  0.00000000000E+00  0.00000000000E+00  0.14051675092E+03  0.14051675092E+03  0.00000000000E+00 0. -1.
         -2   -1    0    0    0  501 -0.00000000000E+00 -0.00000000000E+00 -0.28359421919E+03  0.28359421919E+03  0.00000000000E+00 0.  1.
          5    1    1    2  502    0  0.92054438594E+02  0.78831943348E+01  0.86200310010E+02  0.12644662061E+03  0.47000000000E+01 0. -1.
         -5    1    1    2    0  502  0.25537244096E+02 -0.29803830034E+02 -0.36251731451E+02  0.53634850181E+02  0.47000000000E+01 0. -1.
        -11    1    1    2    0    0 -0.72220095663E+02  0.15582205544E+02 -0.39426620271E+02  0.83743690707E+02  0.00000000000E+00 0. -1.
         11    1    1    2    0    0 -0.45371587027E+02  0.63384301561E+01 -0.15359942656E+03  0.16028580862E+03  0.00000000000E+00 0.  1.
<mgrwt>
<rscale>  0 0.16675597E+03</rscale>
<asrwt>0</asrwt>
<pdfrwt beam="1">  1        2 0.21617962E-01 0.17301582E+03</pdfrwt>
<pdfrwt beam="2">  1       -2 0.43629880E-01 0.17301582E+03</pdfrwt>
<totfact> 0.12616072E+03</totfact>
</mgrwt>
</event>
<event>
 6    1  0.6101889E-006  0.3631971E+03  0.7546771E-02  0.1057325E+00
          2   -1    0    0  501    0  0.00000000000E+00  0.00000000000E+00  0.70062656126E+03  0.70062656126E+03  0.00000000000E+00 0. -1.
         -2   -1    0    0    0  501 -0.00000000000E+00 -0.00000000000E+00 -0.47069342906E+02  0.47069342906E+02  0.00000000000E+00 0.  1.
          5    1    1    2  502    0 -0.89246843205E+01  0.24861846311E+02  0.15082158190E+02  0.30778610883E+02  0.47000000000E+01 0.  1.
         -5    1    1    2    0  502  0.99319657648E+02  0.53384426561E+02  0.49971235823E+03  0.51229759160E+03  0.47000000000E+01 0.  1.
        -11    1    1    2    0    0 -0.39191054910E+02 -0.27574827489E+02  0.12140530696E+03  0.13052033732E+03  0.00000000000E+00 0. -1.
         11    1    1    2    0    0 -0.51203918417E+02 -0.50671445383E+02  0.17357394975E+02  0.74099364362E+02  0.00000000000E+00 0.  1.
<mgrwt>
<rscale>  0 0.36319709E+03</rscale>
<asrwt>0</asrwt>
<pdfrwt beam="1">  1        2 0.10778869E+00 0.36319709E+03</pdfrwt>
<pdfrwt beam="2">  1       -2 0.72414379E-02 0.36319709E+03</pdfrwt>
<totfact> 0.46525948E+03</totfact>
</mgrwt>
</event>
<event>
 6    1  0.6101889E-006  0.2710889E+03  0.7546771E-02  0.1100658E+00
         -2   -1    0    0    0  501 -0.00000000000E+00  0.00000000000E+00  0.15537791236E+02  0.15537791236E+02  0.00000000000E+00 0.  1.
          2   -1    0    0  501    0  0.00000000000E+00 -0.00000000000E+00 -0.11824266954E+04  0.11824266954E+04  0.00000000000E+00 0. -1.
          5    1    1    2  502    0  0.73074042541E+02 -0.56890856978E+02 -0.31771600073E+03  0.33097119576E+03  0.47000000000E+01 0.  1.
         -5    1    1    2    0  502 -0.16999499493E+00  0.30028807141E+02 -0.43120443233E+03  0.43227434647E+03  0.47000000000E+01 0.  1.
        -11    1    1    2    0    0 -0.29112677176E+02  0.57731458451E+02 -0.19660139506E+03  0.20696032907E+03  0.00000000000E+00 0.  1.
         11    1    1    2    0    0 -0.43791370370E+02 -0.30869408614E+02 -0.22136707607E+03  0.22775861537E+03  0.00000000000E+00 0. -1.
<mgrwt>
<rscale>  0 0.27108891E+03</rscale>
<asrwt>0</asrwt>
<pdfrwt beam="2">  1        2 0.18191185E+00 0.27108891E+03</pdfrwt>
<pdfrwt beam="1">  1       -2 0.23904288E-02 0.27108891E+03</pdfrwt>
<totfact> 0.12122555E+04</totfact>
</mgrwt>
</event>
<event>
 6    1  0.6101889E-006  0.1367875E+03  0.7546771E-02  0.1229409E+00
          1   -1    0    0  501    0  0.00000000000E+00  0.00000000000E+00  0.13378296788E+04  0.13378296788E+04  0.00000000000E+00 0. -1.
         -1   -1    0    0    0  501 -0.00000000000E+00 -0.00000000000E+00 -0.12803565427E+02  0.12803565427E+02  0.00000000000E+00 0.  1.
          5    1    1    2  502    0  0.35492768347E+02  0.15358749327E+02  0.17421618198E+03  0.17851889494E+03  0.47000000000E+01 0.  1.
         -5    1    1    2    0  502 -0.70742309519E+02 -0.58305931591E+02  0.80134895339E+03  0.80658929519E+03  0.47000000000E+01 0.  1.
        -11    1    1    2    0    0 -0.12462474310E+02 -0.22664753818E+02  0.75710419509E+02  0.80006699431E+02  0.00000000000E+00 0.  1.
         11    1    1    2    0    0  0.47712015482E+02  0.65611936082E+02  0.27375055851E+03  0.28551835468E+03  0.00000000000E+00 0. -1.
<mgrwt>
<rscale>  0 0.12869270E+03</rscale>
<asrwt>0</asrwt>
<pdfrwt beam="1">  1        1 0.20581984E+00 0.13678747E+03</pdfrwt>
<pdfrwt beam="2">  1       -1 0.19697804E-02 0.13678747E+03</pdfrwt>
<totfact> 0.63048411E+03</totfact>
</mgrwt>
</event>
<event>
 6    1  0.6101889E-006  0.1280606E+03  0.7546771E-02  0.1244799E+00
          1   -1    0    0  501    0  0.00000000000E+00  0.00000000000E+00  0.68614438542E+02  0.68614438542E+02  0.00000000000E+00 0. -1.
         -1   -1    0    0    0  501 -0.00000000000E+00 -0.00000000000E+00 -0.22036679271E+03  0.22036679271E+03  0.00000000000E+00 0.  1.
          5    1    1    2  502    0  0.12692127381E+02 -0.51041529563E+00  0.46911656613E+02  0.48827698568E+02  0.47000000000E+01 0.  1.
         -5    1    1    2    0  502 -0.33603238907E+02 -0.17835913003E+02 -0.72143400873E+02  0.81694906495E+02  0.47000000000E+01 0.  1.
        -11    1    1    2    0    0  0.47488581188E+02  0.30297457282E+02 -0.45673914474E+02  0.72520395231E+02  0.00000000000E+00 0. -1.
         11    1    1    2    0    0 -0.26577469662E+02 -0.11951128983E+02 -0.80846695432E+02  0.85938230956E+02  0.00000000000E+00 0.  1.
<mgrwt>
<rscale>  0 0.11897391E+03</rscale>
<asrwt>0</asrwt>
<pdfrwt beam="1">  1        1 0.10556067E-01 0.12806057E+03</pdfrwt>
<pdfrwt beam="2">  1       -1 0.33902584E-01 0.12806057E+03</pdfrwt>
<totfact> 0.46917829E+03</totfact>
</mgrwt>
</event>
<event>
 6    1  0.6101889E-006  0.1396574E+03  0.7546771E-02  0.1224606E+00
          3   -1    0    0  501    0  0.00000000000E+00  0.00000000000E+00  0.49485451194E+02  0.49485451194E+02  0.00000000000E+00 0. -1.
         -3   -1    0    0    0  501 -0.00000000000E+00 -0.00000000000E+00 -0.40212957806E+03  0.40212957806E+03  0.00000000000E+00 0.  1.
          5    1    1    2  502    0  0.23866063130E+02 -0.53139940316E+02 -0.20069225565E+02  0.61792443235E+02  0.47000000000E+01 0. -1.
         -5    1    1    2    0  502  0.36594432346E+02  0.68222887860E+02 -0.69313764820E+02  0.10401924293E+03  0.47000000000E+01 0. -1.
        -11    1    1    2    0    0 -0.28703888682E+02 -0.44332440953E+02 -0.21344412797E+03  0.21988104582E+03  0.00000000000E+00 0.  1.
         11    1    1    2    0    0 -0.31756606795E+02  0.29249493410E+02 -0.49817008510E+02  0.65922297266E+02  0.00000000000E+00 0. -1.
<mgrwt>
<rscale>  0 0.13193970E+03</rscale>
<asrwt>0</asrwt>
<pdfrwt beam="1">  1        3 0.76131467E-02 0.13965742E+03</pdfrwt>
<pdfrwt beam="2">  1       -3 0.61866086E-01 0.13965742E+03</pdfrwt>
<totfact> 0.69410955E+02</totfact>
</mgrwt>
</event>
<event>
 6    1  0.6101889E-006  0.1443727E+03  0.7546771E-02  0.1215292E+00
          2   -1    0    0  501    0  0.00000000000E+00  0.00000000000E+00  0.95759262065E+02  0.95759262065E+02  0.00000000000E+00 0. -1.
         -2   -1    0    0    0  501 -0.00000000000E+00 -0.00000000000E+00 -0.18722048728E+03  0.18722048728E+03  0.00000000000E+00 0.  1.
          5    1    1    2  502    0 -0.57167232525E+02 -0.86124715180E+02 -0.49247262283E+02  0.11459904835E+03  0.47000000000E+01 0. -1.
         -5    1    1    2    0  502  0.11739983397E+02  0.29953990607E+02  0.11736017386E+02  0.34567222445E+02  0.47000000000E+01 0. -1.
        -11    1    1    2    0    0 -0.23978381181E+02 -0.92040803121E+01 -0.20177933386E+02  0.32662315506E+02  0.00000000000E+00 0.  1.
         11    1    1    2    0    0  0.69405630309E+02  0.65374804884E+02 -0.33772046931E+02  0.10115116305E+03  0.00000000000E+00 0. -1.
<mgrwt>
<rscale>  0 0.13855072E+03</rscale>
<asrwt>0</asrwt>
<pdfrwt beam="1">  1        2 0.14732194E-01 0.14437272E+03</pdfrwt>
<pdfrwt beam="2">  1       -2 0.28803152E-01 0.14437272E+03</pdfrwt>
<totfact> 0.42091292E+03</totfact>
</mgrwt>
</event>
<event>
 6    1  0.6101889E-006  0.1136681E+03  0.7546771E-02  0.1266392E+00
          1   -1    0    0  501    0  0.00000000000E+00  0.00000000000E+00  0.47575334314E+03  0.47575334314E+03  0.00000000000E+00 0. -1.
         -1   -1    0    0    0  501 -0.00000000000E+00 -0.00000000000E+00 -0.21578116657E+02  0.21578116657E+02  0.00000000000E+00 0.  1.
          5    1    1    2  502    0  0.36452941768E+02 -0.15254111226E+02  0.19879179723E+03  0.20273572334E+03  0.47000000000E+01 0. -1.
         -5    1    1    2    0  502 -0.45786868269E+02  0.24552526925E+02  0.57533852511E+02  0.77662719944E+02  0.47000000000E+01 0.  1.
        -11    1    1    2    0    0 -0.25867352305E+02 -0.28634528185E+02  0.14783833689E+03  0.15279145910E+03  0.00000000000E+00 0.  1.
         11    1    1    2    0    0  0.35201278806E+02  0.19336112486E+02  0.50011239852E+02  0.64141557411E+02  0.00000000000E+00 0. -1.
<mgrwt>
<rscale>  0 0.10691502E+03</rscale>
<asrwt>0</asrwt>
<pdfrwt beam="1">  1        1 0.73192814E-01 0.11366815E+03</pdfrwt>
<pdfrwt beam="2">  1       -1 0.33197106E-02 0.11366815E+03</pdfrwt>
<totfact> 0.14589329E+04</totfact>
</mgrwt>
</event>
<event>
 6    1  0.6101889E-006  0.1333517E+03  0.7546771E-02  0.1235666E+00
         -1   -1    0    0    0  501 -0.00000000000E+00  0.00000000000E+00  0.27291101564E+03  0.27291101564E+03  0.00000000000E+00 0.  1.
          1   -1    0    0  501    0  0.00000000000E+00 -0.00000000000E+00 -0.50943335381E+02  0.50943335381E+02  0.00000000000E+00 0. -1.
          5    1    1    2  502    0 -0.27808403727E+02  0.67275542010E+02  0.12119216031E+03  0.14145294479E+03  0.47000000000E+01 0. -1.
         -5    1    1    2    0  502 -0.13342790029E+02 -0.45732716550E+02  0.17555571568E+02  0.50988229052E+02  0.47000000000E+01 0. -1.
        -11    1    1    2    0    0  0.60733883705E+02  0.11250821556E+02  0.39309251104E+02  0.73214771993E+02  0.00000000000E+00 0. -1.
         11    1    1    2    0    0 -0.19582689950E+02 -0.32793647016E+02  0.43910697276E+02  0.58198405180E+02  0.00000000000E+00 0.  1.
<mgrwt>
<rscale>  0 0.12461899E+03</rscale>
<asrwt>0</asrwt>
<pdfrwt beam="2">  1        1 0.78374364E-02 0.13335169E+03</pdfrwt>
<pdfrwt beam="1">  1       -1 0.41986309E-01 0.13335169E+03</pdfrwt>
<totfact> 0.48251625E+03</totfact>
</mgrwt>
</event>
<event>
 6    1  0.6101889E-006  0.1520812E+03  0.7546771E-02  0.1206598E+00
          3   -1    0    0  501    0  0.00000000000E+00  0.00000000000E+00  0.51587530146E+02  0.51587530146E+02  0.00000000000E+00 0. -1.
         -3   -1    0    0    0  501 -0.00000000000E+00 -0.00000000000E+00 -0.44075083223E+03  0.44075083223E+03  0.00000000000E+00 0.  1.
          5    1    1    2  502    0  0.59580302914E+02 -0.60204175751E+02 -0.44770266665E+02  0.95920915605E+02  0.47000000000E+01 0.  1.
         -5    1    1    2    0  502  0.26999650154E+02  0.57312850455E+02 -0.70559500237E+02  0.94944599686E+02  0.47000000000E+01 0.  1.
        -11    1    1    2    0    0 -0.27464614881E+02 -0.25918109637E+02 -0.28042505177E+02  0.47036534463E+02  0.00000000000E+00 0. -1.
         11    1    1    2    0    0 -0.59115338188E+02  0.28809434933E+02 -0.24579103001E+03  0.25443631262E+03  0.00000000000E+00 0.  1.
<mgrwt>
<rscale>  0 0.14512256E+03</rscale>
<asrwt>0</asrwt>
<pdfrwt beam="1">  1        3 0.79365435E-02 0.15208119E+03</pdfrwt>
<pdfrwt beam="2">  1       -3 0.67807817E-01 0.15208119E+03</pdfrwt>
<totfact> 0.54212556E+02</totfact>
</mgrwt>
</event>
<event>
 6    1  0.6101889E-006  0.2099491E+03  0.7546771E-02  0.1145699E+00
         -2   -1    0    0    0  501 -0.00000000000E+00  0.00000000000E+00  0.69533218348E+02  0.69533218348E+02  0.00000000000E+00 0.  1.
          2   -1    0    0  501    0  0.00000000000E+00 -0.00000000000E+00 -0.61124004948E+03  0.61124004948E+03  0.00000000000E+00 0. -1.
          5    1    1    2  502    0 -0.41873674173E+02 -0.45064429364E+01 -0.12492933115E+03  0.13192096270E+03  0.47000000000E+01 0.  1.
         -5    1    1    2    0  502 -0.25821506199E+02  0.15901223082E+03 -0.23997442452E+03  0.28906998141E+03  0.47000000000E+01 0.  1.
        -11    1    1    2    0    0 -0.10075937855E+02 -0.73319033330E+02 -0.45299436446E+02  0.86771217085E+02  0.00000000000E+00 0.  1.
         11    1    1    2    0    0  0.77771118227E+02 -0.81186754550E+02 -0.13150363902E+03  0.17301110664E+03  0.00000000000E+00 0. -1.
<mgrwt>
<rscale>  0 0.20486386E+03</rscale>
<asrwt>0</asrwt>
<pdfrwt beam="2">  1        2 0.94036928E-01 0.20994910E+03</pdfrwt>
<pdfrwt beam="1">  1       -2 0.10697419E-01 0.20994910E+03</pdfrwt>
<totfact> 0.29121001E+03</totfact>
</mgrwt>
</event>
<event>
 6    1  0.6101889E-006  0.1290326E+03  0.7546771E-02  0.1242751E+00
         -4   -1    0    0    0  501 -0.00000000000E+00  0.00000000000E+00  0.58246849929E+03  0.58246849929E+03  0.00000000000E+00 0.  1.
          4   -1    0    0  501    0  0.00000000000E+00 -0.00000000000E+00 -0.46221226117E+02  0.46221226117E+02  0.00000000000E+00 0. -1.
          5    1    1    2  502    0 -0.15261885600E+02  0.48441809236E+01  0.91661372618E+02  0.93168065725E+02  0.47000000000E+01 0. -1.
         -5    1    1    2    0  502  0.69851822945E+01 -0.35774255726E+02 -0.32240720186E+02  0.48889100856E+02  0.47000000000E+01 0. -1.
        -11    1    1    2    0    0  0.23013065499E+02  0.60091340778E+02  0.30203198584E+03  0.30881044492E+03  0.00000000000E+00 0. -1.
         11    1    1    2    0    0 -0.14736362193E+02 -0.29161265975E+02  0.17479463490E+03  0.17782211391E+03  0.00000000000E+00 0.  1.
<mgrwt>
<rscale>  0 0.12020984E+03</rscale>
<asrwt>0</asrwt>
<pdfrwt beam="2">  1        4 0.71109583E-02 0.12903265E+03</pdfrwt>
<pdfrwt beam="1">  1       -4 0.89610533E-01 0.12903265E+03</pdfrwt>
<totfact> 0.24448033E+02</totfact>
</mgrwt>
</event>
<event>
 6    1  0.6101889E-006  0.1385577E+03  0.7546771E-02  0.1225217E+00
         -1   -1    0    0    0  501 -0.00000000000E+00  0.00000000000E+00  0.51322389246E+02  0.51322389246E+02  0.00000000000E+00 0.  1.
          1   -1    0    0  501    0  0.00000000000E+00 -0.00000000000E+00 -0.30781863827E+03  0.30781863827E+03  0.00000000000E+00 0. -1.
          5    1    1    2  502    0 -0.61987019330E+02  0.52539637781E+01 -0.14085755099E+02  0.63956963636E+02  0.47000000000E+01 0.  1.
         -5    1    1    2    0  502  0.86647773114E+01 -0.32301746460E+02 -0.13675261837E+03  0.14086110116E+03  0.47000000000E+01 0.  1.
        -11    1    1    2    0    0  0.68846304629E+02  0.17580284594E+02 -0.11398909740E+03  0.13432198031E+03  0.00000000000E+00 0. -1.
         11    1    1    2    0    0 -0.15524062611E+02  0.94674980882E+01  0.83312218433E+01  0.20000982411E+02  0.00000000000E+00 0.  1.
<mgrwt>
<rscale>  0 0.13152029E+03</rscale>
<asrwt>0</asrwt>
<pdfrwt beam="2">  1        1 0.47356713E-01 0.13855766E+03</pdfrwt>
<pdfrwt beam="1">  1       -1 0.78957524E-02 0.13855766E+03</pdfrwt>
<totfact> 0.71046208E+03</totfact>
</mgrwt>
</event>
<event>
 6    1  0.6101889E-006  0.1943617E+03  0.7546771E-02  0.1159103E+00
          2   -1    0    0  501    0  0.00000000000E+00  0.00000000000E+00  0.14871671778E+04  0.14871671778E+04  0.00000000000E+00 0. -1.
         -2   -1    0    0    0  501 -0.00000000000E+00 -0.00000000000E+00 -0.23264662051E+02  0.23264662051E+02  0.00000000000E+00 0.  1.
          5    1    1    2  502    0 -0.10950944997E+02 -0.14030782457E+02  0.21183607771E+03  0.21263442777E+03  0.47000000000E+01 0.  1.
         -5    1    1    2    0  502  0.13389006282E+03  0.97930079886E+02  0.65050001188E+03  0.67133389972E+03  0.47000000000E+01 0.  1.
        -11    1    1    2    0    0 -0.11146285410E+03 -0.63042517812E+02  0.58118305143E+03  0.59512357218E+03  0.00000000000E+00 0. -1.
         11    1    1    2    0    0 -0.11476263730E+02 -0.20856779617E+02  0.20383374752E+02  0.31339940196E+02  0.00000000000E+00 0.  1.
<mgrwt>
<rscale>  0 0.18929002E+03</rscale>
<asrwt>0</asrwt>
<pdfrwt beam="1">  1        2 0.22879488E+00 0.19436171E+03</pdfrwt>
<pdfrwt beam="2">  1       -2 0.35791799E-02 0.19436171E+03</pdfrwt>
<totfact> 0.44822908E+03</totfact>
</mgrwt>
</event>
<event>
 6    1  0.6101889E-006  0.1267671E+03  0.7546771E-02  0.1245830E+00
         -1   -1    0    0    0  501 -0.00000000000E+00  0.00000000000E+00  0.19608258526E+03  0.19608258526E+03  0.00000000000E+00 0.  1.
          1   -1    0    0  501    0  0.00000000000E+00 -0.00000000000E+00 -0.76357995997E+02  0.76357995997E+02  0.00000000000E+00 0. -1.
          5    1    1    2  502    0 -0.50226262774E+02  0.15541538446E+02  0.10922773881E+00  0.52785592923E+02  0.47000000000E+01 0.  1.
         -5    1    1    2    0  502  0.70165111350E+02 -0.21892002394E+02  0.10988458337E+02  0.74466360433E+02  0.47000000000E+01 0.  1.
        -11    1    1    2    0    0 -0.13995663561E+02 -0.24940801352E+02 -0.33269440546E+01  0.28792199071E+02  0.00000000000E+00 0. -1.
         11    1    1    2    0    0 -0.59431850147E+01  0.31291265300E+02  0.11195384724E+03  0.11639642883E+03  0.00000000000E+00 0.  1.
<mgrwt>
<rscale>  0 0.11835812E+03</rscale>
<asrwt>0</asrwt>
<pdfrwt beam="2">  1        1 0.11747384E-01 0.12676711E+03</pdfrwt>
<pdfrwt beam="1">  1       -1 0.30166551E-01 0.12676711E+03</pdfrwt>
<totfact> 0.49628276E+03</totfact>
</mgrwt>
</event>
<event>
 6    1  0.6101889E-006  0.1315459E+03  0.7546771E-02  0.1239719E+00
          2   -1    0    0  501    0  0.00000000000E+00  0.00000000000E+00  0.70014778274E+03  0.70014778274E+03  0.00000000000E+00 0.  1.
         -2   -1    0    0    0  501 -0.00000000000E+00 -0.00000000000E+00 -0.19582643735E+02  0.19582643735E+02  0.00000000000E+00 0. -1.
          5    1    1    2  502    0 -0.10590519963E+02 -0.80415177532E+02  0.30852988558E+03  0.31904786504E+03  0.47000000000E+01 0. -1.
         -5    1    1    2    0  502 -0.13894920768E+02  0.47494451065E+02  0.15391381890E+03  0.16174160057E+03  0.47000000000E+01 0. -1.
        -11    1    1    2    0    0 -0.29193131889E+02  0.24350779333E+02  0.53906149613E+02  0.65962658904E+02  0.00000000000E+00 0. -1.
         11    1    1    2    0    0  0.53678572620E+02  0.85699471339E+01  0.16421528491E+03  0.17297830197E+03  0.00000000000E+00 0.  1.
<mgrwt>
<rscale>  0 0.12207138E+03</rscale>
<asrwt>0</asrwt>
<pdfrwt beam="1">  1        2 0.10771502E+00 0.13154593E+03</pdfrwt>
<pdfrwt beam="2">  1       -2 0.30127150E-02 0.13154593E+03</pdfrwt>
<totfact> 0.16709277E+04</totfact>
</mgrwt>
</event>
<event>
 6    1  0.6101889E-006  0.1326601E+03  0.7546771E-02  0.1236751E+00
         -1   -1    0    0    0  501 -0.00000000000E+00  0.00000000000E+00  0.49511672432E+03  0.49511672432E+03  0.00000000000E+00 0.  1.
          1   -1    0    0  501    0  0.00000000000E+00 -0.00000000000E+00 -0.28901957018E+02  0.28901957018E+02  0.00000000000E+00 0. -1.
          5    1    1    2  502    0 -0.51148650110E+02  0.57182063763E+01  0.86293747150E+02  0.10058619731E+03  0.47000000000E+01 0. -1.
         -5    1    1    2    0  502  0.67322391678E+02  0.35653860900E+02  0.23251586466E+03  0.24472274013E+03  0.47000000000E+01 0. -1.
        -11    1    1    2    0    0  0.37666405161E+02 -0.20687811905E+02  0.70765041005E+02  0.82791513259E+02  0.00000000000E+00 0.  1.
         11    1    1    2    0    0 -0.53840146730E+02 -0.20684255372E+02  0.76640114479E+02  0.95918230631E+02  0.00000000000E+00 0. -1.
<mgrwt>
<rscale>  0 0.12393030E+03</rscale>
<asrwt>0</asrwt>
<pdfrwt beam="2">  1        1 0.44464553E-02 0.13266007E+03</pdfrwt>
<pdfrwt beam="1">  1       -1 0.76171798E-01 0.13266007E+03</pdfrwt>
<totfact> 0.33993239E+03</totfact>
</mgrwt>
</event>
<event>
 6    1  0.6101889E-006  0.1291055E+03  0.7546771E-02  0.1242775E+00
          2   -1    0    0  501    0  0.00000000000E+00  0.00000000000E+00  0.73640436065E+03  0.73640436065E+03  0.00000000000E+00 0. -1.
         -2   -1    0    0    0  501 -0.00000000000E+00 -0.00000000000E+00 -0.21827509612E+02  0.21827509612E+02  0.00000000000E+00 0.  1.
          5    1    1    2  502    0  0.13590532531E+02  0.91176009328E+01  0.49132672377E+01  0.17721834447E+02  0.47000000000E+01 0.  1.
         -5    1    1    2    0  502 -0.43130691173E+02  0.38184014173E+01  0.56297262853E+03  0.56465485669E+03  0.47000000000E+01 0.  1.
        -11    1    1    2    0    0  0.16842541975E+02 -0.38795518682E+02  0.21601013082E+02  0.47490707051E+02  0.00000000000E+00 0.  1.
         11    1    1    2    0    0  0.12697616668E+02  0.25859516332E+02  0.12508994219E+03  0.12836447207E+03  0.00000000000E+00 0. -1.
<mgrwt>
<rscale>  0 0.12019565E+03</rscale>
<asrwt>0</asrwt>
<pdfrwt beam="1">  1        2 0.11329296E+00 0.12910546E+03</pdfrwt>
<pdfrwt beam="2">  1       -2 0.33580790E-02 0.12910546E+03</pdfrwt>
<totfact> 0.13390639E+04</totfact>
</mgrwt>
</event>
<event>
 6    1  0.6101889E-006  0.1572734E+03  0.7546771E-02  0.1200069E+00
          2   -1    0    0  501    0  0.00000000000E+00  0.00000000000E+00  0.10398128573E+04  0.10398128573E+04  0.00000000000E+00 0. -1.
         -2   -1    0    0    0  501 -0.00000000000E+00 -0.00000000000E+00 -0.20404049451E+02  0.20404049451E+02  0.00000000000E+00 0.  1.
          5    1    1    2  502    0  0.38071222700E+02  0.43701759693E+01  0.75288717536E+02  0.84610858784E+02  0.47000000000E+01 0. -1.
         -5    1    1    2    0  502 -0.58883085419E+02 -0.97545621733E+02  0.40693772288E+03  0.42261420513E+03  0.47000000000E+01 0. -1.
        -11    1    1    2    0    0 -0.29777074181E+02  0.33772798383E+02  0.11203530848E+03  0.12074430174E+03  0.00000000000E+00 0.  1.
         11    1    1    2    0    0  0.50588936899E+02  0.59402647381E+02  0.42514705898E+03  0.43224754113E+03  0.00000000000E+00 0. -1.
<mgrwt>
<rscale>  0 0.15032913E+03</rscale>
<asrwt>0</asrwt>
<pdfrwt beam="1">  1        2 0.15997117E+00 0.15727341E+03</pdfrwt>
<pdfrwt beam="2">  1       -2 0.31390853E-02 0.15727341E+03</pdfrwt>
<totfact> 0.95646124E+03</totfact>
</mgrwt>
</event>
<event>
 6    1  0.6101889E-006  0.2148991E+03  0.7546771E-02  0.1141407E+00
          1   -1    0    0  501    0  0.00000000000E+00  0.00000000000E+00  0.11765478989E+03  0.11765478989E+03  0.00000000000E+00 0. -1.
         -1   -1    0    0    0  501 -0.00000000000E+00 -0.00000000000E+00 -0.36037773345E+03  0.36037773345E+03  0.00000000000E+00 0.  1.
          5    1    1    2  502    0 -0.10940092134E+03  0.11865840281E+03 -0.10545412756E+03  0.19284978912E+03  0.47000000000E+01 0.  1.
         -5    1    1    2    0  502 -0.42370127503E+02 -0.31925168835E+02 -0.28958042191E+02  0.60622622157E+02  0.47000000000E+01 0.  1.
        -11    1    1    2    0    0  0.13955018065E+03 -0.92592222465E+02 -0.65792241493E+02  0.17993385346E+03  0.00000000000E+00 0. -1.
         11    1    1    2    0    0  0.12220868186E+02  0.58589884941E+01 -0.42518532315E+02  0.44626258588E+02  0.00000000000E+00 0.  1.
<mgrwt>
<rscale>  0 0.21020075E+03</rscale>
<asrwt>0</asrwt>
<pdfrwt beam="1">  1        1 0.18100737E-01 0.21489912E+03</pdfrwt>
<pdfrwt beam="2">  1       -1 0.55442727E-01 0.21489912E+03</pdfrwt>
<totfact> 0.98098459E+02</totfact>
</mgrwt>
</event>
<event>
 6    1  0.6101889E-006  0.1154511E+03  0.7546771E-02  0.1258247E+00
          2   -1    0    0  501    0  0.00000000000E+00  0.00000000000E+00  0.26902840469E+04  0.26902840469E+04  0.00000000000E+00 0. -1.
         -2   -1    0    0    0  501 -0.00000000000E+00 -0.00000000000E+00 -0.33700423254E+02  0.33700423254E+02  0.00000000000E+00 0.  1.
          5    1    1    2  502    0 -0.97981890684E+01 -0.29138897325E+02  0.24260912900E+04  0.24262906086E+04  0.47000000000E+01 0. -1.
         -5    1    1    2    0  502 -0.15993903460E+02  0.24577898551E+02  0.18644572360E+03  0.18879612256E+03  0.47000000000E+01 0.  1.
        -11    1    1    2    0    0 -0.27700435685E+02  0.20873732339E+02  0.39828745972E+02  0.52814352638E+02  0.00000000000E+00 0. -1.
         11    1    1    2    0    0  0.53492528214E+02 -0.16312733565E+02  0.42178640793E+01  0.56083386385E+02  0.00000000000E+00 0.  1.
<mgrwt>
<rscale>  0 0.11126409E+03</rscale>
<asrwt>0</asrwt>
<pdfrwt beam="1">  1        2 0.41388969E+00 0.11545113E+03</pdfrwt>
<pdfrwt beam="2">  1       -2 0.51846826E-02 0.11545113E+03</pdfrwt>
<totfact> 0.61055679E+02</totfact>
</mgrwt>
</event>
<event>
 6    1  0.6101889E-006  0.1387603E+03  0.7546771E-02  0.1226118E+00
         -2   -1    0    0    0  501 -0.00000000000E+00  0.00000000000E+00  0.66364779342E+03  0.66364779342E+03  0.00000000000E+00 0.  1.
          2   -1    0    0  501    0  0.00000000000E+00 -0.00000000000E+00 -0.24156442717E+02  0.24156442717E+02  0.00000000000E+00 0. -1.
          5    1    1    2  502    0  0.11956040411E+02  0.47761434083E+02  0.29390786400E+02  0.57532684738E+02  0.47000000000E+01 0. -1.
         -5    1    1    2    0  502 -0.40779744319E+02  0.51394349401E+01  0.26157840478E+03  0.26482966825E+03  0.47000000000E+01 0. -1.
        -11    1    1    2    0    0  0.87378980441E+01 -0.64376757930E+02  0.32845335540E+03  0.33481685217E+03  0.00000000000E+00 0.  1.
         11    1    1    2    0    0  0.20085805864E+02  0.11475888907E+02  0.20068804122E+02  0.30625030976E+02  0.00000000000E+00 0. -1.
<mgrwt>
<rscale>  0 0.13090541E+03</rscale>
<asrwt>0</asrwt>
<pdfrwt beam="2">  1        2 0.37163763E-02 0.13876028E+03</pdfrwt>
<pdfrwt beam="1">  1       -2 0.10209965E+00 0.13876028E+03</pdfrwt>
<totfact> 0.18397509E+03</totfact>
</mgrwt>
</event>
<event>
 6    1  0.6101889E-006  0.1465447E+03  0.7546771E-02  0.1214299E+00
         -2   -1    0    0    0  501 -0.00000000000E+00  0.00000000000E+00  0.19707821912E+02  0.19707821912E+02  0.00000000000E+00 0.  1.
          2   -1    0    0  501    0  0.00000000000E+00 -0.00000000000E+00 -0.94503896342E+03  0.94503896342E+03  0.00000000000E+00 0. -1.
          5    1    1    2  502    0  0.71244939618E+01  0.38060543578E+02 -0.36130697205E+03  0.36340635857E+03  0.47000000000E+01 0.  1.
         -5    1    1    2    0  502  0.66548292961E+02 -0.58577095506E+02 -0.25255245303E+03  0.26770278845E+03  0.47000000000E+01 0.  1.
        -11    1    1    2    0    0 -0.23713394268E+02 -0.11808191522E+02 -0.13404950242E+02  0.29689242930E+02  0.00000000000E+00 0.  1.
         11    1    1    2    0    0 -0.49959392654E+02  0.32324743451E+02 -0.29806676619E+03  0.30394839539E+03  0.00000000000E+00 0. -1.
<mgrwt>
<rscale>  0 0.13928122E+03</rscale>
<asrwt>0</asrwt>
<pdfrwt beam="2">  1        2 0.14539059E+00 0.14654474E+03</pdfrwt>
<pdfrwt beam="1">  1       -2 0.30319730E-02 0.14654474E+03</pdfrwt>
<totfact> 0.11438780E+04</totfact>
</mgrwt>
</event>
<event>
 6    1  0.6101889E-006  0.1512240E+03  0.7546771E-02  0.1208272E+00
          1   -1    0    0  501    0  0.00000000000E+00  0.00000000000E+00  0.10206843482E+04  0.10206843482E+04  0.00000000000E+00 0. -1.
         -1   -1    0    0    0  501 -0.00000000000E+00 -0.00000000000E+00 -0.19179144943E+02  0.19179144943E+02  0.00000000000E+00 0.  1.
          5    1    1    2  502    0 -0.46757020425E+02 -0.27320037598E+02  0.81880235196E+02  0.98280549089E+02  0.47000000000E+01 0. -1.
         -5    1    1    2    0  502 -0.34594701179E+02  0.20992566292E+01  0.56332769459E+03  0.56441242166E+03  0.47000000000E+01 0. -1.
        -11    1    1    2    0    0  0.32318284772E+02  0.37182536069E+02  0.28835429265E+03  0.29253240950E+03  0.00000000000E+00 0. -1.
         11    1    1    2    0    0  0.49033436832E+02 -0.11961755100E+02  0.67942980846E+02  0.84638112921E+02  0.00000000000E+00 0.  1.
<mgrwt>
<rscale>  0 0.14382585E+03</rscale>
<asrwt>0</asrwt>
<pdfrwt beam="1">  1        1 0.15702832E+00 0.15122401E+03</pdfrwt>
<pdfrwt beam="2">  1       -1 0.29506385E-02 0.15122401E+03</pdfrwt>
<totfact> 0.58363759E+03</totfact>
</mgrwt>
</event>
<event>
 6    1  0.6101889E-006  0.2870735E+03  0.7546771E-02  0.1093632E+00
         -1   -1    0    0    0  501 -0.00000000000E+00  0.00000000000E+00  0.13273655965E+03  0.13273655965E+03  0.00000000000E+00 0.  1.
          1   -1    0    0  501    0  0.00000000000E+00 -0.00000000000E+00 -0.59753457100E+03  0.59753457100E+03  0.00000000000E+00 0. -1.
          5    1    1    2  502    0  0.48043635159E+02  0.45734394521E+02 -0.60860128304E+01  0.66775409199E+02  0.47000000000E+01 0.  1.
         -5    1    1    2    0  502  0.99402735318E+02  0.16648662337E+03 -0.26223413702E+03  0.32617101675E+03  0.47000000000E+01 0.  1.
        -11    1    1    2    0    0 -0.17799629234E+02  0.66311868584E+01 -0.20899813364E+02  0.28241841984E+02  0.00000000000E+00 0. -1.
         11    1    1    2    0    0 -0.12964674124E+03 -0.21885220475E+03 -0.17557804813E+03  0.30908286271E+03  0.00000000000E+00 0.  1.
<mgrwt>
<rscale>  0 0.28379896E+03</rscale>
<asrwt>0</asrwt>
<pdfrwt beam="2">  1        1 0.91928396E-01 0.28707349E+03</pdfrwt>
<pdfrwt beam="1">  1       -1 0.20421009E-01 0.28707349E+03</pdfrwt>
<totfact> 0.69158093E+02</totfact>
</mgrwt>
</event>
<event>
 6    1  0.6101889E-006  0.1950880E+03  0.7546771E-02  0.1159019E+00
         -1   -1    0    0    0  501 -0.00000000000E+00  0.00000000000E+00  0.40488654219E+02  0.40488654219E+02  0.00000000000E+00 0.  1.
          1   -1    0    0  501    0  0.00000000000E+00 -0.00000000000E+00 -0.84052083723E+03  0.84052083723E+03  0.00000000000E+00 0. -1.
          5    1    1    2  502    0  0.13604700718E+02  0.18514272259E+02 -0.58432660359E+02  0.62962941128E+02  0.47000000000E+01 0.  1.
         -5    1    1    2    0  502 -0.14246889223E+03 -0.94802628531E+02 -0.33982255613E+03  0.38050805942E+03  0.47000000000E+01 0.  1.
        -11    1    1    2    0    0  0.11628186359E+03  0.46519917718E+02 -0.37565712199E+03  0.39598465608E+03  0.00000000000E+00 0. -1.
         11    1    1    2    0    0  0.12582327922E+02  0.29768438553E+02 -0.26119844526E+02  0.41553834816E+02  0.00000000000E+00 0.  1.
<mgrwt>
<rscale>  0 0.18938279E+03</rscale>
<asrwt>0</asrwt>
<pdfrwt beam="2">  1        1 0.12931090E+00 0.19508796E+03</pdfrwt>
<pdfrwt beam="1">  1       -1 0.62290238E-02 0.19508796E+03</pdfrwt>
<totfact> 0.26711072E+03</totfact>
</mgrwt>
</event>
<event>
 6    1  0.6101889E-006  0.2299368E+03  0.7546771E-02  0.1129275E+00
          2   -1    0    0  501    0  0.00000000000E+00  0.00000000000E+00  0.68308553911E+03  0.68308553911E+03  0.00000000000E+00 0. -1.
         -2   -1    0    0    0  501 -0.00000000000E+00 -0.00000000000E+00 -0.72700416774E+02  0.72700416774E+02  0.00000000000E+00 0.  1.
          5    1    1    2  502    0  0.25083998708E+02  0.12332565203E+03  0.15126015576E+03  0.19682517156E+03  0.47000000000E+01 0. -1.
         -5    1    1    2    0  502  0.10000491698E+03  0.23638936215E+02  0.15834340609E+03  0.18882401060E+03  0.47000000000E+01 0. -1.
        -11    1    1    2    0    0 -0.47896466106E+02 -0.64093177714E+02  0.48407998524E+02  0.93516529106E+02  0.00000000000E+00 0.  1.
         11    1    1    2    0    0 -0.77192449582E+02 -0.82871410531E+02  0.25237356196E+03  0.27662024462E+03  0.00000000000E+00 0. -1.
<mgrwt>
<rscale>  0 0.22629499E+03</rscale>
<asrwt>0</asrwt>
<pdfrwt beam="1">  1        2 0.10509008E+00 0.22993679E+03</pdfrwt>
<pdfrwt beam="2">  1       -2 0.11184680E-01 0.22993679E+03</pdfrwt>
<totfact> 0.23829814E+03</totfact>
</mgrwt>
</event>
<event>
 6    1  0.6101889E-006  0.2562437E+03  0.7546771E-02  0.1111133E+00
         -1   -1    0    0    0  501 -0.00000000000E+00  0.00000000000E+00  0.12517479168E+03  0.12517479168E+03  0.00000000000E+00 0.  1.
          1   -1    0    0  501    0  0.00000000000E+00 -0.00000000000E+00 -0.60539881640E+03  0.60539881640E+03  0.00000000000E+00 0. -1.
          5    1    1    2  502    0  0.18014680801E+02 -0.28117544807E+02 -0.73882215834E+02  0.81214511431E+02  0.47000000000E+01 0. -1.
         -5    1    1    2    0  502  0.18778815950E+03  0.11576759394E+03 -0.32119818079E+03  0.38968819587E+03  0.47000000000E+01 0. -1.
        -11    1    1    2    0    0 -0.16530555107E+03 -0.83146796503E+02 -0.24563044348E+02  0.18666188184E+03  0.00000000000E+00 0.  1.
         11    1    1    2    0    0 -0.40497289232E+02 -0.45032526332E+01 -0.60580583749E+02  0.73009018941E+02  0.00000000000E+00 0. -1.
<mgrwt>
<rscale>  0 0.25346676E+03</rscale>
<asrwt>0</asrwt>
<pdfrwt beam="2">  1        1 0.93138278E-01 0.25624371E+03</pdfrwt>
<pdfrwt beam="1">  1       -1 0.19257661E-01 0.25624371E+03</pdfrwt>
<totfact> 0.74789556E+02</totfact>
</mgrwt>
</event>
<event>
 6    1  0.6101889E-006  0.1343076E+03  0.7546771E-02  0.1234159E+00
         -1   -1    0    0    0  501 -0.00000000000E+00  0.00000000000E+00  0.39392982492E+02  0.39392982492E+02  0.00000000000E+00 0.  1.
          1   -1    0    0  501    0  0.00000000000E+00 -0.00000000000E+00 -0.38878082635E+03  0.38878082635E+03  0.00000000000E+00 0. -1.
          5    1    1    2  502    0  0.98640421190E+01 -0.43334533076E+02 -0.18175226284E+03  0.18716611908E+03  0.47000000000E+01 0.  1.
         -5    1    1    2    0  502  0.36456144523E+02  0.59736041620E+02 -0.75606590822E+02  0.10313045970E+03  0.47000000000E+01 0.  1.
        -11    1    1    2    0    0 -0.13537868190E+02  0.13610861088E+02  0.13434360464E+02  0.23430993487E+02  0.00000000000E+00 0.  1.
         11    1    1    2    0    0 -0.32782318452E+02 -0.30012369632E+02 -0.10546335067E+03  0.11444623658E+03  0.00000000000E+00 0. -1.
<mgrwt>
<rscale>  0 0.12558407E+03</rscale>
<asrwt>0</asrwt>
<pdfrwt beam="2">  1        1 0.59812432E-01 0.13430757E+03</pdfrwt>
<pdfrwt beam="1">  1       -1 0.60604592E-02 0.13430757E+03</pdfrwt>
<totfact> 0.78775397E+03</totfact>
</mgrwt>
</event>
<event>
 6    1  0.6101889E-006  0.1455537E+03  0.7546771E-02  0.1215648E+00
         -2   -1    0    0    0  501 -0.00000000000E+00  0.00000000000E+00  0.34124483693E+02  0.34124483693E+02  0.00000000000E+00 0.  1.
          2   -1    0    0  501    0  0.00000000000E+00 -0.00000000000E+00 -0.96207551648E+03  0.96207551648E+03  0.00000000000E+00 0. -1.
          5    1    1    2  502    0 -0.96875132656E+01  0.28131398092E+02 -0.66126537303E+02  0.72663831495E+02  0.47000000000E+01 0.  1.
         -5    1    1    2    0  502 -0.27042014785E+02 -0.93039154808E+02 -0.76304003381E+03  0.76918121278E+03  0.47000000000E+01 0.  1.
        -11    1    1    2    0    0  0.23145258084E+02  0.15328776548E+02 -0.99133783584E+02  0.10294746918E+03  0.00000000000E+00 0. -1.
         11    1    1    2    0    0  0.13584269967E+02  0.49578980168E+02  0.34932191616E+00  0.51407486719E+02  0.00000000000E+00 0.  1.
<mgrwt>
<rscale>  0 0.13829068E+03</rscale>
<asrwt>0</asrwt>
<pdfrwt beam="2">  1        2 0.14801161E+00 0.14555369E+03</pdfrwt>
<pdfrwt beam="1">  1       -2 0.52499209E-02 0.14555369E+03</pdfrwt>
<totfact> 0.49283981E+03</totfact>
</mgrwt>
</event>
<event>
 6    1  0.6101889E-006  0.1466218E+03  0.7546771E-02  0.1213480E+00
         -1   -1    0    0    0  501 -0.00000000000E+00  0.00000000000E+00  0.42314674093E+03  0.42314674093E+03  0.00000000000E+00 0.  1.
          1   -1    0    0  501    0  0.00000000000E+00 -0.00000000000E+00 -0.45842433495E+02  0.45842433495E+02  0.00000000000E+00 0. -1.
          5    1    1    2  502    0 -0.37803413550E+02 -0.31079641063E+01  0.35841440904E+02  0.52397103002E+02  0.47000000000E+01 0. -1.
         -5    1    1    2    0  502  0.99928350872E+02 -0.41719919744E+02  0.10584110712E+03  0.15149474238E+03  0.47000000000E+01 0. -1.
        -11    1    1    2    0    0 -0.70635073446E+02  0.10848747665E+02  0.20963717858E+03  0.22148308190E+03  0.00000000000E+00 0.  1.
         11    1    1    2    0    0  0.85101361242E+01  0.33979136186E+02  0.25984580828E+02  0.43614247140E+02  0.00000000000E+00 0. -1.
<mgrwt>
<rscale>  0 0.13988813E+03</rscale>
<asrwt>0</asrwt>
<pdfrwt beam="2">  1        1 0.70526824E-02 0.14662176E+03</pdfrwt>
<pdfrwt beam="1">  1       -1 0.65099496E-01 0.14662176E+03</pdfrwt>
<totfact> 0.24875292E+03</totfact>
</mgrwt>
</event>
<event>
 6    1  0.6101889E-006  0.3654500E+03  0.7546771E-02  0.1056446E+00
          3   -1    0    0  501    0  0.00000000000E+00  0.00000000000E+00  0.22059639440E+03  0.22059639440E+03  0.00000000000E+00 0. -1.
         -3   -1    0    0    0  501 -0.00000000000E+00 -0.00000000000E+00 -0.15135526367E+03  0.15135526367E+03  0.00000000000E+00 0.  1.
          5    1    1    2  502    0  0.52090876390E+01 -0.50680619421E+02  0.79695340316E+02  0.94705316888E+02  0.47000000000E+01 0.  1.
         -5    1    1    2    0  502  0.93492396416E+02  0.40114843460E+02  0.65609949810E+02  0.12114777904E+03  0.47000000000E+01 0.  1.
        -11    1    1    2    0    0 -0.46945693000E+02  0.45252406177E+01  0.16424688703E+02  0.49941428623E+02  0.00000000000E+00 0. -1.
         11    1    1    2    0    0 -0.51755791055E+02  0.60405353428E+01 -0.92488848093E+02  0.10615713352E+03  0.00000000000E+00 0.  1.
<mgrwt>
<rscale>  0 0.36545000E+03</rscale>
<asrwt>0</asrwt>
<pdfrwt beam="1">  1        3 0.33937907E-01 0.36545000E+03</pdfrwt>
<pdfrwt beam="2">  1       -3 0.23285425E-01 0.36545000E+03</pdfrwt>
<totfact> 0.37788130E+02</totfact>
</mgrwt>
</event>
<event>
 6    1  0.6101889E-006  0.2643563E+03  0.7546771E-02  0.1104554E+00
         -2   -1    0    0    0  501 -0.00000000000E+00  0.00000000000E+00  0.16980276038E+02  0.16980276038E+02  0.00000000000E+00 0.  1.
          2   -1    0    0  501    0  0.00000000000E+00 -0.00000000000E+00 -0.10289032787E+04  0.10289032787E+04  0.00000000000E+00 0. -1.
          5    1    1    2  502    0  0.14492758951E+02  0.30233208679E+02 -0.32814438860E+03  0.32988621787E+03  0.47000000000E+01 0.  1.
         -5    1    1    2    0  502 -0.59464125869E+02 -0.75868040005E+02 -0.38088715599E+03  0.39292372970E+03  0.47000000000E+01 0.  1.
        -11    1    1    2    0    0  0.12011888256E+01  0.57061342976E+02 -0.23247500280E+03  0.23937850080E+03  0.00000000000E+00 0. -1.
         11    1    1    2    0    0  0.43770178092E+02 -0.11426511649E+02 -0.70416455270E+02  0.83695106377E+02  0.00000000000E+00 0.  1.
<mgrwt>
<rscale>  0 0.26435629E+03</rscale>
<asrwt>0</asrwt>
<pdfrwt beam="2">  1        2 0.15829282E+00 0.26435629E+03</pdfrwt>
<pdfrwt beam="1">  1       -2 0.26123500E-02 0.26435629E+03</pdfrwt>
<totfact> 0.13068007E+04</totfact>
</mgrwt>
</event>
<event>
 6    1  0.6101889E-006  0.1264938E+03  0.7546771E-02  0.1254713E+00
         -2   -1    0    0    0  501 -0.00000000000E+00  0.00000000000E+00  0.61297151180E+02  0.61297151180E+02  0.00000000000E+00 0.  1.
          2   -1    0    0  501    0  0.00000000000E+00 -0.00000000000E+00 -0.17597852631E+03  0.17597852631E+03  0.00000000000E+00 0. -1.
          5    1    1    2  502    0 -0.15555584658E+01  0.52811843357E+02  0.94977834953E+01  0.53886997061E+02  0.47000000000E+01 0. -1.
         -5    1    1    2    0  502 -0.12846817722E+02 -0.39880024315E+02 -0.81256838357E+02  0.91543546167E+02  0.47000000000E+01 0. -1.
        -11    1    1    2    0    0  0.39103578400E+02 -0.12147827519E+02  0.15400929932E+01  0.40975986182E+02  0.00000000000E+00 0.  1.
         11    1    1    2    0    0 -0.24701202213E+02 -0.78399152358E+00 -0.44462413261E+02  0.50869148081E+02  0.00000000000E+00 0. -1.
<mgrwt>
<rscale>  0 0.11322413E+03</rscale>
<asrwt>0</asrwt>
<pdfrwt beam="2">  1        2 0.27073619E-01 0.12649380E+03</pdfrwt>
<pdfrwt beam="1">  1       -2 0.94303312E-02 0.12649380E+03</pdfrwt>
<totfact> 0.13344590E+04</totfact>
</mgrwt>
</event>
<event>
 6    1  0.6101889E-006  0.1510836E+03  0.7546771E-02  0.1215482E+00
         -2   -1    0    0    0  501 -0.00000000000E+00  0.00000000000E+00  0.99468270025E+01  0.99468270025E+01  0.00000000000E+00 0.  1.
          2   -1    0    0  501    0  0.00000000000E+00 -0.00000000000E+00 -0.21273188482E+04  0.21273188482E+04  0.00000000000E+00 0. -1.
          5    1    1    2  502    0 -0.29790957971E+02  0.49325252848E+02 -0.68988035781E+03  0.69229869264E+03  0.47000000000E+01 0. -1.
         -5    1    1    2    0  502 -0.15163144390E+01 -0.92956885007E+02 -0.10040538282E+04  0.10083597877E+04  0.47000000000E+01 0.  1.
        -11    1    1    2    0    0  0.48539921591E+02 -0.86182752645E+01 -0.24373233609E+03  0.24866815299E+03  0.00000000000E+00 0.  1.
         11    1    1    2    0    0 -0.17232649181E+02  0.52249907423E+02 -0.17970549912E+03  0.18793904182E+03  0.00000000000E+00 0. -1.
<mgrwt>
<rscale>  0 0.13841196E+03</rscale>
<asrwt>0</asrwt>
<pdfrwt beam="2">  1        2 0.32727959E+00 0.15108355E+03</pdfrwt>
<pdfrwt beam="1">  1       -2 0.15302822E-02 0.15108355E+03</pdfrwt>
<totfact> 0.72323441E+03</totfact>
</mgrwt>
</event>
<event>
 6    1  0.6101889E-006  0.1261240E+03  0.7546771E-02  0.1247948E+00
          1   -1    0    0  501    0  0.00000000000E+00  0.00000000000E+00  0.50139501984E+03  0.50139501984E+03  0.00000000000E+00 0. -1.
         -1   -1    0    0    0  501 -0.00000000000E+00 -0.00000000000E+00 -0.28230128510E+02  0.28230128510E+02  0.00000000000E+00 0.  1.
          5    1    1    2  502    0 -0.27739084314E+02 -0.58744195208E+02  0.24225246076E+03  0.25085589890E+03  0.47000000000E+01 0.  1.
         -5    1    1    2    0  502  0.11193979279E+02  0.55803317766E+02  0.12438665729E+03  0.13687017921E+03  0.47000000000E+01 0.  1.
        -11    1    1    2    0    0  0.50311905215E+01 -0.15715017925E+02 -0.12607211788E+02  0.20765751985E+02  0.00000000000E+00 0.  1.
         11    1    1    2    0    0  0.11513914513E+02  0.18655895367E+02  0.11913298507E+03  0.12113331825E+03  0.00000000000E+00 0. -1.
<mgrwt>
<rscale>  0 0.11710682E+03</rscale>
<asrwt>0</asrwt>
<pdfrwt beam="1">  1        1 0.77137689E-01 0.12612402E+03</pdfrwt>
<pdfrwt beam="2">  1       -1 0.43430971E-02 0.12612402E+03</pdfrwt>
<totfact> 0.92804140E+03</totfact>
</mgrwt>
</event>
<event>
 6    1  0.6101889E-006  0.1383216E+03  0.7546771E-02  0.1227133E+00
          2   -1    0    0  501    0  0.00000000000E+00  0.00000000000E+00  0.27273171298E+03  0.27273171298E+03  0.00000000000E+00 0. -1.
         -2   -1    0    0    0  501 -0.00000000000E+00 -0.00000000000E+00 -0.56927307968E+02  0.56927307968E+02  0.00000000000E+00 0.  1.
          5    1    1    2  502    0 -0.45580578452E+02  0.30332443305E+01  0.18492410103E+02  0.49506049475E+02  0.47000000000E+01 0. -1.
         -5    1    1    2    0  502  0.75833769072E+02  0.47891770391E+02  0.80257545258E+02  0.12044810407E+03  0.47000000000E+01 0. -1.
        -11    1    1    2    0    0 -0.47953468314E+02 -0.18905821696E+02  0.11131664677E+03  0.12267176148E+03  0.00000000000E+00 0. -1.
         11    1    1    2    0    0  0.17700277693E+02 -0.32019193026E+02  0.57378028836E+01  0.37033105924E+02  0.00000000000E+00 0.  1.
<mgrwt>
<rscale>  0 0.13021789E+03</rscale>
<asrwt>0</asrwt>
<pdfrwt beam="1">  1        2 0.41958724E-01 0.13832158E+03</pdfrwt>
<pdfrwt beam="2">  1       -2 0.87580475E-02 0.13832158E+03</pdfrwt>
<totfact> 0.94219960E+03</totfact>
</mgrwt>
</event>
<event>
 6    1  0.6101889E-006  0.1222234E+03  0.7546771E-02  0.1258034E+00
         -1   -1    0    0    0  501 -0.00000000000E+00  0.00000000000E+00  0.46204079274E+02  0.46204079274E+02  0.00000000000E+00 0.  1.
          1   -1    0    0  501    0  0.00000000000E+00 -0.00000000000E+00 -0.24822637738E+03  0.24822637738E+03  0.00000000000E+00 0. -1.
          5    1    1    2  502    0  0.34370137543E+02  0.16348521839E+02 -0.94186190670E+01  0.39488997279E+02  0.47000000000E+01 0. -1.
         -5    1    1    2    0  502 -0.32170498502E+02 -0.51078486949E+02 -0.14727493000E+03  0.15923551052E+03  0.47000000000E+01 0.  1.
        -11    1    1    2    0    0 -0.33069486079E+02  0.16929062843E+01 -0.21451369630E+01  0.33182200858E+02  0.00000000000E+00 0.  1.
         11    1    1    2    0    0  0.30869847038E+02  0.33037058826E+02 -0.43183612077E+02  0.62523748001E+02  0.00000000000E+00 0. -1.
<mgrwt>
<rscale>  0 0.11138092E+03</rscale>
<asrwt>0</asrwt>
<pdfrwt beam="2">  1        1 0.38188674E-01 0.12222341E+03</pdfrwt>
<pdfrwt beam="1">  1       -1 0.71083199E-02 0.12222341E+03</pdfrwt>
<totfact> 0.10750790E+04</totfact>
</mgrwt>
</event>
<event>
 6    1  0.6101889E-006  0.1694840E+03  0.7546771E-02  0.1184935E+00
          2   -1    0    0  501    0  0.00000000000E+00  0.00000000000E+00  0.12207284573E+04  0.12207284573E+04  0.00000000000E+00 0. -1.
         -2   -1    0    0    0  501 -0.00000000000E+00 -0.00000000000E+00 -0.27772577612E+02  0.27772577612E+02  0.00000000000E+00 0.  1.
          5    1    1    2  502    0 -0.52632934090E+02  0.29594745939E+02  0.42401699343E+03  0.42832064561E+03  0.47000000000E+01 0.  1.
         -5    1    1    2    0  502  0.65237196144E+02  0.84165167762E+02  0.52497718851E+03  0.53568909423E+03  0.47000000000E+01 0.  1.
        -11    1    1    2    0    0  0.38009409244E+02 -0.46921981969E+02  0.78880819393E+02  0.99340682759E+02  0.00000000000E+00 0.  1.
         11    1    1    2    0    0 -0.50613671298E+02 -0.66837931732E+02  0.16508087836E+03  0.18515061232E+03  0.00000000000E+00 0. -1.
<mgrwt>
<rscale>  0 0.16337810E+03</rscale>
<asrwt>0</asrwt>
<pdfrwt beam="1">  1        2 0.18780434E+00 0.16948398E+03</pdfrwt>
<pdfrwt beam="2">  1       -2 0.42727052E-02 0.16948398E+03</pdfrwt>
<totfact> 0.47786898E+03</totfact>
</mgrwt>
</event>
<event>
 6    1  0.6101889E-006  0.1340041E+03  0.7546771E-02  0.1233014E+00
         -1   -1    0    0    0  501 -0.00000000000E+00  0.00000000000E+00  0.33142325375E+03  0.33142325375E+03  0.00000000000E+00 0.  1.
          1   -1    0    0  501    0  0.00000000000E+00 -0.00000000000E+00 -0.43582067970E+02  0.43582067970E+02  0.00000000000E+00 0. -1.
          5    1    1    2  502    0  0.14235258886E+02  0.28311082121E+02  0.11663260134E+03  0.12095211309E+03  0.47000000000E+01 0.  1.
         -5    1    1    2    0  502 -0.39618893434E+02 -0.69419862216E+02  0.56564421953E+02  0.98032636494E+02  0.47000000000E+01 0.  1.
        -11    1    1    2    0    0  0.22716801008E+02  0.67099987426E+02  0.51198489158E+02  0.87405644284E+02  0.00000000000E+00 0. -1.
         11    1    1    2    0    0  0.26668335409E+01 -0.25991207331E+02  0.63445673331E+02  0.68614927852E+02  0.00000000000E+00 0.  1.
<mgrwt>
<rscale>  0 0.12632425E+03</rscale>
<asrwt>0</asrwt>
<pdfrwt beam="2">  1        1 0.67049338E-02 0.13400415E+03</pdfrwt>
<pdfrwt beam="1">  1       -1 0.50988191E-01 0.13400415E+03</pdfrwt>
<totfact> 0.41995754E+03</totfact>
</mgrwt>
</event>
<event>
 6    1  0.6101889E-006  0.1254576E+03  0.7546771E-02  0.1250547E+00
          2   -1    0    0  501    0  0.00000000000E+00  0.00000000000E+00  0.29705490232E+02  0.29705490232E+02  0.00000000000E+00 0.  1.
         -2   -1    0    0    0  501 -0.00000000000E+00 -0.00000000000E+00 -0.42660989838E+03  0.42660989838E+03  0.00000000000E+00 0. -1.
          5    1    1    2  502    0  0.58626124312E+02  0.66850772157E+01 -0.11759980439E+03  0.13165681411E+03  0.47000000000E+01 0.  1.
         -5    1    1    2    0  502 -0.55994105826E+02 -0.17039069668E+02 -0.46463254907E+02  0.74877191714E+02  0.47000000000E+01 0.  1.
        -11    1    1    2    0    0 -0.42230967222E+02 -0.41688521174E+01 -0.72703834421E+02  0.84182429640E+02  0.00000000000E+00 0.  1.
         11    1    1    2    0    0  0.39598948736E+02  0.14522844570E+02 -0.16013751443E+03  0.16559895314E+03  0.00000000000E+00 0. -1.
<mgrwt>
<rscale>  0 0.11559471E+03</rscale>
<asrwt>0</asrwt>
<pdfrwt beam="1">  1        2 0.45700754E-02 0.12545759E+03</pdfrwt>
<pdfrwt beam="2">  1       -2 0.65632293E-01 0.12545759E+03</pdfrwt>
<totfact> 0.36734592E+03</totfact>
</mgrwt>
</event>
<event>
 6    1  0.6101889E-006  0.1737336E+03  0.7546771E-02  0.1180072E+00
         -2   -1    0    0    0  501 -0.00000000000E+00  0.00000000000E+00  0.54623396655E+02  0.54623396655E+02  0.00000000000E+00 0.  1.
          2   -1    0    0  501    0  0.00000000000E+00 -0.00000000000E+00 -0.78751817675E+03  0.78751817675E+03  0.00000000000E+00 0. -1.
          5    1    1    2  502    0  0.50984513609E+02 -0.38883072296E+02 -0.96589303144E+02  0.11602972645E+03  0.47000000000E+01 0.  1.
         -5    1    1    2    0  502  0.17760223905E+02 -0.60275371241E+02 -0.54625111809E+03  0.54987354905E+03  0.47000000000E+01 0.  1.
        -11    1    1    2    0    0 -0.12541003697E+02  0.59254582404E+02 -0.88563473579E+02  0.10729338825E+03  0.00000000000E+00 0. -1.
         11    1    1    2    0    0 -0.56203733817E+02  0.39903861133E+02 -0.14908852850E+01  0.68944909655E+02  0.00000000000E+00 0.  1.
<mgrwt>
<rscale>  0 0.16788468E+03</rscale>
<asrwt>0</asrwt>
<pdfrwt beam="2">  1        2 0.12115663E+00 0.17373360E+03</pdfrwt>
<pdfrwt beam="1">  1       -2 0.84036003E-02 0.17373360E+03</pdfrwt>
<totfact> 0.31259797E+03</totfact>
</mgrwt>
</event>
<event>
 6    1  0.1244388E-005  0.3799080E+03  0.7546771E-02  0.1050968E+00
         -1   -1    0    0    0  501 -0.00000000000E+00  0.00000000000E+00  0.12560331166E+03  0.12560331166E+03  0.00000000000E+00 0.  1.
          1   -1    0    0  501    0  0.00000000000E+00 -0.00000000000E+00 -0.28727365141E+03  0.28727365141E+03  0.00000000000E+00 0. -1.
          5    1    1    2  502    0  0.46708942203E+01  0.14631454804E+02  0.13266550635E+02  0.20832380763E+02  0.47000000000E+01 0. -1.
         -5    1    1    2    0  502 -0.14749194889E+03 -0.21112729919E+02 -0.16399556626E+03  0.22162188092E+03  0.47000000000E+01 0. -1.
        -11    1    1    2    0    0  0.48991539367E+02  0.39521499918E+01 -0.48753371883E+02  0.69229196796E+02  0.00000000000E+00 0. -1.
         11    1    1    2    0    0  0.93829515303E+02  0.25291251225E+01  0.37812047749E+02  0.10119350459E+03  0.00000000000E+00 0.  1.
<mgrwt>
<rscale>  0 0.37990800E+03</rscale>
<asrwt>0</asrwt>
<pdfrwt beam="2">  1        1 0.44195945E-01 0.37990800E+03</pdfrwt>
<pdfrwt beam="1">  1       -1 0.19323587E-01 0.37990800E+03</pdfrwt>
<totfact> 0.19839756E+03</totfact>
</mgrwt>
</event>
<event>
 6    1  0.6101889E-006  0.1327355E+03  0.7546771E-02  0.1235985E+00
          2   -1    0    0  501    0  0.00000000000E+00  0.00000000000E+00  0.16352200186E+03  0.16352200186E+03  0.00000000000E+00 0. -1.
         -2   -1    0    0    0  501 -0.00000000000E+00 -0.00000000000E+00 -0.10793666409E+03  0.10793666409E+03  0.00000000000E+00 0.  1.
          5    1    1    2  502    0  0.29215709441E+02  0.79440075996E+02  0.46743834850E+02  0.96805782105E+02  0.47000000000E+01 0.  1.
         -5    1    1    2    0  502  0.63230452470E+00 -0.45735190568E+02  0.46594321533E+02  0.65461654916E+02  0.47000000000E+01 0.  1.
        -11    1    1    2    0    0  0.50708779994E+01 -0.26345674852E+02 -0.60973795953E+02  0.66615404976E+02  0.00000000000E+00 0.  1.
         11    1    1    2    0    0 -0.34918891966E+02 -0.73592105766E+01  0.23220977345E+02  0.42575823953E+02  0.00000000000E+00 0. -1.
<mgrwt>
<rscale>  0 0.12441586E+03</rscale>
<asrwt>0</asrwt>
<pdfrwt beam="1">  1        2 0.25157231E-01 0.13273549E+03</pdfrwt>
<pdfrwt beam="2">  1       -2 0.16605641E-01 0.13273549E+03</pdfrwt>
<totfact> 0.58610657E+03</totfact>
</mgrwt>
</event>
<event>
 6    1  0.6101889E-006  0.1261649E+03  0.7546771E-02  0.1248208E+00
         -1   -1    0    0    0  501 -0.00000000000E+00  0.00000000000E+00  0.24539723382E+02  0.24539723382E+02  0.00000000000E+00 0.  1.
          1   -1    0    0  501    0  0.00000000000E+00 -0.00000000000E+00 -0.51457598188E+03  0.51457598188E+03  0.00000000000E+00 0. -1.
          5    1    1    2  502    0  0.51235654048E+02 -0.27460421057E+02 -0.29680856825E+03  0.30248402132E+03  0.47000000000E+01 0.  1.
         -5    1    1    2    0  502 -0.36669318431E+02  0.18529232783E+02 -0.41507477298E+02  0.58591228468E+02  0.47000000000E+01 0.  1.
        -11    1    1    2    0    0  0.13463228877E+02 -0.28858387318E+02 -0.18664772603E+02  0.36911228464E+02  0.00000000000E+00 0.  1.
         11    1    1    2    0    0 -0.28029564494E+02  0.37789575593E+02 -0.13305544035E+03  0.14112922701E+03  0.00000000000E+00 0. -1.
<mgrwt>
<rscale>  0 0.11695400E+03</rscale>
<asrwt>0</asrwt>
<pdfrwt beam="2">  1        1 0.79165530E-01 0.12616493E+03</pdfrwt>
<pdfrwt beam="1">  1       -1 0.37753423E-02 0.12616493E+03</pdfrwt>
<totfact> 0.11017131E+04</totfact>
</mgrwt>
</event>
<event>
 6    1  0.6101889E-006  0.1287560E+03  0.7546771E-02  0.1237862E+00
         -2   -1    0    0    0  501 -0.00000000000E+00  0.00000000000E+00  0.48461748999E+02  0.48461748999E+02  0.00000000000E+00 0.  1.
          2   -1    0    0  501    0  0.00000000000E+00 -0.00000000000E+00 -0.62586976656E+03  0.62586976656E+03  0.00000000000E+00 0. -1.
          5    1    1    2  502    0  0.53089150936E+02  0.61103794399E+02 -0.47519996583E+03  0.48206766036E+03  0.47000000000E+01 0. -1.
         -5    1    1    2    0  502 -0.33543979994E+02 -0.90056595421E+01 -0.72013790650E+02  0.80089802980E+02  0.47000000000E+01 0.  1.
        -11    1    1    2    0    0  0.10954871481E+02  0.50495513060E+01  0.24555710159E+02  0.27358546726E+02  0.00000000000E+00 0.  1.
         11    1    1    2    0    0 -0.30500042423E+02 -0.57147686163E+02 -0.54749971237E+02  0.84815505493E+02  0.00000000000E+00 0. -1.
<mgrwt>
<rscale>  0 0.12322980E+03</rscale>
<asrwt>0</asrwt>
<pdfrwt beam="2">  1        2 0.96287655E-01 0.12875604E+03</pdfrwt>
<pdfrwt beam="1">  1       -2 0.74556538E-02 0.12875604E+03</pdfrwt>
<totfact> 0.48943631E+03</totfact>
</mgrwt>
</event>
<event>
 6    1  0.6101889E-006  0.3779842E+03  0.7546771E-02  0.1051681E+00
          2   -1    0    0  501    0  0.00000000000E+00  0.00000000000E+00  0.13390902875E+04  0.13390902875E+04  0.00000000000E+00 0.  1.
         -2   -1    0    0    0  501 -0.00000000000E+00 -0.00000000000E+00 -0.26673341612E+02  0.26673341612E+02  0.00000000000E+00 0. -1.
          5    1    1    2  502    0 -0.24509348240E+02  0.15060556431E+03  0.75281479961E+03  0.76813732930E+03  0.47000000000E+01 0.  1.
         -5    1    1    2    0  502  0.31753471410E+02 -0.11848940800E+02  0.17585392262E+03  0.17915181396E+03  0.47000000000E+01 0.  1.
        -11    1    1    2    0    0 -0.20997448791E+02 -0.82444697591E+02  0.32496675396E+03  0.33591875832E+03  0.00000000000E+00 0.  1.
         11    1    1    2    0    0  0.13753325621E+02 -0.56311925923E+02  0.58781469694E+02  0.82555727519E+02  0.00000000000E+00 0. -1.
<mgrwt>
<rscale>  0 0.37798419E+03</rscale>
<asrwt>0</asrwt>
<pdfrwt beam="1">  1        2 0.20601384E+00 0.37798419E+03</pdfrwt>
<pdfrwt beam="2">  1       -2 0.41035921E-02 0.37798419E+03</pdfrwt>
<totfact> 0.44274133E+03</totfact>
</mgrwt>
</event>
<event>
 6    1  0.6101889E-006  0.1407430E+03  0.7546771E-02  0.1218694E+00
          1   -1    0    0  501    0  0.00000000000E+00  0.00000000000E+00  0.46587778716E+02  0.46587778716E+02  0.00000000000E+00 0. -1.
         -1   -1    0    0    0  501 -0.00000000000E+00 -0.00000000000E+00 -0.54579267118E+03  0.54579267118E+03  0.00000000000E+00 0.  1.
          5    1    1    2  502    0  0.64437950257E+02 -0.22783190036E+02  0.44348382037E+01  0.68651882505E+02  0.47000000000E+01 0. -1.
         -5    1    1    2    0  502  0.16485469297E+02  0.80392195237E+01 -0.99272452409E+02  0.10106190952E+03  0.47000000000E+01 0.  1.
        -11    1    1    2    0    0 -0.97781173774E+02  0.27629926757E+02 -0.34304670961E+03  0.35777872460E+03  0.00000000000E+00 0.  1.
         11    1    1    2    0    0  0.16857754220E+02 -0.12885956245E+02 -0.61320568646E+02  0.64887933275E+02  0.00000000000E+00 0. -1.
<mgrwt>
<rscale>  0 0.13608652E+03</rscale>
<asrwt>0</asrwt>
<pdfrwt beam="1">  1        1 0.71673503E-02 0.14074302E+03</pdfrwt>
<pdfrwt beam="2">  1       -1 0.83968106E-01 0.14074302E+03</pdfrwt>
<totfact> 0.14581872E+03</totfact>
</mgrwt>
</event>
<event>
 6    1  0.6101889E-006  0.2827265E+03  0.7546771E-02  0.1096024E+00
         -2   -1    0    0    0  501 -0.00000000000E+00  0.00000000000E+00  0.79328890905E+03  0.79328890905E+03  0.00000000000E+00 0.  1.
          2   -1    0    0  501    0  0.00000000000E+00 -0.00000000000E+00 -0.96161174940E+02  0.96161174940E+02  0.00000000000E+00 0. -1.
          5    1    1    2  502    0  0.13903336298E+02  0.12158442002E+02  0.43302011761E+02  0.47310513575E+02  0.47000000000E+01 0. -1.
         -5    1    1    2    0  502 -0.23833245970E+03  0.10592165335E+03  0.30727612356E+03  0.40306632718E+03  0.47000000000E+01 0. -1.
        -11    1    1    2    0    0  0.11954860806E+03 -0.90862321430E+02  0.26061222010E+03  0.30077659551E+03  0.00000000000E+00 0. -1.
         11    1    1    2    0    0  0.10488051534E+03 -0.27217773919E+02  0.85937378686E+02  0.13829664772E+03  0.00000000000E+00 0.  1.
<mgrwt>
<rscale>  0 0.27938831E+03</rscale>
<asrwt>0</asrwt>
<pdfrwt beam="2">  1        2 0.14794027E-01 0.28272649E+03</pdfrwt>
<pdfrwt beam="1">  1       -2 0.12204444E+00 0.28272649E+03</pdfrwt>
<totfact> 0.21163212E+02</totfact>
</mgrwt>
</event>
<event>
 6    1  0.6101889E-006  0.1250337E+03  0.7546771E-02  0.1240034E+00
         -2   -1    0    0    0  501 -0.00000000000E+00  0.00000000000E+00  0.25210450896E+02  0.25210450896E+02  0.00000000000E+00 0. -1.
          2   -1    0    0  501    0  0.00000000000E+00 -0.00000000000E+00 -0.57149302816E+03  0.57149302816E+03  0.00000000000E+00 0.  1.
          5    1    1    2  502    0 -0.32418449984E+02 -0.53353816041E+02 -0.13183901202E+03  0.14594930858E+03  0.47000000000E+01 0. -1.
         -5    1    1    2    0  502  0.30287232674E+02  0.51464189325E+02 -0.19485984760E+03  0.20385860161E+03  0.47000000000E+01 0. -1.
        -11    1    1    2    0    0  0.32533177789E+02  0.30383023148E+02 -0.32211840300E+02  0.54946686963E+02  0.00000000000E+00 0. -1.
         11    1    1    2    0    0 -0.30401960479E+02 -0.28493396433E+02 -0.18737187735E+03  0.19194888190E+03  0.00000000000E+00 0.  1.
<mgrwt>
<rscale>  0 0.12187603E+03</rscale>
<asrwt>0</asrwt>
<pdfrwt beam="2">  1        2 0.87921996E-01 0.12503371E+03</pdfrwt>
<pdfrwt beam="1">  1       -2 0.38785313E-02 0.12503371E+03</pdfrwt>
<totfact> 0.14486893E+04</totfact>
</mgrwt>
</event>
<event>
 6    1  0.6101889E-006  0.1295893E+03  0.7546771E-02  0.1245425E+00
          1   -1    0    0  501    0  0.00000000000E+00  0.00000000000E+00  0.24919362159E+03  0.24919362159E+03  0.00000000000E+00 0. -1.
         -1   -1    0    0    0  501 -0.00000000000E+00 -0.00000000000E+00 -0.50375020015E+02  0.50375020015E+02  0.00000000000E+00 0.  1.
          5    1    1    2  502    0  0.26941031891E+02 -0.42462830461E+02  0.13739248701E+03  0.14638202300E+03  0.47000000000E+01 0. -1.
         -5    1    1    2    0  502  0.72541895430E+01  0.45160931174E+02  0.51597671633E+01  0.46269278875E+02  0.47000000000E+01 0. -1.
        -11    1    1    2    0    0  0.21475636745E+02 -0.20940037232E+02  0.80837535015E+01  0.31065015750E+02  0.00000000000E+00 0.  1.
         11    1    1    2    0    0 -0.55670858179E+02  0.18241936520E+02  0.48182593898E+02  0.75852323980E+02  0.00000000000E+00 0. -1.
<mgrwt>
<rscale>  0 0.11860005E+03</rscale>
<asrwt>0</asrwt>
<pdfrwt beam="1">  1        1 0.38337480E-01 0.12958927E+03</pdfrwt>
<pdfrwt beam="2">  1       -1 0.77500032E-02 0.12958927E+03</pdfrwt>
<totfact> 0.94421897E+03</totfact>
</mgrwt>
</event>
<event>
 6    1  0.6101889E-006  0.1283183E+03  0.7546771E-02  0.1242071E+00
         -2   -1    0    0    0  501 -0.00000000000E+00  0.00000000000E+00  0.66952449945E+02  0.66952449945E+02  0.00000000000E+00 0.  1.
          2   -1    0    0  501    0  0.00000000000E+00 -0.00000000000E+00 -0.21040883683E+03  0.21040883683E+03  0.00000000000E+00 0. -1.
          5    1    1    2  502    0 -0.31349872370E+02 -0.46279886101E+02 -0.98411312523E+02  0.11327629402E+03  0.47000000000E+01 0. -1.
         -5    1    1    2    0  502  0.44809814824E+01  0.57143832345E+02 -0.18771196420E+02  0.60497475857E+02  0.47000000000E+01 0. -1.
        -11    1    1    2    0    0 -0.59210142318E+01 -0.39247561540E+02  0.16213241992E+02  0.42875385855E+02  0.00000000000E+00 0.  1.
         11    1    1    2    0    0  0.32789905119E+02  0.28383615297E+02 -0.42487119931E+02  0.60712131037E+02  0.00000000000E+00 0. -1.
<mgrwt>
<rscale>  0 0.12062392E+03</rscale>
<asrwt>0</asrwt>
<pdfrwt beam="2">  1        2 0.32370591E-01 0.12831829E+03</pdfrwt>
<pdfrwt beam="1">  1       -2 0.10300377E-01 0.12831829E+03</pdfrwt>
<totfact> 0.95890574E+03</totfact>
</mgrwt>
</event>
<event>
 6    1  0.6101889E-006  0.1611376E+03  0.7546771E-02  0.1195399E+00
         -2   -1    0    0    0  501 -0.00000000000E+00  0.00000000000E+00  0.38643546525E+02  0.38643546525E+02  0.00000000000E+00 0.  1.
          2   -1    0    0  501    0  0.00000000000E+00 -0.00000000000E+00 -0.56838472242E+03  0.56838472242E+03  0.00000000000E+00 0. -1.
          5    1    1    2  502    0 -0.16439307986E+02  0.87210528847E+02 -0.75274915972E+02  0.11646600433E+03  0.47000000000E+01 0.  1.
         -5    1    1    2    0  502 -0.27557594934E+02  0.44495239517E+01 -0.20405925667E+03  0.20601332368E+03  0.47000000000E+01 0.  1.
        -11    1    1    2    0    0  0.26091901164E+02 -0.28134490853E+02 -0.16961333303E+02  0.41952636500E+02  0.00000000000E+00 0.  1.
         11    1    1    2    0    0  0.17905001756E+02 -0.63525561946E+02 -0.23344566995E+03  0.24259630444E+03  0.00000000000E+00 0. -1.
<mgrwt>
<rscale>  0 0.15420502E+03</rscale>
<asrwt>0</asrwt>
<pdfrwt beam="2">  1        2 0.87443797E-01 0.16113763E+03</pdfrwt>
<pdfrwt beam="1">  1       -2 0.59451615E-02 0.16113763E+03</pdfrwt>
<totfact> 0.78116907E+03</totfact>
</mgrwt>
</event>
<event>
 6    1  0.6101889E-006  0.1281471E+03  0.7546771E-02  0.1243316E+00
          4   -1    0    0  501    0  0.00000000000E+00  0.00000000000E+00  0.23180335464E+03  0.23180335464E+03  0.00000000000E+00 0. -1.
         -4   -1    0    0    0  501 -0.00000000000E+00 -0.00000000000E+00 -0.55234780744E+02  0.55234780744E+02  0.00000000000E+00 0.  1.
          5    1    1    2  502    0  0.34173188945E+02  0.36938423479E+02  0.60169266764E+02  0.78579161581E+02  0.47000000000E+01 0. -1.
         -5    1    1    2    0  502 -0.33583596881E+02 -0.65081021121E+02  0.36634787588E+02  0.82021917505E+02  0.47000000000E+01 0. -1.
        -11    1    1    2    0    0 -0.32860387332E+02  0.30916515121E+02  0.82396490989E+02  0.93940500798E+02  0.00000000000E+00 0. -1.
         11    1    1    2    0    0  0.32270795268E+02 -0.27739174785E+01 -0.26319714490E+01  0.32496555496E+02  0.00000000000E+00 0.  1.
<mgrwt>
<rscale>  0 0.11986732E+03</rscale>
<asrwt>0</asrwt>
<pdfrwt beam="1">  1        4 0.35662054E-01 0.12814711E+03</pdfrwt>
<pdfrwt beam="2">  1       -4 0.84976587E-02 0.12814711E+03</pdfrwt>
<totfact> 0.12390389E+03</totfact>
</mgrwt>
</event>
<event>
 6    1  0.6101889E-006  0.1304762E+03  0.7546771E-02  0.1250478E+00
         -2   -1    0    0    0  501 -0.00000000000E+00  0.00000000000E+00  0.63819791773E+02  0.63819791773E+02  0.00000000000E+00 0. -1.
          2   -1    0    0  501    0  0.00000000000E+00 -0.00000000000E+00 -0.17906954397E+03  0.17906954397E+03  0.00000000000E+00 0.  1.
          5    1    1    2  502    0 -0.81260302203E+01 -0.24116207754E+02 -0.11901220883E+03  0.12179334831E+03  0.47000000000E+01 0. -1.
         -5    1    1    2    0  502  0.18871112481E+02 -0.11710992245E+02  0.28919160494E+02  0.36765120281E+02  0.47000000000E+01 0. -1.
        -11    1    1    2    0    0  0.14385437552E+02  0.49357685923E+02 -0.20796511191E+02  0.55458244211E+02  0.00000000000E+00 0.  1.
         11    1    1    2    0    0 -0.25130519812E+02 -0.13530485924E+02 -0.43601926772E+01  0.28872622942E+02  0.00000000000E+00 0. -1.
<mgrwt>
<rscale>  0 0.11563399E+03</rscale>
<asrwt>0</asrwt>
<pdfrwt beam="2">  1        2 0.27549160E-01 0.13047617E+03</pdfrwt>
<pdfrwt beam="1">  1       -2 0.98184296E-02 0.13047617E+03</pdfrwt>
<totfact> 0.12326474E+04</totfact>
</mgrwt>
</event>
<event>
 6    1  0.6101889E-006  0.1524849E+03  0.7546771E-02  0.1206249E+00
         -1   -1    0    0    0  501 -0.00000000000E+00  0.00000000000E+00  0.16464146579E+02  0.16464146579E+02  0.00000000000E+00 0.  1.
          1   -1    0    0  501    0  0.00000000000E+00 -0.00000000000E+00 -0.12094054386E+04  0.12094054386E+04  0.00000000000E+00 0. -1.
          5    1    1    2  502    0  0.18195760798E+02  0.29181385607E+01 -0.19539825485E+02  0.27267123495E+02  0.47000000000E+01 0.  1.
         -5    1    1    2    0  502 -0.10542070454E+03 -0.70486691976E+01 -0.73048165699E+03  0.73809806251E+03  0.47000000000E+01 0.  1.
        -11    1    1    2    0    0 -0.17513696734E+02  0.18655992875E+01 -0.32963510909E+02  0.37373828884E+02  0.00000000000E+00 0.  1.
         11    1    1    2    0    0  0.10473864048E+03  0.22649313494E+01 -0.40995629864E+03  0.42313057029E+03  0.00000000000E+00 0. -1.
<mgrwt>
<rscale>  0 0.14539455E+03</rscale>
<asrwt>0</asrwt>
<pdfrwt beam="2">  1        1 0.18606241E+00 0.15248490E+03</pdfrwt>
<pdfrwt beam="1">  1       -1 0.25329452E-02 0.15248490E+03</pdfrwt>
<totfact> 0.53677625E+03</totfact>
</mgrwt>
</event>
<event>
 6    1  0.6101889E-006  0.1286405E+03  0.7546771E-02  0.1243303E+00
          1   -1    0    0  501    0  0.00000000000E+00  0.00000000000E+00  0.31189530117E+03  0.31189530117E+03  0.00000000000E+00 0. -1.
         -1   -1    0    0    0  501 -0.00000000000E+00 -0.00000000000E+00 -0.45821566668E+02  0.45821566668E+02  0.00000000000E+00 0.  1.
          5    1    1    2  502    0  0.42096677573E+02 -0.17888180827E+02  0.38873296197E+02  0.60210799972E+02  0.47000000000E+01 0.  1.
         -5    1    1    2    0  502 -0.72065269882E+02  0.12672495741E+02  0.16940196189E+03  0.18458902991E+03  0.47000000000E+01 0.  1.
        -11    1    1    2    0    0  0.62606161326E+02  0.11150305117E+02  0.34178525910E+02  0.72194406802E+02  0.00000000000E+00 0.  1.
         11    1    1    2    0    0 -0.32637569017E+02 -0.59346200302E+01  0.23619950508E+02  0.40722631156E+02  0.00000000000E+00 0. -1.
<mgrwt>
<rscale>  0 0.11987527E+03</rscale>
<asrwt>0</asrwt>
<pdfrwt beam="1">  1        1 0.47983891E-01 0.12864048E+03</pdfrwt>
<pdfrwt beam="2">  1       -1 0.70494720E-02 0.12864048E+03</pdfrwt>
<totfact> 0.82463227E+03</totfact>
</mgrwt>
</event>
<event>
 6    1  0.6101889E-006  0.1927683E+03  0.7546771E-02  0.1160660E+00
          2   -1    0    0  501    0  0.00000000000E+00  0.00000000000E+00  0.69351342358E+03  0.69351342358E+03  0.00000000000E+00 0. -1.
         -2   -1    0    0    0  501 -0.00000000000E+00 -0.00000000000E+00 -0.70905727262E+02  0.70905727262E+02  0.00000000000E+00 0.  1.
          5    1    1    2  502    0  0.89389737106E+01 -0.26685789942E+02  0.25135237690E+03  0.25296668558E+03  0.47000000000E+01 0.  1.
         -5    1    1    2    0  502 -0.12126602755E+03 -0.67745749232E+02  0.28760420362E+03  0.31942636697E+03  0.47000000000E+01 0.  1.
        -11    1    1    2    0    0  0.24345111129E+02 -0.73138839467E+01 -0.10849339736E+02  0.27638478738E+02  0.00000000000E+00 0.  1.
         11    1    1    2    0    0  0.87981942709E+02  0.10174542312E+03  0.94500455533E+02  0.16438761956E+03  0.00000000000E+00 0. -1.
<mgrwt>
<rscale>  0 0.18758276E+03</rscale>
<asrwt>0</asrwt>
<pdfrwt beam="1">  1        2 0.10669437E+00 0.19276828E+03</pdfrwt>
<pdfrwt beam="2">  1       -2 0.10908574E-01 0.19276828E+03</pdfrwt>
<totfact> 0.24265969E+03</totfact>
</mgrwt>
</event>
<event>
 6    1  0.6101889E-006  0.1403333E+03  0.7546771E-02  0.1223834E+00
         -1   -1    0    0    0  501 -0.00000000000E+00  0.00000000000E+00  0.38961942775E+03  0.38961942775E+03  0.00000000000E+00 0.  1.
          1   -1    0    0  501    0  0.00000000000E+00 -0.00000000000E+00 -0.41592832066E+02  0.41592832066E+02  0.00000000000E+00 0. -1.
          5    1    1    2  502    0 -0.71053639206E+02 -0.48414482091E+02  0.11703177313E+03  0.14529661951E+03  0.47000000000E+01 0. -1.
         -5    1    1    2    0  502  0.50714720609E+02 -0.12022777940E+02  0.44632573252E+02  0.68779987431E+02  0.47000000000E+01 0. -1.
        -11    1    1    2    0    0 -0.32329613475E+01  0.39725775539E+02  0.18095792938E+03  0.18529533585E+03  0.00000000000E+00 0.  1.
         11    1    1    2    0    0  0.23571879944E+02  0.20711484492E+02  0.54043199154E+01  0.31840317016E+02  0.00000000000E+00 0. -1.
<mgrwt>
<rscale>  0 0.13247156E+03</rscale>
<asrwt>0</asrwt>
<pdfrwt beam="2">  1        1 0.63988975E-02 0.14033329E+03</pdfrwt>
<pdfrwt beam="1">  1       -1 0.59941448E-01 0.14033329E+03</pdfrwt>
<totfact> 0.33175726E+03</totfact>
</mgrwt>
</event>
<event>
 6    1  0.6101889E-006  0.1288056E+03  0.7546771E-02  0.1243009E+00
          2   -1    0    0  501    0  0.00000000000E+00  0.00000000000E+00  0.23130834818E+03  0.23130834818E+03  0.00000000000E+00 0. -1.
         -2   -1    0    0    0  501 -0.00000000000E+00 -0.00000000000E+00 -0.57811326637E+02  0.57811326637E+02  0.00000000000E+00 0.  1.
          5    1    1    2  502    0  0.76521599804E+02  0.14714217326E+02  0.76760034197E+02  0.10948176231E+03  0.47000000000E+01 0. -1.
         -5    1    1    2    0  502 -0.50460117598E+02  0.22333833816E+01  0.51953517960E+02  0.72611772446E+02  0.47000000000E+01 0. -1.
        -11    1    1    2    0    0 -0.17193034312E+02  0.13235027223E+02  0.65738979043E+02  0.69227015970E+02  0.00000000000E+00 0. -1.
         11    1    1    2    0    0 -0.88684478939E+01 -0.30182627931E+02 -0.20955509660E+02  0.37799124090E+02  0.00000000000E+00 0.  1.
<mgrwt>
<rscale>  0 0.12005339E+03</rscale>
<asrwt>0</asrwt>
<pdfrwt beam="1">  1        2 0.35585899E-01 0.12880558E+03</pdfrwt>
<pdfrwt beam="2">  1       -2 0.88940504E-02 0.12880558E+03</pdfrwt>
<totfact> 0.10902642E+04</totfact>
</mgrwt>
</event>
<event>
 6    1  0.6101889E-006  0.1717291E+03  0.7546771E-02  0.1182396E+00
         -1   -1    0    0    0  501 -0.00000000000E+00  0.00000000000E+00  0.31468816313E+02  0.31468816313E+02  0.00000000000E+00 0.  1.
          1   -1    0    0  501    0  0.00000000000E+00 -0.00000000000E+00 -0.81743933254E+03  0.81743933254E+03  0.00000000000E+00 0. -1.
          5    1    1    2  502    0 -0.57974849340E+02 -0.45667094937E+02 -0.10235313855E+03  0.12627280660E+03  0.47000000000E+01 0.  1.
         -5    1    1    2    0  502  0.33026911207E+02 -0.69415429641E+02 -0.33155997184E+03  0.34038710854E+03  0.47000000000E+01 0.  1.
        -11    1    1    2    0    0  0.15223326789E+02  0.77404009716E+02 -0.32601788031E+03  0.33542627905E+03  0.00000000000E+00 0. -1.
         11    1    1    2    0    0  0.97246113439E+01  0.37678514861E+02 -0.26039525528E+02  0.46821954655E+02  0.00000000000E+00 0.  1.
<mgrwt>
<rscale>  0 0.16571123E+03</rscale>
<asrwt>0</asrwt>
<pdfrwt beam="2">  1        1 0.12575989E+00 0.17172912E+03</pdfrwt>
<pdfrwt beam="1">  1       -1 0.48413566E-02 0.17172912E+03</pdfrwt>
<totfact> 0.40512186E+03</totfact>
</mgrwt>
</event>
<event>
 6    1  0.6101889E-006  0.2695242E+03  0.7546771E-02  0.1103563E+00
         -1   -1    0    0    0  501 -0.00000000000E+00  0.00000000000E+00  0.41586982588E+02  0.41586982588E+02  0.00000000000E+00 0.  1.
          1   -1    0    0  501    0  0.00000000000E+00 -0.00000000000E+00 -0.20946834185E+04  0.20946834185E+04  0.00000000000E+00 0. -1.
          5    1    1    2  502    0  0.78264841055E+02  0.10591219619E+02 -0.88329676148E+03  0.88683302719E+03  0.47000000000E+01 0.  1.
         -5    1    1    2    0  502  0.14654066573E+03  0.69911480257E+02 -0.65107840802E+03  0.67103425038E+03  0.47000000000E+01 0.  1.
        -11    1    1    2    0    0 -0.75913166028E+02 -0.97291548071E+01 -0.84849567051E+02  0.11426685547E+03  0.00000000000E+00 0.  1.
         11    1    1    2    0    0 -0.14889234076E+03 -0.70773545068E+02 -0.43387169936E+03  0.46413626805E+03  0.00000000000E+00 0. -1.
<mgrwt>
<rscale>  0 0.26604837E+03</rscale>
<asrwt>0</asrwt>
<pdfrwt beam="2">  1        1 0.32225889E+00 0.26952420E+03</pdfrwt>
<pdfrwt beam="1">  1       -1 0.63979992E-02 0.26952420E+03</pdfrwt>
<totfact> 0.35499180E+02</totfact>
</mgrwt>
</event>
<event>
 6    1  0.6101889E-006  0.1309117E+03  0.7546771E-02  0.1239419E+00
          1   -1    0    0  501    0  0.00000000000E+00  0.00000000000E+00  0.16004981436E+03  0.16004981436E+03  0.00000000000E+00 0. -1.
         -1   -1    0    0    0  501 -0.00000000000E+00 -0.00000000000E+00 -0.89265581811E+02  0.89265581811E+02  0.00000000000E+00 0.  1.
          5    1    1    2  502    0  0.58714454460E+02 -0.91020564012E+01  0.34060556206E+02  0.68647258374E+02  0.47000000000E+01 0. -1.
         -5    1    1    2    0  502 -0.52716523298E+02  0.47774662353E+02  0.38589050159E+02  0.81071912422E+02  0.47000000000E+01 0. -1.
        -11    1    1    2    0    0  0.38239167040E+02 -0.39978020663E+02 -0.12384871448E+01  0.55335430625E+02  0.00000000000E+00 0.  1.
         11    1    1    2    0    0 -0.44237098202E+02  0.13054147109E+01 -0.62688667267E+00  0.44260794749E+02  0.00000000000E+00 0. -1.
<mgrwt>
<rscale>  0 0.12225748E+03</rscale>
<asrwt>0</asrwt>
<pdfrwt beam="1">  1        1 0.24623048E-01 0.13091167E+03</pdfrwt>
<pdfrwt beam="2">  1       -1 0.13733166E-01 0.13091167E+03</pdfrwt>
<totfact> 0.68331164E+03</totfact>
</mgrwt>
</event>
<event>
 6    1  0.6101889E-006  0.1264932E+03  0.7546771E-02  0.1248300E+00
         -1   -1    0    0    0  501 -0.00000000000E+00  0.00000000000E+00  0.94212107005E+02  0.94212107005E+02  0.00000000000E+00 0.  1.
          1   -1    0    0  501    0  0.00000000000E+00 -0.00000000000E+00 -0.21424010866E+03  0.21424010866E+03  0.00000000000E+00 0. -1.
          5    1    1    2  502    0 -0.39000161702E+02 -0.33836420681E+02 -0.16511014280E+03  0.17305884904E+03  0.47000000000E+01 0. -1.
         -5    1    1    2    0  502  0.21803483467E+02  0.24912629773E+02  0.18276837414E+01  0.33488228399E+02  0.47000000000E+01 0. -1.
        -11    1    1    2    0    0  0.18619564572E+01  0.34934580977E+02  0.58436827711E+02  0.68108403761E+02  0.00000000000E+00 0.  1.
         11    1    1    2    0    0  0.15334721778E+02 -0.26010790069E+02 -0.15182370308E+02  0.33796734461E+02  0.00000000000E+00 0. -1.
<mgrwt>
<rscale>  0 0.11690021E+03</rscale>
<asrwt>0</asrwt>
<pdfrwt beam="2">  1        1 0.32960017E-01 0.12649322E+03</pdfrwt>
<pdfrwt beam="1">  1       -1 0.14494170E-01 0.12649322E+03</pdfrwt>
<totfact> 0.43597926E+03</totfact>
</mgrwt>
</event>
<event>
 6    1  0.6101889E-006  0.1250322E+03  0.7546771E-02  0.1250441E+00
          4   -1    0    0  501    0  0.00000000000E+00  0.00000000000E+00  0.37819679186E+03  0.37819679186E+03  0.00000000000E+00 0.  1.
         -4   -1    0    0    0  501 -0.00000000000E+00 -0.00000000000E+00 -0.31381958766E+02  0.31381958766E+02  0.00000000000E+00 0. -1.
          5    1    1    2  502    0 -0.46107109885E+02  0.22819896346E+01  0.26284891235E+02  0.53329715599E+02  0.47000000000E+01 0. -1.
         -5    1    1    2    0  502  0.47239337626E+02 -0.48472112906E+01  0.19581417063E+03  0.20154485827E+03  0.47000000000E+01 0. -1.
        -11    1    1    2    0    0 -0.30395121470E+02  0.33307961265E+02  0.41466730214E+02  0.61259884161E+02  0.00000000000E+00 0.  1.
         11    1    1    2    0    0  0.29262893729E+02 -0.30742739609E+02  0.83249041013E+02  0.93444292590E+02  0.00000000000E+00 0. -1.
<mgrwt>
<rscale>  0 0.11565590E+03</rscale>
<asrwt>0</asrwt>
<pdfrwt beam="1">  1        4 0.58184119E-01 0.12503222E+03</pdfrwt>
<pdfrwt beam="2">  1       -4 0.48279939E-02 0.12503222E+03</pdfrwt>
<totfact> 0.11603400E+03</totfact>
</mgrwt>
</event>
<event>
 6    1  0.6101889E-006  0.2255575E+03  0.7546771E-02  0.1132738E+00
         -1   -1    0    0    0  501 -0.00000000000E+00  0.00000000000E+00  0.27851088881E+03  0.27851088881E+03  0.00000000000E+00 0.  1.
          1   -1    0    0  501    0  0.00000000000E+00 -0.00000000000E+00 -0.17132246492E+03  0.17132246492E+03  0.00000000000E+00 0. -1.
          5    1    1    2  502    0  0.18522757666E+03  0.67722569038E+02  0.13448299483E+02  0.19773352844E+03  0.47000000000E+01 0.  1.
         -5    1    1    2    0  502 -0.40791164983E+01 -0.18364539492E+02  0.24093210496E+02  0.30926821598E+02  0.47000000000E+01 0.  1.
        -11    1    1    2    0    0 -0.10854584966E+03 -0.64006633619E+02  0.10611405953E+02  0.12645810595E+03  0.00000000000E+00 0.  1.
         11    1    1    2    0    0 -0.72602610504E+02  0.14648604074E+02  0.59035507954E+02  0.94714897733E+02  0.00000000000E+00 0. -1.
<mgrwt>
<rscale>  0 0.22154243E+03</rscale>
<asrwt>0</asrwt>
<pdfrwt beam="2">  1        1 0.26357302E-01 0.22555751E+03</pdfrwt>
<pdfrwt beam="1">  1       -1 0.42847829E-01 0.22555751E+03</pdfrwt>
<totfact> 0.97380275E+02</totfact>
</mgrwt>
</event>
<event>
 6    1  0.6101889E-006  0.1579068E+03  0.7546771E-02  0.1199275E+00
         -1   -1    0    0    0  501 -0.00000000000E+00  0.00000000000E+00  0.38919732054E+02  0.38919732054E+02  0.00000000000E+00 0.  1.
          1   -1    0    0  501    0  0.00000000000E+00 -0.00000000000E+00 -0.56227915944E+03  0.56227915944E+03  0.00000000000E+00 0. -1.
          5    1    1    2  502    0  0.69164024301E+02 -0.18526066292E+02 -0.28941032051E+03  0.29817327346E+03  0.47000000000E+01 0. -1.
         -5    1    1    2    0  502  0.20068083613E+02  0.55254959460E+02 -0.54693297867E+02  0.80431867792E+02  0.47000000000E+01 0. -1.
        -11    1    1    2    0    0 -0.30288248017E+02  0.89111337174E+01 -0.36036774638E+01  0.31776921866E+02  0.00000000000E+00 0.  1.
         11    1    1    2    0    0 -0.58943859898E+02 -0.45640026886E+02 -0.17565213154E+03  0.19081682837E+03  0.00000000000E+00 0. -1.
<mgrwt>
<rscale>  0 0.15097918E+03</rscale>
<asrwt>0</asrwt>
<pdfrwt beam="2">  1        1 0.86504484E-01 0.15790679E+03</pdfrwt>
<pdfrwt beam="1">  1       -1 0.59876512E-02 0.15790679E+03</pdfrwt>
<totfact> 0.50208733E+03</totfact>
</mgrwt>
</event>
<event>
 6    1  0.6101889E-006  0.1260790E+03  0.7546771E-02  0.1249957E+00
          2   -1    0    0  501    0  0.00000000000E+00  0.00000000000E+00  0.17516140483E+03  0.17516140483E+03  0.00000000000E+00 0. -1.
         -2   -1    0    0    0  501 -0.00000000000E+00 -0.00000000000E+00 -0.66864482001E+02  0.66864482001E+02  0.00000000000E+00 0.  1.
          5    1    1    2  502    0 -0.28388764362E+02 -0.10098196391E+02  0.91732059838E+02  0.96668279774E+02  0.47000000000E+01 0.  1.
         -5    1    1    2    0  502  0.30558041632E+02  0.26428971179E+02 -0.23207604219E+02  0.46829128965E+02  0.47000000000E+01 0.  1.
        -11    1    1    2    0    0  0.15514766116E+02  0.24493372634E+02  0.45209405026E+02  0.53707760830E+02  0.00000000000E+00 0. -1.
         11    1    1    2    0    0 -0.17684043386E+02 -0.40824147422E+02 -0.54369378147E+01  0.44820717263E+02  0.00000000000E+00 0.  1.
<mgrwt>
<rscale>  0 0.11593556E+03</rscale>
<asrwt>0</asrwt>
<pdfrwt beam="1">  1        2 0.26947908E-01 0.12607896E+03</pdfrwt>
<pdfrwt beam="2">  1       -2 0.10286843E-01 0.12607896E+03</pdfrwt>
<totfact> 0.11701578E+04</totfact>
</mgrwt>
</event>
<event>
 6    1  0.6101889E-006  0.3032548E+03  0.7546771E-02  0.1083625E+00
         -2   -1    0    0    0  501 -0.00000000000E+00  0.00000000000E+00  0.12011506724E+03  0.12011506724E+03  0.00000000000E+00 0.  1.
          2   -1    0    0  501    0  0.00000000000E+00 -0.00000000000E+00 -0.19140700519E+03  0.19140700519E+03  0.00000000000E+00 0. -1.
          5    1    1    2  502    0 -0.87432432267E+02  0.89346690881E+02 -0.56068957125E+02  0.13708785262E+03  0.47000000000E+01 0. -1.
         -5    1    1    2    0  502  0.42716501189E-01 -0.33816936252E+02  0.14430521688E+01  0.34172494813E+02  0.47000000000E+01 0. -1.
        -11    1    1    2    0    0  0.42495022256E+02  0.18609470097E+02  0.13784132071E+02  0.48395677398E+02  0.00000000000E+00 0.  1.
         11    1    1    2    0    0  0.44894693510E+02 -0.74139224726E+02 -0.30450165073E+02  0.91866047599E+02  0.00000000000E+00 0. -1.
<mgrwt>
<rscale>  0 0.30325478E+03</rscale>
<asrwt>0</asrwt>
<pdfrwt beam="2">  1        2 0.29447231E-01 0.30325478E+03</pdfrwt>
<pdfrwt beam="1">  1       -2 0.18479241E-01 0.30325478E+03</pdfrwt>
<totfact> 0.43026973E+03</totfact>
</mgrwt>
</event>
<event>
 6    1  0.6101889E-006  0.2147037E+03  0.7546771E-02  0.1141664E+00
          2   -1    0    0  501    0  0.00000000000E+00  0.00000000000E+00  0.83932810622E+02  0.83932810622E+02  0.00000000000E+00 0. -1.
         -2   -1    0    0    0  501 -0.00000000000E+00 -0.00000000000E+00 -0.56781197192E+03  0.56781197192E+03  0.00000000000E+00 0.  1.
          5    1    1    2  502    0 -0.41939628570E+01 -0.26721648133E+02 -0.57540895095E+01  0.28050585546E+02  0.47000000000E+01 0.  1.
         -5    1    1    2    0  502 -0.15222985752E+03  0.10422431920E+03 -0.13550451673E+03  0.22895458565E+03  0.47000000000E+01 0.  1.
        -11    1    1    2    0    0  0.10833897456E+03 -0.50576746160E+01 -0.20575031538E+03  0.23258569552E+03  0.00000000000E+00 0.  1.
         11    1    1    2    0    0  0.48084845818E+02 -0.72444996454E+02 -0.13687023968E+03  0.16215391583E+03  0.00000000000E+00 0. -1.
<mgrwt>
<rscale>  0 0.20987665E+03</rscale>
<asrwt>0</asrwt>
<pdfrwt beam="1">  1        2 0.12912741E-01 0.21470367E+03</pdfrwt>
<pdfrwt beam="2">  1       -2 0.87355684E-01 0.21470367E+03</pdfrwt>
<totfact> 0.54473206E+02</totfact>
</mgrwt>
</event>
<event>
 6    1  0.6101889E-006  0.1309013E+03  0.7546771E-02  0.1239277E+00
         -2   -1    0    0    0  501 -0.00000000000E+00  0.00000000000E+00  0.16046475585E+03  0.16046475585E+03  0.00000000000E+00 0.  1.
          2   -1    0    0  501    0  0.00000000000E+00 -0.00000000000E+00 -0.89128111586E+02  0.89128111586E+02  0.00000000000E+00 0. -1.
          5    1    1    2  502    0 -0.11378986544E+02 -0.42778876086E+02  0.16754432865E+02  0.47563794997E+02  0.47000000000E+01 0.  1.
         -5    1    1    2    0  502  0.26462325725E+02  0.78593867191E+02 -0.91109130637E+01  0.83560453443E+02  0.47000000000E+01 0.  1.
        -11    1    1    2    0    0  0.12862253110E+02 -0.13260204754E+02  0.77741729487E+02  0.79906489654E+02  0.00000000000E+00 0.  1.
         11    1    1    2    0    0 -0.27945592290E+02 -0.22554786352E+02 -0.14048605029E+02  0.38562129338E+02  0.00000000000E+00 0. -1.
<mgrwt>
<rscale>  0 0.12234560E+03</rscale>
<asrwt>0</asrwt>
<pdfrwt beam="2">  1        2 0.13712017E-01 0.13090128E+03</pdfrwt>
<pdfrwt beam="1">  1       -2 0.24686886E-01 0.13090128E+03</pdfrwt>
<totfact> 0.59743118E+03</totfact>
</mgrwt>
</event>
<event>
 6    1  0.6101889E-006  0.1995415E+03  0.7546771E-02  0.1177789E+00
          2   -1    0    0  501    0  0.00000000000E+00  0.00000000000E+00  0.22511740184E+03  0.22511740184E+03  0.00000000000E+00 0. -1.
         -2   -1    0    0    0  501 -0.00000000000E+00 -0.00000000000E+00 -0.14030636192E+03  0.14030636192E+03  0.00000000000E+00 0.  1.
          5    1    1    2  502    0  0.45037559306E+02 -0.14358055995E+02  0.15068481462E+03  0.15799537612E+03  0.47000000000E+01 0. -1.
         -5    1    1    2    0  502 -0.84937085616E+02 -0.17952724801E+02 -0.80060129613E+01  0.87308619759E+02  0.47000000000E+01 0.  1.
        -11    1    1    2    0    0  0.28527741636E+02 -0.21120443311E+01 -0.74818137344E+02  0.80100227526E+02  0.00000000000E+00 0.  1.
         11    1    1    2    0    0  0.11371784674E+02  0.34422825127E+02  0.16950375605E+02  0.40019540347E+02  0.00000000000E+00 0. -1.
<mgrwt>
<rscale>  0 0.17005632E+03</rscale>
<asrwt>0</asrwt>
<pdfrwt beam="1">  1        2 0.34633446E-01 0.19954150E+03</pdfrwt>
<pdfrwt beam="2">  1       -2 0.21585594E-01 0.19954150E+03</pdfrwt>
<totfact> 0.27134129E+03</totfact>
</mgrwt>
</event>
<event>
 6    1  0.6101889E-006  0.1384849E+03  0.7546771E-02  0.1226834E+00
         -4   -1    0    0    0  501 -0.00000000000E+00  0.00000000000E+00  0.15451104826E+03  0.15451104826E+03  0.00000000000E+00 0.  1.
          4   -1    0    0  501    0  0.00000000000E+00 -0.00000000000E+00 -0.99317584737E+02  0.99317584737E+02  0.00000000000E+00 0. -1.
          5    1    1    2  502    0 -0.41265201620E+02 -0.31094734866E+02 -0.29787112929E+02  0.59825258025E+02  0.47000000000E+01 0. -1.
         -5    1    1    2    0  502  0.40505716932E+02 -0.28499895203E+02  0.67223692728E+02  0.83630568543E+02  0.47000000000E+01 0. -1.
        -11    1    1    2    0    0  0.45011019322E+02  0.40273515918E+02  0.13585587504E+02  0.61907318894E+02  0.00000000000E+00 0.  1.
         11    1    1    2    0    0 -0.44251534634E+02  0.19321114151E+02  0.41712962161E+01  0.48465487531E+02  0.00000000000E+00 0. -1.
<mgrwt>
<rscale>  0 0.13041989E+03</rscale>
<asrwt>0</asrwt>
<pdfrwt beam="2">  1        4 0.15279628E-01 0.13848493E+03</pdfrwt>
<pdfrwt beam="1">  1       -4 0.23770931E-01 0.13848493E+03</pdfrwt>
<totfact> 0.99493892E+02</totfact>
</mgrwt>
</event>
<event>
 6    1  0.6101889E-006  0.1612076E+03  0.7546771E-02  0.1194917E+00
         -1   -1    0    0    0  501 -0.00000000000E+00  0.00000000000E+00  0.35410513165E+02  0.35410513165E+02  0.00000000000E+00 0.  1.
          1   -1    0    0  501    0  0.00000000000E+00 -0.00000000000E+00 -0.64928351216E+03  0.64928351216E+03  0.00000000000E+00 0. -1.
          5    1    1    2  502    0 -0.40342381664E+02 -0.21713827992E+02 -0.30855240154E+02  0.55435854186E+02  0.47000000000E+01 0. -1.
         -5    1    1    2    0  502 -0.60094912122E+02  0.38246927191E+02 -0.36627129788E+03  0.37316347564E+03  0.47000000000E+01 0. -1.
        -11    1    1    2    0    0  0.37099202217E+02 -0.14664971538E+02 -0.17667287869E+03  0.18112072841E+03  0.00000000000E+00 0.  1.
         11    1    1    2    0    0  0.63338091570E+02 -0.18681276607E+01 -0.40073582274E+02  0.74973967088E+02  0.00000000000E+00 0. -1.
<mgrwt>
<rscale>  0 0.15461237E+03</rscale>
<asrwt>0</asrwt>
<pdfrwt beam="2">  1        1 0.99889766E-01 0.16120762E+03</pdfrwt>
<pdfrwt beam="1">  1       -1 0.54477715E-02 0.16120762E+03</pdfrwt>
<totfact> 0.47498078E+03</totfact>
</mgrwt>
</event>
<event>
 6    1  0.6101889E-006  0.1510199E+03  0.7546771E-02  0.1209863E+00
         -1   -1    0    0    0  501 -0.00000000000E+00  0.00000000000E+00  0.16769254832E+03  0.16769254832E+03  0.00000000000E+00 0.  1.
          1   -1    0    0  501    0  0.00000000000E+00 -0.00000000000E+00 -0.12241507472E+03  0.12241507472E+03  0.00000000000E+00 0. -1.
          5    1    1    2  502    0 -0.44633110378E+02  0.71897119154E+02 -0.23696836555E+02  0.88005342721E+02  0.47000000000E+01 0.  1.
         -5    1    1    2    0  502  0.63464553185E+02  0.10789358846E+02  0.19289819249E+01  0.64575310658E+02  0.47000000000E+01 0.  1.
        -11    1    1    2    0    0  0.30850892240E+02 -0.52816233574E+02  0.25820890202E+02  0.66393150639E+02  0.00000000000E+00 0.  1.
         11    1    1    2    0    0 -0.49682335048E+02 -0.29870244426E+02  0.41224438025E+02  0.71133819020E+02  0.00000000000E+00 0. -1.
<mgrwt>
<rscale>  0 0.14260706E+03</rscale>
<asrwt>0</asrwt>
<pdfrwt beam="2">  1        1 0.18833088E-01 0.15101992E+03</pdfrwt>
<pdfrwt beam="1">  1       -1 0.25798854E-01 0.15101992E+03</pdfrwt>
<totfact> 0.35296011E+03</totfact>
</mgrwt>
</event>
<event>
 6    1  0.6101889E-006  0.4028598E+03  0.7546771E-02  0.1042794E+00
          1   -1    0    0  501    0  0.00000000000E+00  0.00000000000E+00  0.32755373810E+03  0.32755373810E+03  0.00000000000E+00 0. -1.
         -1   -1    0    0    0  501 -0.00000000000E+00 -0.00000000000E+00 -0.12386979472E+03  0.12386979472E+03  0.00000000000E+00 0.  1.
          5    1    1    2  502    0 -0.13939025250E+03  0.42378449654E+01  0.14378581987E+03  0.20035981088E+03  0.47000000000E+01 0. -1.
         -5    1    1    2    0  502  0.14820404181E+02 -0.17252258173E+02  0.89382859687E+02  0.92350800743E+02  0.47000000000E+01 0. -1.
        -11    1    1    2    0    0  0.66337417383E+02  0.35900879493E+02 -0.52657789685E+02  0.91991134942E+02  0.00000000000E+00 0.  1.
         11    1    1    2    0    0  0.58232430937E+02 -0.22886466285E+02  0.23173053513E+02  0.66721786254E+02  0.00000000000E+00 0. -1.
<mgrwt>
<rscale>  0 0.40285985E+03</rscale>
<asrwt>0</asrwt>
<pdfrwt beam="1">  1        1 0.50392883E-01 0.40285985E+03</pdfrwt>
<pdfrwt beam="2">  1       -1 0.19056891E-01 0.40285985E+03</pdfrwt>
<totfact> 0.17179664E+03</totfact>
</mgrwt>
</event>
<event>
 6    1  0.6101889E-006  0.1291588E+03  0.7546771E-02  0.1242452E+00
          1   -1    0    0  501    0  0.00000000000E+00  0.00000000000E+00  0.41263268862E+03  0.41263268862E+03  0.00000000000E+00 0. -1.
         -1   -1    0    0    0  501 -0.00000000000E+00 -0.00000000000E+00 -0.66680215851E+02  0.66680215851E+02  0.00000000000E+00 0.  1.
          5    1    1    2  502    0 -0.64236777861E+02 -0.61939135353E+01  0.28122228512E+03  0.28857025461E+03  0.47000000000E+01 0.  1.
         -5    1    1    2    0  502  0.46116154930E+02 -0.20789609402E+02  0.77230952514E+02  0.92442509869E+02  0.47000000000E+01 0.  1.
        -11    1    1    2    0    0 -0.26935389499E+02  0.42090396343E+02 -0.71009001422E+01  0.50473155782E+02  0.00000000000E+00 0.  1.
         11    1    1    2    0    0  0.45056012429E+02 -0.15106873406E+02 -0.53998647234E+01  0.47826984215E+02  0.00000000000E+00 0. -1.
<mgrwt>
<rscale>  0 0.12039169E+03</rscale>
<asrwt>0</asrwt>
<pdfrwt beam="1">  1        1 0.63481951E-01 0.12915883E+03</pdfrwt>
<pdfrwt beam="2">  1       -1 0.10258495E-01 0.12915883E+03</pdfrwt>
<totfact> 0.32992219E+03</totfact>
</mgrwt>
</event>
<event>
 6    1  0.6101889E-006  0.1317778E+03  0.7546771E-02  0.1236555E+00
         -1   -1    0    0    0  501 -0.00000000000E+00  0.00000000000E+00  0.48018632007E+02  0.48018632007E+02  0.00000000000E+00 0.  1.
          1   -1    0    0  501    0  0.00000000000E+00 -0.00000000000E+00 -0.35334812485E+03  0.35334812485E+03  0.00000000000E+00 0. -1.
          5    1    1    2  502    0  0.72656846335E+02  0.35602114705E+02 -0.11968453170E+03  0.14454412828E+03  0.47000000000E+01 0.  1.
         -5    1    1    2    0  502 -0.44467273553E+02 -0.48907597585E+01 -0.13361760129E+03  0.14098585505E+03  0.47000000000E+01 0.  1.
        -11    1    1    2    0    0 -0.58894300038E+02 -0.50868343354E+01 -0.14214603770E+02  0.60798597195E+02  0.00000000000E+00 0.  1.
         11    1    1    2    0    0  0.30704727256E+02 -0.25624520611E+02 -0.37812756084E+02  0.55038176342E+02  0.00000000000E+00 0. -1.
<mgrwt>
<rscale>  0 0.12405439E+03</rscale>
<asrwt>0</asrwt>
<pdfrwt beam="2">  1        1 0.54361250E-01 0.13177785E+03</pdfrwt>
<pdfrwt beam="1">  1       -1 0.73874819E-02 0.13177785E+03</pdfrwt>
<totfact> 0.65944933E+03</totfact>
</mgrwt>
</event>
<event>
 6    1  0.6101889E-006  0.1564923E+03  0.7546771E-02  0.1200975E+00
         -2   -1    0    0    0  501 -0.00000000000E+00  0.00000000000E+00  0.14053514549E+02  0.14053514549E+02  0.00000000000E+00 0.  1.
          2   -1    0    0  501    0  0.00000000000E+00 -0.00000000000E+00 -0.14718352834E+04  0.14718352834E+04  0.00000000000E+00 0. -1.
          5    1    1    2  502    0 -0.92217141421E+02  0.24693201378E+02 -0.36888135057E+03  0.38106337552E+03  0.47000000000E+01 0. -1.
         -5    1    1    2    0  502  0.23719922681E+02  0.39901195993E+02 -0.46832573897E+03  0.47064405654E+03  0.47000000000E+01 0. -1.
        -11    1    1    2    0    0 -0.12246119977E+02 -0.43526964977E+02 -0.16803708495E+03  0.17401444208E+03  0.00000000000E+00 0.  1.
         11    1    1    2    0    0  0.80743338717E+02 -0.21067432393E+02 -0.45253759439E+03  0.46016692383E+03  0.00000000000E+00 0. -1.
<mgrwt>
<rscale>  0 0.14959211E+03</rscale>
<asrwt>0</asrwt>
<pdfrwt beam="2">  1        2 0.22643634E+00 0.15649230E+03</pdfrwt>
<pdfrwt beam="1">  1       -2 0.21620778E-02 0.15649230E+03</pdfrwt>
<totfact> 0.95500585E+03</totfact>
</mgrwt>
</event>
<event>
 6    1  0.6101889E-006  0.1336759E+03  0.7546771E-02  0.1231902E+00
         -1   -1    0    0    0  501 -0.00000000000E+00  0.00000000000E+00  0.26292801482E+03  0.26292801482E+03  0.00000000000E+00 0.  1.
          1   -1    0    0  501    0  0.00000000000E+00 -0.00000000000E+00 -0.66698667079E+02  0.66698667079E+02  0.00000000000E+00 0. -1.
          5    1    1    2  502    0  0.61910749894E+02 -0.30659426303E+02  0.43742885980E+02  0.81905258974E+02  0.47000000000E+01 0.  1.
         -5    1    1    2    0  502 -0.20569902494E+02  0.53807130084E+02 -0.29054762042E+01  0.57869334958E+02  0.47000000000E+01 0.  1.
        -11    1    1    2    0    0 -0.56847822692E+02  0.14453999784E+02  0.12804216638E+03  0.14083816750E+03  0.00000000000E+00 0.  1.
         11    1    1    2    0    0  0.15506975293E+02 -0.37601703565E+02  0.27349771589E+02  0.49013920468E+02  0.00000000000E+00 0. -1.
<mgrwt>
<rscale>  0 0.12704870E+03</rscale>
<asrwt>0</asrwt>
<pdfrwt beam="2">  1        1 0.10261334E-01 0.13367589E+03</pdfrwt>
<pdfrwt beam="1">  1       -1 0.40450463E-01 0.13367589E+03</pdfrwt>
<totfact> 0.35984601E+03</totfact>
</mgrwt>
</event>
<event>
 6    1  0.6101889E-006  0.1296326E+03  0.7546771E-02  0.1242085E+00
         -1   -1    0    0    0  501 -0.00000000000E+00  0.00000000000E+00  0.18871075942E+03  0.18871075942E+03  0.00000000000E+00 0.  1.
          1   -1    0    0  501    0  0.00000000000E+00 -0.00000000000E+00 -0.72043026943E+02  0.72043026943E+02  0.00000000000E+00 0. -1.
          5    1    1    2  502    0 -0.23603912287E+02  0.35839073389E+01  0.81330653165E+02  0.84892603985E+02  0.47000000000E+01 0.  1.
         -5    1    1    2    0  502 -0.11524108680E+01  0.20167081554E+02 -0.45157478175E+02  0.49692323998E+02  0.47000000000E+01 0.  1.
        -11    1    1    2    0    0  0.45236079680E+02 -0.29663839173E+02  0.88229631528E+02  0.10349258011E+03  0.00000000000E+00 0.  1.
         11    1    1    2    0    0 -0.20479756524E+02  0.59128502804E+01 -0.77350740384E+01  0.22676278269E+02  0.00000000000E+00 0. -1.
<mgrwt>
<rscale>  0 0.12061534E+03</rscale>
<asrwt>0</asrwt>
<pdfrwt beam="2">  1        1 0.11083543E-01 0.12963257E+03</pdfrwt>
<pdfrwt beam="1">  1       -1 0.29032424E-01 0.12963257E+03</pdfrwt>
<totfact> 0.57208539E+03</totfact>
</mgrwt>
</event>
<event>
 6    1  0.6101889E-006  0.1783436E+03  0.7546771E-02  0.1175143E+00
          1   -1    0    0  501    0  0.00000000000E+00  0.00000000000E+00  0.15721486261E+04  0.15721486261E+04  0.00000000000E+00 0. -1.
         -1   -1    0    0    0  501 -0.00000000000E+00 -0.00000000000E+00 -0.24592562893E+02  0.24592562893E+02  0.00000000000E+00 0.  1.
          5    1    1    2  502    0  0.61449250005E+02 -0.49154172315E+02  0.99463454364E+03  0.99775353088E+03  0.47000000000E+01 0.  1.
         -5    1    1    2    0  502  0.63395638752E+02  0.24808613301E+02  0.23364828661E+03  0.24340929757E+03  0.47000000000E+01 0.  1.
        -11    1    1    2    0    0 -0.38503415420E+01 -0.22845883586E+02  0.80538416712E+02  0.83804511175E+02  0.00000000000E+00 0. -1.
         11    1    1    2    0    0 -0.12099454721E+03  0.47191442600E+02  0.23873481619E+03  0.27177384932E+03  0.00000000000E+00 0.  1.
<mgrwt>
<rscale>  0 0.17261966E+03</rscale>
<asrwt>0</asrwt>
<pdfrwt beam="1">  1        1 0.24186894E+00 0.17834364E+03</pdfrwt>
<pdfrwt beam="2">  1       -1 0.37834724E-02 0.17834364E+03</pdfrwt>
<totfact> 0.17167493E+03</totfact>
</mgrwt>
</event>
<event>
 6    1  0.6101889E-006  0.1347961E+03  0.7546771E-02  0.1234411E+00
         -1   -1    0    0    0  501 -0.00000000000E+00  0.00000000000E+00  0.44163766112E+02  0.44163766112E+02  0.00000000000E+00 0.  1.
          1   -1    0    0  501    0  0.00000000000E+00 -0.00000000000E+00 -0.33962002866E+03  0.33962002866E+03  0.00000000000E+00 0. -1.
          5    1    1    2  502    0 -0.24861994101E+01  0.50268663656E+02 -0.51385185491E+02  0.72080836713E+02  0.47000000000E+01 0. -1.
         -5    1    1    2    0  502  0.52273249467E+02 -0.58404516328E+02 -0.16729931423E+03  0.18480998534E+03  0.47000000000E+01 0. -1.
        -11    1    1    2    0    0  0.20922566072E+02 -0.15467481245E+02 -0.25396931060E+02  0.36359329675E+02  0.00000000000E+00 0.  1.
         11    1    1    2    0    0 -0.70709616129E+02  0.23603333917E+02 -0.51374831768E+02  0.90533643052E+02  0.00000000000E+00 0. -1.
<mgrwt>
<rscale>  0 0.12542241E+03</rscale>
<asrwt>0</asrwt>
<pdfrwt beam="2">  1        1 0.52249234E-01 0.13479608E+03</pdfrwt>
<pdfrwt beam="1">  1       -1 0.67944257E-02 0.13479608E+03</pdfrwt>
<totfact> 0.78660722E+03</totfact>
</mgrwt>
</event>
<event>
 6    1  0.6101889E-006  0.1561716E+03  0.7546771E-02  0.1201255E+00
          2   -1    0    0  501    0  0.00000000000E+00  0.00000000000E+00  0.43758019398E+03  0.43758019398E+03  0.00000000000E+00 0. -1.
         -2   -1    0    0    0  501 -0.00000000000E+00 -0.00000000000E+00 -0.65583564668E+02  0.65583564668E+02  0.00000000000E+00 0.  1.
          5    1    1    2  502    0 -0.47485967436E+02  0.48043631820E+02  0.69783402146E+02  0.97236417441E+02  0.47000000000E+01 0.  1.
         -5    1    1    2    0  502  0.43481805476E+02  0.45498686357E+02  0.26157091197E+03  0.26907662451E+03  0.47000000000E+01 0.  1.
        -11    1    1    2    0    0 -0.13965092540E+02 -0.35951593325E+02 -0.26340312603E+02  0.46704956271E+02  0.00000000000E+00 0.  1.
         11    1    1    2    0    0  0.17969254500E+02 -0.57590724852E+02  0.66982627795E+02  0.90145760425E+02  0.00000000000E+00 0. -1.
<mgrwt>
<rscale>  0 0.14936567E+03</rscale>
<asrwt>0</asrwt>
<pdfrwt beam="1">  1        2 0.67320028E-01 0.15617158E+03</pdfrwt>
<pdfrwt beam="2">  1       -2 0.10089779E-01 0.15617158E+03</pdfrwt>
<totfact> 0.45919510E+03</totfact>
</mgrwt>
</event>
<event>
 6    1  0.6101889E-006  0.1264791E+03  0.7546771E-02  0.1248507E+00
         -1   -1    0    0    0  501 -0.00000000000E+00  0.00000000000E+00  0.98617254030E+02  0.98617254030E+02  0.00000000000E+00 0.  1.
          1   -1    0    0  501    0  0.00000000000E+00 -0.00000000000E+00 -0.16960145283E+03  0.16960145283E+03  0.00000000000E+00 0. -1.
          5    1    1    2  502    0 -0.62564179028E+02  0.23711393392E+02 -0.57149526976E+02  0.88117337157E+02  0.47000000000E+01 0.  1.
         -5    1    1    2    0  502  0.59006700407E+02 -0.47699657870E+01 -0.53554518245E+02  0.79966991258E+02  0.47000000000E+01 0.  1.
        -11    1    1    2    0    0  0.50507884807E+00 -0.55324455901E+02  0.25992086158E+02  0.61128054674E+02  0.00000000000E+00 0.  1.
         11    1    1    2    0    0  0.30523997739E+01  0.36383028296E+02  0.13727760262E+02  0.39006323771E+02  0.00000000000E+00 0. -1.
<mgrwt>
<rscale>  0 0.11677937E+03</rscale>
<asrwt>0</asrwt>
<pdfrwt beam="2">  1        1 0.26092531E-01 0.12647907E+03</pdfrwt>
<pdfrwt beam="1">  1       -1 0.15171885E-01 0.12647907E+03</pdfrwt>
<totfact> 0.54267430E+03</totfact>
</mgrwt>
</event>
<event>
 6    1  0.6101889E-006  0.1678091E+03  0.7546771E-02  0.1186575E+00
          2   -1    0    0  501    0  0.00000000000E+00  0.00000000000E+00  0.16760114906E+03  0.16760114906E+03  0.00000000000E+00 0.  1.
         -2   -1    0    0    0  501 -0.00000000000E+00 -0.00000000000E+00 -0.16877465363E+03  0.16877465363E+03  0.00000000000E+00 0. -1.
          5    1    1    2  502    0  0.64795015570E+02  0.43351859559E+02  0.35991228059E+02  0.85995559578E+02  0.47000000000E+01 0. -1.
         -5    1    1    2    0  502 -0.56953870809E+02  0.68339334344E+02  0.24620505350E+02  0.92424386947E+02  0.47000000000E+01 0. -1.
        -11    1    1    2    0    0 -0.19881975723E+02 -0.36109788396E+01 -0.43115634197E+02  0.47616069126E+02  0.00000000000E+00 0. -1.
         11    1    1    2    0    0  0.12040830963E+02 -0.10808021506E+03 -0.18669603778E+02  0.11033978704E+03  0.00000000000E+00 0.  1.
<mgrwt>
<rscale>  0 0.16189404E+03</rscale>
<asrwt>0</asrwt>
<pdfrwt beam="1">  1        2 0.25784792E-01 0.16780910E+03</pdfrwt>
<pdfrwt beam="2">  1       -2 0.25965331E-01 0.16780910E+03</pdfrwt>
<totfact> 0.26956130E+03</totfact>
</mgrwt>
</event>
<event>
 6    1  0.6101889E-006  0.1262264E+03  0.7546771E-02  0.1253428E+00
          1   -1    0    0  501    0  0.00000000000E+00  0.00000000000E+00  0.24800581406E+03  0.24800581406E+03  0.00000000000E+00 0. -1.
         -1   -1    0    0    0  501 -0.00000000000E+00 -0.00000000000E+00 -0.63858487983E+02  0.63858487983E+02  0.00000000000E+00 0.  1.
          5    1    1    2  502    0 -0.18687795825E+02 -0.51748604934E+02  0.17639562452E+03  0.18483684204E+03  0.47000000000E+01 0. -1.
         -5    1    1    2    0  502  0.21592378758E+02  0.34428271566E+02  0.13300487921E+02  0.43017783327E+02  0.47000000000E+01 0. -1.
        -11    1    1    2    0    0 -0.12908103862E+02 -0.16092466335E+02 -0.33480265149E+02  0.39325752027E+02  0.00000000000E+00 0.  1.
         11    1    1    2    0    0  0.10003520930E+02  0.33412799703E+02  0.27931478784E+02  0.44683924649E+02  0.00000000000E+00 0. -1.
<mgrwt>
<rscale>  0 0.11394827E+03</rscale>
<asrwt>0</asrwt>
<pdfrwt beam="1">  1        1 0.38154740E-01 0.12622644E+03</pdfrwt>
<pdfrwt beam="2">  1       -1 0.98243829E-02 0.12622644E+03</pdfrwt>
<totfact> 0.66216825E+03</totfact>
</mgrwt>
</event>
<event>
 6    1  0.6101889E-006  0.1538389E+03  0.7546771E-02  0.1198925E+00
         -2   -1    0    0    0  501 -0.00000000000E+00  0.00000000000E+00  0.26454508262E+02  0.26454508262E+02  0.00000000000E+00 0.  1.
          2   -1    0    0  501    0  0.00000000000E+00 -0.00000000000E+00 -0.22516772393E+04  0.22516772393E+04  0.00000000000E+00 0. -1.
          5    1    1    2  502    0 -0.10758593486E+03 -0.36325230464E+02 -0.17700538383E+04  0.17736986599E+04  0.47000000000E+01 0. -1.
         -5    1    1    2    0  502  0.11240934082E+02  0.31387641383E+02 -0.25911021546E+03  0.26128860745E+03  0.47000000000E+01 0.  1.
        -11    1    1    2    0    0  0.96988451672E+02  0.39455994978E+02 -0.17090113024E+03  0.20042637455E+03  0.00000000000E+00 0.  1.
         11    1    1    2    0    0 -0.64345089268E+00 -0.34518405896E+02 -0.25157547010E+02  0.42718105602E+02  0.00000000000E+00 0. -1.
<mgrwt>
<rscale>  0 0.15126699E+03</rscale>
<asrwt>0</asrwt>
<pdfrwt beam="2">  1        2 0.34641194E+00 0.15383895E+03</pdfrwt>
<pdfrwt beam="1">  1       -2 0.40699237E-02 0.15383895E+03</pdfrwt>
<totfact> 0.14845622E+03</totfact>
</mgrwt>
</event>
<event>
 6    1  0.6101889E-006  0.1816101E+03  0.7546771E-02  0.1171707E+00
          2   -1    0    0  501    0  0.00000000000E+00  0.00000000000E+00  0.82794073276E+03  0.82794073276E+03  0.00000000000E+00 0. -1.
         -2   -1    0    0    0  501 -0.00000000000E+00 -0.00000000000E+00 -0.45466342147E+02  0.45466342147E+02  0.00000000000E+00 0.  1.
          5    1    1    2  502    0  0.31725998026E+02  0.78697029426E+02  0.15067246970E+03  0.17298567720E+03  0.47000000000E+01 0. -1.
         -5    1    1    2    0  502  0.57144792401E+02  0.18556469522E+02  0.46575726824E+03  0.46964006726E+03  0.47000000000E+01 0. -1.
        -11    1    1    2    0    0 -0.33697845160E+02 -0.52687542195E+00  0.89553325641E+02  0.95685006660E+02  0.00000000000E+00 0. -1.
         11    1    1    2    0    0 -0.55172945267E+02 -0.96726623527E+02  0.76491327028E+02  0.13509632378E+03  0.00000000000E+00 0.  1.
<mgrwt>
<rscale>  0 0.17602478E+03</rscale>
<asrwt>0</asrwt>
<pdfrwt beam="1">  1        2 0.12737549E+00 0.18161009E+03</pdfrwt>
<pdfrwt beam="2">  1       -2 0.69948225E-02 0.18161009E+03</pdfrwt>
<totfact> 0.39049260E+03</totfact>
</mgrwt>
</event>
<event>
 6    1  0.6101889E-006  0.1478178E+03  0.7546771E-02  0.1225394E+00
         -2   -1    0    0    0  501 -0.00000000000E+00  0.00000000000E+00  0.74244524460E+02  0.74244524460E+02  0.00000000000E+00 0.  1.
          2   -1    0    0  501    0  0.00000000000E+00 -0.00000000000E+00 -0.19414044330E+03  0.19414044330E+03  0.00000000000E+00 0. -1.
          5    1    1    2  502    0  0.42729131225E+02 -0.32836263975E+02 -0.69653518457E+02  0.88191278030E+02  0.47000000000E+01 0. -1.
         -5    1    1    2    0  502 -0.40859825239E+02  0.65013997057E+02 -0.41914384379E+01  0.77045462475E+02  0.47000000000E+01 0.  1.
        -11    1    1    2    0    0 -0.15132728716E+02 -0.42098528000E+02 -0.64410201519E+02  0.78421678112E+02  0.00000000000E+00 0. -1.
         11    1    1    2    0    0  0.13263422730E+02  0.99207949178E+01  0.18359239579E+02  0.24726549137E+02  0.00000000000E+00 0.  1.
<mgrwt>
<rscale>  0 0.13139922E+03</rscale>
<asrwt>0</asrwt>
<pdfrwt beam="2">  1        2 0.29867760E-01 0.14781780E+03</pdfrwt>
<pdfrwt beam="1">  1       -2 0.11422235E-01 0.14781780E+03</pdfrwt>
<totfact> 0.89761614E+03</totfact>
</mgrwt>
</event>
<event>
 6    1  0.6101889E-006  0.1473002E+03  0.7546771E-02  0.1213268E+00
          2   -1    0    0  501    0  0.00000000000E+00  0.00000000000E+00  0.86546613383E+03  0.86546613383E+03  0.00000000000E+00 0. -1.
         -2   -1    0    0    0  501 -0.00000000000E+00 -0.00000000000E+00 -0.20694398857E+02  0.20694398857E+02  0.00000000000E+00 0.  1.
          5    1    1    2  502    0  0.25147943825E+02  0.36877527438E+02  0.29011526698E+03  0.29356656698E+03  0.47000000000E+01 0.  1.
         -5    1    1    2    0  502 -0.82577302798E+02  0.15790360775E+02  0.17289761136E+03  0.19231229926E+03  0.47000000000E+01 0.  1.
        -11    1    1    2    0    0  0.34523054850E+02 -0.77836163750E+02  0.29642320608E+03  0.30841048427E+03  0.00000000000E+00 0. -1.
         11    1    1    2    0    0  0.22906304123E+02  0.25168275538E+02  0.85335650548E+02  0.91871182187E+02  0.00000000000E+00 0.  1.
<mgrwt>
<rscale>  0 0.14004561E+03</rscale>
<asrwt>0</asrwt>
<pdfrwt beam="1">  1        2 0.13314861E+00 0.14730019E+03</pdfrwt>
<pdfrwt beam="2">  1       -2 0.31837543E-02 0.14730019E+03</pdfrwt>
<totfact> 0.11951992E+04</totfact>
</mgrwt>
</event>
<event>
 6    1  0.6101889E-006  0.1271973E+03  0.7546771E-02  0.1245880E+00
          2   -1    0    0  501    0  0.00000000000E+00  0.00000000000E+00  0.24364247114E+02  0.24364247114E+02  0.00000000000E+00 0. -1.
         -2   -1    0    0    0  501 -0.00000000000E+00 -0.00000000000E+00 -0.50789671803E+03  0.50789671803E+03  0.00000000000E+00 0.  1.
          5    1    1    2  502    0  0.45933670771E+02  0.29540434332E+02 -0.54908448782E+02  0.77585869324E+02  0.47000000000E+01 0. -1.
         -5    1    1    2    0  502 -0.24802285524E+02 -0.39631707418E+02 -0.22520305759E+03  0.23005289119E+03  0.47000000000E+01 0. -1.
        -11    1    1    2    0    0  0.23277161334E+02 -0.11948494227E+02 -0.15807927473E+02  0.30569319997E+02  0.00000000000E+00 0. -1.
         11    1    1    2    0    0 -0.44408546581E+02  0.22039767313E+02 -0.18761303707E+03  0.19405288463E+03  0.00000000000E+00 0.  1.
<mgrwt>
<rscale>  0 0.11832854E+03</rscale>
<asrwt>0</asrwt>
<pdfrwt beam="1">  1        2 0.37483457E-02 0.12719729E+03</pdfrwt>
<pdfrwt beam="2">  1       -2 0.78137956E-01 0.12719729E+03</pdfrwt>
<totfact> 0.32927252E+03</totfact>
</mgrwt>
</event>
<event>
 6    1  0.6101889E-006  0.3031022E+03  0.7546771E-02  0.1083700E+00
         -2   -1    0    0    0  501 -0.00000000000E+00  0.00000000000E+00  0.45835265726E+02  0.45835265726E+02  0.00000000000E+00 0.  1.
          2   -1    0    0  501    0  0.00000000000E+00 -0.00000000000E+00 -0.50109300794E+03  0.50109300794E+03  0.00000000000E+00 0. -1.
          5    1    1    2  502    0  0.72158301837E+02 -0.96402557517E+02 -0.24580871553E+03  0.27375954458E+03  0.47000000000E+01 0.  1.
         -5    1    1    2    0  502  0.90497097603E+01  0.30622192923E+02 -0.19882438441E+02  0.37908011087E+02  0.47000000000E+01 0.  1.
        -11    1    1    2    0    0 -0.67732349851E+02  0.68514846887E+01 -0.14491013786E+03  0.16010484725E+03  0.00000000000E+00 0. -1.
         11    1    1    2    0    0 -0.13475661747E+02  0.58928879905E+02 -0.44656450380E+02  0.75155870741E+02  0.00000000000E+00 0.  1.
<mgrwt>
<rscale>  0 0.30310217E+03</rscale>
<asrwt>0</asrwt>
<pdfrwt beam="2">  1        2 0.77091236E-01 0.30310217E+03</pdfrwt>
<pdfrwt beam="1">  1       -2 0.70515790E-02 0.30310217E+03</pdfrwt>
<totfact> 0.71466407E+03</totfact>
</mgrwt>
</event>
<event>
 6    1  0.6101889E-006  0.1478225E+03  0.7546771E-02  0.1212888E+00
          3   -1    0    0  501    0  0.00000000000E+00  0.00000000000E+00  0.51902435697E+02  0.51902435697E+02  0.00000000000E+00 0. -1.
         -3   -1    0    0    0  501 -0.00000000000E+00 -0.00000000000E+00 -0.35250128908E+03  0.35250128908E+03  0.00000000000E+00 0.  1.
          5    1    1    2  502    0  0.57735784031E+02 -0.15239597113E+02 -0.10261000371E+03  0.11881316821E+03  0.47000000000E+01 0. -1.
         -5    1    1    2    0  502 -0.61930647886E+01  0.74986061469E+02 -0.34882242237E+02  0.83066986761E+02  0.47000000000E+01 0. -1.
        -11    1    1    2    0    0 -0.27104730209E+02 -0.43076360439E+02 -0.17312211331E+02  0.53758272755E+02  0.00000000000E+00 0. -1.
         11    1    1    2    0    0 -0.24437989033E+02 -0.16670103916E+02 -0.14579439611E+03  0.14876529706E+03  0.00000000000E+00 0.  1.
<mgrwt>
<rscale>  0 0.14032853E+03</rscale>
<asrwt>0</asrwt>
<pdfrwt beam="1">  1        3 0.79849904E-02 0.14782246E+03</pdfrwt>
<pdfrwt beam="2">  1       -3 0.54230966E-01 0.14782246E+03</pdfrwt>
<totfact> 0.84847272E+02</totfact>
</mgrwt>
</event>
<event>
 6    1  0.6101889E-006  0.1121223E+03  0.7546771E-02  0.1266809E+00
          2   -1    0    0  501    0  0.00000000000E+00  0.00000000000E+00  0.44923803533E+03  0.44923803533E+03  0.00000000000E+00 0. -1.
         -2   -1    0    0    0  501 -0.00000000000E+00 -0.00000000000E+00 -0.21254904113E+03  0.21254904113E+03  0.00000000000E+00 0.  1.
          5    1    1    2  502    0  0.29139865975E+02 -0.50037121315E+02  0.33569965685E+03  0.34068929379E+03  0.47000000000E+01 0. -1.
         -5    1    1    2    0  502 -0.30122029307E+02  0.30833034915E+02  0.96086885918E+02  0.10541722979E+03  0.47000000000E+01 0.  1.
        -11    1    1    2    0    0  0.20054613023E+02 -0.31325224515E+02 -0.93347400587E+02  0.10048479681E+03  0.00000000000E+00 0. -1.
         11    1    1    2    0    0 -0.19072449692E+02  0.50529310915E+02 -0.10175014798E+03  0.11519575605E+03  0.00000000000E+00 0.  1.
<mgrwt>
<rscale>  0 0.10669855E+03</rscale>
<asrwt>0</asrwt>
<pdfrwt beam="1">  1        2 0.69113544E-01 0.11212231E+03</pdfrwt>
<pdfrwt beam="2">  1       -2 0.32699853E-01 0.11212231E+03</pdfrwt>
<totfact> 0.61398293E+02</totfact>
</mgrwt>
</event>
<event>
 6    1  0.6101889E-006  0.2814981E+03  0.7546771E-02  0.1094874E+00
          2   -1    0    0  501    0  0.00000000000E+00  0.00000000000E+00  0.20148947985E+03  0.20148947985E+03  0.00000000000E+00 0. -1.
         -2   -1    0    0    0  501 -0.00000000000E+00 -0.00000000000E+00 -0.98319224870E+02  0.98319224870E+02  0.00000000000E+00 0.  1.
          5    1    1    2  502    0  0.22397937016E+02  0.17342163683E+02 -0.14455240735E+02  0.32147507034E+02  0.47000000000E+01 0.  1.
         -5    1    1    2    0  502 -0.10050246668E+01 -0.11962024634E+02  0.16190001359E+03  0.16241245182E+03  0.47000000000E+01 0.  1.
        -11    1    1    2    0    0 -0.38829280026E+01  0.42701278534E+02 -0.29299415546E+02  0.51931994663E+02  0.00000000000E+00 0.  1.
         11    1    1    2    0    0 -0.17509984347E+02 -0.48081417583E+02 -0.14975102328E+02  0.53316751198E+02  0.00000000000E+00 0. -1.
<mgrwt>
<rscale>  0 0.28149806E+03</rscale>
<asrwt>0</asrwt>
<pdfrwt beam="1">  1        2 0.30998381E-01 0.28149806E+03</pdfrwt>
<pdfrwt beam="2">  1       -2 0.15126035E-01 0.28149806E+03</pdfrwt>
<totfact> 0.56744783E+03</totfact>
</mgrwt>
</event>
<event>
 6    1  0.6101889E-006  0.1654167E+03  0.7546771E-02  0.1207285E+00
          1   -1    0    0  501    0  0.00000000000E+00  0.00000000000E+00  0.66352473796E+02  0.66352473796E+02  0.00000000000E+00 0. -1.
         -1   -1    0    0    0  501 -0.00000000000E+00 -0.00000000000E+00 -0.43566559994E+03  0.43566559994E+03  0.00000000000E+00 0.  1.
          5    1    1    2  502    0  0.55538908470E+02  0.72167910089E+02 -0.29784537000E+02  0.95926983925E+02  0.47000000000E+01 0. -1.
         -5    1    1    2    0  502 -0.67083905593E+02 -0.31371978717E+02 -0.26967256123E+02  0.78954254737E+02  0.47000000000E+01 0.  1.
        -11    1    1    2    0    0  0.10288601631E+02  0.23508784377E+02 -0.15237401407E+03  0.15451976712E+03  0.00000000000E+00 0. -1.
         11    1    1    2    0    0  0.12563954914E+01 -0.64304715749E+02 -0.16018731895E+03  0.17261706796E+03  0.00000000000E+00 0.  1.
<mgrwt>
<rscale>  0 0.14458869E+03</rscale>
<asrwt>0</asrwt>
<pdfrwt beam="1">  1        1 0.10208073E-01 0.16541669E+03</pdfrwt>
<pdfrwt beam="2">  1       -1 0.67025477E-01 0.16541669E+03</pdfrwt>
<totfact> 0.14374960E+03</totfact>
</mgrwt>
</event>
<event>
 6    1  0.6101889E-006  0.3493444E+03  0.7546771E-02  0.1062884E+00
         -1   -1    0    0    0  501 -0.00000000000E+00  0.00000000000E+00  0.64586835179E+02  0.64586835179E+02  0.00000000000E+00 0.  1.
          1   -1    0    0  501    0  0.00000000000E+00 -0.00000000000E+00 -0.47239305858E+03  0.47239305858E+03  0.00000000000E+00 0. -1.
          5    1    1    2  502    0  0.19989323288E+02  0.13008273596E+02 -0.32595123872E+03  0.32685637251E+03  0.47000000000E+01 0.  1.
         -5    1    1    2    0  502  0.55912816217E+02  0.26902264169E+02 -0.54638936743E+02  0.82809892182E+02  0.47000000000E+01 0.  1.
        -11    1    1    2    0    0 -0.23080483174E+02 -0.35322306551E+02 -0.53499115172E+02  0.68136109133E+02  0.00000000000E+00 0. -1.
         11    1    1    2    0    0 -0.52821656331E+02 -0.45882312140E+01  0.26283067229E+02  0.59177519939E+02  0.00000000000E+00 0.  1.
<mgrwt>
<rscale>  0 0.34934437E+03</rscale>
<asrwt>0</asrwt>
<pdfrwt beam="2">  1        1 0.72675856E-01 0.34934437E+03</pdfrwt>
<pdfrwt beam="1">  1       -1 0.99364361E-02 0.34934437E+03</pdfrwt>
<totfact> 0.30075943E+03</totfact>
</mgrwt>
</event>
<event>
 6    1  0.6101889E-006  0.1571968E+03  0.7546771E-02  0.1199694E+00
          1   -1    0    0  501    0  0.00000000000E+00  0.00000000000E+00  0.18599584292E+03  0.18599584292E+03  0.00000000000E+00 0. -1.
         -1   -1    0    0    0  501 -0.00000000000E+00 -0.00000000000E+00 -0.13496331571E+03  0.13496331571E+03  0.00000000000E+00 0.  1.
          5    1    1    2  502    0  0.28129914334E+02 -0.76814619668E+02  0.15603879769E+02  0.83410724364E+02  0.47000000000E+01 0. -1.
         -5    1    1    2    0  502  0.54756777880E+02  0.29750191584E+02  0.76500609484E+02  0.98781637335E+02  0.47000000000E+01 0. -1.
        -11    1    1    2    0    0 -0.60148694482E+02  0.26861965026E+02 -0.70470505303E+02  0.96465137385E+02  0.00000000000E+00 0.  1.
         11    1    1    2    0    0 -0.22737997732E+02  0.20202463058E+02  0.29398543264E+02  0.42301659548E+02  0.00000000000E+00 0. -1.
<mgrwt>
<rscale>  0 0.15063540E+03</rscale>
<asrwt>0</asrwt>
<pdfrwt beam="1">  1        1 0.28614745E-01 0.15719675E+03</pdfrwt>
<pdfrwt beam="2">  1       -1 0.20763587E-01 0.15719675E+03</pdfrwt>
<totfact> 0.29708623E+03</totfact>
</mgrwt>
</event>
<event>
 6    1  0.6101889E-006  0.3287989E+03  0.7546771E-02  0.1071670E+00
         -1   -1    0    0    0  501 -0.00000000000E+00  0.00000000000E+00  0.27807965824E+02  0.27807965824E+02  0.00000000000E+00 0.  1.
          1   -1    0    0  501    0  0.00000000000E+00 -0.00000000000E+00 -0.97192222968E+03  0.97192222968E+03  0.00000000000E+00 0. -1.
          5    1    1    2  502    0 -0.16894276316E+02 -0.88541293022E+02 -0.30970472424E+03  0.32258965166E+03  0.47000000000E+01 0. -1.
         -5    1    1    2    0  502  0.44513495617E+01  0.14517156142E+02 -0.49260250694E+03  0.49285888668E+03  0.47000000000E+01 0. -1.
        -11    1    1    2    0    0  0.12419892616E+02  0.15005905461E+02  0.96454381182E+01  0.21736269408E+02  0.00000000000E+00 0.  1.
         11    1    1    2    0    0  0.23034138235E-01  0.59018231419E+02 -0.15145247079E+03  0.16254538775E+03  0.00000000000E+00 0. -1.
<mgrwt>
<rscale>  0 0.32879891E+03</rscale>
<asrwt>0</asrwt>
<pdfrwt beam="2">  1        1 0.14952647E+00 0.32879891E+03</pdfrwt>
<pdfrwt beam="1">  1       -1 0.42781492E-02 0.32879891E+03</pdfrwt>
<totfact> 0.37446089E+03</totfact>
</mgrwt>
</event>
<event>
 6    1  0.6101889E-006  0.2303751E+03  0.7546771E-02  0.1129264E+00
          1   -1    0    0  501    0  0.00000000000E+00  0.00000000000E+00  0.20637352856E+03  0.20637352856E+03  0.00000000000E+00 0. -1.
         -1   -1    0    0    0  501 -0.00000000000E+00 -0.00000000000E+00 -0.27142988619E+03  0.27142988619E+03  0.00000000000E+00 0.  1.
          5    1    1    2  502    0 -0.16930688719E+03 -0.29844126091E+02  0.71124160697E+02  0.18610811413E+03  0.47000000000E+01 0. -1.
         -5    1    1    2    0  502 -0.10414754059E+02 -0.41882724724E+02 -0.23163461830E+02  0.49206358293E+02  0.47000000000E+01 0. -1.
        -11    1    1    2    0    0  0.99944724592E+02  0.41936026393E+02 -0.10022504478E+02  0.10884865125E+03  0.00000000000E+00 0. -1.
         11    1    1    2    0    0  0.79776916654E+02  0.29790824422E+02 -0.10299455202E+03  0.13364029107E+03  0.00000000000E+00 0.  1.
<mgrwt>
<rscale>  0 0.22631035E+03</rscale>
<asrwt>0</asrwt>
<pdfrwt beam="1">  1        1 0.31749774E-01 0.23037507E+03</pdfrwt>
<pdfrwt beam="2">  1       -1 0.41758444E-01 0.23037507E+03</pdfrwt>
<totfact> 0.80608692E+02</totfact>
</mgrwt>
</event>
<event>
 6    1  0.6101889E-006  0.1416357E+03  0.7546771E-02  0.1221284E+00
          1   -1    0    0  501    0  0.00000000000E+00  0.00000000000E+00  0.51186790591E+03  0.51186790591E+03  0.00000000000E+00 0. -1.
         -1   -1    0    0    0  501 -0.00000000000E+00 -0.00000000000E+00 -0.36580880481E+02  0.36580880481E+02  0.00000000000E+00 0.  1.
          5    1    1    2  502    0 -0.59538532626E+01  0.24053072754E+02  0.13484279131E+02  0.28599203857E+02  0.47000000000E+01 0. -1.
         -5    1    1    2    0  502  0.20353595257E+02 -0.89081165876E+02  0.34292515120E+03  0.35492178332E+03  0.47000000000E+01 0. -1.
        -11    1    1    2    0    0  0.55605235716E+01  0.74183070710E+02  0.12185426967E+03  0.14276732973E+03  0.00000000000E+00 0. -1.
         11    1    1    2    0    0 -0.19960265566E+02 -0.91549775880E+01 -0.29766745652E+01  0.22160469480E+02  0.00000000000E+00 0.  1.
<mgrwt>
<rscale>  0 0.13424899E+03</rscale>
<asrwt>0</asrwt>
<pdfrwt beam="1">  1        1 0.78748903E-01 0.14163568E+03</pdfrwt>
<pdfrwt beam="2">  1       -1 0.56278281E-02 0.14163568E+03</pdfrwt>
<totfact> 0.62036714E+03</totfact>
</mgrwt>
</event>
<event>
 6    1  0.6101889E-006  0.1393004E+03  0.7546771E-02  0.1226028E+00
          2   -1    0    0  501    0  0.00000000000E+00  0.00000000000E+00  0.50470422758E+02  0.50470422758E+02  0.00000000000E+00 0. -1.
         -2   -1    0    0    0  501 -0.00000000000E+00 -0.00000000000E+00 -0.31255583721E+03  0.31255583721E+03  0.00000000000E+00 0.  1.
          5    1    1    2  502    0 -0.92015291687E+01  0.58950279366E+02 -0.26835177819E+02  0.65589788419E+02  0.47000000000E+01 0. -1.
         -5    1    1    2    0  502 -0.51816794770E+02 -0.51396512722E+02 -0.91888015303E+02  0.11743968280E+03  0.47000000000E+01 0. -1.
        -11    1    1    2    0    0 -0.16792725763E+02 -0.23773936101E+02 -0.43978782739E+02  0.52738306832E+02  0.00000000000E+00 0.  1.
         11    1    1    2    0    0  0.77811049702E+02  0.16220169457E+02 -0.99383438586E+02  0.12725848191E+03  0.00000000000E+00 0. -1.
<mgrwt>
<rscale>  0 0.13096679E+03</rscale>
<asrwt>0</asrwt>
<pdfrwt beam="1">  1        2 0.77646805E-02 0.13930036E+03</pdfrwt>
<pdfrwt beam="2">  1       -2 0.48085513E-01 0.13930036E+03</pdfrwt>
<totfact> 0.35135685E+03</totfact>
</mgrwt>
</event>
<event>
 6    1  0.6101889E-006  0.2693941E+03  0.7546771E-02  0.1103720E+00
          2   -1    0    0  501    0  0.00000000000E+00  0.00000000000E+00  0.39508853961E+03  0.39508853961E+03  0.00000000000E+00 0. -1.
         -2   -1    0    0    0  501 -0.00000000000E+00 -0.00000000000E+00 -0.20332596554E+03  0.20332596554E+03  0.00000000000E+00 0.  1.
          5    1    1    2  502    0 -0.89700891321E+02  0.11799594416E+03  0.20291888894E+03  0.25133137136E+03  0.47000000000E+01 0.  1.
         -5    1    1    2    0  502 -0.49040252471E+02  0.76164725440E+02  0.84787834390E+01  0.91104289319E+02  0.47000000000E+01 0.  1.
        -11    1    1    2    0    0  0.98781727705E+02 -0.18874181981E+03 -0.50235737332E+01  0.21308810517E+03  0.00000000000E+00 0. -1.
         11    1    1    2    0    0  0.39959416087E+02 -0.54188497846E+01 -0.14611524583E+02  0.42890739299E+02  0.00000000000E+00 0.  1.
<mgrwt>
<rscale>  0 0.26577968E+03</rscale>
<asrwt>0</asrwt>
<pdfrwt beam="1">  1        2 0.60782852E-01 0.26939415E+03</pdfrwt>
<pdfrwt beam="2">  1       -2 0.31280918E-01 0.26939415E+03</pdfrwt>
<totfact> 0.76849079E+02</totfact>
</mgrwt>
</event>
<event>
 6    1  0.6101889E-006  0.1467746E+03  0.7546771E-02  0.1214194E+00
         -2   -1    0    0    0  501 -0.00000000000E+00  0.00000000000E+00  0.41478002445E+03  0.41478002445E+03  0.00000000000E+00 0.  1.
          2   -1    0    0  501    0  0.00000000000E+00 -0.00000000000E+00 -0.14363817616E+03  0.14363817616E+03  0.00000000000E+00 0. -1.
          5    1    1    2  502    0  0.14364805646E+02  0.46563510093E+02  0.22834507988E+02  0.54018634456E+02  0.47000000000E+01 0.  1.
         -5    1    1    2    0  502  0.62479826591E+01  0.27488759937E+02 -0.11682837550E+03  0.12027314136E+03  0.47000000000E+01 0.  1.
        -11    1    1    2    0    0 -0.48306718196E+02 -0.75110793482E+02  0.30695794570E+03  0.31968476778E+03  0.00000000000E+00 0.  1.
         11    1    1    2    0    0  0.27693929891E+02  0.10585234526E+01  0.58177770099E+02  0.64441657012E+02  0.00000000000E+00 0. -1.
<mgrwt>
<rscale>  0 0.13935899E+03</rscale>
<asrwt>0</asrwt>
<pdfrwt beam="2">  1        2 0.22098181E-01 0.14677458E+03</pdfrwt>
<pdfrwt beam="1">  1       -2 0.63812311E-01 0.14677458E+03</pdfrwt>
<totfact> 0.57169782E+02</totfact>
</mgrwt>
</event>
<event>
 6    1  0.6101889E-006  0.1727449E+03  0.7546771E-02  0.1180670E+00
         -2   -1    0    0    0  501 -0.00000000000E+00  0.00000000000E+00  0.39597395657E+03  0.39597395657E+03  0.00000000000E+00 0. -1.
          2   -1    0    0  501    0  0.00000000000E+00 -0.00000000000E+00 -0.77512147167E+02  0.77512147167E+02  0.00000000000E+00 0.  1.
          5    1    1    2  502    0  0.18037563291E+02  0.35896562542E+02  0.27427832576E+02  0.48870163614E+02  0.47000000000E+01 0.  1.
         -5    1    1    2    0  502  0.79593221649E+02 -0.10436173993E+03  0.51863208013E+02  0.14120317291E+03  0.47000000000E+01 0.  1.
        -11    1    1    2    0    0 -0.98905916257E+02  0.18310325439E+02  0.17631232283E+03  0.20298690468E+03  0.00000000000E+00 0.  1.
         11    1    1    2    0    0  0.12751313172E+01  0.50154851949E+02  0.62858445979E+02  0.80425862537E+02  0.00000000000E+00 0. -1.
<mgrwt>
<rscale>  0 0.16732189E+03</rscale>
<asrwt>0</asrwt>
<pdfrwt beam="2">  1        2 0.11924946E-01 0.17274491E+03</pdfrwt>
<pdfrwt beam="1">  1       -2 0.60919069E-01 0.17274491E+03</pdfrwt>
<totfact> 0.12974338E+03</totfact>
</mgrwt>
</event>
<event>
 6    1  0.6101889E-006  0.1275457E+03  0.7546771E-02  0.1245508E+00
         -2   -1    0    0    0  501 -0.00000000000E+00  0.00000000000E+00  0.10416114422E+03  0.10416114422E+03  0.00000000000E+00 0.  1.
          2   -1    0    0  501    0  0.00000000000E+00 -0.00000000000E+00 -0.11908157809E+03  0.11908157809E+03  0.00000000000E+00 0. -1.
          5    1    1    2  502    0  0.30236567206E+02 -0.70831673520E+01  0.41913480432E+02  0.52376054625E+02  0.47000000000E+01 0.  1.
         -5    1    1    2    0  502 -0.55454701335E+02  0.97848830983E+01 -0.49955618367E+02  0.75422951705E+02  0.47000000000E+01 0.  1.
        -11    1    1    2    0    0  0.70593051888E+01  0.30710682528E+02  0.29246632850E+02  0.42992387049E+02  0.00000000000E+00 0.  1.
         11    1    1    2    0    0  0.18158828940E+02 -0.33412398275E+02 -0.36124928782E+02  0.52451328929E+02  0.00000000000E+00 0. -1.
<mgrwt>
<rscale>  0 0.11855055E+03</rscale>
<asrwt>0</asrwt>
<pdfrwt beam="2">  1        2 0.18320243E-01 0.12754572E+03</pdfrwt>
<pdfrwt beam="1">  1       -2 0.16024791E-01 0.12754572E+03</pdfrwt>
<totfact> 0.88403256E+03</totfact>
</mgrwt>
</event>
<event>
 6    1  0.6101889E-006  0.1306664E+03  0.7546771E-02  0.1240180E+00
          4   -1    0    0  501    0  0.00000000000E+00  0.00000000000E+00  0.78590855481E+02  0.78590855481E+02  0.00000000000E+00 0. -1.
         -4   -1    0    0    0  501 -0.00000000000E+00 -0.00000000000E+00 -0.16721965798E+03  0.16721965798E+03  0.00000000000E+00 0.  1.
          5    1    1    2  502    0 -0.70714453318E+02  0.44734437497E+02 -0.26840629694E+02  0.88001211404E+02  0.47000000000E+01 0. -1.
         -5    1    1    2    0  502  0.41371633595E+02 -0.20688942005E+02 -0.22716631674E+02  0.51747267969E+02  0.47000000000E+01 0. -1.
        -11    1    1    2    0    0  0.27631517276E+02  0.77529520369E+00 -0.64691349144E+02  0.70349644517E+02  0.00000000000E+00 0.  1.
         11    1    1    2    0    0  0.17113024464E+01 -0.24820790695E+02  0.25619808009E+02  0.35712389576E+02  0.00000000000E+00 0. -1.
<mgrwt>
<rscale>  0 0.12178552E+03</rscale>
<asrwt>0</asrwt>
<pdfrwt beam="1">  1        4 0.12090901E-01 0.13066643E+03</pdfrwt>
<pdfrwt beam="2">  1       -4 0.25726101E-01 0.13066643E+03</pdfrwt>
<totfact> 0.12735857E+03</totfact>
</mgrwt>
</event>
<event>
 6    1  0.6101889E-006  0.2425279E+03  0.7546771E-02  0.1118120E+00
         -3   -1    0    0    0  501 -0.00000000000E+00  0.00000000000E+00  0.29567772901E+03  0.29567772901E+03  0.00000000000E+00 0.  1.
          3   -1    0    0  501    0  0.00000000000E+00 -0.00000000000E+00 -0.49733037442E+02  0.49733037442E+02  0.00000000000E+00 0. -1.
          5    1    1    2  502    0 -0.65050346845E+02 -0.12406756679E+02  0.54477202597E+01  0.66612633125E+02  0.47000000000E+01 0.  1.
         -5    1    1    2    0  502  0.12690200096E+02  0.19627053363E+02  0.10703063608E+03  0.10965358846E+03  0.47000000000E+01 0.  1.
        -11    1    1    2    0    0  0.21072005254E+02 -0.21454055948E+02  0.13130334326E+03  0.13470290967E+03  0.00000000000E+00 0.  1.
         11    1    1    2    0    0  0.31288141494E+02  0.14233759264E+02  0.21629919684E+01  0.34441635199E+02  0.00000000000E+00 0. -1.
<mgrwt>
<rscale>  0 0.24252795E+03</rscale>
<asrwt>0</asrwt>
<pdfrwt beam="2">  1        3 0.76512367E-02 0.24252795E+03</pdfrwt>
<pdfrwt beam="1">  1       -3 0.45488880E-01 0.24252795E+03</pdfrwt>
<totfact> 0.13887431E+03</totfact>
</mgrwt>
</event>
<event>
 6    1  0.6101889E-006  0.1406024E+03  0.7546771E-02  0.1232980E+00
         -4   -1    0    0    0  501 -0.00000000000E+00  0.00000000000E+00  0.19859252922E+03  0.19859252922E+03  0.00000000000E+00 0. -1.
          4   -1    0    0  501    0  0.00000000000E+00 -0.00000000000E+00 -0.69751455514E+02  0.69751455514E+02  0.00000000000E+00 0.  1.
          5    1    1    2  502    0 -0.51217226720E+02  0.80631716275E+02  0.67994913471E+02  0.11734596815E+03  0.47000000000E+01 0. -1.
         -5    1    1    2    0  502  0.12539948134E+02 -0.29171586104E+02 -0.11620066037E+02  0.34137188955E+02  0.47000000000E+01 0. -1.
        -11    1    1    2    0    0 -0.24548910020E+01  0.10670636710E+02 -0.24266366264E+01  0.11215058758E+02  0.00000000000E+00 0.  1.
         11    1    1    2    0    0  0.41132169588E+02 -0.62130766880E+02  0.74892862899E+02  0.10564576888E+03  0.00000000000E+00 0. -1.
<mgrwt>
<rscale>  0 0.12634624E+03</rscale>
<asrwt>0</asrwt>
<pdfrwt beam="2">  1        4 0.10730993E-01 0.14060236E+03</pdfrwt>
<pdfrwt beam="1">  1       -4 0.30552697E-01 0.14060236E+03</pdfrwt>
<totfact> 0.11484695E+03</totfact>
</mgrwt>
</event>
<event>
 6    1  0.6101889E-006  0.1321515E+03  0.7546771E-02  0.1235530E+00
         -4   -1    0    0    0  501 -0.00000000000E+00  0.00000000000E+00  0.37978960831E+02  0.37978960831E+02  0.00000000000E+00 0. -1.
          4   -1    0    0  501    0  0.00000000000E+00 -0.00000000000E+00 -0.39222183912E+03  0.39222183912E+03  0.00000000000E+00 0.  1.
          5    1    1    2  502    0  0.42566143868E+02  0.36665307949E+02 -0.11792726228E+03  0.13071017788E+03  0.47000000000E+01 0.  1.
         -5    1    1    2    0  502 -0.74701641269E+02 -0.82596613121E+01 -0.12983708716E+03  0.15009435837E+03  0.47000000000E+01 0.  1.
        -11    1    1    2    0    0  0.37773833084E+02  0.24167006800E+02 -0.22531303082E+02  0.50185319587E+02  0.00000000000E+00 0. -1.
         11    1    1    2    0    0 -0.56383356832E+01 -0.52572653437E+02 -0.83947225764E+02  0.99210944115E+02  0.00000000000E+00 0.  1.
<mgrwt>
<rscale>  0 0.12470592E+03</rscale>
<asrwt>0</asrwt>
<pdfrwt beam="2">  1        4 0.60341822E-01 0.13215148E+03</pdfrwt>
<pdfrwt beam="1">  1       -4 0.58429170E-02 0.13215148E+03</pdfrwt>
<totfact> 0.80014057E+02</totfact>
</mgrwt>
</event>
<event>
 6    1  0.6101889E-006  0.1732890E+03  0.7546771E-02  0.1177359E+00
         -2   -1    0    0    0  501 -0.00000000000E+00  0.00000000000E+00  0.84088234178E+02  0.84088234178E+02  0.00000000000E+00 0.  1.
          2   -1    0    0  501    0  0.00000000000E+00 -0.00000000000E+00 -0.33916952873E+03  0.33916952873E+03  0.00000000000E+00 0. -1.
          5    1    1    2  502    0 -0.89003974899E+02  0.83910882213E+01 -0.16461867787E+03  0.18738601072E+03  0.47000000000E+01 0.  1.
         -5    1    1    2    0  502 -0.28157120409E+02 -0.34394972015E+02  0.89155337611E+01  0.45578660269E+02  0.47000000000E+01 0.  1.
        -11    1    1    2    0    0 -0.48147167092E+01 -0.28315209258E+02 -0.16069684518E+02  0.32911507605E+02  0.00000000000E+00 0.  1.
         11    1    1    2    0    0  0.12197581202E+03  0.54319093052E+02 -0.83308465924E+02  0.15738158432E+03  0.00000000000E+00 0. -1.
<mgrwt>
<rscale>  0 0.17046914E+03</rscale>
<asrwt>0</asrwt>
<pdfrwt beam="2">  1        2 0.52179928E-01 0.17328897E+03</pdfrwt>
<pdfrwt beam="1">  1       -2 0.12936651E-01 0.17328897E+03</pdfrwt>
<totfact> 0.40797952E+03</totfact>
</mgrwt>
</event>
<event>
 6    1  0.6101889E-006  0.1322002E+03  0.7546771E-02  0.1236980E+00
         -1   -1    0    0    0  501 -0.00000000000E+00  0.00000000000E+00  0.35748858584E+02  0.35748858584E+02  0.00000000000E+00 0.  1.
          1   -1    0    0  501    0  0.00000000000E+00 -0.00000000000E+00 -0.38380366627E+03  0.38380366627E+03  0.00000000000E+00 0. -1.
          5    1    1    2  502    0 -0.17507554575E+02 -0.11301043604E+02 -0.21754258571E+03  0.21858887129E+03  0.47000000000E+01 0. -1.
         -5    1    1    2    0  502 -0.25428723344E+02  0.11005402976E+02  0.79559368683E+01  0.29208317258E+02  0.47000000000E+01 0. -1.
        -11    1    1    2    0    0 -0.21727044853E+02  0.21068384982E+02 -0.23879358811E+02  0.38550811937E+02  0.00000000000E+00 0.  1.
         11    1    1    2    0    0  0.64663322772E+02 -0.20772744354E+02 -0.11458880004E+03  0.13320452438E+03  0.00000000000E+00 0. -1.
<mgrwt>
<rscale>  0 0.12378498E+03</rscale>
<asrwt>0</asrwt>
<pdfrwt beam="2">  1        1 0.59046720E-01 0.13220016E+03</pdfrwt>
<pdfrwt beam="1">  1       -1 0.54998242E-02 0.13220016E+03</pdfrwt>
<totfact> 0.92387200E+03</totfact>
</mgrwt>
</event>
<event>
 6    1  0.6101889E-006  0.1325737E+03  0.7546771E-02  0.1237786E+00
          1   -1    0    0  501    0  0.00000000000E+00  0.00000000000E+00  0.10003600043E+03  0.10003600043E+03  0.00000000000E+00 0. -1.
         -1   -1    0    0    0  501 -0.00000000000E+00 -0.00000000000E+00 -0.18982119907E+03  0.18982119907E+03  0.00000000000E+00 0.  1.
          5    1    1    2  502    0  0.59573035887E+01 -0.51295885143E+02 -0.37227668401E+02  0.63833741808E+02  0.47000000000E+01 0. -1.
         -5    1    1    2    0  502 -0.25974797549E+02  0.11881465613E+02  0.65655365997E+02  0.71753581214E+02  0.47000000000E+01 0. -1.
        -11    1    1    2    0    0 -0.34656246313E+02  0.16363430613E+02 -0.59658848853E+02  0.70908359989E+02  0.00000000000E+00 0.  1.
         11    1    1    2    0    0  0.54673740273E+02  0.23050988916E+02 -0.58554047382E+02  0.83361516483E+02  0.00000000000E+00 0. -1.
<mgrwt>
<rscale>  0 0.12327758E+03</rscale>
<asrwt>0</asrwt>
<pdfrwt beam="1">  1        1 0.15390154E-01 0.13257371E+03</pdfrwt>
<pdfrwt beam="2">  1       -1 0.29203261E-01 0.13257371E+03</pdfrwt>
<totfact> 0.36976219E+03</totfact>
</mgrwt>
</event>
<event>
 6    1  0.6101889E-006  0.2870849E+03  0.7546771E-02  0.1091881E+00
         -3   -1    0    0    0  501 -0.00000000000E+00  0.00000000000E+00  0.41334879171E+02  0.41334879171E+02  0.00000000000E+00 0.  1.
          3   -1    0    0  501    0  0.00000000000E+00 -0.00000000000E+00 -0.49847588511E+03  0.49847588511E+03  0.00000000000E+00 0. -1.
          5    1    1    2  502    0  0.36600915854E+01 -0.92421806203E+02 -0.32539773290E+03  0.33832079615E+03  0.47000000000E+01 0. -1.
         -5    1    1    2    0  502 -0.12233180165E+02  0.57540368638E+01  0.60242116507E+01  0.15528707711E+02  0.47000000000E+01 0. -1.
        -11    1    1    2    0    0  0.27014649508E+02 -0.74681686262E+01 -0.41350550635E+02  0.49954307807E+02  0.00000000000E+00 0.  1.
         11    1    1    2    0    0 -0.18441560928E+02  0.94135937966E+02 -0.96416934055E+02  0.13600695261E+03  0.00000000000E+00 0. -1.
<mgrwt>
<rscale>  0 0.28708494E+03</rscale>
<asrwt>0</asrwt>
<pdfrwt beam="2">  1        3 0.76688597E-01 0.28708494E+03</pdfrwt>
<pdfrwt beam="1">  1       -3 0.63592122E-02 0.28708494E+03</pdfrwt>
<totfact> 0.64690947E+02</totfact>
</mgrwt>
</event>
<event>
 6    1  0.6101889E-006  0.1252771E+03  0.7546771E-02  0.1255023E+00
          2   -1    0    0  501    0  0.00000000000E+00  0.00000000000E+00  0.53221647116E+02  0.53221647116E+02  0.00000000000E+00 0. -1.
         -2   -1    0    0    0  501 -0.00000000000E+00 -0.00000000000E+00 -0.29254855316E+03  0.29254855316E+03  0.00000000000E+00 0.  1.
          5    1    1    2  502    0  0.37431205119E+02  0.45061610918E+02 -0.26765550437E+02  0.64576532776E+02  0.47000000000E+01 0.  1.
         -5    1    1    2    0  502 -0.44928667238E+02 -0.47958761652E+02 -0.16002312655E+02  0.67799645790E+02  0.47000000000E+01 0.  1.
        -11    1    1    2    0    0  0.59193832720E+01  0.42081955736E+02 -0.82864196948E+02  0.93125749569E+02  0.00000000000E+00 0.  1.
         11    1    1    2    0    0  0.15780788472E+01 -0.39184805001E+02 -0.11369484600E+03  0.12026827214E+03  0.00000000000E+00 0. -1.
<mgrwt>
<rscale>  0 0.11305043E+03</rscale>
<asrwt>0</asrwt>
<pdfrwt beam="1">  1        2 0.81879457E-02 0.12527714E+03</pdfrwt>
<pdfrwt beam="2">  1       -2 0.45007470E-01 0.12527714E+03</pdfrwt>
<totfact> 0.37128171E+03</totfact>
</mgrwt>
</event>
<event>
 6    1  0.6101889E-006  0.3945147E+03  0.7546771E-02  0.1045696E+00
          2   -1    0    0  501    0  0.00000000000E+00  0.00000000000E+00  0.97557543015E+03  0.97557543015E+03  0.00000000000E+00 0.  1.
         -2   -1    0    0    0  501 -0.00000000000E+00 -0.00000000000E+00 -0.39884626590E+02  0.39884626590E+02  0.00000000000E+00 0. -1.
          5    1    1    2  502    0 -0.51861341219E+01 -0.11712018529E+02  0.72417014700E+01  0.15446669716E+02  0.47000000000E+01 0.  1.
         -5    1    1    2    0  502  0.15725488551E+01  0.15235871670E+03  0.70008644962E+03  0.71649059896E+03  0.47000000000E+01 0.  1.
        -11    1    1    2    0    0 -0.33387184099E+02 -0.98866573336E+02  0.10456291456E+03  0.14772510445E+03  0.00000000000E+00 0. -1.
         11    1    1    2    0    0  0.37000769366E+02 -0.41780124833E+02  0.12379973791E+03  0.13579768360E+03  0.00000000000E+00 0.  1.
<mgrwt>
<rscale>  0 0.39451470E+03</rscale>
<asrwt>0</asrwt>
<pdfrwt beam="1">  1        2 0.15008851E+00 0.39451470E+03</pdfrwt>
<pdfrwt beam="2">  1       -2 0.61360971E-02 0.39451470E+03</pdfrwt>
<totfact> 0.39042201E+03</totfact>
</mgrwt>
</event>
<event>
 6    1  0.6101889E-006  0.1362581E+03  0.7546771E-02  0.1231325E+00
          2   -1    0    0  501    0  0.00000000000E+00  0.00000000000E+00  0.50185875868E+03  0.50185875868E+03  0.00000000000E+00 0. -1.
         -2   -1    0    0    0  501 -0.00000000000E+00 -0.00000000000E+00 -0.37043617698E+02  0.37043617698E+02  0.00000000000E+00 0.  1.
          5    1    1    2  502    0 -0.10924637844E+02  0.33538029955E+02  0.31421866468E+03  0.31622714368E+03  0.47000000000E+01 0.  1.
         -5    1    1    2    0  502 -0.43068394006E+02 -0.39153934928E+02  0.68437810782E+02  0.89965221765E+02  0.47000000000E+01 0.  1.
        -11    1    1    2    0    0 -0.99200293328E+01  0.32581637254E+02  0.34955652862E+02  0.48804382335E+02  0.00000000000E+00 0. -1.
         11    1    1    2    0    0  0.63913061182E+02 -0.26965732281E+02  0.47203012661E+02  0.83905628604E+02  0.00000000000E+00 0.  1.
<mgrwt>
<rscale>  0 0.12742654E+03</rscale>
<asrwt>0</asrwt>
<pdfrwt beam="1">  1        2 0.77209035E-01 0.13625806E+03</pdfrwt>
<pdfrwt beam="2">  1       -2 0.56990185E-02 0.13625806E+03</pdfrwt>
<totfact> 0.94694916E+03</totfact>
</mgrwt>
</event>
<event>
 6    1  0.6101889E-006  0.2020706E+03  0.7546771E-02  0.1152053E+00
         -1   -1    0    0    0  501 -0.00000000000E+00  0.00000000000E+00  0.29876612716E+03  0.29876612716E+03  0.00000000000E+00 0.  1.
          1   -1    0    0  501    0  0.00000000000E+00 -0.00000000000E+00 -0.14476554622E+03  0.14476554622E+03  0.00000000000E+00 0. -1.
          5    1    1    2  502    0  0.72232248486E+02  0.82059003189E+02  0.33056754428E+01  0.10947234909E+03  0.47000000000E+01 0. -1.
         -5    1    1    2    0  502 -0.53020897993E+02  0.75546975275E+02 -0.61167444537E+01  0.92617847416E+02  0.47000000000E+01 0. -1.
        -11    1    1    2    0    0 -0.42147985732E+02 -0.11488236069E+03  0.14819971511E+03  0.19219148019E+03  0.00000000000E+00 0.  1.
         11    1    1    2    0    0  0.22936635238E+02 -0.42723617773E+02  0.86119348431E+01  0.49249996684E+02  0.00000000000E+00 0. -1.
<mgrwt>
<rscale>  0 0.19728213E+03</rscale>
<asrwt>0</asrwt>
<pdfrwt beam="2">  1        1 0.22271623E-01 0.20207064E+03</pdfrwt>
<pdfrwt beam="1">  1       -1 0.45964019E-01 0.20207064E+03</pdfrwt>
<totfact> 0.10614965E+03</totfact>
</mgrwt>
</event>
<event>
 6    1  0.6101889E-006  0.1329808E+03  0.7546771E-02  0.1236299E+00
         -3   -1    0    0    0  501 -0.00000000000E+00  0.00000000000E+00  0.10380165249E+03  0.10380165249E+03  0.00000000000E+00 0.  1.
          3   -1    0    0  501    0  0.00000000000E+00 -0.00000000000E+00 -0.13327737768E+03  0.13327737768E+03  0.00000000000E+00 0. -1.
          5    1    1    2  502    0  0.35353751506E+02 -0.70741150061E+02  0.22878781302E+00  0.79223357675E+02  0.47000000000E+01 0.  1.
         -5    1    1    2    0  502 -0.41701642280E+02  0.25799014865E+02 -0.27872834087E+02  0.56600362339E+02  0.47000000000E+01 0.  1.
        -11    1    1    2    0    0 -0.17234031988E+02  0.64155756789E+02 -0.15010324915E+02  0.68104939922E+02  0.00000000000E+00 0. -1.
         11    1    1    2    0    0  0.23581922763E+02 -0.19213621593E+02  0.13178646003E+02  0.33150370230E+02  0.00000000000E+00 0.  1.
<mgrwt>
<rscale>  0 0.12421623E+03</rscale>
<asrwt>0</asrwt>
<pdfrwt beam="2">  1        3 0.20504212E-01 0.13298079E+03</pdfrwt>
<pdfrwt beam="1">  1       -3 0.15969485E-01 0.13298079E+03</pdfrwt>
<totfact> 0.16365574E+03</totfact>
</mgrwt>
</event>
<event>
 6    1  0.6101889E-006  0.1636505E+03  0.7546771E-02  0.1191349E+00
         -2   -1    0    0    0  501 -0.00000000000E+00  0.00000000000E+00  0.17804602915E+02  0.17804602915E+02  0.00000000000E+00 0.  1.
          2   -1    0    0  501    0  0.00000000000E+00 -0.00000000000E+00 -0.13939278468E+04  0.13939278468E+04  0.00000000000E+00 0. -1.
          5    1    1    2  502    0  0.28364936313E+02  0.68421616973E+02 -0.22186225183E+03  0.23394665218E+03  0.47000000000E+01 0.  1.
         -5    1    1    2    0  502  0.57501522046E+02 -0.69164208379E+01 -0.69345178300E+03  0.69588197797E+03  0.47000000000E+01 0.  1.
        -11    1    1    2    0    0 -0.24593895541E+02  0.24682307679E+02 -0.98714314738E+02  0.10468329353E+03  0.00000000000E+00 0.  1.
         11    1    1    2    0    0 -0.61272562817E+02 -0.86187503815E+02 -0.36209489427E+03  0.37722052599E+03  0.00000000000E+00 0. -1.
<mgrwt>
<rscale>  0 0.15767286E+03</rscale>
<asrwt>0</asrwt>
<pdfrwt beam="2">  1        2 0.21445042E+00 0.16365054E+03</pdfrwt>
<pdfrwt beam="1">  1       -2 0.27391699E-02 0.16365054E+03</pdfrwt>
<totfact> 0.74362491E+03</totfact>
</mgrwt>
</event>
<event>
 6    1  0.6101889E-006  0.2497001E+03  0.7546771E-02  0.1123129E+00
          1   -1    0    0  501    0  0.00000000000E+00  0.00000000000E+00  0.11374821875E+04  0.11374821875E+04  0.00000000000E+00 0. -1.
         -1   -1    0    0    0  501 -0.00000000000E+00 -0.00000000000E+00 -0.15627573336E+03  0.15627573336E+03  0.00000000000E+00 0.  1.
          5    1    1    2  502    0  0.14068879464E+03 -0.12740617866E+03  0.62374470371E+03  0.65200093306E+03  0.47000000000E+01 0. -1.
         -5    1    1    2    0  502 -0.26982221913E+02 -0.41931964285E+01  0.43132751090E+03  0.43221653700E+03  0.47000000000E+01 0.  1.
        -11    1    1    2    0    0 -0.11975204407E+03  0.12295542080E+03 -0.87218115515E+02  0.19252425103E+03  0.00000000000E+00 0.  1.
         11    1    1    2    0    0  0.60454713454E+01  0.86439542928E+01  0.13352355095E+02  0.17016199816E+02  0.00000000000E+00 0. -1.
<mgrwt>
<rscale>  0 0.23505937E+03</rscale>
<asrwt>0</asrwt>
<pdfrwt beam="1">  1        1 0.17499725E+00 0.24970011E+03</pdfrwt>
<pdfrwt beam="2">  1       -1 0.24042421E-01 0.24970011E+03</pdfrwt>
<totfact> 0.19099714E+02</totfact>
</mgrwt>
</event>
<event>
 6    1  0.6101889E-006  0.1391467E+03  0.7546771E-02  0.1226011E+00
          2   -1    0    0  501    0  0.00000000000E+00  0.00000000000E+00  0.63749590549E+03  0.63749590549E+03  0.00000000000E+00 0. -1.
         -2   -1    0    0    0  501 -0.00000000000E+00 -0.00000000000E+00 -0.24204786914E+02  0.24204786914E+02  0.00000000000E+00 0.  1.
          5    1    1    2  502    0  0.52845522421E+02 -0.28855325282E+01  0.19749979228E+03  0.20452196334E+03  0.47000000000E+01 0. -1.
         -5    1    1    2    0  502 -0.47772179036E+02  0.63803772915E+02  0.15283731573E+03  0.17243676409E+03  0.47000000000E+01 0. -1.
        -11    1    1    2    0    0  0.41439880241E+02 -0.39938291453E+02  0.15488808920E+03  0.16523513844E+03  0.00000000000E+00 0.  1.
         11    1    1    2    0    0 -0.46513223625E+02 -0.20979948935E+02  0.10806592136E+03  0.11950682653E+03  0.00000000000E+00 0. -1.
<mgrwt>
<rscale>  0 0.13097822E+03</rscale>
<asrwt>0</asrwt>
<pdfrwt beam="1">  1        2 0.98076280E-01 0.13914666E+03</pdfrwt>
<pdfrwt beam="2">  1       -2 0.37238139E-02 0.13914666E+03</pdfrwt>
<totfact> 0.13697336E+04</totfact>
</mgrwt>
</event>
<event>
 6    1  0.6101889E-006  0.3052374E+03  0.7546771E-02  0.1082651E+00
          1   -1    0    0  501    0  0.00000000000E+00  0.00000000000E+00  0.42087099685E+02  0.42087099685E+02  0.00000000000E+00 0. -1.
         -1   -1    0    0    0  501 -0.00000000000E+00 -0.00000000000E+00 -0.55343483799E+03  0.55343483799E+03  0.00000000000E+00 0.  1.
          5    1    1    2  502    0  0.11977711900E+03 -0.49489622377E+02 -0.28874891647E+03  0.31653405460E+03  0.47000000000E+01 0.  1.
         -5    1    1    2    0  502 -0.22278144441E+02  0.86357641023E+01 -0.15232626944E+02  0.28723075479E+02  0.47000000000E+01 0.  1.
        -11    1    1    2    0    0 -0.86325666925E+02 -0.48665831346E+00 -0.87233205131E+02  0.12272729804E+03  0.00000000000E+00 0. -1.
         11    1    1    2    0    0 -0.11173307636E+02  0.41340516588E+02 -0.12013298976E+03  0.12753750956E+03  0.00000000000E+00 0.  1.
<mgrwt>
<rscale>  0 0.30523740E+03</rscale>
<asrwt>0</asrwt>
<pdfrwt beam="1">  1        1 0.64749388E-02 0.30523740E+03</pdfrwt>
<pdfrwt beam="2">  1       -1 0.85143816E-01 0.30523740E+03</pdfrwt>
<totfact> 0.16662120E+03</totfact>
</mgrwt>
</event>
<event>
 6    1  0.6101889E-006  0.3463144E+03  0.7546771E-02  0.1064138E+00
         -2   -1    0    0    0  501 -0.00000000000E+00  0.00000000000E+00  0.74957724253E+02  0.74957724253E+02  0.00000000000E+00 0.  1.
          2   -1    0    0  501    0  0.00000000000E+00 -0.00000000000E+00 -0.40000440431E+03  0.40000440431E+03  0.00000000000E+00 0. -1.
          5    1    1    2  502    0 -0.26317065349E+02  0.14618841041E+02  0.81754971947E+01  0.31547221689E+02  0.47000000000E+01 0.  1.
         -5    1    1    2    0  502 -0.24804593794E+02  0.10383315657E+03 -0.23212379058E+03  0.25553891373E+03  0.47000000000E+01 0.  1.
        -11    1    1    2    0    0 -0.10089428717E+02 -0.54795987039E+02 -0.28768403813E+01  0.55791334255E+02  0.00000000000E+00 0.  1.
         11    1    1    2    0    0  0.61211087860E+02 -0.63656010569E+02 -0.98221546294E+02  0.13208465889E+03  0.00000000000E+00 0. -1.
<mgrwt>
<rscale>  0 0.34631442E+03</rscale>
<asrwt>0</asrwt>
<pdfrwt beam="2">  1        2 0.61539139E-01 0.34631442E+03</pdfrwt>
<pdfrwt beam="1">  1       -2 0.11531958E-01 0.34631442E+03</pdfrwt>
<totfact> 0.42238427E+03</totfact>
</mgrwt>
</event>
<event>
 6    1  0.6101889E-006  0.4319146E+03  0.7546771E-02  0.1033257E+00
         -2   -1    0    0    0  501 -0.00000000000E+00  0.00000000000E+00  0.14981926519E+03  0.14981926519E+03  0.00000000000E+00 0.  1.
          2   -1    0    0  501    0  0.00000000000E+00 -0.00000000000E+00 -0.31129215733E+03  0.31129215733E+03  0.00000000000E+00 0. -1.
          5    1    1    2  502    0 -0.58172172199E+01 -0.15121651481E+03 -0.92745835064E+02  0.17755042746E+03  0.47000000000E+01 0.  1.
         -5    1    1    2    0  502 -0.25784058535E+02 -0.40483556004E+01 -0.93135659950E+02  0.96837740639E+02  0.47000000000E+01 0.  1.
        -11    1    1    2    0    0 -0.26516057738E+02  0.99179215796E+02  0.11294954186E+01  0.10266885567E+03  0.00000000000E+00 0.  1.
         11    1    1    2    0    0  0.58117333492E+02  0.56085654616E+02  0.23279107460E+02  0.84054398755E+02  0.00000000000E+00 0. -1.
<mgrwt>
<rscale>  0 0.43191463E+03</rscale>
<asrwt>0</asrwt>
<pdfrwt beam="2">  1        2 0.47891101E-01 0.43191463E+03</pdfrwt>
<pdfrwt beam="1">  1       -2 0.23049118E-01 0.43191463E+03</pdfrwt>
<totfact> 0.17358755E+03</totfact>
</mgrwt>
</event>
<event>
 6    1  0.6101889E-006  0.1308503E+03  0.7546771E-02  0.1239629E+00
          1   -1    0    0  501    0  0.00000000000E+00  0.00000000000E+00  0.28443953149E+03  0.28443953149E+03  0.00000000000E+00 0. -1.
         -1   -1    0    0    0  501 -0.00000000000E+00 -0.00000000000E+00 -0.99524323241E+02  0.99524323241E+02  0.00000000000E+00 0.  1.
          5    1    1    2  502    0  0.65504829529E+02 -0.25759737381E+02  0.18665980786E+03  0.19954553523E+03  0.47000000000E+01 0. -1.
         -5    1    1    2    0  502 -0.29762034205E+02  0.40546022712E+02  0.51171656586E+02  0.71905403660E+02  0.47000000000E+01 0. -1.
        -11    1    1    2    0    0 -0.48127728004E+02 -0.27247085868E+02 -0.69181719434E+02  0.88570831513E+02  0.00000000000E+00 0.  1.
         11    1    1    2    0    0  0.12384932680E+02  0.12460800536E+02  0.16265463237E+02  0.23942084324E+02  0.00000000000E+00 0. -1.
<mgrwt>
<rscale>  0 0.12212662E+03</rscale>
<asrwt>0</asrwt>
<pdfrwt beam="1">  1        1 0.43759928E-01 0.13085032E+03</pdfrwt>
<pdfrwt beam="2">  1       -1 0.15311434E-01 0.13085032E+03</pdfrwt>
<totfact> 0.28246528E+03</totfact>
</mgrwt>
</event>
<event>
 6    1  0.6101889E-006  0.1574589E+03  0.7546771E-02  0.1199507E+00
         -2   -1    0    0    0  501 -0.00000000000E+00  0.00000000000E+00  0.46264204636E+02  0.46264204636E+02  0.00000000000E+00 0.  1.
          2   -1    0    0  501    0  0.00000000000E+00 -0.00000000000E+00 -0.45656705952E+03  0.45656705952E+03  0.00000000000E+00 0. -1.
          5    1    1    2  502    0  0.75794496957E+02  0.59641807340E+02 -0.12198779833E+03  0.15557976698E+03  0.47000000000E+01 0. -1.
         -5    1    1    2    0  502 -0.48137122508E+02  0.31567266120E+02 -0.11921808710E+03  0.13247157109E+03  0.47000000000E+01 0. -1.
        -11    1    1    2    0    0  0.29864301510E+02 -0.73950757023E+01 -0.40133468424E+02  0.50569347802E+02  0.00000000000E+00 0. -1.
         11    1    1    2    0    0 -0.57521675959E+02 -0.83813997758E+02 -0.12896350103E+03  0.16421057829E+03  0.00000000000E+00 0.  1.
<mgrwt>
<rscale>  0 0.15078864E+03</rscale>
<asrwt>0</asrwt>
<pdfrwt beam="2">  1        2 0.70241085E-01 0.15745887E+03</pdfrwt>
<pdfrwt beam="1">  1       -2 0.71175701E-02 0.15745887E+03</pdfrwt>
<totfact> 0.75522739E+03</totfact>
</mgrwt>
</event>
<event>
 6    1  0.6101889E-006  0.1505781E+03  0.7546771E-02  0.1209818E+00
         -3   -1    0    0    0  501 -0.00000000000E+00  0.00000000000E+00  0.12749844451E+03  0.12749844451E+03  0.00000000000E+00 0.  1.
          3   -1    0    0  501    0  0.00000000000E+00 -0.00000000000E+00 -0.14758848064E+03  0.14758848064E+03  0.00000000000E+00 0. -1.
          5    1    1    2  502    0  0.38935456239E+02 -0.15882386335E+02 -0.57560710366E+02  0.71439102220E+02  0.47000000000E+01 0. -1.
         -5    1    1    2    0  502  0.22024913289E+02  0.73742318259E+02  0.27966289980E+02  0.82019690824E+02  0.47000000000E+01 0. -1.
        -11    1    1    2    0    0  0.14388158099E+02 -0.41810274424E+02  0.36492695513E+01  0.44367052067E+02  0.00000000000E+00 0.  1.
         11    1    1    2    0    0 -0.75348527627E+02 -0.16049657500E+02  0.58551147021E+01  0.77261080044E+02  0.00000000000E+00 0. -1.
<mgrwt>
<rscale>  0 0.14264200E+03</rscale>
<asrwt>0</asrwt>
<pdfrwt beam="2">  1        3 0.22705920E-01 0.15057812E+03</pdfrwt>
<pdfrwt beam="1">  1       -3 0.19615145E-01 0.15057812E+03</pdfrwt>
<totfact> 0.97369111E+02</totfact>
</mgrwt>
</event>
<event>
 6    1  0.6101889E-006  0.2499792E+03  0.7546771E-02  0.1113318E+00
         -2   -1    0    0    0  501 -0.00000000000E+00  0.00000000000E+00  0.88689641354E+02  0.88689641354E+02  0.00000000000E+00 0.  1.
          2   -1    0    0  501    0  0.00000000000E+00 -0.00000000000E+00 -0.17614688608E+03  0.17614688608E+03  0.00000000000E+00 0. -1.
          5    1    1    2  502    0  0.59569952984E+02 -0.62183920423E+02 -0.66212553379E+02  0.10872723432E+03  0.47000000000E+01 0. -1.
         -5    1    1    2    0  502 -0.27047799689E+02  0.10703413964E+02  0.22440551821E+02  0.37038019717E+02  0.47000000000E+01 0. -1.
        -11    1    1    2    0    0 -0.29608969776E+02  0.20522333481E+02 -0.69745293925E+02  0.78500084633E+02  0.00000000000E+00 0. -1.
         11    1    1    2    0    0 -0.29131835185E+01  0.30958172978E+02  0.26060050757E+02  0.40571188764E+02  0.00000000000E+00 0.  1.
<mgrwt>
<rscale>  0 0.24997923E+03</rscale>
<asrwt>0</asrwt>
<pdfrwt beam="2">  1        2 0.27099521E-01 0.24997923E+03</pdfrwt>
<pdfrwt beam="1">  1       -2 0.13644560E-01 0.24997923E+03</pdfrwt>
<totfact> 0.77569881E+03</totfact>
</mgrwt>
</event>
<event>
 6    1  0.6101889E-006  0.4078486E+03  0.7546771E-02  0.1041095E+00
          2   -1    0    0  501    0  0.00000000000E+00  0.00000000000E+00  0.10512871342E+04  0.10512871342E+04  0.00000000000E+00 0. -1.
         -2   -1    0    0    0  501 -0.00000000000E+00 -0.00000000000E+00 -0.39556395777E+02  0.39556395777E+02  0.00000000000E+00 0.  1.
          5    1    1    2  502    0 -0.44041881534E+02  0.34906042681E+01  0.33562851321E+03  0.33855643626E+03  0.47000000000E+01 0. -1.
         -5    1    1    2    0  502 -0.10094220374E+03  0.88213850479E+02  0.23969035853E+03  0.27467174934E+03  0.47000000000E+01 0. -1.
        -11    1    1    2    0    0  0.69564451519E+02 -0.43960590169E+02  0.32284734622E+03  0.33316985963E+03  0.00000000000E+00 0. -1.
         11    1    1    2    0    0  0.75419633753E+02 -0.47743864577E+02  0.11356452046E+03  0.14444548476E+03  0.00000000000E+00 0.  1.
<mgrwt>
<rscale>  0 0.40784865E+03</rscale>
<asrwt>0</asrwt>
<pdfrwt beam="1">  1        2 0.16173646E+00 0.40784865E+03</pdfrwt>
<pdfrwt beam="2">  1       -2 0.60856002E-02 0.40784865E+03</pdfrwt>
<totfact> 0.35508403E+03</totfact>
</mgrwt>
</event>
<event>
 6    1  0.6101889E-006  0.1271489E+03  0.7546771E-02  0.1246592E+00
         -1   -1    0    0    0  501 -0.00000000000E+00  0.00000000000E+00  0.15828972705E+03  0.15828972705E+03  0.00000000000E+00 0.  1.
          1   -1    0    0  501    0  0.00000000000E+00 -0.00000000000E+00 -0.85818856025E+02  0.85818856025E+02  0.00000000000E+00 0. -1.
          5    1    1    2  502    0 -0.32110894021E+01 -0.40790961573E+02 -0.52917713965E+02  0.67056603645E+02  0.47000000000E+01 0. -1.
         -5    1    1    2    0  502  0.10786689450E+02  0.18841689573E+02  0.55872749478E+02  0.60126666875E+02  0.47000000000E+01 0. -1.
        -11    1    1    2    0    0 -0.22960093727E+02  0.49758896824E+00  0.83814238880E+02  0.86903625573E+02  0.00000000000E+00 0.  1.
         11    1    1    2    0    0  0.15384493680E+02  0.21451683031E+02 -0.14298403364E+02  0.30021686985E+02  0.00000000000E+00 0. -1.
<mgrwt>
<rscale>  0 0.11790587E+03</rscale>
<asrwt>0</asrwt>
<pdfrwt beam="2">  1        1 0.13202901E-01 0.12714894E+03</pdfrwt>
<pdfrwt beam="1">  1       -1 0.24352266E-01 0.12714894E+03</pdfrwt>
<totfact> 0.60744869E+03</totfact>
</mgrwt>
</event>
<event>
 6    1  0.6101889E-006  0.1404045E+03  0.7546771E-02  0.1223703E+00
         -1   -1    0    0    0  501 -0.00000000000E+00  0.00000000000E+00  0.36629660712E+02  0.36629660712E+02  0.00000000000E+00 0.  1.
          1   -1    0    0  501    0  0.00000000000E+00 -0.00000000000E+00 -0.43708706696E+03  0.43708706696E+03  0.00000000000E+00 0. -1.
          5    1    1    2  502    0 -0.83661783482E+02  0.22150725224E+02 -0.19943613821E+03  0.21745531005E+03  0.47000000000E+01 0.  1.
         -5    1    1    2    0  502  0.26548773492E+02  0.66017925467E+01 -0.16622468679E+01  0.27807806519E+02  0.47000000000E+01 0.  1.
        -11    1    1    2    0    0  0.79578517965E+01 -0.20832402354E+02  0.68054799734E+00  0.22310973503E+02  0.00000000000E+00 0.  1.
         11    1    1    2    0    0  0.49155158194E+02 -0.79201154161E+01 -0.20003956917E+03  0.20614263761E+03  0.00000000000E+00 0. -1.
<mgrwt>
<rscale>  0 0.13256202E+03</rscale>
<asrwt>0</asrwt>
<pdfrwt beam="2">  1        1 0.67244164E-01 0.14040454E+03</pdfrwt>
<pdfrwt beam="1">  1       -1 0.56353325E-02 0.14040454E+03</pdfrwt>
<totfact> 0.75902692E+03</totfact>
</mgrwt>
</event>
<event>
 6    1  0.6101889E-006  0.1465799E+03  0.7546771E-02  0.1214486E+00
         -1   -1    0    0    0  501 -0.00000000000E+00  0.00000000000E+00  0.45035392382E+03  0.45035392382E+03  0.00000000000E+00 0.  1.
          1   -1    0    0  501    0  0.00000000000E+00 -0.00000000000E+00 -0.40273089238E+02  0.40273089238E+02  0.00000000000E+00 0. -1.
          5    1    1    2  502    0  0.97260602830E+02  0.13662356086E+02  0.16920015254E+03  0.19569636291E+03  0.47000000000E+01 0. -1.
         -5    1    1    2    0  502 -0.22325998685E+02 -0.29360208788E+02  0.15967949387E+02  0.40466498304E+02  0.47000000000E+01 0. -1.
        -11    1    1    2    0    0 -0.65664752277E+02  0.32026774615E+02  0.22405766323E+03  0.23566800893E+03  0.00000000000E+00 0.  1.
         11    1    1    2    0    0 -0.92698518681E+01 -0.16328921913E+02  0.85506942511E+00  0.18796142908E+02  0.00000000000E+00 0. -1.
<mgrwt>
<rscale>  0 0.13914345E+03</rscale>
<asrwt>0</asrwt>
<pdfrwt beam="2">  1        1 0.61958602E-02 0.14657991E+03</pdfrwt>
<pdfrwt beam="1">  1       -1 0.69285216E-01 0.14657991E+03</pdfrwt>
<totfact> 0.26247086E+03</totfact>
</mgrwt>
</event>
<event>
 6    1  0.6101889E-006  0.1401417E+03  0.7546771E-02  0.1224363E+00
          2   -1    0    0  501    0  0.00000000000E+00  0.00000000000E+00  0.16728968733E+04  0.16728968733E+04  0.00000000000E+00 0. -1.
         -2   -1    0    0    0  501 -0.00000000000E+00 -0.00000000000E+00 -0.11485768484E+02  0.11485768484E+02  0.00000000000E+00 0.  1.
          5    1    1    2  502    0  0.19158373671E+02 -0.49460131279E+02  0.41709619810E+03  0.42048148156E+03  0.47000000000E+01 0.  1.
         -5    1    1    2    0  502 -0.79910701760E+02  0.31467421914E+02  0.85035960774E+03  0.85469846810E+03  0.47000000000E+01 0.  1.
        -11    1    1    2    0    0 -0.78302583152E+01  0.32270079422E+02  0.66402217531E+02  0.74242342798E+02  0.00000000000E+00 0.  1.
         11    1    1    2    0    0  0.68582586404E+02 -0.14277370056E+02  0.32755308142E+03  0.33496034930E+03  0.00000000000E+00 0. -1.
<mgrwt>
<rscale>  0 0.13210675E+03</rscale>
<asrwt>0</asrwt>
<pdfrwt beam="1">  1        2 0.25736856E+00 0.14014166E+03</pdfrwt>
<pdfrwt beam="2">  1       -2 0.17670426E-02 0.14014166E+03</pdfrwt>
<totfact> 0.10027773E+04</totfact>
</mgrwt>
</event>
<event>
 6    1  0.6101889E-006  0.2144641E+03  0.7546771E-02  0.1142110E+00
          2   -1    0    0  501    0  0.00000000000E+00  0.00000000000E+00  0.87625348573E+03  0.87625348573E+03  0.00000000000E+00 0.  1.
         -2   -1    0    0    0  501 -0.00000000000E+00 -0.00000000000E+00 -0.14318626254E+03  0.14318626254E+03  0.00000000000E+00 0. -1.
          5    1    1    2  502    0 -0.16205439036E+02  0.13821445150E+02  0.36546784099E+03  0.36611812493E+03  0.47000000000E+01 0. -1.
         -5    1    1    2    0  502 -0.15559256182E+03  0.15416577666E+02  0.42299647883E+03  0.45099315656E+03  0.47000000000E+01 0. -1.
        -11    1    1    2    0    0  0.12270641459E+03  0.12634050348E+02 -0.60903252263E+02  0.13757067110E+03  0.00000000000E+00 0. -1.
         11    1    1    2    0    0  0.49091586264E+02 -0.41872073164E+02  0.55061556352E+01  0.64757795692E+02  0.00000000000E+00 0.  1.
<mgrwt>
<rscale>  0 0.20931483E+03</rscale>
<asrwt>0</asrwt>
<pdfrwt beam="1">  1        2 0.13480823E+00 0.21446413E+03</pdfrwt>
<pdfrwt beam="2">  1       -2 0.22028656E-01 0.21446413E+03</pdfrwt>
<totfact> 0.56455204E+02</totfact>
</mgrwt>
</event>
<event>
 6    1  0.6101889E-006  0.1946307E+03  0.7546771E-02  0.1161357E+00
          1   -1    0    0  501    0  0.00000000000E+00  0.00000000000E+00  0.20555396838E+04  0.20555396838E+04  0.00000000000E+00 0. -1.
         -1   -1    0    0    0  501 -0.00000000000E+00 -0.00000000000E+00 -0.19305380689E+02  0.19305380689E+02  0.00000000000E+00 0.  1.
          5    1    1    2  502    0 -0.59454092028E+02  0.31361318249E+02  0.42523538693E+03  0.43054099182E+03  0.47000000000E+01 0. -1.
         -5    1    1    2    0  502  0.43258808797E+02  0.11694561607E+03  0.11046915662E+04  0.11117163074E+04  0.47000000000E+01 0. -1.
        -11    1    1    2    0    0  0.38953329256E+02 -0.77925333325E+02  0.21370069535E+03  0.23077631297E+03  0.00000000000E+00 0.  1.
         11    1    1    2    0    0 -0.22758046026E+02 -0.70381600996E+02  0.29260665462E+03  0.30181145231E+03  0.00000000000E+00 0. -1.
<mgrwt>
<rscale>  0 0.18682455E+03</rscale>
<asrwt>0</asrwt>
<pdfrwt beam="1">  1        1 0.31623670E+00 0.19463066E+03</pdfrwt>
<pdfrwt beam="2">  1       -1 0.29700602E-02 0.19463066E+03</pdfrwt>
<totfact> 0.11959145E+03</totfact>
</mgrwt>
</event>
<event>
 6    1  0.6101889E-006  0.1208870E+03  0.7546771E-02  0.1250340E+00
         -3   -1    0    0    0  501 -0.00000000000E+00  0.00000000000E+00  0.12220459727E+03  0.12220459727E+03  0.00000000000E+00 0.  1.
          3   -1    0    0  501    0  0.00000000000E+00 -0.00000000000E+00 -0.11010708674E+03  0.11010708674E+03  0.00000000000E+00 0. -1.
          5    1    1    2  502    0  0.18645743806E+02  0.67312023477E+02 -0.21323967051E+02  0.73180419768E+02  0.47000000000E+01 0. -1.
         -5    1    1    2    0  502 -0.41020340039E+02 -0.28740928068E+02 -0.51362865223E+01  0.50568574059E+02  0.47000000000E+01 0.  1.
        -11    1    1    2    0    0  0.21598370882E+02 -0.60616860379E+02  0.51996898449E+02  0.82731921501E+02  0.00000000000E+00 0.  1.
         11    1    1    2    0    0  0.77622535128E+00  0.22045764970E+02 -0.13439134344E+02  0.25830768684E+02  0.00000000000E+00 0. -1.
<mgrwt>
<rscale>  0 0.11571374E+03</rscale>
<asrwt>0</asrwt>
<pdfrwt beam="2">  1        3 0.16939552E-01 0.12088701E+03</pdfrwt>
<pdfrwt beam="1">  1       -3 0.18800707E-01 0.12088701E+03</pdfrwt>
<totfact> 0.16929067E+03</totfact>
</mgrwt>
</event>
<event>
 6    1  0.6101889E-006  0.1310755E+03  0.7546771E-02  0.1239352E+00
         -2   -1    0    0    0  501 -0.00000000000E+00  0.00000000000E+00  0.25057351945E+02  0.25057351945E+02  0.00000000000E+00 0.  1.
          2   -1    0    0  501    0  0.00000000000E+00 -0.00000000000E+00 -0.53315856142E+03  0.53315856142E+03  0.00000000000E+00 0. -1.
          5    1    1    2  502    0  0.23460658947E+01  0.12145330221E+02  0.78931444787E+01  0.15407946038E+02  0.47000000000E+01 0. -1.
         -5    1    1    2    0  502  0.32001733311E+02 -0.31555621849E+02 -0.31898883747E+03  0.32217361257E+03  0.47000000000E+01 0. -1.
        -11    1    1    2    0    0 -0.63246754396E+02  0.16756418633E+02 -0.10101997903E+03  0.12035765730E+03  0.00000000000E+00 0. -1.
         11    1    1    2    0    0  0.28898955191E+02  0.26538729951E+01 -0.95985537457E+02  0.10027669746E+03  0.00000000000E+00 0.  1.
<mgrwt>
<rscale>  0 0.12229863E+03</rscale>
<asrwt>0</asrwt>
<pdfrwt beam="2">  1        2 0.82024382E-01 0.13107547E+03</pdfrwt>
<pdfrwt beam="1">  1       -2 0.38549778E-02 0.13107547E+03</pdfrwt>
<totfact> 0.15854692E+04</totfact>
</mgrwt>
</event>
<event>
 6    1  0.6101889E-006  0.1745102E+03  0.7546771E-02  0.1179689E+00
          2   -1    0    0  501    0  0.00000000000E+00  0.00000000000E+00  0.53970549368E+02  0.53970549368E+02  0.00000000000E+00 0.  1.
         -2   -1    0    0    0  501 -0.00000000000E+00 -0.00000000000E+00 -0.51860886197E+03  0.51860886197E+03  0.00000000000E+00 0. -1.
          5    1    1    2  502    0  0.11746997269E+03  0.42043259708E+01 -0.64041392028E+02  0.13394125852E+03  0.47000000000E+01 0. -1.
         -5    1    1    2    0  502  0.42631789844E+01 -0.74853883963E+01 -0.11737395621E+03  0.11778345101E+03  0.47000000000E+01 0. -1.
        -11    1    1    2    0    0 -0.13290815731E+03  0.15232805262E+02 -0.24222195841E+03  0.27670940311E+03  0.00000000000E+00 0.  1.
         11    1    1    2    0    0  0.11175005635E+02 -0.11951742837E+02 -0.41001005955E+02  0.44145298698E+02  0.00000000000E+00 0. -1.
<mgrwt>
<rscale>  0 0.16824666E+03</rscale>
<asrwt>0</asrwt>
<pdfrwt beam="1">  1        2 0.83031618E-02 0.17451017E+03</pdfrwt>
<pdfrwt beam="2">  1       -2 0.79785976E-01 0.17451017E+03</pdfrwt>
<totfact> 0.11422065E+03</totfact>
</mgrwt>
</event>
<event>
 6    1  0.6101889E-006  0.1370968E+03  0.7546771E-02  0.1230493E+00
         -1   -1    0    0    0  501 -0.00000000000E+00  0.00000000000E+00  0.32018963774E+02  0.32018963774E+02  0.00000000000E+00 0.  1.
          1   -1    0    0  501    0  0.00000000000E+00 -0.00000000000E+00 -0.54444214149E+03  0.54444214149E+03  0.00000000000E+00 0. -1.
          5    1    1    2  502    0  0.16803075251E+02  0.54761265968E+02 -0.84418238426E+02  0.10212574880E+03  0.47000000000E+01 0. -1.
         -5    1    1    2    0  502  0.38005851492E+02 -0.41884869703E+02 -0.31747768312E+03  0.32251039725E+03  0.47000000000E+01 0. -1.
        -11    1    1    2    0    0 -0.41402696147E+02  0.34863571275E+02 -0.51222586012E+02  0.74521172616E+02  0.00000000000E+00 0.  1.
         11    1    1    2    0    0 -0.13406230596E+02 -0.47739967541E+02 -0.59304670156E+02  0.77303786595E+02  0.00000000000E+00 0. -1.
<mgrwt>
<rscale>  0 0.12797400E+03</rscale>
<asrwt>0</asrwt>
<pdfrwt beam="2">  1        1 0.83760322E-01 0.13709677E+03</pdfrwt>
<pdfrwt beam="1">  1       -1 0.49259949E-02 0.13709677E+03</pdfrwt>
<totfact> 0.69544417E+03</totfact>
</mgrwt>
</event>
<event>
 6    1  0.6101889E-006  0.1279768E+03  0.7546771E-02  0.1245222E+00
          1   -1    0    0  501    0  0.00000000000E+00  0.00000000000E+00  0.83099404494E+03  0.83099404494E+03  0.00000000000E+00 0. -1.
         -1   -1    0    0    0  501 -0.00000000000E+00 -0.00000000000E+00 -0.18511545654E+02  0.18511545654E+02  0.00000000000E+00 0.  1.
          5    1    1    2  502    0 -0.75418501593E+02 -0.87836213837E+01  0.40468280714E+03  0.41177101255E+03  0.47000000000E+01 0. -1.
         -5    1    1    2    0  502  0.51166298104E+02 -0.43026021453E+01  0.23558009927E+03  0.24115674492E+03  0.47000000000E+01 0. -1.
        -11    1    1    2    0    0 -0.27441965920E+02 -0.17873209252E+01  0.17068543930E+02  0.32366513583E+02  0.00000000000E+00 0.  1.
         11    1    1    2    0    0  0.51694169409E+02  0.14873544454E+02  0.15515104894E+03  0.16421131953E+03  0.00000000000E+00 0. -1.
<mgrwt>
<rscale>  0 0.11872105E+03</rscale>
<asrwt>0</asrwt>
<pdfrwt beam="1">  1        1 0.12784521E+00 0.12797682E+03</pdfrwt>
<pdfrwt beam="2">  1       -1 0.28479307E-02 0.12797682E+03</pdfrwt>
<totfact> 0.84950746E+03</totfact>
</mgrwt>
</event>
<event>
 6    1  0.6101889E-006  0.1491648E+03  0.7546771E-02  0.1210538E+00
          2   -1    0    0  501    0  0.00000000000E+00  0.00000000000E+00  0.53715403479E+02  0.53715403479E+02  0.00000000000E+00 0. -1.
         -2   -1    0    0    0  501 -0.00000000000E+00 -0.00000000000E+00 -0.34443822368E+03  0.34443822368E+03  0.00000000000E+00 0.  1.
          5    1    1    2  502    0  0.40095455754E+02 -0.58282761997E+01 -0.51659284301E+02  0.65820863182E+02  0.47000000000E+01 0.  1.
         -5    1    1    2    0  502 -0.70642442478E+02  0.81268794036E+02 -0.10419975493E+03  0.14991547782E+03  0.47000000000E+01 0.  1.
        -11    1    1    2    0    0 -0.45003378743E+01 -0.25025964851E+02  0.82142153630E+01  0.26721251687E+02  0.00000000000E+00 0. -1.
         11    1    1    2    0    0  0.35047324599E+02 -0.50414552986E+02 -0.14307799633E+03  0.15569603446E+03  0.00000000000E+00 0.  1.
<mgrwt>
<rscale>  0 0.14209475E+03</rscale>
<asrwt>0</asrwt>
<pdfrwt beam="1">  1        2 0.82639081E-02 0.14916477E+03</pdfrwt>
<pdfrwt beam="2">  1       -2 0.52990497E-01 0.14916477E+03</pdfrwt>
<totfact> 0.26906943E+03</totfact>
</mgrwt>
</event>
<event>
 6    1  0.6101889E-006  0.2131417E+03  0.7546771E-02  0.1171982E+00
          2   -1    0    0  501    0  0.00000000000E+00  0.00000000000E+00  0.29651146770E+03  0.29651146770E+03  0.00000000000E+00 0. -1.
         -2   -1    0    0    0  501 -0.00000000000E+00 -0.00000000000E+00 -0.81908484627E+02  0.81908484627E+02  0.00000000000E+00 0.  1.
          5    1    1    2  502    0 -0.43751424301E+02  0.62654847451E+01  0.16895443192E+03  0.17470298650E+03  0.47000000000E+01 0. -1.
         -5    1    1    2    0  502  0.80650678555E+02  0.16575996176E+02 -0.20577494398E+02  0.84998934560E+02  0.47000000000E+01 0.  1.
        -11    1    1    2    0    0  0.17257529122E+02 -0.38258013519E+02  0.32496513240E+02  0.53080328584E+02  0.00000000000E+00 0. -1.
         11    1    1    2    0    0 -0.54156783376E+02  0.15416532597E+02  0.33729532308E+02  0.65637702677E+02  0.00000000000E+00 0.  1.
<mgrwt>
<rscale>  0 0.17574904E+03</rscale>
<asrwt>0</asrwt>
<pdfrwt beam="1">  1        2 0.45617148E-01 0.21314167E+03</pdfrwt>
<pdfrwt beam="2">  1       -2 0.12601305E-01 0.21314167E+03</pdfrwt>
<totfact> 0.49651008E+03</totfact>
</mgrwt>
</event>
<event>
 6    1  0.6101889E-006  0.2007077E+03  0.7546771E-02  0.1153724E+00
          2   -1    0    0  501    0  0.00000000000E+00  0.00000000000E+00  0.34256932311E+03  0.34256932311E+03  0.00000000000E+00 0. -1.
         -2   -1    0    0    0  501 -0.00000000000E+00 -0.00000000000E+00 -0.11882800273E+03  0.11882800273E+03  0.00000000000E+00 0.  1.
          5    1    1    2  502    0  0.25759910502E+02 -0.38690687668E+02  0.11268519086E+03  0.12198600141E+03  0.47000000000E+01 0.  1.
         -5    1    1    2    0  502 -0.77753598556E+02 -0.10948360606E+03  0.80757706687E+02  0.15676791532E+03  0.47000000000E+01 0.  1.
        -11    1    1    2    0    0  0.80969441918E+01  0.44628783737E+02 -0.30632667700E+02  0.54732523910E+02  0.00000000000E+00 0.  1.
         11    1    1    2    0    0  0.43896743862E+02  0.10354550999E+03  0.60931090537E+02  0.12791088521E+03  0.00000000000E+00 0. -1.
<mgrwt>
<rscale>  0 0.19534811E+03</rscale>
<asrwt>0</asrwt>
<pdfrwt beam="1">  1        2 0.52702972E-01 0.20070773E+03</pdfrwt>
<pdfrwt beam="2">  1       -2 0.18281231E-01 0.20070773E+03</pdfrwt>
<totfact> 0.22935279E+03</totfact>
</mgrwt>
</event>
<event>
 6    1  0.6101889E-006  0.1449527E+03  0.7546771E-02  0.1222242E+00
         -2   -1    0    0    0  501 -0.00000000000E+00  0.00000000000E+00  0.12596546261E+03  0.12596546261E+03  0.00000000000E+00 0.  1.
          2   -1    0    0  501    0  0.00000000000E+00 -0.00000000000E+00 -0.16698983499E+03  0.16698983499E+03  0.00000000000E+00 0. -1.
          5    1    1    2  502    0  0.17410407949E+02  0.84949407078E+02 -0.50960303131E+02  0.10069044921E+03  0.47000000000E+01 0. -1.
         -5    1    1    2    0  502 -0.53409155173E+02 -0.21005902636E+02 -0.46004943988E+02  0.73704346366E+02  0.47000000000E+01 0. -1.
        -11    1    1    2    0    0 -0.34607622622E+01 -0.57862741626E+02  0.12009279752E+02  0.59197099119E+02  0.00000000000E+00 0.  1.
         11    1    1    2    0    0  0.39459509486E+02 -0.60807628161E+01  0.43931594990E+02  0.59363402899E+02  0.00000000000E+00 0. -1.
<mgrwt>
<rscale>  0 0.13357753E+03</rscale>
<asrwt>0</asrwt>
<pdfrwt beam="2">  1        2 0.25690744E-01 0.14495270E+03</pdfrwt>
<pdfrwt beam="1">  1       -2 0.19379302E-01 0.14495270E+03</pdfrwt>
<totfact> 0.44494359E+03</totfact>
</mgrwt>
</event>
<event>
 6    1  0.6101889E-006  0.1375537E+03  0.7546771E-02  0.1228504E+00
         -1   -1    0    0    0  501 -0.00000000000E+00  0.00000000000E+00  0.55571080012E+02  0.55571080012E+02  0.00000000000E+00 0.  1.
          1   -1    0    0  501    0  0.00000000000E+00 -0.00000000000E+00 -0.26989078109E+03  0.26989078109E+03  0.00000000000E+00 0. -1.
          5    1    1    2  502    0 -0.15534671273E+02  0.25428563795E+02  0.53797658734E+01  0.30642613287E+02  0.47000000000E+01 0. -1.
         -5    1    1    2    0  502  0.22917210953E+02 -0.82364811033E+02 -0.12580288820E+03  0.15217627060E+03  0.47000000000E+01 0. -1.
        -11    1    1    2    0    0 -0.39651911629E+01  0.19718413560E+02 -0.10236411632E+03  0.10432138268E+03  0.00000000000E+00 0. -1.
         11    1    1    2    0    0 -0.34173485172E+01  0.37217833678E+02  0.84675375755E+01  0.38321594528E+02  0.00000000000E+00 0.  1.
<mgrwt>
<rscale>  0 0.12929596E+03</rscale>
<asrwt>0</asrwt>
<pdfrwt beam="2">  1        1 0.41521659E-01 0.13755368E+03</pdfrwt>
<pdfrwt beam="1">  1       -1 0.85493969E-02 0.13755368E+03</pdfrwt>
<totfact> 0.74096774E+03</totfact>
</mgrwt>
</event>
<event>
 6    1  0.6101889E-006  0.3558300E+03  0.7546771E-02  0.1060247E+00
         -1   -1    0    0    0  501 -0.00000000000E+00  0.00000000000E+00  0.29207202223E+03  0.29207202223E+03  0.00000000000E+00 0.  1.
          1   -1    0    0  501    0  0.00000000000E+00 -0.00000000000E+00 -0.10837650562E+03  0.10837650562E+03  0.00000000000E+00 0. -1.
          5    1    1    2  502    0  0.13206224759E+03  0.67433844730E+02  0.10185108159E+03  0.17995414270E+03  0.47000000000E+01 0.  1.
         -5    1    1    2    0  502 -0.24622915974E+02  0.22738726909E+02  0.17027337888E+00  0.33844596105E+02  0.47000000000E+01 0.  1.
        -11    1    1    2    0    0 -0.90093795954E+02 -0.20667211228E+02  0.65278288178E+02  0.11316041974E+03  0.00000000000E+00 0. -1.
         11    1    1    2    0    0 -0.17345535662E+02 -0.69505360412E+02  0.16395873475E+02  0.73489369302E+02  0.00000000000E+00 0.  1.
<mgrwt>
<rscale>  0 0.35582999E+03</rscale>
<asrwt>0</asrwt>
<pdfrwt beam="2">  1        1 0.16673309E-01 0.35582999E+03</pdfrwt>
<pdfrwt beam="1">  1       -1 0.44934157E-01 0.35582999E+03</pdfrwt>
<totfact> 0.16273423E+03</totfact>
</mgrwt>
</event>
<event>
 6    1  0.6101889E-006  0.1423990E+03  0.7546771E-02  0.1220321E+00
          3   -1    0    0  501    0  0.00000000000E+00  0.00000000000E+00  0.10437106039E+04  0.10437106039E+04  0.00000000000E+00 0. -1.
         -3   -1    0    0    0  501 -0.00000000000E+00 -0.00000000000E+00 -0.17684453764E+02  0.17684453764E+02  0.00000000000E+00 0.  1.
          5    1    1    2  502    0  0.74169293519E+02 -0.50119851161E+02  0.42494390684E+03  0.43429540355E+03  0.47000000000E+01 0.  1.
         -5    1    1    2    0  502 -0.59977205689E+01  0.51411936180E+02  0.30775072710E+03  0.31210857064E+03  0.47000000000E+01 0.  1.
        -11    1    1    2    0    0 -0.50129546989E+02 -0.40672284365E+02  0.22508049993E+03  0.23415473014E+03  0.00000000000E+00 0. -1.
         11    1    1    2    0    0 -0.18042025962E+02  0.39380199346E+02  0.68251016292E+02  0.80836353370E+02  0.00000000000E+00 0.  1.
<mgrwt>
<rscale>  0 0.13492832E+03</rscale>
<asrwt>0</asrwt>
<pdfrwt beam="1">  1        3 0.16057081E+00 0.14239897E+03</pdfrwt>
<pdfrwt beam="2">  1       -3 0.27206860E-02 0.14239897E+03</pdfrwt>
<totfact> 0.40251132E+02</totfact>
</mgrwt>
</event>
<event>
 6    1  0.6101889E-006  0.2384492E+03  0.7546771E-02  0.1123707E+00
          3   -1    0    0  501    0  0.00000000000E+00  0.00000000000E+00  0.48922927966E+03  0.48922927966E+03  0.00000000000E+00 0. -1.
         -3   -1    0    0    0  501 -0.00000000000E+00 -0.00000000000E+00 -0.12031192085E+03  0.12031192085E+03  0.00000000000E+00 0.  1.
          5    1    1    2  502    0  0.81769935989E+02  0.48521205983E+02  0.43217727294E+02  0.10454899241E+03  0.47000000000E+01 0. -1.
         -5    1    1    2    0  502  0.11216247127E+03  0.11690468256E+02  0.24334541446E+03  0.26824646828E+03  0.47000000000E+01 0. -1.
        -11    1    1    2    0    0 -0.15220563603E+03 -0.53183604319E+02  0.10126962864E+03  0.19039587467E+03  0.00000000000E+00 0.  1.
         11    1    1    2    0    0 -0.41726771234E+02 -0.70280699203E+01 -0.18915411568E+02  0.46349865148E+02  0.00000000000E+00 0. -1.
<mgrwt>
<rscale>  0 0.23421552E+03</rscale>
<asrwt>0</asrwt>
<pdfrwt beam="1">  1        3 0.75266042E-01 0.23844920E+03</pdfrwt>
<pdfrwt beam="2">  1       -3 0.18509526E-01 0.23844920E+03</pdfrwt>
<totfact> 0.10879142E+02</totfact>
</mgrwt>
</event>
<event>
 6    1  0.6101889E-006  0.2012282E+03  0.7546771E-02  0.1162095E+00
          1   -1    0    0  501    0  0.00000000000E+00  0.00000000000E+00  0.11519550000E+04  0.11519550000E+04  0.00000000000E+00 0. -1.
         -1   -1    0    0    0  501 -0.00000000000E+00 -0.00000000000E+00 -0.11269211949E+03  0.11269211949E+03  0.00000000000E+00 0.  1.
          5    1    1    2  502    0  0.50559739005E+02  0.10744582694E+03  0.39103463179E+03  0.40869434324E+03  0.47000000000E+01 0. -1.
         -5    1    1    2    0  502  0.22004675778E+02 -0.23311517305E+02  0.69953402569E+03  0.70028392505E+03  0.47000000000E+01 0.  1.
        -11    1    1    2    0    0 -0.13065903057E+02 -0.80494027570E+02 -0.78982105146E+01  0.81929164688E+02  0.00000000000E+00 0.  1.
         11    1    1    2    0    0 -0.59498511726E+02 -0.36402820671E+01 -0.43407566407E+02  0.73739686550E+02  0.00000000000E+00 0. -1.
<mgrwt>
<rscale>  0 0.18602644E+03</rscale>
<asrwt>0</asrwt>
<pdfrwt beam="1">  1        1 0.17722384E+00 0.20122824E+03</pdfrwt>
<pdfrwt beam="2">  1       -1 0.17337250E-01 0.20122824E+03</pdfrwt>
<totfact> 0.32071330E+02</totfact>
</mgrwt>
</event>
<event>
 6    1  0.6101889E-006  0.1878020E+03  0.7546771E-02  0.1177336E+00
         -4   -1    0    0    0  501 -0.00000000000E+00  0.00000000000E+00  0.26408244587E+02  0.26408244587E+02  0.00000000000E+00 0.  1.
          4   -1    0    0  501    0  0.00000000000E+00 -0.00000000000E+00 -0.97131373437E+03  0.97131373437E+03  0.00000000000E+00 0. -1.
          5    1    1    2  502    0  0.82085318583E+02 -0.10621194830E+03 -0.41276029086E+03  0.43406465555E+03  0.47000000000E+01 0. -1.
         -5    1    1    2    0  502 -0.41269811773E+02  0.29052515619E+02 -0.23300825229E+03  0.23845792430E+03  0.47000000000E+01 0.  1.
        -11    1    1    2    0    0 -0.54118368633E+02  0.45440257782E+02 -0.96183345469E+02  0.11935179427E+03  0.00000000000E+00 0.  1.
         11    1    1    2    0    0  0.13302861823E+02  0.31719174894E+02 -0.20295360117E+03  0.20584760483E+03  0.00000000000E+00 0. -1.
<mgrwt>
<rscale>  0 0.17049219E+03</rscale>
<asrwt>0</asrwt>
<pdfrwt beam="2">  1        4 0.14943291E+00 0.18780205E+03</pdfrwt>
<pdfrwt beam="1">  1       -4 0.40628060E-02 0.18780205E+03</pdfrwt>
<totfact> 0.18874889E+02</totfact>
</mgrwt>
</event>
<event>
 6    1  0.6101889E-006  0.1823016E+03  0.7546771E-02  0.1171160E+00
          1   -1    0    0  501    0  0.00000000000E+00  0.00000000000E+00  0.22781319286E+03  0.22781319286E+03  0.00000000000E+00 0. -1.
         -1   -1    0    0    0  501 -0.00000000000E+00 -0.00000000000E+00 -0.15753907115E+03  0.15753907115E+03  0.00000000000E+00 0.  1.
          5    1    1    2  502    0 -0.50767843751E+02  0.68191611370E+02  0.19159436236E+02  0.87273385503E+02  0.47000000000E+01 0.  1.
         -5    1    1    2    0  502 -0.77170268537E+02 -0.32697350485E+02  0.99796085521E+02  0.13040596520E+03  0.47000000000E+01 0.  1.
        -11    1    1    2    0    0  0.69004860281E+02 -0.23362122011E+02 -0.72668379426E+02  0.10289875051E+03  0.00000000000E+00 0.  1.
         11    1    1    2    0    0  0.58933252007E+02 -0.12132138874E+02  0.23986979381E+02  0.64774162794E+02  0.00000000000E+00 0. -1.
<mgrwt>
<rscale>  0 0.17657455E+03</rscale>
<asrwt>0</asrwt>
<pdfrwt beam="1">  1        1 0.35048184E-01 0.18230163E+03</pdfrwt>
<pdfrwt beam="2">  1       -1 0.24236780E-01 0.18230163E+03</pdfrwt>
<totfact> 0.18006310E+03</totfact>
</mgrwt>
</event>
<event>
 6    1  0.6101889E-006  0.1960899E+03  0.7546771E-02  0.1160040E+00
         -1   -1    0    0    0  501 -0.00000000000E+00  0.00000000000E+00  0.29453108643E+02  0.29453108643E+02  0.00000000000E+00 0.  1.
          1   -1    0    0  501    0  0.00000000000E+00 -0.00000000000E+00 -0.11721664445E+04  0.11721664445E+04  0.00000000000E+00 0. -1.
          5    1    1    2  502    0 -0.33680985202E+02  0.89634167816E+02 -0.14038127544E+03  0.16999319192E+03  0.47000000000E+01 0.  1.
         -5    1    1    2    0  502  0.47127140555E+02  0.60851667750E+02 -0.34476828022E+03  0.35328621526E+03  0.47000000000E+01 0.  1.
        -11    1    1    2    0    0  0.21459142774E+01 -0.15085465744E+03 -0.58763176410E+03  0.60669005497E+03  0.00000000000E+00 0. -1.
         11    1    1    2    0    0 -0.15592069630E+02  0.36882187115E+00 -0.69932016131E+02  0.71650091033E+02  0.00000000000E+00 0.  1.
<mgrwt>
<rscale>  0 0.18826063E+03</rscale>
<asrwt>0</asrwt>
<pdfrwt beam="2">  1        1 0.18033324E+00 0.19608989E+03</pdfrwt>
<pdfrwt beam="1">  1       -1 0.45312489E-02 0.19608989E+03</pdfrwt>
<totfact> 0.24360910E+03</totfact>
</mgrwt>
</event>
<event>
 6    1  0.6101889E-006  0.2298576E+03  0.7546771E-02  0.1128687E+00
         -2   -1    0    0    0  501 -0.00000000000E+00  0.00000000000E+00  0.43063275799E+02  0.43063275799E+02  0.00000000000E+00 0.  1.
          2   -1    0    0  501    0  0.00000000000E+00 -0.00000000000E+00 -0.12685962250E+04  0.12685962250E+04  0.00000000000E+00 0. -1.
          5    1    1    2  502    0  0.14474714452E+02  0.21296848717E+02 -0.62662836088E+02  0.67910191800E+02  0.47000000000E+01 0.  1.
         -5    1    1    2    0  502 -0.20129027778E+03  0.26764706665E+02 -0.38094232831E+03  0.43170970912E+03  0.47000000000E+01 0.  1.
        -11    1    1    2    0    0  0.16688154089E+03 -0.41842599146E+02 -0.76777074325E+03  0.78681139162E+03  0.00000000000E+00 0. -1.
         11    1    1    2    0    0  0.19934022444E+02 -0.62189562368E+01 -0.14157041605E+02  0.25228208309E+02  0.00000000000E+00 0.  1.
<mgrwt>
<rscale>  0 0.22711518E+03</rscale>
<asrwt>0</asrwt>
<pdfrwt beam="2">  1        2 0.19516869E+00 0.22985757E+03</pdfrwt>
<pdfrwt beam="1">  1       -2 0.66251180E-02 0.22985757E+03</pdfrwt>
<totfact> 0.23176829E+03</totfact>
</mgrwt>
</event>
<event>
 6    1  0.6101889E-006  0.3895495E+03  0.7546771E-02  0.1047460E+00
         -1   -1    0    0    0  501 -0.00000000000E+00  0.00000000000E+00  0.44992934830E+02  0.44992934830E+02  0.00000000000E+00 0.  1.
          1   -1    0    0  501    0  0.00000000000E+00 -0.00000000000E+00 -0.84318116349E+03  0.84318116349E+03  0.00000000000E+00 0. -1.
          5    1    1    2  502    0  0.72446586676E+01 -0.86946078547E+01 -0.23092312725E+01  0.12470117643E+02  0.47000000000E+01 0. -1.
         -5    1    1    2    0  502 -0.87800455530E+02 -0.29147676175E+02 -0.72209334855E+03  0.72801057756E+03  0.47000000000E+01 0. -1.
        -11    1    1    2    0    0  0.86136802291E+02 -0.29431424673E+01 -0.43190834327E+02  0.96403625276E+02  0.00000000000E+00 0.  1.
         11    1    1    2    0    0 -0.55810054285E+01  0.40785426497E+02 -0.30594814512E+02  0.51289777843E+02  0.00000000000E+00 0. -1.
<mgrwt>
<rscale>  0 0.38954946E+03</rscale>
<asrwt>0</asrwt>
<pdfrwt beam="2">  1        1 0.12972017E+00 0.38954946E+03</pdfrwt>
<pdfrwt beam="1">  1       -1 0.69219906E-02 0.38954946E+03</pdfrwt>
<totfact> 0.22863284E+03</totfact>
</mgrwt>
</event>
<event>
 6    1  0.6101889E-006  0.2485872E+03  0.7546771E-02  0.1114201E+00
          2   -1    0    0  501    0  0.00000000000E+00  0.00000000000E+00  0.23634875238E+03  0.23634875238E+03  0.00000000000E+00 0. -1.
         -2   -1    0    0    0  501 -0.00000000000E+00 -0.00000000000E+00 -0.65364822118E+02  0.65364822118E+02  0.00000000000E+00 0.  1.
          5    1    1    2  502    0  0.15779078656E+01  0.15278317350E+02  0.11267531609E+03  0.11381447021E+03  0.47000000000E+01 0. -1.
         -5    1    1    2    0  502 -0.40450734059E+02 -0.53574157405E+02  0.70345671688E+01  0.67661121502E+02  0.47000000000E+01 0. -1.
        -11    1    1    2    0    0 -0.29585051705E+02  0.21410576839E+02  0.27891727241E+02  0.45952546540E+02  0.00000000000E+00 0.  1.
         11    1    1    2    0    0  0.68457877899E+02  0.16885263216E+02  0.23382319765E+02  0.74285436244E+02  0.00000000000E+00 0. -1.
<mgrwt>
<rscale>  0 0.24858716E+03</rscale>
<asrwt>0</asrwt>
<pdfrwt beam="1">  1        2 0.36361346E-01 0.24858716E+03</pdfrwt>
<pdfrwt beam="2">  1       -2 0.10056127E-01 0.24858716E+03</pdfrwt>
<totfact> 0.91917075E+03</totfact>
</mgrwt>
</event>
<event>
 6    1  0.6101889E-006  0.1267091E+03  0.7546771E-02  0.1247560E+00
         -1   -1    0    0    0  501 -0.00000000000E+00  0.00000000000E+00  0.52904010648E+02  0.52904010648E+02  0.00000000000E+00 0.  1.
          1   -1    0    0  501    0  0.00000000000E+00 -0.00000000000E+00 -0.23511494713E+03  0.23511494713E+03  0.00000000000E+00 0. -1.
          5    1    1    2  502    0 -0.28391505787E+02  0.43161570033E+02 -0.97404278491E+02  0.11035706682E+03  0.47000000000E+01 0.  1.
         -5    1    1    2    0  502  0.16839258016E+02 -0.60367841340E+02 -0.31144000117E+02  0.70141825054E+02  0.47000000000E+01 0.  1.
        -11    1    1    2    0    0 -0.38238383045E+02 -0.50797485915E+01 -0.20563378705E+02  0.43713045278E+02  0.00000000000E+00 0.  1.
         11    1    1    2    0    0  0.49790630816E+02  0.22286019899E+02 -0.33099279174E+02  0.63807020631E+02  0.00000000000E+00 0. -1.
<mgrwt>
<rscale>  0 0.11733465E+03</rscale>
<asrwt>0</asrwt>
<pdfrwt beam="2">  1        1 0.36171530E-01 0.12670908E+03</pdfrwt>
<pdfrwt beam="1">  1       -1 0.81390786E-02 0.12670908E+03</pdfrwt>
<totfact> 0.94074082E+03</totfact>
</mgrwt>
</event>
<event>
 6    1  0.6101889E-006  0.1442233E+03  0.7546771E-02  0.1217820E+00
         -1   -1    0    0    0  501 -0.00000000000E+00  0.00000000000E+00  0.31968871340E+03  0.31968871340E+03  0.00000000000E+00 0.  1.
          1   -1    0    0  501    0  0.00000000000E+00 -0.00000000000E+00 -0.53207002206E+02  0.53207002206E+02  0.00000000000E+00 0. -1.
          5    1    1    2  502    0 -0.28548684663E+02  0.47233815918E+02  0.15905792037E+03  0.16842675795E+03  0.47000000000E+01 0. -1.
         -5    1    1    2    0  502 -0.37562974538E+02 -0.18866219079E+02 -0.50158143294E+01  0.42592953313E+02  0.47000000000E+01 0. -1.
        -11    1    1    2    0    0 -0.25489534898E+01  0.24995356814E+02  0.88789836969E+01  0.26647727438E+02  0.00000000000E+00 0.  1.
         11    1    1    2    0    0  0.68660612691E+02 -0.53362953652E+02  0.10356062146E+03  0.13522827691E+03  0.00000000000E+00 0. -1.
<mgrwt>
<rscale>  0 0.13671421E+03</rscale>
<asrwt>0</asrwt>
<pdfrwt beam="2">  1        1 0.81856928E-02 0.14422326E+03</pdfrwt>
<pdfrwt beam="1">  1       -1 0.49182878E-01 0.14422326E+03</pdfrwt>
<totfact> 0.34433569E+03</totfact>
</mgrwt>
</event>
<event>
 6    1  0.6101889E-006  0.1933197E+03  0.7546771E-02  0.1160215E+00
         -2   -1    0    0    0  501 -0.00000000000E+00  0.00000000000E+00  0.18793762903E+03  0.18793762903E+03  0.00000000000E+00 0.  1.
          2   -1    0    0  501    0  0.00000000000E+00 -0.00000000000E+00 -0.17865370816E+03  0.17865370816E+03  0.00000000000E+00 0. -1.
          5    1    1    2  502    0 -0.24715762104E+02  0.24693489222E+01  0.11832147050E+02  0.27911579753E+02  0.47000000000E+01 0.  1.
         -5    1    1    2    0  502  0.11314104467E+03 -0.12048342006E+03 -0.66219053930E+01  0.16547836756E+03  0.47000000000E+01 0.  1.
        -11    1    1    2    0    0 -0.42196546321E+01  0.29142834983E+02 -0.34009970581E+02  0.44986535930E+02  0.00000000000E+00 0.  1.
         11    1    1    2    0    0 -0.84205627937E+02  0.88871236150E+02  0.38083649794E+02  0.12821485395E+03  0.00000000000E+00 0. -1.
<mgrwt>
<rscale>  0 0.18806803E+03</rscale>
<asrwt>0</asrwt>
<pdfrwt beam="2">  1        2 0.27485186E-01 0.19331975E+03</pdfrwt>
<pdfrwt beam="1">  1       -2 0.28913481E-01 0.19331975E+03</pdfrwt>
<totfact> 0.20856227E+03</totfact>
</mgrwt>
</event>
<event>
 6    1  0.6101889E-006  0.1296298E+03  0.7546771E-02  0.1242651E+00
         -2   -1    0    0    0  501 -0.00000000000E+00  0.00000000000E+00  0.58468455307E+02  0.58468455307E+02  0.00000000000E+00 0.  1.
          2   -1    0    0  501    0  0.00000000000E+00 -0.00000000000E+00 -0.28616186851E+03  0.28616186851E+03  0.00000000000E+00 0. -1.
          5    1    1    2  502    0 -0.38079215519E+02  0.60017087183E+01 -0.14713899402E+03  0.15217759599E+03  0.47000000000E+01 0.  1.
         -5    1    1    2    0  502  0.65272831429E+02 -0.26940476449E+02 -0.63115479292E+02  0.94826080381E+02  0.47000000000E+01 0.  1.
        -11    1    1    2    0    0 -0.37364552680E+02  0.10609543376E+02  0.29324267837E+02  0.48668109598E+02  0.00000000000E+00 0.  1.
         11    1    1    2    0    0  0.10170936770E+02  0.10329224355E+02 -0.46763207730E+02  0.48958537843E+02  0.00000000000E+00 0. -1.
<mgrwt>
<rscale>  0 0.12027079E+03</rscale>
<asrwt>0</asrwt>
<pdfrwt beam="2">  1        2 0.44024903E-01 0.12962975E+03</pdfrwt>
<pdfrwt beam="1">  1       -2 0.89951469E-02 0.12962975E+03</pdfrwt>
<totfact> 0.85493225E+03</totfact>
</mgrwt>
</event>
<event>
 6    1  0.6101889E-006  0.1323920E+03  0.7546771E-02  0.1237142E+00
          1   -1    0    0  501    0  0.00000000000E+00  0.00000000000E+00  0.96693454251E+03  0.96693454251E+03  0.00000000000E+00 0. -1.
         -1   -1    0    0    0  501 -0.00000000000E+00 -0.00000000000E+00 -0.21962585027E+02  0.21962585027E+02  0.00000000000E+00 0.  1.
          5    1    1    2  502    0  0.46270229338E+02 -0.28345205192E+01  0.51219046911E+03  0.51430548828E+03  0.47000000000E+01 0. -1.
         -5    1    1    2    0  502 -0.60977531372E+02 -0.38201563262E+02  0.29598388501E+03  0.30464104935E+03  0.47000000000E+01 0. -1.
        -11    1    1    2    0    0  0.42951668391E+02 -0.49278965223E+01  0.38830204024E+02  0.58111227197E+02  0.00000000000E+00 0.  1.
         11    1    1    2    0    0 -0.28244366357E+02  0.45963980304E+02  0.97967399347E+02  0.11183936271E+03  0.00000000000E+00 0. -1.
<mgrwt>
<rscale>  0 0.12368283E+03</rscale>
<asrwt>0</asrwt>
<pdfrwt beam="1">  1        1 0.14875913E+00 0.13239201E+03</pdfrwt>
<pdfrwt beam="2">  1       -1 0.33788600E-02 0.13239201E+03</pdfrwt>
<totfact> 0.52161669E+03</totfact>
</mgrwt>
</event>
<event>
 6    1  0.6101889E-006  0.2702774E+03  0.7546771E-02  0.1132383E+00
         -1   -1    0    0    0  501 -0.00000000000E+00  0.00000000000E+00  0.48977058458E+02  0.48977058458E+02  0.00000000000E+00 0.  1.
          1   -1    0    0  501    0  0.00000000000E+00 -0.00000000000E+00 -0.87577656484E+03  0.87577656484E+03  0.00000000000E+00 0. -1.
          5    1    1    2  502    0  0.67505976176E+01 -0.61402752199E+02 -0.51546693719E+03  0.51917638802E+03  0.47000000000E+01 0. -1.
         -5    1    1    2    0  502  0.39970816237E+02  0.13053017088E+03 -0.17287326574E+03  0.22032486847E+03  0.47000000000E+01 0.  1.
        -11    1    1    2    0    0 -0.23039298584E+02  0.18759730109E+02 -0.19804403289E+02  0.35706457996E+02  0.00000000000E+00 0.  1.
         11    1    1    2    0    0 -0.23682115271E+02 -0.87887148793E+02 -0.11865490017E+03  0.14954590881E+03  0.00000000000E+00 0. -1.
<mgrwt>
<rscale>  0 0.22202393E+03</rscale>
<asrwt>0</asrwt>
<pdfrwt beam="2">  1        1 0.13473484E+00 0.27027740E+03</pdfrwt>
<pdfrwt beam="1">  1       -1 0.75349329E-02 0.27027740E+03</pdfrwt>
<totfact> 0.18835057E+03</totfact>
</mgrwt>
</event>
<event>
 6    1  0.6101889E-006  0.1295110E+03  0.7546771E-02  0.1240724E+00
         -1   -1    0    0    0  501 -0.00000000000E+00  0.00000000000E+00  0.16335456280E+03  0.16335456280E+03  0.00000000000E+00 0.  1.
          1   -1    0    0  501    0  0.00000000000E+00 -0.00000000000E+00 -0.80885270130E+02  0.80885270130E+02  0.00000000000E+00 0. -1.
          5    1    1    2  502    0  0.20798273104E+01  0.69974016780E+02  0.61938637635E+02  0.93590456448E+02  0.47000000000E+01 0. -1.
         -5    1    1    2    0  502 -0.46835875030E+01 -0.36173138954E+02 -0.20858036948E+02  0.42279778606E+02  0.47000000000E+01 0. -1.
        -11    1    1    2    0    0  0.42896719351E+02  0.55511815431E+01  0.23776858742E+02  0.49358719182E+02  0.00000000000E+00 0.  1.
         11    1    1    2    0    0 -0.40292959158E+02 -0.39352059369E+02  0.17611833242E+02  0.59010878696E+02  0.00000000000E+00 0. -1.
<mgrwt>
<rscale>  0 0.12145007E+03</rscale>
<asrwt>0</asrwt>
<pdfrwt beam="2">  1        1 0.12443888E-01 0.12951102E+03</pdfrwt>
<pdfrwt beam="1">  1       -1 0.25131471E-01 0.12951102E+03</pdfrwt>
<totfact> 0.62406749E+03</totfact>
</mgrwt>
</event>
<event>
 6    1  0.6101889E-006  0.2854510E+03  0.7546771E-02  0.1092748E+00
         -2   -1    0    0    0  501 -0.00000000000E+00  0.00000000000E+00  0.34835234408E+02  0.34835234408E+02  0.00000000000E+00 0.  1.
          2   -1    0    0  501    0  0.00000000000E+00 -0.00000000000E+00 -0.58476913917E+03  0.58476913917E+03  0.00000000000E+00 0. -1.
          5    1    1    2  502    0 -0.12241989970E+03  0.23444407714E+00 -0.25571222458E+03  0.28354456194E+03  0.47000000000E+01 0.  1.
         -5    1    1    2    0  502  0.29528806184E+02  0.68007956539E+01 -0.36666852800E+02  0.47799051355E+02  0.47000000000E+01 0.  1.
        -11    1    1    2    0    0  0.46113047347E+02  0.25402466698E+02 -0.48456032854E+02  0.71551978100E+02  0.00000000000E+00 0.  1.
         11    1    1    2    0    0  0.46778046170E+02 -0.32437706429E+02 -0.20909879453E+03  0.21670878219E+03  0.00000000000E+00 0. -1.
<mgrwt>
<rscale>  0 0.28545101E+03</rscale>
<asrwt>0</asrwt>
<pdfrwt beam="2">  1        2 0.89964475E-01 0.28545101E+03</pdfrwt>
<pdfrwt beam="1">  1       -2 0.53592673E-02 0.28545101E+03</pdfrwt>
<totfact> 0.91281131E+03</totfact>
</mgrwt>
</event>
<event>
 6    1  0.6101889E-006  0.1337758E+03  0.7546771E-02  0.1234288E+00
         -1   -1    0    0    0  501 -0.00000000000E+00  0.00000000000E+00  0.36803349755E+03  0.36803349755E+03  0.00000000000E+00 0.  1.
          1   -1    0    0  501    0  0.00000000000E+00 -0.00000000000E+00 -0.38284724788E+02  0.38284724788E+02  0.00000000000E+00 0. -1.
          5    1    1    2  502    0 -0.47015390005E+02 -0.38083498272E+01  0.45093100213E+02  0.65424980800E+02  0.47000000000E+01 0. -1.
         -5    1    1    2    0  502  0.75666805356E+02 -0.34275988110E+02  0.14190056515E+03  0.16449367521E+03  0.47000000000E+01 0. -1.
        -11    1    1    2    0    0 -0.12828025890E+02 -0.18105599515E+02  0.10397614656E+03  0.10631749638E+03  0.00000000000E+00 0.  1.
         11    1    1    2    0    0 -0.15823389460E+02  0.56189937452E+02  0.38778960829E+02  0.70082069946E+02  0.00000000000E+00 0. -1.
<mgrwt>
<rscale>  0 0.12550108E+03</rscale>
<asrwt>0</asrwt>
<pdfrwt beam="2">  1        1 0.58899579E-02 0.13377577E+03</pdfrwt>
<pdfrwt beam="1">  1       -1 0.56620536E-01 0.13377577E+03</pdfrwt>
<totfact> 0.41223370E+03</totfact>
</mgrwt>
</event>
<event>
 6    1  0.6101889E-006  0.1392450E+03  0.7546771E-02  0.1220582E+00
          2   -1    0    0  501    0  0.00000000000E+00  0.00000000000E+00  0.14201552646E+03  0.14201552646E+03  0.00000000000E+00 0. -1.
         -2   -1    0    0    0  501 -0.00000000000E+00 -0.00000000000E+00 -0.30451035605E+03  0.30451035605E+03  0.00000000000E+00 0.  1.
          5    1    1    2  502    0  0.86351835737E+02 -0.68018145824E+02  0.86417308196E+02  0.13990407018E+03  0.47000000000E+01 0. -1.
         -5    1    1    2    0  502 -0.20766931206E+02  0.14426382942E+02  0.37642652143E+01  0.25993184666E+02  0.47000000000E+01 0.  1.
        -11    1    1    2    0    0  0.37622805313E+01 -0.10393542473E+02 -0.15512433142E+00  0.11054616388E+02  0.00000000000E+00 0. -1.
         11    1    1    2    0    0 -0.69347185063E+02  0.63985305354E+02 -0.25252127866E+03  0.26957401128E+03  0.00000000000E+00 0.  1.
<mgrwt>
<rscale>  0 0.13474381E+03</rscale>
<asrwt>0</asrwt>
<pdfrwt beam="1">  1        2 0.21848543E-01 0.13924505E+03</pdfrwt>
<pdfrwt beam="2">  1       -2 0.46847747E-01 0.13924505E+03</pdfrwt>
<totfact> 0.10785811E+03</totfact>
</mgrwt>
</event>
<event>
 6    1  0.6101889E-006  0.1934956E+03  0.7546771E-02  0.1160035E+00
          2   -1    0    0  501    0  0.00000000000E+00  0.00000000000E+00  0.23101818303E+03  0.23101818303E+03  0.00000000000E+00 0. -1.
         -2   -1    0    0    0  501 -0.00000000000E+00 -0.00000000000E+00 -0.14615249457E+03  0.14615249457E+03  0.00000000000E+00 0.  1.
          5    1    1    2  502    0  0.51578012393E+02 -0.12491498546E+03  0.91161251685E+02  0.16308436088E+03  0.47000000000E+01 0. -1.
         -5    1    1    2    0  502  0.68160362005E+01 -0.10752029940E+02 -0.35708675754E+02  0.38200314415E+02  0.47000000000E+01 0. -1.
        -11    1    1    2    0    0 -0.55816043139E+02  0.12489000654E+03 -0.78400212467E+01  0.13701974434E+03  0.00000000000E+00 0.  1.
         11    1    1    2    0    0 -0.25780054545E+01  0.10777008863E+02  0.37253133778E+02  0.38866257968E+02  0.00000000000E+00 0. -1.
<mgrwt>
<rscale>  0 0.18826574E+03</rscale>
<asrwt>0</asrwt>
<pdfrwt beam="1">  1        2 0.35541259E-01 0.19349556E+03</pdfrwt>
<pdfrwt beam="2">  1       -2 0.22484999E-01 0.19349556E+03</pdfrwt>
<totfact> 0.24559201E+03</totfact>
</mgrwt>
</event>
<event>
 6    1  0.6101889E-006  0.1439562E+03  0.7546771E-02  0.1223249E+00
          2   -1    0    0  501    0  0.00000000000E+00  0.00000000000E+00  0.10430571749E+04  0.10430571749E+04  0.00000000000E+00 0. -1.
         -2   -1    0    0    0  501 -0.00000000000E+00 -0.00000000000E+00 -0.27006937630E+02  0.27006937630E+02  0.00000000000E+00 0.  1.
          5    1    1    2  502    0  0.18312724382E+02 -0.66905649861E+02  0.86685626141E+03  0.86963991963E+03  0.47000000000E+01 0. -1.
         -5    1    1    2    0  502 -0.18353042372E+02  0.21033105346E+02  0.42654568832E+02  0.51193045690E+02  0.47000000000E+01 0.  1.
        -11    1    1    2    0    0  0.12156467658E+02  0.65295478807E+02  0.10745080618E+03  0.12632084154E+03  0.00000000000E+00 0.  1.
         11    1    1    2    0    0 -0.12116149668E+02 -0.19422934292E+02 -0.91139912065E+00  0.22910305708E+02  0.00000000000E+00 0. -1.
<mgrwt>
<rscale>  0 0.13287619E+03</rscale>
<asrwt>0</asrwt>
<pdfrwt beam="1">  1        2 0.16047030E+00 0.14395624E+03</pdfrwt>
<pdfrwt beam="2">  1       -2 0.41549143E-02 0.14395624E+03</pdfrwt>
<totfact> 0.62566657E+03</totfact>
</mgrwt>
</event>
<event>
 6    1  0.6101889E-006  0.1362394E+03  0.7546771E-02  0.1229980E+00
         -2   -1    0    0    0  501 -0.00000000000E+00  0.00000000000E+00  0.38854543015E+03  0.38854543015E+03  0.00000000000E+00 0.  1.
          2   -1    0    0  501    0  0.00000000000E+00 -0.00000000000E+00 -0.39805933369E+02  0.39805933369E+02  0.00000000000E+00 0. -1.
          5    1    1    2  502    0 -0.10137821696E+02  0.58993593523E+02  0.36594433071E+02  0.70315446647E+02  0.47000000000E+01 0. -1.
         -5    1    1    2    0  502  0.58455381946E+02 -0.34475343496E+02  0.11405440912E+03  0.13280090071E+03  0.47000000000E+01 0. -1.
        -11    1    1    2    0    0 -0.67770088046E+01 -0.49325950100E+02  0.14545225500E+03  0.15373787980E+03  0.00000000000E+00 0.  1.
         11    1    1    2    0    0 -0.41540551446E+02  0.24807700073E+02  0.52638399589E+02  0.71497136367E+02  0.00000000000E+00 0. -1.
<mgrwt>
<rscale>  0 0.12831320E+03</rscale>
<asrwt>0</asrwt>
<pdfrwt beam="2">  1        2 0.61239900E-02 0.13623941E+03</pdfrwt>
<pdfrwt beam="1">  1       -2 0.59776218E-01 0.13623941E+03</pdfrwt>
<totfact> 0.30666264E+03</totfact>
</mgrwt>
</event>
<event>
 6    1  0.6101889E-006  0.1263569E+03  0.7546771E-02  0.1249068E+00
          1   -1    0    0  501    0  0.00000000000E+00  0.00000000000E+00  0.69496616217E+02  0.69496616217E+02  0.00000000000E+00 0. -1.
         -1   -1    0    0    0  501 -0.00000000000E+00 -0.00000000000E+00 -0.17732026465E+03  0.17732026465E+03  0.00000000000E+00 0.  1.
          5    1    1    2  502    0 -0.11250167892E+02  0.13998443580E+01 -0.83925072579E+02  0.84817649397E+02  0.47000000000E+01 0. -1.
         -5    1    1    2    0  502 -0.68000370061E+01 -0.52431884895E+01  0.46061624096E+02  0.47090282896E+02  0.47000000000E+01 0. -1.
        -11    1    1    2    0    0  0.32262191212E+01 -0.34057935051E+02 -0.65592776201E+02  0.73978130008E+02  0.00000000000E+00 0.  1.
         11    1    1    2    0    0  0.14823985777E+02  0.37901279183E+02 -0.43674237452E+01  0.40930818562E+02  0.00000000000E+00 0. -1.
<mgrwt>
<rscale>  0 0.11645200E+03</rscale>
<asrwt>0</asrwt>
<pdfrwt beam="1">  1        1 0.10691787E-01 0.12635688E+03</pdfrwt>
<pdfrwt beam="2">  1       -1 0.27280040E-01 0.12635688E+03</pdfrwt>
<totfact> 0.66407379E+03</totfact>
</mgrwt>
</event>
<event>
 6    1  0.6101889E-006  0.1503473E+03  0.7546771E-02  0.1209084E+00
         -1   -1    0    0    0  501 -0.00000000000E+00  0.00000000000E+00  0.22258584620E+03  0.22258584620E+03  0.00000000000E+00 0.  1.
          1   -1    0    0  501    0  0.00000000000E+00 -0.00000000000E+00 -0.15033952822E+03  0.15033952822E+03  0.00000000000E+00 0. -1.
          5    1    1    2  502    0 -0.43527276974E+02 -0.55106856833E+02  0.33653777541E+01  0.70461374371E+02  0.47000000000E+01 0.  1.
         -5    1    1    2    0  502  0.42531981377E+02 -0.28436167147E+02 -0.88457485177E+02  0.10229565839E+03  0.47000000000E+01 0.  1.
        -11    1    1    2    0    0 -0.16226635167E+02  0.91780474582E+02  0.15509566279E+03  0.18094646673E+03  0.00000000000E+00 0.  1.
         11    1    1    2    0    0  0.17221930765E+02 -0.82374506017E+01  0.22427626107E+01  0.19221874929E+02  0.00000000000E+00 0. -1.
<mgrwt>
<rscale>  0 0.14320256E+03</rscale>
<asrwt>0</asrwt>
<pdfrwt beam="2">  1        1 0.23129158E-01 0.15034735E+03</pdfrwt>
<pdfrwt beam="1">  1       -1 0.34243976E-01 0.15034735E+03</pdfrwt>
<totfact> 0.16873475E+03</totfact>
</mgrwt>
</event>
<event>
 6    1  0.6101889E-006  0.1506245E+03  0.7546771E-02  0.1208634E+00
         -2   -1    0    0    0  501 -0.00000000000E+00  0.00000000000E+00  0.22511221064E+02  0.22511221064E+02  0.00000000000E+00 0.  1.
          2   -1    0    0  501    0  0.00000000000E+00 -0.00000000000E+00 -0.96121302081E+03  0.96121302081E+03  0.00000000000E+00 0. -1.
          5    1    1    2  502    0  0.50175520384E+02  0.64000810663E+02 -0.61719341009E+03  0.62254596783E+03  0.47000000000E+01 0.  1.
         -5    1    1    2    0  502 -0.34845863153E+02  0.18620026398E+02 -0.66087360705E+02  0.77139930042E+02  0.47000000000E+01 0.  1.
        -11    1    1    2    0    0  0.16739233636E+02 -0.73356736544E+02 -0.10040686103E+03  0.12547091488E+03  0.00000000000E+00 0.  1.
         11    1    1    2    0    0 -0.32068890867E+02 -0.92641005164E+01 -0.15501416793E+03  0.15856742912E+03  0.00000000000E+00 0. -1.
<mgrwt>
<rscale>  0 0.14354736E+03</rscale>
<asrwt>0</asrwt>
<pdfrwt beam="2">  1        2 0.14787892E+00 0.15062451E+03</pdfrwt>
<pdfrwt beam="1">  1       -2 0.34632648E-02 0.15062451E+03</pdfrwt>
<totfact> 0.91998233E+03</totfact>
</mgrwt>
</event>
<event>
 6    1  0.6101889E-006  0.1449106E+03  0.7546771E-02  0.1218300E+00
          1   -1    0    0  501    0  0.00000000000E+00  0.00000000000E+00  0.10878060609E+04  0.10878060609E+04  0.00000000000E+00 0. -1.
         -1   -1    0    0    0  501 -0.00000000000E+00 -0.00000000000E+00 -0.17649659720E+02  0.17649659720E+02  0.00000000000E+00 0.  1.
          5    1    1    2  502    0 -0.21456179309E+02 -0.31001280426E+02  0.26959266845E+03  0.27225676098E+03  0.47000000000E+01 0. -1.
         -5    1    1    2    0  502  0.14739286542E+02  0.10398782481E+03  0.51943027910E+03  0.52996284693E+03  0.47000000000E+01 0. -1.
        -11    1    1    2    0    0 -0.19716899388E+02  0.23056908970E+01  0.13619324929E+02  0.24074018017E+02  0.00000000000E+00 0.  1.
         11    1    1    2    0    0  0.26433792155E+02 -0.75292235277E+02  0.26751412872E+03  0.27916209472E+03  0.00000000000E+00 0. -1.
<mgrwt>
<rscale>  0 0.13636932E+03</rscale>
<asrwt>0</asrwt>
<pdfrwt beam="1">  1        1 0.16735473E+00 0.14491062E+03</pdfrwt>
<pdfrwt beam="2">  1       -1 0.27153331E-02 0.14491062E+03</pdfrwt>
<totfact> 0.58849172E+03</totfact>
</mgrwt>
</event>
<event>
 6    1  0.6101889E-006  0.1358239E+03  0.7546771E-02  0.1229961E+00
          2   -1    0    0  501    0  0.00000000000E+00  0.00000000000E+00  0.18460276695E+03  0.18460276695E+03  0.00000000000E+00 0. -1.
         -2   -1    0    0    0  501 -0.00000000000E+00 -0.00000000000E+00 -0.82649262407E+02  0.82649262407E+02  0.00000000000E+00 0.  1.
          5    1    1    2  502    0  0.47811873929E+02 -0.14695526805E+02 -0.16616917550E+02  0.52916403370E+02  0.47000000000E+01 0. -1.
         -5    1    1    2    0  502 -0.28018939908E+01  0.42913897943E+02  0.93824397193E+02  0.10331776592E+03  0.47000000000E+01 0. -1.
        -11    1    1    2    0    0 -0.43991942180E+02  0.12991050814E+02 -0.20121122621E+02  0.50089100147E+02  0.00000000000E+00 0.  1.
         11    1    1    2    0    0 -0.10180377584E+01 -0.41209421952E+02  0.44867147525E+02  0.60928759921E+02  0.00000000000E+00 0. -1.
<mgrwt>
<rscale>  0 0.12832572E+03</rscale>
<asrwt>0</asrwt>
<pdfrwt beam="1">  1        2 0.28400426E-01 0.13582386E+03</pdfrwt>
<pdfrwt beam="2">  1       -2 0.12715271E-01 0.13582386E+03</pdfrwt>
<totfact> 0.79387059E+03</totfact>
</mgrwt>
</event>
<event>
 6    1  0.6101889E-006  0.1307858E+03  0.7546771E-02  0.1239842E+00
          2   -1    0    0  501    0  0.00000000000E+00  0.00000000000E+00  0.16192891422E+04  0.16192891422E+04  0.00000000000E+00 0. -1.
         -2   -1    0    0    0  501 -0.00000000000E+00 -0.00000000000E+00 -0.10204070093E+02  0.10204070093E+02  0.00000000000E+00 0.  1.
          5    1    1    2  502    0  0.86164362326E+01  0.45354559931E+02  0.16755104861E+03  0.17385834167E+03  0.47000000000E+01 0. -1.
         -5    1    1    2    0  502  0.22567311301E+02 -0.22855800343E+02  0.10883827637E+04  0.10888667510E+04  0.47000000000E+01 0. -1.
        -11    1    1    2    0    0 -0.20576212370E+02 -0.49666295216E+02  0.31036910023E+03  0.31499063442E+03  0.00000000000E+00 0. -1.
         11    1    1    2    0    0 -0.10607535164E+02  0.27167535629E+02  0.42782159571E+02  0.51777485184E+02  0.00000000000E+00 0.  1.
<mgrwt>
<rscale>  0 0.12199457E+03</rscale>
<asrwt>0</asrwt>
<pdfrwt beam="1">  1        2 0.24912120E+00 0.13078577E+03</pdfrwt>
<pdfrwt beam="2">  1       -2 0.15698582E-02 0.13078577E+03</pdfrwt>
<totfact> 0.12639797E+04</totfact>
</mgrwt>
</event>
<event>
 6    1  0.6101889E-006  0.1271426E+03  0.7546771E-02  0.1245929E+00
         -1   -1    0    0    0  501 -0.00000000000E+00  0.00000000000E+00  0.19117364367E+02  0.19117364367E+02  0.00000000000E+00 0.  1.
          1   -1    0    0  501    0  0.00000000000E+00 -0.00000000000E+00 -0.11107485513E+04  0.11107485513E+04  0.00000000000E+00 0. -1.
          5    1    1    2  502    0  0.39119188735E+01 -0.42194141829E+02 -0.10738288249E+03  0.11553710298E+03  0.47000000000E+01 0.  1.
         -5    1    1    2    0  502 -0.86133305652E+01  0.19411489155E+02 -0.84679411438E+03  0.84707340740E+03  0.47000000000E+01 0.  1.
        -11    1    1    2    0    0 -0.12708733499E+02  0.50557658672E+02 -0.43994710789E+02  0.68213806043E+02  0.00000000000E+00 0.  1.
         11    1    1    2    0    0  0.17410145190E+02 -0.27775005998E+02 -0.93459479244E+02  0.99041599211E+02  0.00000000000E+00 0. -1.
<mgrwt>
<rscale>  0 0.11829965E+03</rscale>
<asrwt>0</asrwt>
<pdfrwt beam="2">  1        1 0.17088436E+00 0.12714265E+03</pdfrwt>
<pdfrwt beam="1">  1       -1 0.29411335E-02 0.12714265E+03</pdfrwt>
<totfact> 0.50220792E+03</totfact>
</mgrwt>
</event>
<event>
 6    1  0.6101889E-006  0.1279911E+03  0.7546771E-02  0.1243366E+00
         -2   -1    0    0    0  501 -0.00000000000E+00  0.00000000000E+00  0.63013275227E+02  0.63013275227E+02  0.00000000000E+00 0.  1.
          2   -1    0    0  501    0  0.00000000000E+00 -0.00000000000E+00 -0.23341382310E+03  0.23341382310E+03  0.00000000000E+00 0. -1.
          5    1    1    2  502    0  0.17486798363E+02 -0.20730855683E+02 -0.16225882844E+03  0.16457695434E+03  0.47000000000E+01 0.  1.
         -5    1    1    2    0  502 -0.26382782569E+02 -0.53104797626E+01  0.14483055396E+02  0.30920887843E+02  0.47000000000E+01 0.  1.
        -11    1    1    2    0    0  0.34449412967E+02  0.21608942878E+02  0.24257756495E+02  0.47351316942E+02  0.00000000000E+00 0.  1.
         11    1    1    2    0    0 -0.25553428760E+02  0.44323925681E+01 -0.46882531324E+02  0.53577939197E+02  0.00000000000E+00 0. -1.
<mgrwt>
<rscale>  0 0.11983683E+03</rscale>
<asrwt>0</asrwt>
<pdfrwt beam="2">  1        2 0.35909819E-01 0.12799112E+03</pdfrwt>
<pdfrwt beam="1">  1       -2 0.96943500E-02 0.12799112E+03</pdfrwt>
<totfact> 0.94350433E+03</totfact>
</mgrwt>
</event>
<event>
 6    1  0.6101889E-006  0.1355601E+03  0.7546771E-02  0.1232837E+00
          2   -1    0    0  501    0  0.00000000000E+00  0.00000000000E+00  0.11763271166E+04  0.11763271166E+04  0.00000000000E+00 0. -1.
         -2   -1    0    0    0  501 -0.00000000000E+00 -0.00000000000E+00 -0.14913866504E+02  0.14913866504E+02  0.00000000000E+00 0.  1.
          5    1    1    2  502    0 -0.32352755744E+02  0.31844211657E+02  0.33385956204E+03  0.33696446666E+03  0.47000000000E+01 0. -1.
         -5    1    1    2    0  502  0.30190361130E+02 -0.84267385964E+02  0.57060239274E+03  0.57759988819E+03  0.47000000000E+01 0. -1.
        -11    1    1    2    0    0 -0.34856253999E+02  0.11239854548E+02  0.47219746793E+02  0.59757821750E+02  0.00000000000E+00 0.  1.
         11    1    1    2    0    0  0.37018648614E+02  0.41183319759E+02  0.20973154856E+03  0.21691880654E+03  0.00000000000E+00 0. -1.
<mgrwt>
<rscale>  0 0.12643919E+03</rscale>
<asrwt>0</asrwt>
<pdfrwt beam="1">  1        2 0.18097333E+00 0.13556007E+03</pdfrwt>
<pdfrwt beam="2">  1       -2 0.22944419E-02 0.13556007E+03</pdfrwt>
<totfact> 0.12552869E+04</totfact>
</mgrwt>
</event>
<event>
 6    1  0.6101889E-006  0.1286726E+03  0.7546771E-02  0.1240169E+00
         -1   -1    0    0    0  501 -0.00000000000E+00  0.00000000000E+00  0.57425651462E+02  0.57425651462E+02  0.00000000000E+00 0. -1.
          1   -1    0    0  501    0  0.00000000000E+00 -0.00000000000E+00 -0.23578525600E+03  0.23578525600E+03  0.00000000000E+00 0.  1.
          5    1    1    2  502    0 -0.90895588903E+01  0.48531806748E+02 -0.73536668118E+02  0.88699988190E+02  0.47000000000E+01 0.  1.
         -5    1    1    2    0  502 -0.11576638229E+02 -0.70927884252E+02 -0.37187716577E+02  0.81054300203E+02  0.47000000000E+01 0.  1.
        -11    1    1    2    0    0 -0.17239476627E+02  0.49623814655E+02 -0.52806125117E+02  0.74486303340E+02  0.00000000000E+00 0.  1.
         11    1    1    2    0    0  0.37905673746E+02 -0.27227737151E+02 -0.14829094729E+02  0.48970315733E+02  0.00000000000E+00 0. -1.
<mgrwt>
<rscale>  0 0.12179230E+03</rscale>
<asrwt>0</asrwt>
<pdfrwt beam="2">  1        1 0.36274655E-01 0.12867257E+03</pdfrwt>
<pdfrwt beam="1">  1       -1 0.88347155E-02 0.12867257E+03</pdfrwt>
<totfact> 0.82919859E+03</totfact>
</mgrwt>
</event>
<event>
 6    1  0.6101889E-006  0.1413252E+03  0.7546771E-02  0.1222300E+00
         -2   -1    0    0    0  501 -0.00000000000E+00  0.00000000000E+00  0.11394667538E+03  0.11394667538E+03  0.00000000000E+00 0. -1.
          2   -1    0    0  501    0  0.00000000000E+00 -0.00000000000E+00 -0.14184642973E+03  0.14184642973E+03  0.00000000000E+00 0.  1.
          5    1    1    2  502    0  0.64225492224E+02  0.28784402053E+02  0.24447105771E+02  0.74653912379E+02  0.47000000000E+01 0.  1.
         -5    1    1    2    0  502 -0.38743356904E+02  0.32033569802E+02 -0.46004658835E+02  0.68306046094E+02  0.47000000000E+01 0.  1.
        -11    1    1    2    0    0 -0.56228521239E+02 -0.54443498127E+02 -0.16191632780E+02  0.79924402163E+02  0.00000000000E+00 0.  1.
         11    1    1    2    0    0  0.30746385920E+02 -0.63744737281E+01  0.98494314875E+01  0.32908744477E+02  0.00000000000E+00 0. -1.
<mgrwt>
<rscale>  0 0.13353717E+03</rscale>
<asrwt>0</asrwt>
<pdfrwt beam="2">  1        2 0.21822528E-01 0.14132523E+03</pdfrwt>
<pdfrwt beam="1">  1       -2 0.17530258E-01 0.14132523E+03</pdfrwt>
<totfact> 0.63003718E+03</totfact>
</mgrwt>
</event>
<event>
 6    1  0.6101889E-006  0.1256943E+03  0.7546771E-02  0.1249599E+00
         -1   -1    0    0    0  501 -0.00000000000E+00  0.00000000000E+00  0.14889644740E+03  0.14889644740E+03  0.00000000000E+00 0.  1.
          1   -1    0    0  501    0  0.00000000000E+00 -0.00000000000E+00 -0.81387421008E+02  0.81387421008E+02  0.00000000000E+00 0. -1.
          5    1    1    2  502    0 -0.51995702884E+02 -0.26243007827E+02 -0.91800051212E+01  0.59149058084E+02  0.47000000000E+01 0. -1.
         -5    1    1    2    0  502  0.47441112040E+02  0.38621032928E+02  0.29861784887E+02  0.68235324376E+02  0.47000000000E+01 0. -1.
        -11    1    1    2    0    0 -0.16322879841E+02  0.22555111277E+02 -0.12852072377E+02  0.30665048759E+02  0.00000000000E+00 0.  1.
         11    1    1    2    0    0  0.20877470686E+02 -0.34933136379E+02  0.59679319006E+02  0.72234437192E+02  0.00000000000E+00 0. -1.
<mgrwt>
<rscale>  0 0.11614285E+03</rscale>
<asrwt>0</asrwt>
<pdfrwt beam="2">  1        1 0.12521142E-01 0.12569425E+03</pdfrwt>
<pdfrwt beam="1">  1       -1 0.22907146E-01 0.12569425E+03</pdfrwt>
<totfact> 0.71854734E+03</totfact>
</mgrwt>
</event>
<event>
 6    1  0.6101889E-006  0.1340340E+03  0.7546771E-02  0.1233908E+00
          1   -1    0    0  501    0  0.00000000000E+00  0.00000000000E+00  0.11879590077E+03  0.11879590077E+03  0.00000000000E+00 0. -1.
         -1   -1    0    0    0  501 -0.00000000000E+00 -0.00000000000E+00 -0.11956508247E+03  0.11956508247E+03  0.00000000000E+00 0.  1.
          5    1    1    2  502    0  0.19705611248E+02 -0.48021492214E+02 -0.47554534541E+02  0.70554224427E+02  0.47000000000E+01 0. -1.
         -5    1    1    2    0  502 -0.32180939363E+02  0.14002109003E+01  0.54720748036E+02  0.63671215745E+02  0.47000000000E+01 0. -1.
        -11    1    1    2    0    0  0.46020828633E+02  0.71202924809E+01 -0.20390349291E+02  0.50836813209E+02  0.00000000000E+00 0.  1.
         11    1    1    2    0    0 -0.33545500518E+02  0.39500988833E+02  0.12454954095E+02  0.53298729866E+02  0.00000000000E+00 0. -1.
<mgrwt>
<rscale>  0 0.12574619E+03</rscale>
<asrwt>0</asrwt>
<pdfrwt beam="1">  1        1 0.18276292E-01 0.13403400E+03</pdfrwt>
<pdfrwt beam="2">  1       -1 0.18394628E-01 0.13403400E+03</pdfrwt>
<totfact> 0.63025434E+03</totfact>
</mgrwt>
</event>
<event>
 6    1  0.6101889E-006  0.1252092E+03  0.7546771E-02  0.1288856E+00
          2   -1    0    0  501    0  0.00000000000E+00  0.00000000000E+00  0.24241284292E+04  0.24241284292E+04  0.00000000000E+00 0. -1.
         -2   -1    0    0    0  501 -0.00000000000E+00 -0.00000000000E+00 -0.45303865653E+01  0.45303865653E+01  0.00000000000E+00 0.  1.
          5    1    1    2  502    0  0.78300268908E+01  0.12142167881E+01  0.22368009955E+04  0.22368199676E+04  0.47000000000E+01 0. -1.
         -5    1    1    2    0  502 -0.30711360221E+01 -0.10064946981E+02  0.17491198134E+02  0.20946766967E+02  0.47000000000E+01 0.  1.
        -11    1    1    2    0    0  0.17665473894E+02 -0.29763273874E+01  0.63700523894E+02  0.66171627130E+02  0.00000000000E+00 0. -1.
         11    1    1    2    0    0 -0.22424364762E+02  0.11827057580E+02  0.10160532505E+03  0.10472045409E+03  0.00000000000E+00 0.  1.
<mgrwt>
<rscale>  0 0.96037605E+02</rscale>
<asrwt>0</asrwt>
<pdfrwt beam="1">  1        2 0.37294180E+00 0.12520916E+03</pdfrwt>
<pdfrwt beam="2">  1       -2 0.69698449E-03 0.12520916E+03</pdfrwt>
<totfact> 0.15538772E+04</totfact>
</mgrwt>
</event>
<event>
 6    1  0.6101889E-006  0.1318851E+03  0.7546771E-02  0.1237240E+00
          1   -1    0    0  501    0  0.00000000000E+00  0.00000000000E+00  0.98219930551E+02  0.98219930551E+02  0.00000000000E+00 0. -1.
         -1   -1    0    0    0  501 -0.00000000000E+00 -0.00000000000E+00 -0.15270620354E+03  0.15270620354E+03  0.00000000000E+00 0.  1.
          5    1    1    2  502    0  0.53760059282E+02  0.49401759234E+02 -0.15986308518E+02  0.74888783201E+02  0.47000000000E+01 0.  1.
         -5    1    1    2    0  502 -0.11723108474E+02 -0.50867500405E+02  0.22845175631E+02  0.57174521593E+02  0.47000000000E+01 0.  1.
        -11    1    1    2    0    0 -0.52636900162E+02 -0.35086835533E+02 -0.43880254897E+02  0.76988350133E+02  0.00000000000E+00 0.  1.
         11    1    1    2    0    0  0.10599949355E+02  0.36552576704E+02 -0.17464885207E+02  0.41874479165E+02  0.00000000000E+00 0. -1.
<mgrwt>
<rscale>  0 0.12362140E+03</rscale>
<asrwt>0</asrwt>
<pdfrwt beam="1">  1        1 0.15110759E-01 0.13188507E+03</pdfrwt>
<pdfrwt beam="2">  1       -1 0.23493262E-01 0.13188507E+03</pdfrwt>
<totfact> 0.54205920E+03</totfact>
</mgrwt>
</event>
<event>
 6    1  0.6101889E-006  0.2371252E+03  0.7546771E-02  0.1124587E+00
          1   -1    0    0  501    0  0.00000000000E+00  0.00000000000E+00  0.34172900142E+03  0.34172900142E+03  0.00000000000E+00 0. -1.
         -1   -1    0    0    0  501 -0.00000000000E+00 -0.00000000000E+00 -0.15355126604E+03  0.15355126604E+03  0.00000000000E+00 0.  1.
          5    1    1    2  502    0 -0.27627586082E+02 -0.25091867304E+02  0.10311844512E+02  0.39003967167E+02  0.47000000000E+01 0. -1.
         -5    1    1    2    0  502 -0.13020256227E+03  0.15036230638E+03  0.94250237340E+02  0.22015160149E+03  0.47000000000E+01 0. -1.
        -11    1    1    2    0    0  0.16568605256E+03 -0.10009119212E+03  0.66474676558E+02  0.20466801747E+03  0.00000000000E+00 0.  1.
         11    1    1    2    0    0 -0.78559042104E+01 -0.25179246956E+02  0.17140976973E+02  0.31456681323E+02  0.00000000000E+00 0. -1.
<mgrwt>
<rscale>  0 0.23294048E+03</rscale>
<asrwt>0</asrwt>
<pdfrwt beam="1">  1        1 0.52573692E-01 0.23712524E+03</pdfrwt>
<pdfrwt beam="2">  1       -1 0.23623272E-01 0.23712524E+03</pdfrwt>
<totfact> 0.11354031E+03</totfact>
</mgrwt>
</event>
<event>
 6    1  0.6101889E-006  0.1335718E+03  0.7546771E-02  0.1234777E+00
         -2   -1    0    0    0  501 -0.00000000000E+00  0.00000000000E+00  0.82656987365E+02  0.82656987365E+02  0.00000000000E+00 0.  1.
          2   -1    0    0  501    0  0.00000000000E+00 -0.00000000000E+00 -0.19498894117E+03  0.19498894117E+03  0.00000000000E+00 0. -1.
          5    1    1    2  502    0 -0.15957531511E+02  0.56046702044E+02 -0.11078804257E+00  0.58463474888E+02  0.47000000000E+01 0. -1.
         -5    1    1    2    0  502 -0.17702152684E+02 -0.23133368130E+02 -0.11231033101E+03  0.11612157157E+03  0.47000000000E+01 0. -1.
        -11    1    1    2    0    0 -0.31400198682E+02 -0.13692469689E+02  0.66826165577E+01  0.34901483743E+02  0.00000000000E+00 0. -1.
         11    1    1    2    0    0  0.65059882877E+02 -0.19220864225E+02 -0.65934513072E+01  0.68159398337E+02  0.00000000000E+00 0.  1.
<mgrwt>
<rscale>  0 0.12518709E+03</rscale>
<asrwt>0</asrwt>
<pdfrwt beam="2">  1        2 0.29998299E-01 0.13357182E+03</pdfrwt>
<pdfrwt beam="1">  1       -2 0.12716460E-01 0.13357182E+03</pdfrwt>
<totfact> 0.74709217E+03</totfact>
</mgrwt>
</event>
<event>
 6    1  0.6101889E-006  0.1753879E+03  0.7546771E-02  0.1178381E+00
          1   -1    0    0  501    0  0.00000000000E+00  0.00000000000E+00  0.83825998429E+03  0.83825998429E+03  0.00000000000E+00 0. -1.
         -1   -1    0    0    0  501 -0.00000000000E+00 -0.00000000000E+00 -0.48155147706E+02  0.48155147706E+02  0.00000000000E+00 0.  1.
          5    1    1    2  502    0 -0.19639681328E+02  0.22685046738E+02  0.15645397542E+03  0.15937460542E+03  0.47000000000E+01 0.  1.
         -5    1    1    2    0  502 -0.47685245902E+01 -0.14324981396E+03  0.51170645342E+03  0.53142152055E+03  0.47000000000E+01 0.  1.
        -11    1    1    2    0    0  0.51873183071E+02  0.11015594859E+03  0.85340900838E+02  0.14868836366E+03  0.00000000000E+00 0. -1.
         11    1    1    2    0    0 -0.27464977153E+02  0.10408818636E+02  0.36603506901E+02  0.46930642366E+02  0.00000000000E+00 0.  1.
<mgrwt>
<rscale>  0 0.16948970E+03</rscale>
<asrwt>0</asrwt>
<pdfrwt beam="1">  1        1 0.12896306E+00 0.17538794E+03</pdfrwt>
<pdfrwt beam="2">  1       -1 0.74084849E-02 0.17538794E+03</pdfrwt>
<totfact> 0.20605569E+03</totfact>
</mgrwt>
</event>
<event>
 6    1  0.6101889E-006  0.1370713E+03  0.7546771E-02  0.1229038E+00
          2   -1    0    0  501    0  0.00000000000E+00  0.00000000000E+00  0.64288068725E+03  0.64288068725E+03  0.00000000000E+00 0. -1.
         -2   -1    0    0    0  501 -0.00000000000E+00 -0.00000000000E+00 -0.30312125944E+02  0.30312125944E+02  0.00000000000E+00 0.  1.
          5    1    1    2  502    0 -0.49520789295E+02  0.49613949573E+02  0.16619548337E+03  0.18043525502E+03  0.47000000000E+01 0. -1.
         -5    1    1    2    0  502  0.53055104847E+02  0.65168805310E+01  0.33045478754E+03  0.33478316937E+03  0.47000000000E+01 0. -1.
        -11    1    1    2    0    0  0.30178819166E+02  0.32850193801E+01  0.10047553874E+02  0.31976644875E+02  0.00000000000E+00 0.  1.
         11    1    1    2    0    0 -0.33713134718E+02 -0.59415849484E+02  0.10587073652E+03  0.12599774392E+03  0.00000000000E+00 0. -1.
<mgrwt>
<rscale>  0 0.12893951E+03</rscale>
<asrwt>0</asrwt>
<pdfrwt beam="1">  1        2 0.98904711E-01 0.13707127E+03</pdfrwt>
<pdfrwt beam="2">  1       -2 0.46634045E-02 0.13707127E+03</pdfrwt>
<totfact> 0.96923232E+03</totfact>
</mgrwt>
</event>
<event>
 6    1  0.6101889E-006  0.1280253E+03  0.7546771E-02  0.1242729E+00
          1   -1    0    0  501    0  0.00000000000E+00  0.00000000000E+00  0.88297791779E+03  0.88297791779E+03  0.00000000000E+00 0. -1.
         -1   -1    0    0    0  501 -0.00000000000E+00 -0.00000000000E+00 -0.16577780717E+02  0.16577780717E+02  0.00000000000E+00 0.  1.
          5    1    1    2  502    0  0.72015867998E+02 -0.21831551891E+02  0.29753938692E+03  0.30694409698E+03  0.47000000000E+01 0. -1.
         -5    1    1    2    0  502 -0.45011924358E+02  0.15924860126E+02  0.33533919279E+03  0.33875380252E+03  0.47000000000E+01 0. -1.
        -11    1    1    2    0    0  0.25294931794E+02  0.29479337164E+02  0.63705850563E+02  0.74614343728E+02  0.00000000000E+00 0.  1.
         11    1    1    2    0    0 -0.52298875433E+02 -0.23572645399E+02  0.16981570680E+03  0.17924345527E+03  0.00000000000E+00 0. -1.
<mgrwt>
<rscale>  0 0.12022343E+03</rscale>
<asrwt>0</asrwt>
<pdfrwt beam="1">  1        1 0.13584272E+00 0.12802531E+03</pdfrwt>
<pdfrwt beam="2">  1       -1 0.25504285E-02 0.12802531E+03</pdfrwt>
<totfact> 0.90737399E+03</totfact>
</mgrwt>
</event>
<event>
 6    1  0.6101889E-006  0.1262707E+03  0.7546771E-02  0.1243844E+00
         -2   -1    0    0    0  501 -0.00000000000E+00  0.00000000000E+00  0.17602450518E+02  0.17602450518E+02  0.00000000000E+00 0.  1.
          2   -1    0    0  501    0  0.00000000000E+00 -0.00000000000E+00 -0.84751415321E+03  0.84751415321E+03  0.00000000000E+00 0. -1.
          5    1    1    2  502    0 -0.66650788761E+01 -0.66784151129E+02 -0.23488378233E+03  0.24432975120E+03  0.47000000000E+01 0. -1.
         -5    1    1    2    0  502 -0.30998894319E+02  0.40553881949E+02 -0.37510028950E+03  0.37858666904E+03  0.47000000000E+01 0.  1.
        -11    1    1    2    0    0  0.54178875735E+02 -0.11744687285E+00 -0.19488028032E+03  0.20227132280E+03  0.00000000000E+00 0. -1.
         11    1    1    2    0    0 -0.16514902539E+02  0.26347716053E+02 -0.25047350542E+02  0.39928860693E+02  0.00000000000E+00 0.  1.
<mgrwt>
<rscale>  0 0.11954834E+03</rscale>
<asrwt>0</asrwt>
<pdfrwt beam="2">  1        2 0.13038675E+00 0.12627074E+03</pdfrwt>
<pdfrwt beam="1">  1       -2 0.27080701E-02 0.12627074E+03</pdfrwt>
<totfact> 0.15411816E+04</totfact>
</mgrwt>
</event>
<event>
 6    1  0.6101889E-006  0.2888512E+03  0.7546771E-02  0.1090950E+00
          1   -1    0    0  501    0  0.00000000000E+00  0.00000000000E+00  0.26276915315E+03  0.26276915315E+03  0.00000000000E+00 0. -1.
         -1   -1    0    0    0  501 -0.00000000000E+00 -0.00000000000E+00 -0.79380536745E+02  0.79380536745E+02  0.00000000000E+00 0.  1.
          5    1    1    2  502    0  0.10583384684E+03  0.26357438109E+02  0.78795497487E+02  0.13463408968E+03  0.47000000000E+01 0. -1.
         -5    1    1    2    0  502 -0.13700150157E+02 -0.35224307343E+02 -0.33644600767E+01  0.38234219408E+02  0.47000000000E+01 0. -1.
        -11    1    1    2    0    0 -0.56067129799E+02  0.27130855583E+02  0.11250792528E+03  0.12859875435E+03  0.00000000000E+00 0. -1.
         11    1    1    2    0    0 -0.36066566886E+02 -0.18263986349E+02 -0.45503462831E+01  0.40682626459E+02  0.00000000000E+00 0.  1.
<mgrwt>
<rscale>  0 0.28885122E+03</rscale>
<asrwt>0</asrwt>
<pdfrwt beam="1">  1        1 0.40426023E-01 0.28885122E+03</pdfrwt>
<pdfrwt beam="2">  1       -1 0.12212390E-01 0.28885122E+03</pdfrwt>
<totfact> 0.46004815E+03</totfact>
</mgrwt>
</event>
<event>
 6    1  0.6101889E-006  0.3390862E+03  0.7546771E-02  0.1067186E+00
         -2   -1    0    0    0  501 -0.00000000000E+00  0.00000000000E+00  0.52627651446E+02  0.52627651446E+02  0.00000000000E+00 0.  1.
          2   -1    0    0  501    0  0.00000000000E+00 -0.00000000000E+00 -0.54619314698E+03  0.54619314698E+03  0.00000000000E+00 0. -1.
          5    1    1    2  502    0 -0.50967297083E+02  0.30509879558E+02 -0.70960085447E+02  0.92660357485E+02  0.47000000000E+01 0. -1.
         -5    1    1    2    0  502 -0.82356180984E+01 -0.17154804089E+02 -0.35183745759E+03  0.35238302920E+03  0.47000000000E+01 0. -1.
        -11    1    1    2    0    0  0.35764866371E+02  0.28763550450E+02  0.20729327069E+02  0.50360425949E+02  0.00000000000E+00 0.  1.
         11    1    1    2    0    0  0.23438048811E+02 -0.42118625918E+02 -0.91497279566E+02  0.10341698579E+03  0.00000000000E+00 0. -1.
<mgrwt>
<rscale>  0 0.33908620E+03</rscale>
<asrwt>0</asrwt>
<pdfrwt beam="2">  1        2 0.84029715E-01 0.33908620E+03</pdfrwt>
<pdfrwt beam="1">  1       -2 0.80965617E-02 0.33908620E+03</pdfrwt>
<totfact> 0.52379252E+03</totfact>
</mgrwt>
</event>
<event>
 6    1  0.6101889E-006  0.1698552E+03  0.7546771E-02  0.1183528E+00
         -2   -1    0    0    0  501 -0.00000000000E+00  0.00000000000E+00  0.71970776313E+02  0.71970776313E+02  0.00000000000E+00 0.  1.
          2   -1    0    0  501    0  0.00000000000E+00 -0.00000000000E+00 -0.35555042696E+03  0.35555042696E+03  0.00000000000E+00 0. -1.
          5    1    1    2  502    0 -0.49760355537E+01  0.40149752710E+02 -0.96050770679E+02  0.10432930614E+03  0.47000000000E+01 0. -1.
         -5    1    1    2    0  502  0.11053121724E+03  0.54877937287E+01 -0.58261089907E+02  0.12515474606E+03  0.47000000000E+01 0. -1.
        -11    1    1    2    0    0  0.98593766814E+00 -0.43173886252E+02 -0.42796243964E+02  0.60798643279E+02  0.00000000000E+00 0.  1.
         11    1    1    2    0    0 -0.10654111936E+03 -0.24636601863E+01 -0.86471546100E+02  0.13723850779E+03  0.00000000000E+00 0. -1.
<mgrwt>
<rscale>  0 0.16466547E+03</rscale>
<asrwt>0</asrwt>
<pdfrwt beam="2">  1        2 0.54700066E-01 0.16985517E+03</pdfrwt>
<pdfrwt beam="1">  1       -2 0.11072427E-01 0.16985517E+03</pdfrwt>
<totfact> 0.49747230E+03</totfact>
</mgrwt>
</event>
<event>
 6    1  0.6101889E-006  0.4107541E+03  0.7546771E-02  0.1040118E+00
          1   -1    0    0  501    0  0.00000000000E+00  0.00000000000E+00  0.10474296695E+04  0.10474296695E+04  0.00000000000E+00 0. -1.
         -1   -1    0    0    0  501 -0.00000000000E+00 -0.00000000000E+00 -0.40269757391E+02  0.40269757391E+02  0.00000000000E+00 0.  1.
          5    1    1    2  502    0  0.11738570327E+02 -0.15823214465E+02  0.69225098885E+01  0.21405123043E+02  0.47000000000E+01 0.  1.
         -5    1    1    2    0  502  0.53654975811E+01 -0.14684881523E+03  0.67931301926E+03  0.69504074070E+03  0.47000000000E+01 0.  1.
        -11    1    1    2    0    0  0.36834700718E+02  0.54713248714E+02  0.11204494180E+03  0.13001693638E+03  0.00000000000E+00 0. -1.
         11    1    1    2    0    0 -0.53938768626E+02  0.10795878098E+03  0.20887944113E+03  0.24123662673E+03  0.00000000000E+00 0.  1.
<mgrwt>
<rscale>  0 0.41075413E+03</rscale>
<asrwt>0</asrwt>
<pdfrwt beam="1">  1        1 0.16114301E+00 0.41075413E+03</pdfrwt>
<pdfrwt beam="2">  1       -1 0.61953481E-02 0.41075413E+03</pdfrwt>
<totfact> 0.18766565E+03</totfact>
</mgrwt>
</event>
<event>
 6    1  0.6101889E-006  0.2978849E+03  0.7546771E-02  0.1086303E+00
          3   -1    0    0  501    0  0.00000000000E+00  0.00000000000E+00  0.35633947677E+02  0.35633947677E+02  0.00000000000E+00 0. -1.
         -3   -1    0    0    0  501 -0.00000000000E+00 -0.00000000000E+00 -0.62254816852E+03  0.62254816852E+03  0.00000000000E+00 0.  1.
          5    1    1    2  502    0 -0.34607696835E+02  0.99382813542E+02 -0.95779812238E+02  0.14237450172E+03  0.47000000000E+01 0.  1.
         -5    1    1    2    0  502  0.29645169671E+02 -0.14767599530E+02 -0.96441511101E+02  0.10207826970E+03  0.47000000000E+01 0.  1.
        -11    1    1    2    0    0 -0.37790490752E+02 -0.54839367527E+02 -0.27912611600E+03  0.28696143653E+03  0.00000000000E+00 0.  1.
         11    1    1    2    0    0  0.42753017916E+02 -0.29775846485E+02 -0.11556678151E+03  0.12676790825E+03  0.00000000000E+00 0. -1.
<mgrwt>
<rscale>  0 0.29788487E+03</rscale>
<asrwt>0</asrwt>
<pdfrwt beam="1">  1        3 0.54821456E-02 0.29788487E+03</pdfrwt>
<pdfrwt beam="2">  1       -3 0.95776644E-01 0.29788487E+03</pdfrwt>
<totfact> 0.50202690E+02</totfact>
</mgrwt>
</event>
<event>
 6    1  0.6101889E-006  0.1293425E+03  0.7546771E-02  0.1242484E+00
         -2   -1    0    0    0  501 -0.00000000000E+00  0.00000000000E+00  0.31741829188E+02  0.31741829188E+02  0.00000000000E+00 0.  1.
          2   -1    0    0  501    0  0.00000000000E+00 -0.00000000000E+00 -0.40377906985E+03  0.40377906985E+03  0.00000000000E+00 0. -1.
          5    1    1    2  502    0  0.31215396196E+02 -0.19124067383E+02 -0.16701332413E+01  0.36946045228E+02  0.47000000000E+01 0. -1.
         -5    1    1    2    0  502  0.85088291736E+00  0.10443300617E+02 -0.21562612236E+03  0.21593170488E+03  0.47000000000E+01 0. -1.
        -11    1    1    2    0    0  0.20229648028E+02  0.19085240476E+02 -0.12040281175E+02  0.30305996669E+02  0.00000000000E+00 0.  1.
         11    1    1    2    0    0 -0.52295927141E+02 -0.10404473711E+02 -0.14270070388E+03  0.15233715226E+03  0.00000000000E+00 0. -1.
<mgrwt>
<rscale>  0 0.12037225E+03</rscale>
<asrwt>0</asrwt>
<pdfrwt beam="2">  1        2 0.62119859E-01 0.12934254E+03</pdfrwt>
<pdfrwt beam="1">  1       -2 0.48833582E-02 0.12934254E+03</pdfrwt>
<totfact> 0.15056342E+04</totfact>
</mgrwt>
</event>
<event>
 6    1  0.6101889E-006  0.1358985E+03  0.7546771E-02  0.1231480E+00
         -2   -1    0    0    0  501 -0.00000000000E+00  0.00000000000E+00  0.38193996756E+02  0.38193996756E+02  0.00000000000E+00 0. -1.
          2   -1    0    0  501    0  0.00000000000E+00 -0.00000000000E+00 -0.64905153325E+03  0.64905153325E+03  0.00000000000E+00 0.  1.
          5    1    1    2  502    0  0.46853034328E+02 -0.44534846047E+02 -0.46615450774E+03  0.47063858153E+03  0.47000000000E+01 0.  1.
         -5    1    1    2    0  502 -0.45296238041E+02 -0.87745716692E+01 -0.82965683458E+02  0.95048076889E+02  0.47000000000E+01 0.  1.
        -11    1    1    2    0    0 -0.29267099650E+02  0.66490404114E+02 -0.34057757675E+02  0.80233832135E+02  0.00000000000E+00 0.  1.
         11    1    1    2    0    0  0.27710303363E+02 -0.13180986397E+02 -0.27679587618E+02  0.41325039451E+02  0.00000000000E+00 0. -1.
<mgrwt>
<rscale>  0 0.12732464E+03</rscale>
<asrwt>0</asrwt>
<pdfrwt beam="2">  1        2 0.99854078E-01 0.13589853E+03</pdfrwt>
<pdfrwt beam="1">  1       -2 0.58759997E-02 0.13589853E+03</pdfrwt>
<totfact> 0.67654754E+03</totfact>
</mgrwt>
</event>
<event>
 6    1  0.6101889E-006  0.1550647E+03  0.7546771E-02  0.1203421E+00
          1   -1    0    0  501    0  0.00000000000E+00  0.00000000000E+00  0.23723719364E+03  0.23723719364E+03  0.00000000000E+00 0. -1.
         -1   -1    0    0    0  501 -0.00000000000E+00 -0.00000000000E+00 -0.89696309218E+02  0.89696309218E+02  0.00000000000E+00 0.  1.
          5    1    1    2  502    0 -0.72819442710E+01 -0.68633337293E+02  0.10855368913E+03  0.12872278402E+03  0.47000000000E+01 0. -1.
         -5    1    1    2    0  502 -0.65549515631E+02  0.12787475178E+02  0.12753879243E+02  0.68154309891E+02  0.47000000000E+01 0. -1.
        -11    1    1    2    0    0  0.57736480896E+02 -0.79430353637E+01  0.27613951846E+02  0.64491265871E+02  0.00000000000E+00 0. -1.
         11    1    1    2    0    0  0.15094979006E+02  0.63788897478E+02 -0.13806357961E+01  0.65565143086E+02  0.00000000000E+00 0.  1.
<mgrwt>
<rscale>  0 0.14762597E+03</rscale>
<asrwt>0</asrwt>
<pdfrwt beam="1">  1        1 0.36498030E-01 0.15506471E+03</pdfrwt>
<pdfrwt beam="2">  1       -1 0.13799432E-01 0.15506471E+03</pdfrwt>
<totfact> 0.41949693E+03</totfact>
</mgrwt>
</event>
<event>
 6    1  0.6101889E-006  0.3397744E+03  0.7546771E-02  0.1066892E+00
          4   -1    0    0  501    0  0.00000000000E+00  0.00000000000E+00  0.18874705396E+03  0.18874705396E+03  0.00000000000E+00 0. -1.
         -4   -1    0    0    0  501 -0.00000000000E+00 -0.00000000000E+00 -0.15291182526E+03  0.15291182526E+03  0.00000000000E+00 0.  1.
          5    1    1    2  502    0 -0.11004327320E+03 -0.10502572997E+03  0.71438482352E+01  0.15235829646E+03  0.47000000000E+01 0. -1.
         -5    1    1    2    0  502  0.25132916261E+02  0.52840278247E+01  0.14860359691E+02  0.30041716329E+02  0.47000000000E+01 0. -1.
        -11    1    1    2    0    0  0.82292089902E+02  0.49731923394E+02  0.38328201527E+02  0.10350991884E+03  0.00000000000E+00 0.  1.
         11    1    1    2    0    0  0.26182670395E+01  0.50009778750E+02 -0.24497180758E+02  0.55748947595E+02  0.00000000000E+00 0. -1.
<mgrwt>
<rscale>  0 0.33977438E+03</rscale>
<asrwt>0</asrwt>
<pdfrwt beam="1">  1        4 0.29038008E-01 0.33977438E+03</pdfrwt>
<pdfrwt beam="2">  1       -4 0.23524896E-01 0.33977438E+03</pdfrwt>
<totfact> 0.36409356E+02</totfact>
</mgrwt>
</event>
<event>
 6    1  0.6101889E-006  0.2742315E+03  0.7546771E-02  0.1125319E+00
         -2   -1    0    0    0  501 -0.00000000000E+00  0.00000000000E+00  0.23022519191E+02  0.23022519191E+02  0.00000000000E+00 0.  1.
          2   -1    0    0  501    0  0.00000000000E+00 -0.00000000000E+00 -0.24702777974E+04  0.24702777974E+04  0.00000000000E+00 0. -1.
          5    1    1    2  502    0 -0.11363994233E+03  0.50926998700E+02 -0.18377219285E+04  0.18419423368E+04  0.47000000000E+01 0. -1.
         -5    1    1    2    0  502  0.13742684729E+02 -0.86253545615E+02 -0.27688061764E+03  0.29036787346E+03  0.47000000000E+01 0.  1.
        -11    1    1    2    0    0  0.10717412328E+03  0.53938744985E+02 -0.29206354366E+03  0.31574799200E+03  0.00000000000E+00 0.  1.
         11    1    1    2    0    0 -0.72768656796E+01 -0.18612198070E+02 -0.40589188342E+02  0.45242114245E+02  0.00000000000E+00 0. -1.
<mgrwt>
<rscale>  0 0.23188621E+03</rscale>
<asrwt>0</asrwt>
<pdfrwt beam="2">  1        2 0.38004255E+00 0.27423148E+03</pdfrwt>
<pdfrwt beam="1">  1       -2 0.35419278E-02 0.27423148E+03</pdfrwt>
<totfact> 0.13735978E+03</totfact>
</mgrwt>
</event>
<event>
 6    1  0.6101889E-006  0.1148548E+03  0.7546771E-02  0.1335186E+00
         -2   -1    0    0    0  501 -0.00000000000E+00  0.00000000000E+00  0.10424648502E+02  0.10424648502E+02  0.00000000000E+00 0.  1.
          2   -1    0    0  501    0  0.00000000000E+00 -0.00000000000E+00 -0.65816062006E+03  0.65816062006E+03  0.00000000000E+00 0. -1.
          5    1    1    2  502    0 -0.25599153092E+02  0.15758018935E+02 -0.62038399595E+03  0.62112963561E+03  0.47000000000E+01 0. -1.
         -5    1    1    2    0  502  0.21692416874E+01 -0.12180383102E+02 -0.41388839351E+01  0.13866784135E+02  0.47000000000E+01 0.  1.
        -11    1    1    2    0    0  0.10718509712E+02 -0.42843303908E+01 -0.10787348562E+02  0.15799013461E+02  0.00000000000E+00 0.  1.
         11    1    1    2    0    0  0.12711401693E+02  0.70669455743E+00 -0.12425743112E+02  0.17789835358E+02  0.00000000000E+00 0. -1.
<mgrwt>
<rscale>  0 0.77877094E+02</rscale>
<asrwt>0</asrwt>
<pdfrwt beam="2">  1        2 0.10125553E+00 0.11485480E+03</pdfrwt>
<pdfrwt beam="1">  1       -2 0.16037913E-02 0.11485480E+03</pdfrwt>
<totfact> 0.44319598E+04</totfact>
</mgrwt>
</event>
<event>
 6    1  0.6101889E-006  0.1323837E+03  0.7546771E-02  0.1238112E+00
          2   -1    0    0  501    0  0.00000000000E+00  0.00000000000E+00  0.96762567771E+02  0.96762567771E+02  0.00000000000E+00 0. -1.
         -2   -1    0    0    0  501 -0.00000000000E+00 -0.00000000000E+00 -0.15021588041E+03  0.15021588041E+03  0.00000000000E+00 0.  1.
          5    1    1    2  502    0 -0.33742560543E+02  0.23245938701E+02  0.24136778149E+02  0.47787112463E+02  0.47000000000E+01 0. -1.
         -5    1    1    2    0  502  0.54239831324E+02 -0.61736075013E+02 -0.19825952403E+02  0.84666762361E+02  0.47000000000E+01 0. -1.
        -11    1    1    2    0    0 -0.16999990257E+02  0.11676791001E+02 -0.78044781672E+02  0.80723819676E+02  0.00000000000E+00 0.  1.
         11    1    1    2    0    0 -0.34972805239E+01  0.26813345310E+02  0.20280643284E+02  0.33800753687E+02  0.00000000000E+00 0. -1.
<mgrwt>
<rscale>  0 0.12307326E+03</rscale>
<asrwt>0</asrwt>
<pdfrwt beam="1">  1        2 0.14886549E-01 0.13238371E+03</pdfrwt>
<pdfrwt beam="2">  1       -2 0.23110135E-01 0.13238371E+03</pdfrwt>
<totfact> 0.60861758E+03</totfact>
</mgrwt>
</event>
<event>
 6    1  0.6101889E-006  0.1536459E+03  0.7546771E-02  0.1201752E+00
          1   -1    0    0  501    0  0.00000000000E+00  0.00000000000E+00  0.11862350469E+04  0.11862350469E+04  0.00000000000E+00 0.  1.
         -1   -1    0    0    0  501 -0.00000000000E+00 -0.00000000000E+00 -0.18696512244E+02  0.18696512244E+02  0.00000000000E+00 0. -1.
          5    1    1    2  502    0  0.15307214227E+02  0.40706171646E+02  0.65735409535E+02  0.78959086140E+02  0.47000000000E+01 0. -1.
         -5    1    1    2    0  502 -0.25774657236E+02  0.48013472002E+02  0.69429464341E+03  0.69644581148E+03  0.47000000000E+01 0. -1.
        -11    1    1    2    0    0  0.51972479415E+02 -0.75721945344E+02  0.29191476852E+03  0.30602154124E+03  0.00000000000E+00 0. -1.
         11    1    1    2    0    0 -0.41505036406E+02 -0.12997698304E+02  0.11559371317E+03  0.12350512027E+03  0.00000000000E+00 0.  1.
<mgrwt>
<rscale>  0 0.14896404E+03</rscale>
<asrwt>0</asrwt>
<pdfrwt beam="1">  1        1 0.18249764E+00 0.15364594E+03</pdfrwt>
<pdfrwt beam="2">  1       -1 0.28763874E-02 0.15364594E+03</pdfrwt>
<totfact> 0.46280053E+03</totfact>
</mgrwt>
</event>
<event>
 6    1  0.6101889E-006  0.1532410E+03  0.7546771E-02  0.1204814E+00
         -1   -1    0    0    0  501 -0.00000000000E+00  0.00000000000E+00  0.14638998184E+03  0.14638998184E+03  0.00000000000E+00 0.  1.
          1   -1    0    0  501    0  0.00000000000E+00 -0.00000000000E+00 -0.14178188715E+03  0.14178188715E+03  0.00000000000E+00 0. -1.
          5    1    1    2  502    0  0.15749686717E+02  0.44827219021E+02  0.48527483002E+02  0.68077447098E+02  0.47000000000E+01 0.  1.
         -5    1    1    2    0  502  0.22983127706E+02  0.34928120331E+02 -0.77058506148E+02  0.87796931147E+02  0.47000000000E+01 0.  1.
        -11    1    1    2    0    0 -0.74333379392E+01 -0.39816754676E+02  0.61897587885E+02  0.73972561479E+02  0.00000000000E+00 0.  1.
         11    1    1    2    0    0 -0.31299476484E+02 -0.39938584676E+02 -0.28758470045E+02  0.58324929262E+02  0.00000000000E+00 0. -1.
<mgrwt>
<rscale>  0 0.14652150E+03</rscale>
<asrwt>0</asrwt>
<pdfrwt beam="2">  1        1 0.21812598E-01 0.15324099E+03</pdfrwt>
<pdfrwt beam="1">  1       -1 0.22521535E-01 0.15324099E+03</pdfrwt>
<totfact> 0.36609773E+03</totfact>
</mgrwt>
</event>
<event>
 6    1  0.6101889E-006  0.3452000E+03  0.7546771E-02  0.1064603E+00
          1   -1    0    0  501    0  0.00000000000E+00  0.00000000000E+00  0.71823306362E+03  0.71823306362E+03  0.00000000000E+00 0. -1.
         -1   -1    0    0    0  501 -0.00000000000E+00 -0.00000000000E+00 -0.41477834945E+02  0.41477834945E+02  0.00000000000E+00 0.  1.
          5    1    1    2  502    0 -0.40360947190E+02 -0.11377924063E+03  0.17122337550E+03  0.20955728566E+03  0.47000000000E+01 0.  1.
         -5    1    1    2    0  502 -0.72462663751E+01 -0.89653075993E+01  0.23579446656E+03  0.23612286119E+03  0.47000000000E+01 0.  1.
        -11    1    1    2    0    0 -0.11136950130E+01  0.84281643328E+02  0.87423600064E+02  0.12143937404E+03  0.00000000000E+00 0.  1.
         11    1    1    2    0    0  0.48720908578E+02  0.38462904905E+02  0.18231378655E+03  0.19259137767E+03  0.00000000000E+00 0. -1.
<mgrwt>
<rscale>  0 0.34519996E+03</rscale>
<asrwt>0</asrwt>
<pdfrwt beam="1">  1        1 0.11049739E+00 0.34519996E+03</pdfrwt>
<pdfrwt beam="2">  1       -1 0.63812059E-02 0.34519996E+03</pdfrwt>
<totfact> 0.33113866E+03</totfact>
</mgrwt>
</event>
<event>
 6    1  0.6101889E-006  0.1793462E+03  0.7546771E-02  0.1174083E+00
          3   -1    0    0  501    0  0.00000000000E+00  0.00000000000E+00  0.10519390709E+04  0.10519390709E+04  0.00000000000E+00 0. -1.
         -3   -1    0    0    0  501 -0.00000000000E+00 -0.00000000000E+00 -0.27144840324E+02  0.27144840324E+02  0.00000000000E+00 0.  1.
          5    1    1    2  502    0  0.12013102801E+03  0.39051548146E+02  0.35129030916E+03  0.37334094152E+03  0.47000000000E+01 0. -1.
         -5    1    1    2    0  502  0.82409880042E+01 -0.46708874954E+02  0.23425503139E+03  0.23905468540E+03  0.47000000000E+01 0. -1.
        -11    1    1    2    0    0  0.58984085428E+00  0.22553731091E+02  0.31315673477E+02  0.38596503775E+02  0.00000000000E+00 0. -1.
         11    1    1    2    0    0 -0.12896185687E+03 -0.14896404283E+02  0.40793321653E+03  0.42809178051E+03  0.00000000000E+00 0.  1.
<mgrwt>
<rscale>  0 0.17366136E+03</rscale>
<asrwt>0</asrwt>
<pdfrwt beam="1">  1        3 0.16183675E+00 0.17934620E+03</pdfrwt>
<pdfrwt beam="2">  1       -3 0.41761301E-02 0.17934620E+03</pdfrwt>
<totfact> 0.20787866E+02</totfact>
</mgrwt>
</event>
<event>
 6    1  0.6101889E-006  0.1709059E+03  0.7546771E-02  0.1182428E+00
          1   -1    0    0  501    0  0.00000000000E+00  0.00000000000E+00  0.82835211336E+02  0.82835211336E+02  0.00000000000E+00 0. -1.
         -1   -1    0    0    0  501 -0.00000000000E+00 -0.00000000000E+00 -0.32856315024E+03  0.32856315024E+03  0.00000000000E+00 0.  1.
          5    1    1    2  502    0  0.17332398921E+02 -0.32416131284E+02  0.11418674435E+02  0.38777490193E+02  0.47000000000E+01 0.  1.
         -5    1    1    2    0  502 -0.11211728074E+03 -0.35360082841E+02 -0.96328464625E+02  0.15205881493E+03  0.47000000000E+01 0.  1.
        -11    1    1    2    0    0  0.81416783228E+02  0.92050593921E+02 -0.12520752472E+03  0.17543924498E+03  0.00000000000E+00 0. -1.
         11    1    1    2    0    0  0.13368098594E+02 -0.24274379795E+02 -0.35610624003E+02  0.45122811485E+02  0.00000000000E+00 0.  1.
<mgrwt>
<rscale>  0 0.16568159E+03</rscale>
<asrwt>0</asrwt>
<pdfrwt beam="1">  1        1 0.12743878E-01 0.17090589E+03</pdfrwt>
<pdfrwt beam="2">  1       -1 0.50548178E-01 0.17090589E+03</pdfrwt>
<totfact> 0.18321566E+03</totfact>
</mgrwt>
</event>
<event>
 6    1  0.6894140E-006  0.1496595E+03  0.7546771E-02  0.1209967E+00
          1   -1    0    0  501    0  0.00000000000E+00  0.00000000000E+00  0.12278609066E+03  0.12278609066E+03  0.00000000000E+00 0. -1.
         -1   -1    0    0    0  501 -0.00000000000E+00 -0.00000000000E+00 -0.15308756541E+03  0.15308756541E+03  0.00000000000E+00 0.  1.
          5    1    1    2  502    0  0.22334490313E+02 -0.11191863172E+02 -0.61333319258E+02  0.66392419070E+02  0.47000000000E+01 0. -1.
         -5    1    1    2    0  502  0.37304239032E+02 -0.45511528108E+02  0.58754632889E+02  0.83289268975E+02  0.47000000000E+01 0. -1.
        -11    1    1    2    0    0 -0.20901436781E+02  0.47593944870E+02 -0.56733100478E+02  0.76946074218E+02  0.00000000000E+00 0.  1.
         11    1    1    2    0    0 -0.38737292564E+02  0.91094464103E+01  0.29010312095E+02  0.49245893808E+02  0.00000000000E+00 0. -1.
<mgrwt>
<rscale>  0 0.14252818E+03</rscale>
<asrwt>0</asrwt>
<pdfrwt beam="1">  1        1 0.18890168E-01 0.14965947E+03</pdfrwt>
<pdfrwt beam="2">  1       -1 0.23551933E-01 0.14965947E+03</pdfrwt>
<totfact> 0.40823074E+03</totfact>
</mgrwt>
</event>
<event>
 6    1  0.6101889E-006  0.1459748E+03  0.7546771E-02  0.1230887E+00
         -2   -1    0    0    0  501 -0.00000000000E+00  0.00000000000E+00  0.20758785071E+02  0.20758785071E+02  0.00000000000E+00 0.  1.
          2   -1    0    0  501    0  0.00000000000E+00 -0.00000000000E+00 -0.66316669869E+03  0.66316669869E+03  0.00000000000E+00 0. -1.
          5    1    1    2  502    0 -0.28607387553E+02 -0.18770041311E+02 -0.40878002925E+03  0.41023639451E+03  0.47000000000E+01 0. -1.
         -5    1    1    2    0  502  0.66382380844E+01  0.49340357183E+02 -0.48053371299E+02  0.69352386729E+02  0.47000000000E+01 0.  1.
        -11    1    1    2    0    0 -0.22341390850E+02 -0.34431050366E+02 -0.87623602739E+02  0.96760171204E+02  0.00000000000E+00 0. -1.
         11    1    1    2    0    0  0.44310540318E+02  0.38607344934E+01 -0.97950910333E+02  0.10757653131E+03  0.00000000000E+00 0.  1.
<mgrwt>
<rscale>  0 0.12771432E+03</rscale>
<asrwt>0</asrwt>
<pdfrwt beam="2">  1        2 0.10202563E+00 0.14597480E+03</pdfrwt>
<pdfrwt beam="1">  1       -2 0.31936596E-02 0.14597480E+03</pdfrwt>
<totfact> 0.16476150E+04</totfact>
</mgrwt>
</event>
<event>
 6    1  0.6101889E-006  0.1316001E+03  0.7546771E-02  0.1238040E+00
         -3   -1    0    0    0  501 -0.00000000000E+00  0.00000000000E+00  0.13434327436E+03  0.13434327436E+03  0.00000000000E+00 0.  1.
          3   -1    0    0  501    0  0.00000000000E+00 -0.00000000000E+00 -0.10548690815E+03  0.10548690815E+03  0.00000000000E+00 0. -1.
          5    1    1    2  502    0 -0.42997049365E+02  0.60898458934E+02 -0.37475626221E+02  0.83569618375E+02  0.47000000000E+01 0. -1.
         -5    1    1    2    0  502  0.86236263962E+01 -0.38267045331E+02  0.27919693280E+02  0.48376987953E+02  0.47000000000E+01 0. -1.
        -11    1    1    2    0    0 -0.11573184202E+02 -0.12139269217E+02 -0.24244507000E+02  0.29480443846E+02  0.00000000000E+00 0. -1.
         11    1    1    2    0    0  0.45946607171E+02 -0.10492144386E+02  0.62656806145E+02  0.78403132339E+02  0.00000000000E+00 0.  1.
<mgrwt>
<rscale>  0 0.12311809E+03</rscale>
<asrwt>0</asrwt>
<pdfrwt beam="2">  1        3 0.16228755E-01 0.13160012E+03</pdfrwt>
<pdfrwt beam="1">  1       -3 0.20668196E-01 0.13160012E+03</pdfrwt>
<totfact> 0.15667466E+03</totfact>
</mgrwt>
</event>
<event>
 6    1  0.6101889E-006  0.1344883E+03  0.7546771E-02  0.1235299E+00
         -1   -1    0    0    0  501 -0.00000000000E+00  0.00000000000E+00  0.63554053163E+02  0.63554053163E+02  0.00000000000E+00 0.  1.
          1   -1    0    0  501    0  0.00000000000E+00 -0.00000000000E+00 -0.21989573937E+03  0.21989573937E+03  0.00000000000E+00 0. -1.
          5    1    1    2  502    0 -0.24116026493E+02 -0.22501394228E+02  0.36843031354E+01  0.33519540056E+02  0.47000000000E+01 0. -1.
         -5    1    1    2    0  502  0.61903404929E+02  0.54653959299E+02 -0.11162047612E+03  0.13892554660E+03  0.47000000000E+01 0. -1.
        -11    1    1    2    0    0 -0.40172018234E+02 -0.89657428039E+01 -0.68707978058E+02  0.80093456923E+02  0.00000000000E+00 0. -1.
         11    1    1    2    0    0  0.23846397981E+01 -0.23186822267E+02  0.20302464833E+02  0.30911248957E+02  0.00000000000E+00 0.  1.
<mgrwt>
<rscale>  0 0.12485297E+03</rscale>
<asrwt>0</asrwt>
<pdfrwt beam="2">  1        1 0.33830114E-01 0.13448825E+03</pdfrwt>
<pdfrwt beam="1">  1       -1 0.97775466E-02 0.13448825E+03</pdfrwt>
<totfact> 0.77741980E+03</totfact>
</mgrwt>
</event>
<event>
 6    1  0.6101889E-006  0.1674810E+03  0.7546771E-02  0.1185866E+00
          2   -1    0    0  501    0  0.00000000000E+00  0.00000000000E+00  0.31625865152E+03  0.31625865152E+03  0.00000000000E+00 0. -1.
         -2   -1    0    0    0  501 -0.00000000000E+00 -0.00000000000E+00 -0.84306829223E+02  0.84306829223E+02  0.00000000000E+00 0.  1.
          5    1    1    2  502    0  0.16605844674E+02 -0.11134792245E+02  0.13877655298E+03  0.14028812969E+03  0.47000000000E+01 0.  1.
         -5    1    1    2    0  502  0.35543054136E+02 -0.87374034585E+02  0.34100239894E+02  0.10041138869E+03  0.47000000000E+01 0.  1.
        -11    1    1    2    0    0 -0.88344199327E+01  0.17716120179E+02  0.65054505526E+02  0.67999974846E+02  0.00000000000E+00 0. -1.
         11    1    1    2    0    0 -0.43314478877E+02  0.80792706652E+02 -0.59794761011E+01  0.91865987520E+02  0.00000000000E+00 0.  1.
<mgrwt>
<rscale>  0 0.16253341E+03</rscale>
<asrwt>0</asrwt>
<pdfrwt beam="1">  1        2 0.48655177E-01 0.16748096E+03</pdfrwt>
<pdfrwt beam="2">  1       -2 0.12970282E-01 0.16748096E+03</pdfrwt>
<totfact> 0.43708354E+03</totfact>
</mgrwt>
</event>
<event>
 6    1  0.6101889E-006  0.1383571E+03  0.7546771E-02  0.1228125E+00
         -2   -1    0    0    0  501 -0.00000000000E+00  0.00000000000E+00  0.18769534023E+03  0.18769534023E+03  0.00000000000E+00 0.  1.
          2   -1    0    0  501    0  0.00000000000E+00 -0.00000000000E+00 -0.88417037052E+02  0.88417037052E+02  0.00000000000E+00 0. -1.
          5    1    1    2  502    0 -0.25961457550E+02  0.70731610189E+02  0.32285307712E+02  0.82105962343E+02  0.47000000000E+01 0. -1.
         -5    1    1    2    0  502 -0.27641764167E+02 -0.45352423844E+02 -0.19653574232E+02  0.56826599889E+02  0.47000000000E+01 0. -1.
        -11    1    1    2    0    0 -0.10669262411E+02 -0.37391841414E+02  0.45818450354E+02  0.60094204026E+02  0.00000000000E+00 0.  1.
         11    1    1    2    0    0  0.64272484129E+02  0.12012655069E+02  0.40828119342E+02  0.77085611024E+02  0.00000000000E+00 0. -1.
<mgrwt>
<rscale>  0 0.12954994E+03</rscale>
<asrwt>0</asrwt>
<pdfrwt beam="2">  1        2 0.13602621E-01 0.13835713E+03</pdfrwt>
<pdfrwt beam="1">  1       -2 0.28876206E-01 0.13835713E+03</pdfrwt>
<totfact> 0.45914628E+03</totfact>
</mgrwt>
</event>
<event>
 6    1  0.6101889E-006  0.1320139E+03  0.7546771E-02  0.1236894E+00
          1   -1    0    0  501    0  0.00000000000E+00  0.00000000000E+00  0.48652488812E+02  0.48652488812E+02  0.00000000000E+00 0. -1.
         -1   -1    0    0    0  501 -0.00000000000E+00 -0.00000000000E+00 -0.28500760225E+03  0.28500760225E+03  0.00000000000E+00 0.  1.
          5    1    1    2  502    0  0.30835777672E+02  0.47450961956E+02 -0.10736766529E+02  0.57791064453E+02  0.47000000000E+01 0.  1.
         -5    1    1    2    0  502 -0.51977541222E+02 -0.10613330182E+02 -0.10516508079E+03  0.11788168554E+03  0.47000000000E+01 0.  1.
        -11    1    1    2    0    0  0.17931263088E+02  0.20953524033E+02 -0.38992151998E+01  0.27852903700E+02  0.00000000000E+00 0. -1.
         11    1    1    2    0    0  0.32105004612E+01 -0.57791155807E+02 -0.11655405092E+03  0.13013443737E+03  0.00000000000E+00 0.  1.
<mgrwt>
<rscale>  0 0.12383962E+03</rscale>
<asrwt>0</asrwt>
<pdfrwt beam="1">  1        1 0.74849982E-02 0.13201393E+03</pdfrwt>
<pdfrwt beam="2">  1       -1 0.43847324E-01 0.13201393E+03</pdfrwt>
<totfact> 0.47495933E+03</totfact>
</mgrwt>
</event>
<event>
 6    1  0.6101889E-006  0.1906534E+03  0.7546771E-02  0.1162573E+00
          1   -1    0    0  501    0  0.00000000000E+00  0.00000000000E+00  0.10248846977E+04  0.10248846977E+04  0.00000000000E+00 0. -1.
         -1   -1    0    0    0  501 -0.00000000000E+00 -0.00000000000E+00 -0.35324107854E+02  0.35324107854E+02  0.00000000000E+00 0.  1.
          5    1    1    2  502    0 -0.88031272021E+02  0.43390722524E+02  0.63317050854E+03  0.64074896998E+03  0.47000000000E+01 0.  1.
         -5    1    1    2    0  502 -0.46222463875E+02  0.85601710660E+01  0.51130485330E+02  0.69614719891E+02  0.47000000000E+01 0.  1.
        -11    1    1    2    0    0  0.11920338305E+03 -0.13224737547E+02  0.26967194783E+03  0.29513945799E+03  0.00000000000E+00 0. -1.
         11    1    1    2    0    0  0.15050352846E+02 -0.38726156043E+02  0.35587648147E+02  0.54705657690E+02  0.00000000000E+00 0.  1.
<mgrwt>
<rscale>  0 0.18551178E+03</rscale>
<asrwt>0</asrwt>
<pdfrwt beam="1">  1        1 0.15767455E+00 0.19065341E+03</pdfrwt>
<pdfrwt beam="2">  1       -1 0.54344789E-02 0.19065341E+03</pdfrwt>
<totfact> 0.23662013E+03</totfact>
</mgrwt>
</event>
<event>
 6    1  0.6101889E-006  0.1804312E+03  0.7546771E-02  0.1173042E+00
         -2   -1    0    0    0  501 -0.00000000000E+00  0.00000000000E+00  0.41070072151E+02  0.41070072151E+02  0.00000000000E+00 0.  1.
          2   -1    0    0  501    0  0.00000000000E+00 -0.00000000000E+00 -0.70124217200E+03  0.70124217200E+03  0.00000000000E+00 0. -1.
          5    1    1    2  502    0  0.95665398309E+02 -0.68937223353E+02 -0.32511154904E+03  0.34586676411E+03  0.47000000000E+01 0.  1.
         -5    1    1    2    0  502  0.24622352084E+02  0.19295215232E+02 -0.74657319130E+01  0.32502195403E+02  0.47000000000E+01 0.  1.
        -11    1    1    2    0    0 -0.78913213024E+02  0.45718530978E+02 -0.11227075254E+03  0.14464508682E+03  0.00000000000E+00 0.  1.
         11    1    1    2    0    0 -0.41374537370E+02  0.39234771431E+01 -0.21532406635E+03  0.21929819782E+03  0.00000000000E+00 0. -1.
<mgrwt>
<rscale>  0 0.17469140E+03</rscale>
<asrwt>0</asrwt>
<pdfrwt beam="2">  1        2 0.10788341E+00 0.18043121E+03</pdfrwt>
<pdfrwt beam="1">  1       -2 0.63184725E-02 0.18043121E+03</pdfrwt>
<totfact> 0.56051206E+03</totfact>
</mgrwt>
</event>
<event>
 6    1  0.6101889E-006  0.1365457E+03  0.7546771E-02  0.1230404E+00
         -1   -1    0    0    0  501 -0.00000000000E+00  0.00000000000E+00  0.12583008829E+02  0.12583008829E+02  0.00000000000E+00 0.  1.
          1   -1    0    0  501    0  0.00000000000E+00 -0.00000000000E+00 -0.13128887043E+04  0.13128887043E+04  0.00000000000E+00 0. -1.
          5    1    1    2  502    0 -0.21780202723E+02  0.39159607523E+02 -0.36137668686E+03  0.36417448002E+03  0.47000000000E+01 0. -1.
         -5    1    1    2    0  502  0.75644775961E+02 -0.49949964404E+02 -0.58382317865E+03  0.59083730841E+03  0.47000000000E+01 0. -1.
        -11    1    1    2    0    0 -0.57343137875E+02 -0.12934272963E+02 -0.33198883849E+03  0.33715296196E+03  0.00000000000E+00 0. -1.
         11    1    1    2    0    0  0.34785646378E+01  0.23724629844E+02 -0.23116991514E+02  0.33306962783E+02  0.00000000000E+00 0.  1.
<mgrwt>
<rscale>  0 0.12803278E+03</rscale>
<asrwt>0</asrwt>
<pdfrwt beam="2">  1        1 0.20198290E+00 0.13654571E+03</pdfrwt>
<pdfrwt beam="1">  1       -1 0.19358473E-02 0.13654571E+03</pdfrwt>
<totfact> 0.67160997E+03</totfact>
</mgrwt>
</event>
<event>
 6    1  0.6101889E-006  0.2613444E+03  0.7546771E-02  0.1108364E+00
          2   -1    0    0  501    0  0.00000000000E+00  0.00000000000E+00  0.85485042817E+02  0.85485042817E+02  0.00000000000E+00 0. -1.
         -2   -1    0    0    0  501 -0.00000000000E+00 -0.00000000000E+00 -0.87786139505E+03  0.87786139505E+03  0.00000000000E+00 0.  1.
          5    1    1    2  502    0 -0.11284027233E+03  0.11657873108E+03 -0.83306179077E+02  0.18244324342E+03  0.47000000000E+01 0. -1.
         -5    1    1    2    0  502 -0.10124861500E+02  0.77211313907E+02 -0.14466112503E+03  0.16435641426E+03  0.47000000000E+01 0. -1.
        -11    1    1    2    0    0  0.98148568614E+02 -0.67173275439E+02 -0.28238563995E+03  0.30640992168E+03  0.00000000000E+00 0.  1.
         11    1    1    2    0    0  0.24816565213E+02 -0.12661676954E+03 -0.28202340818E+03  0.31013685850E+03  0.00000000000E+00 0. -1.
<mgrwt>
<rscale>  0 0.25797829E+03</rscale>
<asrwt>0</asrwt>
<pdfrwt beam="1">  1        2 0.13151544E-01 0.26134443E+03</pdfrwt>
<pdfrwt beam="2">  1       -2 0.13505561E+00 0.26134443E+03</pdfrwt>
<totfact> 0.18975818E+02</totfact>
</mgrwt>
</event>
<event>
 6    1  0.6101889E-006  0.2878110E+03  0.7546771E-02  0.1091498E+00
          1   -1    0    0  501    0  0.00000000000E+00  0.00000000000E+00  0.30635462340E+02  0.30635462340E+02  0.00000000000E+00 0. -1.
         -1   -1    0    0    0  501 -0.00000000000E+00 -0.00000000000E+00 -0.67597439860E+03  0.67597439860E+03  0.00000000000E+00 0.  1.
          5    1    1    2  502    0 -0.22847597033E+02  0.83337724510E+01  0.27449416348E+01  0.24921660419E+02  0.47000000000E+01 0.  1.
         -5    1    1    2    0  502 -0.46829827163E+02 -0.65472136050E+02 -0.29063968685E+03  0.30161755732E+03  0.47000000000E+01 0.  1.
        -11    1    1    2    0    0  0.17515633080E+02  0.68924205624E+02 -0.15253304623E+03  0.16829638652E+03  0.00000000000E+00 0. -1.
         11    1    1    2    0    0  0.52161791116E+02 -0.11785842025E+02 -0.20491114481E+03  0.21177425668E+03  0.00000000000E+00 0.  1.
<mgrwt>
<rscale>  0 0.28781097E+03</rscale>
<asrwt>0</asrwt>
<pdfrwt beam="1">  1        1 0.47131482E-02 0.28781097E+03</pdfrwt>
<pdfrwt beam="2">  1       -1 0.10399606E+00 0.28781097E+03</pdfrwt>
<totfact> 0.16683745E+03</totfact>
</mgrwt>
</event>
<event>
 6    1  0.6101889E-006  0.2760934E+03  0.7546771E-02  0.1097842E+00
          2   -1    0    0  501    0  0.00000000000E+00  0.00000000000E+00  0.25938754721E+03  0.25938754721E+03  0.00000000000E+00 0. -1.
         -2   -1    0    0    0  501 -0.00000000000E+00 -0.00000000000E+00 -0.73468818060E+02  0.73468818060E+02  0.00000000000E+00 0.  1.
          5    1    1    2  502    0 -0.84895074138E-01 -0.28913472714E+02  0.10390330253E+03  0.10795361221E+03  0.47000000000E+01 0. -1.
         -5    1    1    2    0  502 -0.80091514552E+02  0.31845070508E+02  0.28167197034E+02  0.90797798474E+02  0.47000000000E+01 0. -1.
        -11    1    1    2    0    0  0.31525014662E+02  0.33491005297E+02 -0.87924354836E+01  0.46827138574E+02  0.00000000000E+00 0. -1.
         11    1    1    2    0    0  0.48651394965E+02 -0.36422603091E+02  0.62640665064E+02  0.87277816011E+02  0.00000000000E+00 0.  1.
<mgrwt>
<rscale>  0 0.27609344E+03</rscale>
<asrwt>0</asrwt>
<pdfrwt beam="1">  1        2 0.39905776E-01 0.27609344E+03</pdfrwt>
<pdfrwt beam="2">  1       -2 0.11302895E-01 0.27609344E+03</pdfrwt>
<totfact> 0.69282733E+03</totfact>
</mgrwt>
</event>
<event>
 6    1  0.6101889E-006  0.2085649E+03  0.7546771E-02  0.1146011E+00
         -1   -1    0    0    0  501 -0.00000000000E+00  0.00000000000E+00  0.71056304417E+02  0.71056304417E+02  0.00000000000E+00 0.  1.
          1   -1    0    0  501    0  0.00000000000E+00 -0.00000000000E+00 -0.57074123656E+03  0.57074123656E+03  0.00000000000E+00 0. -1.
          5    1    1    2  502    0 -0.29207612355E+02  0.69857446171E+01 -0.59337821476E+01  0.30970712261E+02  0.47000000000E+01 0. -1.
         -5    1    1    2    0  502 -0.55726936726E+02 -0.15072765743E+03 -0.28125853631E+03  0.32396415302E+03  0.47000000000E+01 0. -1.
        -11    1    1    2    0    0  0.51023189838E+01  0.24009998075E+02  0.59704091470E+01  0.25261818065E+02  0.00000000000E+00 0.  1.
         11    1    1    2    0    0  0.79832230097E+02  0.11973191474E+03 -0.21846302283E+03  0.26160085763E+03  0.00000000000E+00 0. -1.
<mgrwt>
<rscale>  0 0.20448287E+03</rscale>
<asrwt>0</asrwt>
<pdfrwt beam="2">  1        1 0.87806351E-01 0.20856493E+03</pdfrwt>
<pdfrwt beam="1">  1       -1 0.10931738E-01 0.20856493E+03</pdfrwt>
<totfact> 0.19874685E+03</totfact>
</mgrwt>
</event>
<event>
 6    1  0.6101889E-006  0.1444710E+03  0.7546771E-02  0.1217319E+00
         -2   -1    0    0    0  501 -0.00000000000E+00  0.00000000000E+00  0.18482023428E+03  0.18482023428E+03  0.00000000000E+00 0.  1.
          2   -1    0    0  501    0  0.00000000000E+00 -0.00000000000E+00 -0.11151545082E+03  0.11151545082E+03  0.00000000000E+00 0. -1.
          5    1    1    2  502    0  0.34087659205E+02 -0.70148835525E+02  0.16572027114E+02  0.79872083472E+02  0.47000000000E+01 0. -1.
         -5    1    1    2    0  502  0.33048129347E+02  0.42954827945E+02 -0.37579963618E+02  0.66118376891E+02  0.47000000000E+01 0. -1.
        -11    1    1    2    0    0 -0.64926431941E+02 -0.14029379113E+02  0.85261077166E+02  0.10808198889E+03  0.00000000000E+00 0. -1.
         11    1    1    2    0    0 -0.22093566105E+01  0.41223386693E+02  0.90516428000E+01  0.42263235850E+02  0.00000000000E+00 0.  1.
<mgrwt>
<rscale>  0 0.13707571E+03</rscale>
<asrwt>0</asrwt>
<pdfrwt beam="2">  1        2 0.17156223E-01 0.14447104E+03</pdfrwt>
<pdfrwt beam="1">  1       -2 0.28433882E-01 0.14447104E+03</pdfrwt>
<totfact> 0.36072552E+03</totfact>
</mgrwt>
</event>
<event>
 6    1  0.6101889E-006  0.1615089E+03  0.7546771E-02  0.1216429E+00
          3   -1    0    0  501    0  0.00000000000E+00  0.00000000000E+00  0.19693266659E+02  0.19693266659E+02  0.00000000000E+00 0. -1.
         -3   -1    0    0    0  501 -0.00000000000E+00 -0.00000000000E+00 -0.79314557057E+03  0.79314557057E+03  0.00000000000E+00 0.  1.
          5    1    1    2  502    0 -0.12825137436E+02  0.61667493366E+02 -0.69618249828E+02  0.94000822323E+02  0.47000000000E+01 0. -1.
         -5    1    1    2    0  502 -0.10401155229E+02 -0.54688193869E+02 -0.37306440626E+03  0.37722423544E+03  0.47000000000E+01 0.  1.
        -11    1    1    2    0    0  0.34720856162E+02  0.27150964292E+02 -0.12105807792E+03  0.12883233656E+03  0.00000000000E+00 0. -1.
         11    1    1    2    0    0 -0.11494563497E+02 -0.34130263788E+02 -0.20971156990E+03  0.21278144291E+03  0.00000000000E+00 0.  1.
<mgrwt>
<rscale>  0 0.13772056E+03</rscale>
<asrwt>0</asrwt>
<pdfrwt beam="1">  1        3 0.30297338E-02 0.16150889E+03</pdfrwt>
<pdfrwt beam="2">  1       -3 0.12202238E+00 0.16150889E+03</pdfrwt>
<totfact> 0.67746167E+02</totfact>
</mgrwt>
</event>
<event>
 6    1  0.6101889E-006  0.1383869E+03  0.7546771E-02  0.1227358E+00
          2   -1    0    0  501    0  0.00000000000E+00  0.00000000000E+00  0.16824925764E+04  0.16824925764E+04  0.00000000000E+00 0.  1.
         -2   -1    0    0    0  501 -0.00000000000E+00 -0.00000000000E+00 -0.11238808228E+02  0.11238808228E+02  0.00000000000E+00 0. -1.
          5    1    1    2  502    0 -0.22080368564E+02 -0.80064428849E+02  0.10182520070E+04  0.10216443095E+04  0.47000000000E+01 0.  1.
         -5    1    1    2    0  502 -0.22007617231E+02  0.41235220688E+02  0.27415016809E+03  0.27814579505E+03  0.47000000000E+01 0.  1.
        -11    1    1    2    0    0  0.70757631072E+00  0.57377692405E+02  0.15775753622E+03  0.16786941498E+03  0.00000000000E+00 0. -1.
         11    1    1    2    0    0  0.43380409485E+02 -0.18548484244E+02  0.22109405687E+03  0.22607186507E+03  0.00000000000E+00 0.  1.
<mgrwt>
<rscale>  0 0.13006611E+03</rscale>
<asrwt>0</asrwt>
<pdfrwt beam="1">  1        2 0.25884481E+00 0.13838690E+03</pdfrwt>
<pdfrwt beam="2">  1       -2 0.17290488E-02 0.13838690E+03</pdfrwt>
<totfact> 0.10226696E+04</totfact>
</mgrwt>
</event>
<event>
 6    1  0.6101889E-006  0.1269691E+03  0.7546771E-02  0.1251107E+00
         -1   -1    0    0    0  501 -0.00000000000E+00  0.00000000000E+00  0.93065458937E+01  0.93065458937E+01  0.00000000000E+00 0.  1.
          1   -1    0    0  501    0  0.00000000000E+00 -0.00000000000E+00 -0.17553894415E+04  0.17553894415E+04  0.00000000000E+00 0. -1.
          5    1    1    2  502    0 -0.18932817341E+02 -0.45530397316E+02 -0.13664205394E+04  0.13673180497E+04  0.47000000000E+01 0.  1.
         -5    1    1    2    0  502  0.20022869249E+02  0.23270290511E+02 -0.10306222637E+03  0.10763983565E+03  0.47000000000E+01 0.  1.
        -11    1    1    2    0    0 -0.13455147219E+02  0.51190522749E+02 -0.14293826988E+03  0.15242329088E+03  0.00000000000E+00 0.  1.
         11    1    1    2    0    0  0.12365095312E+02 -0.28930415944E+02 -0.13366185999E+03  0.13731481117E+03  0.00000000000E+00 0. -1.
<mgrwt>
<rscale>  0 0.11527209E+03</rscale>
<asrwt>0</asrwt>
<pdfrwt beam="2">  1        1 0.27006005E+00 0.12696915E+03</pdfrwt>
<pdfrwt beam="1">  1       -1 0.14317756E-02 0.12696915E+03</pdfrwt>
<totfact> 0.53434658E+03</totfact>
</mgrwt>
</event>
<event>
 6    1  0.6101889E-006  0.3370281E+03  0.7546771E-02  0.1068069E+00
         -1   -1    0    0    0  501 -0.00000000000E+00  0.00000000000E+00  0.14986744320E+02  0.14986744320E+02  0.00000000000E+00 0.  1.
          1   -1    0    0  501    0  0.00000000000E+00 -0.00000000000E+00 -0.18948064208E+04  0.18948064208E+04  0.00000000000E+00 0. -1.
          5    1    1    2  502    0  0.23333385015E+02 -0.84569573374E+02 -0.44246792963E+03  0.45110577291E+03  0.47000000000E+01 0.  1.
         -5    1    1    2    0  502 -0.18112409497E+02 -0.16997478467E+02 -0.10028711088E+04  0.10031896753E+04  0.47000000000E+01 0.  1.
        -11    1    1    2    0    0  0.16881127740E+02  0.67375716546E+02 -0.38595439097E+03  0.39215462711E+03  0.00000000000E+00 0. -1.
         11    1    1    2    0    0 -0.22102103258E+02  0.34191335295E+02 -0.48526247088E+02  0.63343089869E+02  0.00000000000E+00 0.  1.
<mgrwt>
<rscale>  0 0.33702807E+03</rscale>
<asrwt>0</asrwt>
<pdfrwt beam="2">  1        1 0.29150854E+00 0.33702807E+03</pdfrwt>
<pdfrwt beam="1">  1       -1 0.23056541E-02 0.33702807E+03</pdfrwt>
<totfact> 0.21918483E+03</totfact>
</mgrwt>
</event>
<event>
 6    1  0.6101889E-006  0.3783915E+03  0.7546771E-02  0.1051530E+00
          2   -1    0    0  501    0  0.00000000000E+00  0.00000000000E+00  0.23075524670E+04  0.23075524670E+04  0.00000000000E+00 0. -1.
         -2   -1    0    0    0  501 -0.00000000000E+00 -0.00000000000E+00 -0.15512121442E+02  0.15512121442E+02  0.00000000000E+00 0.  1.
          5    1    1    2  502    0  0.93779017570E+02 -0.68033890332E+02  0.17448506247E+04  0.17486992042E+04  0.47000000000E+01 0.  1.
         -5    1    1    2    0  502 -0.28306485056E+02  0.11816997531E+02  0.24842839672E+03  0.25035905581E+03  0.47000000000E+01 0.  1.
        -11    1    1    2    0    0 -0.44696239957E+02  0.33576137400E+02  0.28483518723E+03  0.29026917638E+03  0.00000000000E+00 0. -1.
         11    1    1    2    0    0 -0.20776292557E+02  0.22640755402E+02  0.13926136900E+02  0.33737152022E+02  0.00000000000E+00 0.  1.
<mgrwt>
<rscale>  0 0.37839151E+03</rscale>
<asrwt>0</asrwt>
<pdfrwt beam="1">  1        2 0.35500780E+00 0.37839151E+03</pdfrwt>
<pdfrwt beam="2">  1       -2 0.23864820E-02 0.37839151E+03</pdfrwt>
<totfact> 0.30188115E+03</totfact>
</mgrwt>
</event>
<event>
 6    1  0.6101889E-006  0.2227452E+03  0.7546771E-02  0.1135112E+00
         -2   -1    0    0    0  501 -0.00000000000E+00  0.00000000000E+00  0.92962931090E+02  0.92962931090E+02  0.00000000000E+00 0.  1.
          2   -1    0    0  501    0  0.00000000000E+00 -0.00000000000E+00 -0.52140423857E+03  0.52140423857E+03  0.00000000000E+00 0. -1.
          5    1    1    2  502    0 -0.13849428316E+03 -0.45194961582E+02 -0.14477092132E+03  0.20543602576E+03  0.47000000000E+01 0. -1.
         -5    1    1    2    0  502 -0.84482311101E+01 -0.66160113157E+02 -0.14829364220E+03  0.16267030306E+03  0.47000000000E+01 0. -1.
        -11    1    1    2    0    0  0.30605733408E+02  0.34308032945E+02 -0.87313797053E+02  0.98678524502E+02  0.00000000000E+00 0. -1.
         11    1    1    2    0    0  0.11633678086E+03  0.77047041794E+02 -0.48062946909E+02  0.14758231634E+03  0.00000000000E+00 0.  1.
<mgrwt>
<rscale>  0 0.21835912E+03</rscale>
<asrwt>0</asrwt>
<pdfrwt beam="2">  1        2 0.80216034E-01 0.22274522E+03</pdfrwt>
<pdfrwt beam="1">  1       -2 0.14301990E-01 0.22274522E+03</pdfrwt>
<totfact> 0.21855355E+03</totfact>
</mgrwt>
</event>
<event>
 6    1  0.6101889E-006  0.1208567E+03  0.7546771E-02  0.1252940E+00
          2   -1    0    0  501    0  0.00000000000E+00  0.00000000000E+00  0.10582011414E+03  0.10582011414E+03  0.00000000000E+00 0. -1.
         -2   -1    0    0    0  501 -0.00000000000E+00 -0.00000000000E+00 -0.39009658172E+03  0.39009658172E+03  0.00000000000E+00 0.  1.
          5    1    1    2  502    0 -0.31660554125E+02 -0.56630996421E+02  0.76811220008E+02  0.10065542192E+03  0.47000000000E+01 0. -1.
         -5    1    1    2    0  502  0.11510196614E+02  0.29845286281E+02 -0.14367234705E+02  0.35379841327E+02  0.47000000000E+01 0.  1.
        -11    1    1    2    0    0 -0.17342348510E+01  0.57700067168E+02 -0.18566054593E+03  0.19442773371E+03  0.00000000000E+00 0.  1.
         11    1    1    2    0    0  0.21884592362E+02 -0.30914357028E+02 -0.16105990696E+03  0.16545369891E+03  0.00000000000E+00 0. -1.
<mgrwt>
<rscale>  0 0.11422494E+03</rscale>
<asrwt>0</asrwt>
<pdfrwt beam="1">  1        2 0.16280018E-01 0.12085670E+03</pdfrwt>
<pdfrwt beam="2">  1       -2 0.60014858E-01 0.12085670E+03</pdfrwt>
<totfact> 0.91415654E+02</totfact>
</mgrwt>
</event>
<event>
 6    1  0.6101889E-006  0.2066020E+03  0.7546771E-02  0.1181109E+00
         -2   -1    0    0    0  501 -0.00000000000E+00  0.00000000000E+00  0.29318427531E+02  0.29318427531E+02  0.00000000000E+00 0.  1.
          2   -1    0    0  501    0  0.00000000000E+00 -0.00000000000E+00 -0.75116308853E+03  0.75116308853E+03  0.00000000000E+00 0. -1.
          5    1    1    2  502    0  0.77840434561E+02  0.31570247680E+02 -0.43046717556E+03  0.43861132341E+03  0.47000000000E+01 0. -1.
         -5    1    1    2    0  502 -0.79655873546E+02 -0.37660428917E+02 -0.11699580426E+03  0.14653830322E+03  0.47000000000E+01 0.  1.
        -11    1    1    2    0    0 -0.33112663844E+02 -0.19977185840E+00 -0.14651098047E+03  0.15020637740E+03  0.00000000000E+00 0. -1.
         11    1    1    2    0    0  0.34928102829E+02  0.62899530953E+01 -0.27870700716E+02  0.45125512025E+02  0.00000000000E+00 0.  1.
<mgrwt>
<rscale>  0 0.16691007E+03</rscale>
<asrwt>0</asrwt>
<pdfrwt beam="2">  1        2 0.11556355E+00 0.20660196E+03</pdfrwt>
<pdfrwt beam="1">  1       -2 0.45105276E-02 0.20660196E+03</pdfrwt>
<totfact> 0.86569501E+03</totfact>
</mgrwt>
</event>
<event>
 6    1  0.6101889E-006  0.2150207E+03  0.7546771E-02  0.1141219E+00
          1   -1    0    0  501    0  0.00000000000E+00  0.00000000000E+00  0.70833440399E+03  0.70833440399E+03  0.00000000000E+00 0. -1.
         -1   -1    0    0    0  501 -0.00000000000E+00 -0.00000000000E+00 -0.83170542636E+02  0.83170542636E+02  0.00000000000E+00 0.  1.
          5    1    1    2  502    0 -0.58948854782E+02  0.60731169084E+02  0.10330618787E+03  0.13363196037E+03  0.47000000000E+01 0. -1.
         -5    1    1    2    0  502 -0.98880243329E+02  0.14751986646E+02  0.42775329864E+03  0.43930615535E+03  0.47000000000E+01 0. -1.
        -11    1    1    2    0    0 -0.73504270287E+01 -0.22198543140E+02  0.15362652994E+02  0.27978834895E+02  0.00000000000E+00 0.  1.
         11    1    1    2    0    0  0.16517952514E+03 -0.53284612591E+02  0.78741721839E+02  0.19058799601E+03  0.00000000000E+00 0. -1.
<mgrwt>
<rscale>  0 0.21043889E+03</rscale>
<asrwt>0</asrwt>
<pdfrwt beam="1">  1        1 0.10897452E+00 0.21502071E+03</pdfrwt>
<pdfrwt beam="2">  1       -1 0.12795469E-01 0.21502071E+03</pdfrwt>
<totfact> 0.11475531E+03</totfact>
</mgrwt>
</event>
<event>
 6    1  0.6101889E-006  0.1267447E+03  0.7546771E-02  0.1245112E+00
         -2   -1    0    0    0  501 -0.00000000000E+00  0.00000000000E+00  0.29108377494E+02  0.29108377494E+02  0.00000000000E+00 0.  1.
          2   -1    0    0  501    0  0.00000000000E+00 -0.00000000000E+00 -0.43364517876E+03  0.43364517876E+03  0.00000000000E+00 0. -1.
          5    1    1    2  502    0  0.14772455696E+02  0.34338640409E+02 -0.21487673196E+03  0.21815468735E+03  0.47000000000E+01 0. -1.
         -5    1    1    2    0  502  0.31096177525E+01 -0.45273407953E+02 -0.22339904396E+02  0.50798745247E+02  0.47000000000E+01 0. -1.
        -11    1    1    2    0    0 -0.22189601158E+02 -0.29347710769E+02 -0.21843525042E+02  0.42787920178E+02  0.00000000000E+00 0.  1.
         11    1    1    2    0    0  0.43075277095E+01  0.40282478313E+02 -0.14547663987E+03  0.15101220348E+03  0.00000000000E+00 0. -1.
<mgrwt>
<rscale>  0 0.11878688E+03</rscale>
<asrwt>0</asrwt>
<pdfrwt beam="2">  1        2 0.66714637E-01 0.12674469E+03</pdfrwt>
<pdfrwt beam="1">  1       -2 0.44782123E-02 0.12674469E+03</pdfrwt>
<totfact> 0.15848757E+04</totfact>
</mgrwt>
</event>
<event>
 6    1  0.6101889E-006  0.1481231E+03  0.7546771E-02  0.1212410E+00
          2   -1    0    0  501    0  0.00000000000E+00  0.00000000000E+00  0.42887612383E+02  0.42887612383E+02  0.00000000000E+00 0. -1.
         -2   -1    0    0    0  501 -0.00000000000E+00 -0.00000000000E+00 -0.42090926597E+03  0.42090926597E+03  0.00000000000E+00 0.  1.
          5    1    1    2  502    0 -0.50225704281E+02  0.48048927297E+02 -0.21406026515E+03  0.22511154546E+03  0.47000000000E+01 0.  1.
         -5    1    1    2    0  502 -0.20913831079E+02 -0.12612178336E+02  0.10198720009E+02  0.26880462470E+02  0.47000000000E+01 0.  1.
        -11    1    1    2    0    0 -0.44056759047E+00  0.24956312611E+02 -0.53735218527E+02  0.59249348934E+02  0.00000000000E+00 0.  1.
         11    1    1    2    0    0  0.71580102950E+02 -0.60393061573E+02 -0.12042488992E+03  0.15255552149E+03  0.00000000000E+00 0. -1.
<mgrwt>
<rscale>  0 0.14068525E+03</rscale>
<asrwt>0</asrwt>
<pdfrwt beam="1">  1        2 0.65980943E-02 0.14812307E+03</pdfrwt>
<pdfrwt beam="2">  1       -2 0.64755271E-01 0.14812307E+03</pdfrwt>
<totfact> 0.23734469E+03</totfact>
</mgrwt>
</event>
<event>
 6    1  0.6101889E-006  0.1299756E+03  0.7546771E-02  0.1245079E+00
         -1   -1    0    0    0  501 -0.00000000000E+00  0.00000000000E+00  0.31809751892E+02  0.31809751892E+02  0.00000000000E+00 0.  1.
          1   -1    0    0  501    0  0.00000000000E+00 -0.00000000000E+00 -0.51288105747E+03  0.51288105747E+03  0.00000000000E+00 0. -1.
          5    1    1    2  502    0  0.67481737744E+02 -0.10077171719E+02 -0.36388766834E+03  0.37025890873E+03  0.47000000000E+01 0. -1.
         -5    1    1    2    0  502 -0.32746024394E+02  0.17785976450E+02 -0.44073300570E+02  0.57906725818E+02  0.47000000000E+01 0. -1.
        -11    1    1    2    0    0  0.58365259498E+01 -0.16358066278E+02 -0.73003538571E+02  0.75041108810E+02  0.00000000000E+00 0. -1.
         11    1    1    2    0    0 -0.40572239300E+02  0.86492615475E+01 -0.10679809905E+00  0.41484066013E+02  0.00000000000E+00 0.  1.
<mgrwt>
<rscale>  0 0.11880675E+03</rscale>
<asrwt>0</asrwt>
<pdfrwt beam="2">  1        1 0.78904773E-01 0.12997561E+03</pdfrwt>
<pdfrwt beam="1">  1       -1 0.48938083E-02 0.12997561E+03</pdfrwt>
<totfact> 0.75726195E+03</totfact>
</mgrwt>
</event>
<event>
 6    1  0.6101889E-006  0.2780600E+03  0.7546771E-02  0.1096753E+00
         -1   -1    0    0    0  501 -0.00000000000E+00  0.00000000000E+00  0.85830803509E+02  0.85830803509E+02  0.00000000000E+00 0.  1.
          1   -1    0    0  501    0  0.00000000000E+00 -0.00000000000E+00 -0.22520288763E+03  0.22520288763E+03  0.00000000000E+00 0. -1.
          5    1    1    2  502    0 -0.11266594300E+01 -0.31268561007E+02 -0.59401102930E+02  0.67302104709E+02  0.47000000000E+01 0.  1.
         -5    1    1    2    0  502 -0.40461490719E+02  0.97309449795E+02 -0.54904947454E+02  0.11892394421E+03  0.47000000000E+01 0.  1.
        -11    1    1    2    0    0  0.17539555813E+02 -0.35201955937E+02  0.35321980786E+02  0.52862614829E+02  0.00000000000E+00 0.  1.
         11    1    1    2    0    0  0.24048594336E+02 -0.30838932851E+02 -0.60388014523E+02  0.71945027396E+02  0.00000000000E+00 0. -1.
<mgrwt>
<rscale>  0 0.27806003E+03</rscale>
<asrwt>0</asrwt>
<pdfrwt beam="2">  1        1 0.34646598E-01 0.27806003E+03</pdfrwt>
<pdfrwt beam="1">  1       -1 0.13204739E-01 0.27806003E+03</pdfrwt>
<totfact> 0.49351551E+03</totfact>
</mgrwt>
</event>
<event>
 6    1  0.6101889E-006  0.1501584E+03  0.7546771E-02  0.1216693E+00
         -2   -1    0    0    0  501 -0.00000000000E+00  0.00000000000E+00  0.91934330722E+02  0.91934330722E+02  0.00000000000E+00 0. -1.
          2   -1    0    0  501    0  0.00000000000E+00 -0.00000000000E+00 -0.21696024407E+03  0.21696024407E+03  0.00000000000E+00 0.  1.
          5    1    1    2  502    0 -0.69044485960E+00  0.52575124923E+02 -0.15291446865E+03  0.16177003800E+03  0.47000000000E+01 0.  1.
         -5    1    1    2    0  502 -0.26065829993E+02  0.26204137704E+02  0.16826001453E+02  0.40881397370E+02  0.47000000000E+01 0.  1.
        -11    1    1    2    0    0 -0.53360591903E+01 -0.48659053993E+02 -0.19465542512E+02  0.52679069927E+02  0.00000000000E+00 0.  1.
         11    1    1    2    0    0  0.32092334043E+02 -0.30120208635E+02  0.30528096360E+02  0.53564069486E+02  0.00000000000E+00 0. -1.
<mgrwt>
<rscale>  0 0.13752941E+03</rscale>
<asrwt>0</asrwt>
<pdfrwt beam="2">  1        2 0.33378499E-01 0.15015836E+03</pdfrwt>
<pdfrwt beam="1">  1       -2 0.14143743E-01 0.15015836E+03</pdfrwt>
<totfact> 0.56487481E+03</totfact>
</mgrwt>
</event>
<event>
 6    1  0.6101889E-006  0.2263157E+03  0.7546771E-02  0.1165730E+00
         -1   -1    0    0    0  501 -0.00000000000E+00  0.00000000000E+00  0.67249350003E+02  0.67249350003E+02  0.00000000000E+00 0.  1.
          1   -1    0    0  501    0  0.00000000000E+00 -0.00000000000E+00 -0.53685482127E+03  0.53685482127E+03  0.00000000000E+00 0. -1.
          5    1    1    2  502    0 -0.75193643842E+02  0.42640847231E+02 -0.73929121848E+02  0.11384169264E+03  0.47000000000E+01 0. -1.
         -5    1    1    2    0  502  0.90082331796E+02 -0.46491180610E+02 -0.38083731686E+03  0.39412613246E+03  0.47000000000E+01 0.  1.
        -11    1    1    2    0    0  0.35903327747E+02  0.11869447125E+02  0.98777262156E+01  0.39083272555E+02  0.00000000000E+00 0.  1.
         11    1    1    2    0    0 -0.50792015701E+02 -0.80191137459E+01 -0.24716758774E+02  0.57053073612E+02  0.00000000000E+00 0. -1.
<mgrwt>
<rscale>  0 0.18215826E+03</rscale>
<asrwt>0</asrwt>
<pdfrwt beam="2">  1        1 0.82593051E-01 0.22631570E+03</pdfrwt>
<pdfrwt beam="1">  1       -1 0.10346054E-01 0.22631570E+03</pdfrwt>
<totfact> 0.23559122E+03</totfact>
</mgrwt>
</event>
<event>
 6    1  0.6101889E-006  0.1604158E+03  0.7546771E-02  0.1195478E+00
          1   -1    0    0  501    0  0.00000000000E+00  0.00000000000E+00  0.28439679394E+03  0.28439679394E+03  0.00000000000E+00 0. -1.
         -1   -1    0    0    0  501 -0.00000000000E+00 -0.00000000000E+00 -0.10060627297E+03  0.10060627297E+03  0.00000000000E+00 0.  1.
          5    1    1    2  502    0  0.37819841345E+02 -0.81839879205E+02  0.12335492547E+03  0.15286148588E+03  0.47000000000E+01 0. -1.
         -5    1    1    2    0  502 -0.67076866255E+02 -0.14353467996E+02  0.65973048334E+02  0.95288305351E+02  0.47000000000E+01 0. -1.
        -11    1    1    2    0    0 -0.72489878548E+01  0.55897624925E+02  0.37336665807E+02  0.67610050368E+02  0.00000000000E+00 0. -1.
         11    1    1    2    0    0  0.36506012764E+02  0.40295722276E+02 -0.42874118639E+02  0.69243225306E+02  0.00000000000E+00 0.  1.
<mgrwt>
<rscale>  0 0.15413819E+03</rscale>
<asrwt>0</asrwt>
<pdfrwt beam="1">  1        1 0.43753352E-01 0.16041583E+03</pdfrwt>
<pdfrwt beam="2">  1       -1 0.15477888E-01 0.16041583E+03</pdfrwt>
<totfact> 0.28013160E+03</totfact>
</mgrwt>
</event>
<event>
 6    1  0.6101889E-006  0.3288231E+03  0.7546771E-02  0.1071659E+00
          2   -1    0    0  501    0  0.00000000000E+00  0.00000000000E+00  0.80135329592E+03  0.80135329592E+03  0.00000000000E+00 0. -1.
         -2   -1    0    0    0  501 -0.00000000000E+00 -0.00000000000E+00 -0.33731888519E+02  0.33731888519E+02  0.00000000000E+00 0.  1.
          5    1    1    2  502    0 -0.46962725510E+01 -0.11457069906E+02  0.19834591582E+00  0.13245707524E+02  0.47000000000E+01 0. -1.
         -5    1    1    2    0  502  0.10096953757E+03 -0.29130017730E+02  0.57670042165E+03  0.58621572120E+03  0.47000000000E+01 0. -1.
        -11    1    1    2    0    0 -0.82501434503E+02  0.16947203507E+02  0.63465278077E+02  0.10545869297E+03  0.00000000000E+00 0.  1.
         11    1    1    2    0    0 -0.13771830518E+02  0.23639884129E+02  0.12725736176E+03  0.13016506274E+03  0.00000000000E+00 0. -1.
<mgrwt>
<rscale>  0 0.32882311E+03</rscale>
<asrwt>0</asrwt>
<pdfrwt beam="1">  1        2 0.12328511E+00 0.32882311E+03</pdfrwt>
<pdfrwt beam="2">  1       -2 0.51895219E-02 0.32882311E+03</pdfrwt>
<totfact> 0.65675639E+03</totfact>
</mgrwt>
</event>
<event>
 6    1  0.6101889E-006  0.1294220E+03  0.7546771E-02  0.1241047E+00
          4   -1    0    0  501    0  0.00000000000E+00  0.00000000000E+00  0.80081335731E+02  0.80081335731E+02  0.00000000000E+00 0. -1.
         -4   -1    0    0    0  501 -0.00000000000E+00 -0.00000000000E+00 -0.16679553303E+03  0.16679553303E+03  0.00000000000E+00 0.  1.
          5    1    1    2  502    0  0.51563649266E+02 -0.26834291824E+02 -0.49862932424E+02  0.76728685466E+02  0.47000000000E+01 0. -1.
         -5    1    1    2    0  502 -0.25247444782E+02  0.47645486998E+02  0.17123801659E+02  0.56770066783E+02  0.47000000000E+01 0. -1.
        -11    1    1    2    0    0  0.12282635541E+02 -0.49452568599E+02 -0.34402197403E+02  0.61481142337E+02  0.00000000000E+00 0.  1.
         11    1    1    2    0    0 -0.38598840026E+02  0.28641373425E+02 -0.19572869134E+02  0.51896974181E+02  0.00000000000E+00 0. -1.
<mgrwt>
<rscale>  0 0.12125134E+03</rscale>
<asrwt>0</asrwt>
<pdfrwt beam="1">  1        4 0.12320206E-01 0.12942205E+03</pdfrwt>
<pdfrwt beam="2">  1       -4 0.25660851E-01 0.12942205E+03</pdfrwt>
<totfact> 0.12364673E+03</totfact>
</mgrwt>
</event>
<event>
 6    1  0.6101889E-006  0.1218820E+03  0.7546771E-02  0.1253431E+00
         -4   -1    0    0    0  501 -0.00000000000E+00  0.00000000000E+00  0.37491141619E+03  0.37491141619E+03  0.00000000000E+00 0.  1.
          4   -1    0    0  501    0  0.00000000000E+00 -0.00000000000E+00 -0.33581631410E+02  0.33581631410E+02  0.00000000000E+00 0. -1.
          5    1    1    2  502    0  0.45149632124E+02  0.38761737687E+02  0.53097504871E+02  0.79889903073E+02  0.47000000000E+01 0. -1.
         -5    1    1    2    0  502 -0.53861559822E+02 -0.28076351320E+02  0.80454622719E+02  0.10091771622E+03  0.47000000000E+01 0.  1.
        -11    1    1    2    0    0  0.49997408821E+02  0.58338973916E+00  0.12117689138E+03  0.13108745263E+03  0.00000000000E+00 0. -1.
         11    1    1    2    0    0 -0.41285481122E+02 -0.11268776106E+02  0.86600765813E+02  0.96597975682E+02  0.00000000000E+00 0.  1.
<mgrwt>
<rscale>  0 0.11394662E+03</rscale>
<asrwt>0</asrwt>
<pdfrwt beam="2">  1        4 0.51664051E-02 0.12188201E+03</pdfrwt>
<pdfrwt beam="1">  1       -4 0.57678677E-01 0.12188201E+03</pdfrwt>
<totfact> 0.10539641E+03</totfact>
</mgrwt>
</event>
<event>
 6    1  0.6101889E-006  0.1860829E+03  0.7546771E-02  0.1167084E+00
          2   -1    0    0  501    0  0.00000000000E+00  0.00000000000E+00  0.68208950935E+03  0.68208950935E+03  0.00000000000E+00 0.  1.
         -2   -1    0    0    0  501 -0.00000000000E+00 -0.00000000000E+00 -0.47889009162E+02  0.47889009162E+02  0.00000000000E+00 0. -1.
          5    1    1    2  502    0  0.13834538487E+03 -0.71250094906E+02  0.38545419882E+03  0.41570789134E+03  0.47000000000E+01 0.  1.
         -5    1    1    2    0  502 -0.24991554225E+02 -0.71947586324E+01  0.33167625814E+02  0.42409005371E+02  0.47000000000E+01 0.  1.
        -11    1    1    2    0    0 -0.89037360020E+02  0.70435789713E+02  0.93347978225E+02  0.14697855963E+03  0.00000000000E+00 0. -1.
         11    1    1    2    0    0 -0.24316470623E+02  0.80090638250E+01  0.12223069733E+03  0.12488306216E+03  0.00000000000E+00 0.  1.
<mgrwt>
<rscale>  0 0.18074538E+03</rscale>
<asrwt>0</asrwt>
<pdfrwt beam="1">  1        2 0.10493684E+00 0.18608294E+03</pdfrwt>
<pdfrwt beam="2">  1       -2 0.73675404E-02 0.18608294E+03</pdfrwt>
<totfact> 0.45797238E+03</totfact>
</mgrwt>
</event>
<event>
 6    1  0.6101889E-006  0.1766706E+03  0.7546771E-02  0.1176976E+00
          1   -1    0    0  501    0  0.00000000000E+00  0.00000000000E+00  0.83698094765E+02  0.83698094765E+02  0.00000000000E+00 0. -1.
         -1   -1    0    0    0  501 -0.00000000000E+00 -0.00000000000E+00 -0.37555541668E+03  0.37555541668E+03  0.00000000000E+00 0.  1.
          5    1    1    2  502    0  0.58598652157E+02 -0.37864537672E+02  0.18490060930E+02  0.72329092355E+02  0.47000000000E+01 0. -1.
         -5    1    1    2    0  502 -0.66970858309E+01 -0.75685174629E+02 -0.90998735841E+02  0.11864213645E+03  0.47000000000E+01 0. -1.
        -11    1    1    2    0    0 -0.58469248223E+02  0.23188356756E+02 -0.75345673862E+02  0.98149495396E+02  0.00000000000E+00 0.  1.
         11    1    1    2    0    0  0.65676818974E+01  0.90361355546E+02 -0.14400297315E+03  0.17013278725E+03  0.00000000000E+00 0. -1.
<mgrwt>
<rscale>  0 0.17083843E+03</rscale>
<asrwt>0</asrwt>
<pdfrwt beam="1">  1        1 0.12876630E-01 0.17667060E+03</pdfrwt>
<pdfrwt beam="2">  1       -1 0.57777756E-01 0.17667060E+03</pdfrwt>
<totfact> 0.14097649E+03</totfact>
</mgrwt>
</event>
<event>
 6    1  0.6101889E-006  0.1265243E+03  0.7546771E-02  0.1248525E+00
          1   -1    0    0  501    0  0.00000000000E+00  0.00000000000E+00  0.12158603264E+03  0.12158603264E+03  0.00000000000E+00 0. -1.
         -1   -1    0    0    0  501 -0.00000000000E+00 -0.00000000000E+00 -0.10345708980E+03  0.10345708980E+03  0.00000000000E+00 0.  1.
          5    1    1    2  502    0 -0.69260410062E+02  0.21774237487E+02  0.15481380946E+02  0.74383364915E+02  0.47000000000E+01 0.  1.
         -5    1    1    2    0  502  0.51266075239E+02 -0.14020349826E+02  0.20488295142E+02  0.57154535406E+02  0.47000000000E+01 0.  1.
        -11    1    1    2    0    0 -0.18531851356E+02 -0.19119595405E+02  0.24682773019E+02  0.36307405953E+02  0.00000000000E+00 0. -1.
         11    1    1    2    0    0  0.36526186179E+02  0.11365707744E+02 -0.42523506260E+02  0.57197816164E+02  0.00000000000E+00 0.  1.
<mgrwt>
<rscale>  0 0.11676866E+03</rscale>
<asrwt>0</asrwt>
<pdfrwt beam="1">  1        1 0.18705543E-01 0.12652431E+03</pdfrwt>
<pdfrwt beam="2">  1       -1 0.15916475E-01 0.12652431E+03</pdfrwt>
<totfact> 0.76597811E+03</totfact>
</mgrwt>
</event>
<event>
 6    1  0.6101889E-006  0.1325729E+03  0.7546771E-02  0.1237338E+00
          2   -1    0    0  501    0  0.00000000000E+00  0.00000000000E+00  0.41164844961E+03  0.41164844961E+03  0.00000000000E+00 0. -1.
         -2   -1    0    0    0  501 -0.00000000000E+00 -0.00000000000E+00 -0.33482348758E+02  0.33482348758E+02  0.00000000000E+00 0.  1.
          5    1    1    2  502    0  0.15367489502E+02 -0.29415655424E+02  0.16922376241E+03  0.17251148449E+03  0.47000000000E+01 0. -1.
         -5    1    1    2    0  502 -0.52380297212E+02  0.41970705144E+01  0.15738917241E+02  0.55055557875E+02  0.47000000000E+01 0.  1.
        -11    1    1    2    0    0 -0.10297738399E+02 -0.24701951113E+02  0.28597823072E+02  0.39167145535E+02  0.00000000000E+00 0.  1.
         11    1    1    2    0    0  0.47310546109E+02  0.49920536022E+02  0.16460559812E+03  0.17839661046E+03  0.00000000000E+00 0. -1.
<mgrwt>
<rscale>  0 0.12355942E+03</rscale>
<asrwt>0</asrwt>
<pdfrwt beam="1">  1        2 0.63330527E-01 0.13257287E+03</pdfrwt>
<pdfrwt beam="2">  1       -2 0.51511309E-02 0.13257287E+03</pdfrwt>
<totfact> 0.13641525E+04</totfact>
</mgrwt>
</event>
<event>
 6    1  0.6101889E-006  0.1274023E+03  0.7546771E-02  0.1248582E+00
          3   -1    0    0  501    0  0.00000000000E+00  0.00000000000E+00  0.69709021875E+02  0.69709021875E+02  0.00000000000E+00 0. -1.
         -3   -1    0    0    0  501 -0.00000000000E+00 -0.00000000000E+00 -0.21166406842E+03  0.21166406842E+03  0.00000000000E+00 0.  1.
          5    1    1    2  502    0 -0.24114738597E+02 -0.22305396986E+02  0.47557831428E+02  0.57990418885E+02  0.47000000000E+01 0. -1.
         -5    1    1    2    0  502  0.24699977619E+02 -0.22682452679E+01 -0.66096574677E+02  0.70753664322E+02  0.47000000000E+01 0. -1.
        -11    1    1    2    0    0  0.25797025277E+01 -0.29794656224E+02 -0.71002599460E+02  0.77043789722E+02  0.00000000000E+00 0.  1.
         11    1    1    2    0    0 -0.31649415494E+01  0.54368298478E+02 -0.52413703832E+02  0.75585217363E+02  0.00000000000E+00 0. -1.
<mgrwt>
<rscale>  0 0.11673526E+03</rscale>
<asrwt>0</asrwt>
<pdfrwt beam="1">  1        3 0.10724465E-01 0.12740233E+03</pdfrwt>
<pdfrwt beam="2">  1       -3 0.32563703E-01 0.12740233E+03</pdfrwt>
<totfact> 0.13749091E+03</totfact>
</mgrwt>
</event>
<event>
 6    1  0.6101889E-006  0.2356388E+03  0.7546771E-02  0.1126667E+00
         -2   -1    0    0    0  501 -0.00000000000E+00  0.00000000000E+00  0.29014204983E+02  0.29014204983E+02  0.00000000000E+00 0.  1.
          2   -1    0    0  501    0  0.00000000000E+00 -0.00000000000E+00 -0.20102924995E+04  0.20102924995E+04  0.00000000000E+00 0. -1.
          5    1    1    2  502    0 -0.13572244868E+03 -0.42204943280E+02 -0.12379029902E+04  0.12460448401E+04  0.47000000000E+01 0. -1.
         -5    1    1    2    0  502 -0.53402169684E+02  0.33339381465E+02 -0.16802110384E+03  0.17948951896E+03  0.47000000000E+01 0.  1.
        -11    1    1    2    0    0  0.16498961385E+03  0.43098219535E+02 -0.43247336228E+03  0.46487873504E+03  0.00000000000E+00 0.  1.
         11    1    1    2    0    0  0.24135004514E+02 -0.34232657720E+02 -0.14288083815E+03  0.14889361037E+03  0.00000000000E+00 0. -1.
<mgrwt>
<rscale>  0 0.22996179E+03</rscale>
<asrwt>0</asrwt>
<pdfrwt beam="2">  1        2 0.30927597E+00 0.23563881E+03</pdfrwt>
<pdfrwt beam="1">  1       -2 0.44637210E-02 0.23563881E+03</pdfrwt>
<totfact> 0.17120172E+03</totfact>
</mgrwt>
</event>
<event>
 6    1  0.6101889E-006  0.1161539E+03  0.7546771E-02  0.1318711E+00
         -2   -1    0    0    0  501 -0.00000000000E+00  0.00000000000E+00  0.72264699050E+02  0.72264699050E+02  0.00000000000E+00 0.  1.
          2   -1    0    0  501    0  0.00000000000E+00 -0.00000000000E+00 -0.75414695481E+02  0.75414695481E+02  0.00000000000E+00 0. -1.
          5    1    1    2  502    0 -0.14081649857E+02 -0.19941757896E+02  0.51190283512E+02  0.56907835109E+02  0.47000000000E+01 0. -1.
         -5    1    1    2    0  502  0.16860653705E+02  0.10413242609E+02 -0.55729709028E+02  0.59334709347E+02  0.47000000000E+01 0.  1.
        -11    1    1    2    0    0  0.12063944525E+02 -0.24042214272E+01 -0.40407434048E+00  0.12307815170E+02  0.00000000000E+00 0.  1.
         11    1    1    2    0    0 -0.14842948373E+02  0.11932736714E+02  0.17935034255E+01  0.19129034906E+02  0.00000000000E+00 0. -1.
<mgrwt>
<rscale>  0 0.83758499E+02</rscale>
<asrwt>0</asrwt>
<pdfrwt beam="2">  1        2 0.11602261E-01 0.11615388E+03</pdfrwt>
<pdfrwt beam="1">  1       -2 0.11117646E-01 0.11615388E+03</pdfrwt>
<totfact> 0.26946766E+04</totfact>
</mgrwt>
</event>
<event>
 6    1  0.6101889E-006  0.2296181E+03  0.7546771E-02  0.1132551E+00
          2   -1    0    0  501    0  0.00000000000E+00  0.00000000000E+00  0.92291475806E+03  0.92291475806E+03  0.00000000000E+00 0.  1.
         -2   -1    0    0    0  501 -0.00000000000E+00 -0.00000000000E+00 -0.76323489404E+02  0.76323489404E+02  0.00000000000E+00 0. -1.
          5    1    1    2  502    0 -0.21881441451E+02 -0.44704150501E+02  0.18213378841E+03  0.18887049911E+03  0.47000000000E+01 0.  1.
         -5    1    1    2    0  502 -0.17046806079E+03  0.54849605993E+02  0.55344835309E+03  0.58171729265E+03  0.47000000000E+01 0.  1.
        -11    1    1    2    0    0  0.12465574098E+03 -0.26570060343E+02  0.89522725258E+02  0.15575410173E+03  0.00000000000E+00 0.  1.
         11    1    1    2    0    0  0.67693761256E+02  0.16424604850E+02  0.21486401895E+02  0.72896353982E+02  0.00000000000E+00 0. -1.
<mgrwt>
<rscale>  0 0.22179667E+03</rscale>
<asrwt>0</asrwt>
<pdfrwt beam="1">  1        2 0.14198688E+00 0.22961807E+03</pdfrwt>
<pdfrwt beam="2">  1       -2 0.11742076E-01 0.22961807E+03</pdfrwt>
<totfact> 0.15034600E+03</totfact>
</mgrwt>
</event>
<event>
 6    1  0.6101889E-006  0.1326420E+03  0.7546771E-02  0.1237224E+00
         -2   -1    0    0    0  501 -0.00000000000E+00  0.00000000000E+00  0.92884337545E+02  0.92884337545E+02  0.00000000000E+00 0.  1.
          2   -1    0    0  501    0  0.00000000000E+00 -0.00000000000E+00 -0.18381860720E+03  0.18381860720E+03  0.00000000000E+00 0. -1.
          5    1    1    2  502    0  0.74751122007E+02 -0.36798556519E+02 -0.45481116163E+02  0.95039391468E+02  0.47000000000E+01 0.  1.
         -5    1    1    2    0  502 -0.31610336101E+02  0.26387671680E+02 -0.67451619731E+02  0.79166492719E+02  0.47000000000E+01 0.  1.
        -11    1    1    2    0    0 -0.34469116509E+02  0.32918801087E+02 -0.21865034850E+02  0.52438985563E+02  0.00000000000E+00 0. -1.
         11    1    1    2    0    0 -0.86716693966E+01 -0.22507916248E+02  0.43863501091E+02  0.50058074992E+02  0.00000000000E+00 0.  1.
<mgrwt>
<rscale>  0 0.12363130E+03</rscale>
<asrwt>0</asrwt>
<pdfrwt beam="2">  1        2 0.28279785E-01 0.13264195E+03</pdfrwt>
<pdfrwt beam="1">  1       -2 0.14289898E-01 0.13264195E+03</pdfrwt>
<totfact> 0.65941499E+03</totfact>
</mgrwt>
</event>
<event>
 6    1  0.6101889E-006  0.1405515E+03  0.7546771E-02  0.1223844E+00
         -1   -1    0    0    0  501 -0.00000000000E+00  0.00000000000E+00  0.45377930503E+02  0.45377930503E+02  0.00000000000E+00 0.  1.
          1   -1    0    0  501    0  0.00000000000E+00 -0.00000000000E+00 -0.36332920682E+03  0.36332920682E+03  0.00000000000E+00 0. -1.
          5    1    1    2  502    0 -0.51616734379E+02 -0.57652552150E+01 -0.16744369816E+03  0.17537675869E+03  0.47000000000E+01 0. -1.
         -5    1    1    2    0  502  0.34592539000E+02 -0.57367929646E+02 -0.50780333411E+02  0.84192965073E+02  0.47000000000E+01 0. -1.
        -11    1    1    2    0    0  0.50169009991E+02  0.59064374291E+02 -0.69520364393E+02  0.10410864968E+03  0.00000000000E+00 0. -1.
         11    1    1    2    0    0 -0.33144814612E+02  0.40688105705E+01 -0.30206880345E+02  0.45028763866E+02  0.00000000000E+00 0.  1.
<mgrwt>
<rscale>  0 0.13246434E+03</rscale>
<asrwt>0</asrwt>
<pdfrwt beam="2">  1        1 0.55896797E-01 0.14055146E+03</pdfrwt>
<pdfrwt beam="1">  1       -1 0.69812205E-02 0.14055146E+03</pdfrwt>
<totfact> 0.69613726E+03</totfact>
</mgrwt>
</event>
<event>
 6    1  0.6101889E-006  0.1448340E+03  0.7546771E-02  0.1216949E+00
         -1   -1    0    0    0  501 -0.00000000000E+00  0.00000000000E+00  0.19853597544E+02  0.19853597544E+02  0.00000000000E+00 0.  1.
          1   -1    0    0  501    0  0.00000000000E+00 -0.00000000000E+00 -0.11052008233E+04  0.11052008233E+04  0.00000000000E+00 0. -1.
          5    1    1    2  502    0 -0.36187640254E+02  0.84366282947E+02 -0.40178355497E+03  0.41216420277E+03  0.47000000000E+01 0. -1.
         -5    1    1    2    0  502  0.39224392895E+02 -0.11270679781E+02 -0.44738872166E+03  0.44927089766E+03  0.47000000000E+01 0. -1.
        -11    1    1    2    0    0  0.11714301926E+02 -0.92049252876E+02 -0.19498857580E+03  0.21594173871E+03  0.00000000000E+00 0. -1.
         11    1    1    2    0    0 -0.14751054567E+02  0.18953649709E+02 -0.41186373309E+02  0.47677581676E+02  0.00000000000E+00 0.  1.
<mgrwt>
<rscale>  0 0.13734359E+03</rscale>
<asrwt>0</asrwt>
<pdfrwt beam="2">  1        1 0.17003092E+00 0.14483396E+03</pdfrwt>
<pdfrwt beam="1">  1       -1 0.30543992E-02 0.14483396E+03</pdfrwt>
<totfact> 0.48191627E+03</totfact>
</mgrwt>
</event>
<event>
 6    1  0.6101889E-006  0.1318179E+03  0.7546771E-02  0.1237617E+00
         -3   -1    0    0    0  501 -0.00000000000E+00  0.00000000000E+00  0.11150637982E+02  0.11150637982E+02  0.00000000000E+00 0.  1.
          3   -1    0    0  501    0  0.00000000000E+00 -0.00000000000E+00 -0.15165647656E+04  0.15165647656E+04  0.00000000000E+00 0. -1.
          5    1    1    2  502    0  0.13647832502E+02  0.18081650885E+02 -0.35759067630E+02  0.42591200364E+02  0.47000000000E+01 0.  1.
         -5    1    1    2    0  502  0.27991841184E+02 -0.22336095616E+02 -0.11334031692E+04  0.11339785175E+04  0.47000000000E+01 0.  1.
        -11    1    1    2    0    0 -0.65983676266E+02 -0.12147153700E+02 -0.27715596743E+03  0.28516105828E+03  0.00000000000E+00 0.  1.
         11    1    1    2    0    0  0.24344002579E+02  0.16401598431E+02 -0.59095923369E+02  0.65984627388E+02  0.00000000000E+00 0. -1.
<mgrwt>
<rscale>  0 0.12338362E+03</rscale>
<asrwt>0</asrwt>
<pdfrwt beam="2">  1        3 0.23331742E+00 0.13181792E+03</pdfrwt>
<pdfrwt beam="1">  1       -3 0.17154845E-02 0.13181792E+03</pdfrwt>
<totfact> 0.29143334E+02</totfact>
</mgrwt>
</event>
<event>
 6    1  0.6101889E-006  0.1305765E+03  0.7546771E-02  0.1240083E+00
         -2   -1    0    0    0  501 -0.00000000000E+00  0.00000000000E+00  0.20543577354E+02  0.20543577354E+02  0.00000000000E+00 0. -1.
          2   -1    0    0  501    0  0.00000000000E+00 -0.00000000000E+00 -0.11181916912E+04  0.11181916912E+04  0.00000000000E+00 0.  1.
          5    1    1    2  502    0 -0.13977322436E+02  0.20621284026E+02 -0.93706100109E+03  0.93740386849E+03  0.47000000000E+01 0. -1.
         -5    1    1    2    0  502 -0.20843058373E+02 -0.60403513115E+01 -0.24830755805E+02  0.33310289103E+02  0.47000000000E+01 0. -1.
        -11    1    1    2    0    0 -0.16169741725E+02 -0.26164582946E+02 -0.10856776439E+02  0.32617718235E+02  0.00000000000E+00 0. -1.
         11    1    1    2    0    0  0.50990122533E+02  0.11583650232E+02 -0.12489958047E+03  0.13540339269E+03  0.00000000000E+00 0.  1.
<mgrwt>
<rscale>  0 0.12184544E+03</rscale>
<asrwt>0</asrwt>
<pdfrwt beam="2">  1        2 0.17202955E+00 0.13057651E+03</pdfrwt>
<pdfrwt beam="1">  1       -2 0.31605493E-02 0.13057651E+03</pdfrwt>
<totfact> 0.84525204E+03</totfact>
</mgrwt>
</event>
<event>
 6    1  0.6101889E-006  0.1389623E+03  0.7546771E-02  0.1226250E+00
          2   -1    0    0  501    0  0.00000000000E+00  0.00000000000E+00  0.38281556101E+03  0.38281556101E+03  0.00000000000E+00 0. -1.
         -2   -1    0    0    0  501 -0.00000000000E+00 -0.00000000000E+00 -0.42024202496E+02  0.42024202496E+02  0.00000000000E+00 0.  1.
          5    1    1    2  502    0 -0.14985017293E+02 -0.71119693285E+00 -0.10627058383E+02  0.18975798118E+02  0.47000000000E+01 0. -1.
         -5    1    1    2    0  502  0.28593399439E+02 -0.58452958277E+02  0.24461190898E+03  0.25316280698E+03  0.47000000000E+01 0. -1.
        -11    1    1    2    0    0 -0.22868051869E+02  0.67978296087E+02  0.11639702245E+03  0.13671965247E+03  0.00000000000E+00 0. -1.
         11    1    1    2    0    0  0.92596697234E+01 -0.88141408766E+01 -0.95905145414E+01  0.15981505935E+02  0.00000000000E+00 0.  1.
<mgrwt>
<rscale>  0 0.13081625E+03</rscale>
<asrwt>0</asrwt>
<pdfrwt beam="1">  1        2 0.58894699E-01 0.13896226E+03</pdfrwt>
<pdfrwt beam="2">  1       -2 0.64652622E-02 0.13896226E+03</pdfrwt>
<totfact> 0.10490016E+04</totfact>
</mgrwt>
</event>
<event>
 6    1  0.6101889E-006  0.1361879E+03  0.7546771E-02  0.1231348E+00
         -2   -1    0    0    0  501 -0.00000000000E+00  0.00000000000E+00  0.27468202541E+03  0.27468202541E+03  0.00000000000E+00 0.  1.
          2   -1    0    0  501    0  0.00000000000E+00 -0.00000000000E+00 -0.59762581868E+02  0.59762581868E+02  0.00000000000E+00 0. -1.
          5    1    1    2  502    0 -0.42994514820E+02 -0.65712896893E+01  0.11658386410E+02  0.45273812812E+02  0.47000000000E+01 0. -1.
         -5    1    1    2    0  502  0.88334968782E+02 -0.22829251061E+02  0.51106179161E+02  0.10468129232E+03  0.47000000000E+01 0. -1.
        -11    1    1    2    0    0 -0.37774059400E+02  0.50566691967E+02  0.14896655536E+03  0.16178660178E+03  0.00000000000E+00 0.  1.
         11    1    1    2    0    0 -0.75663945611E+01 -0.21166151217E+02  0.31883226148E+01  0.22702900367E+02  0.00000000000E+00 0. -1.
<mgrwt>
<rscale>  0 0.12741154E+03</rscale>
<asrwt>0</asrwt>
<pdfrwt beam="2">  1        2 0.91942435E-02 0.13618790E+03</pdfrwt>
<pdfrwt beam="1">  1       -2 0.42258773E-01 0.13618790E+03</pdfrwt>
<totfact> 0.36487155E+03</totfact>
</mgrwt>
</event>
<event>
 6    1  0.6101889E-006  0.1388239E+03  0.7546771E-02  0.1226486E+00
         -2   -1    0    0    0  501 -0.00000000000E+00  0.00000000000E+00  0.69514472859E+02  0.69514472859E+02  0.00000000000E+00 0.  1.
          2   -1    0    0  501    0  0.00000000000E+00 -0.00000000000E+00 -0.22541650220E+03  0.22541650220E+03  0.00000000000E+00 0. -1.
          5    1    1    2  502    0  0.73493461157E+02  0.38992992528E+02 -0.11991994592E+03  0.14602953718E+03  0.47000000000E+01 0. -1.
         -5    1    1    2    0  502 -0.15410406215E+02 -0.22475574765E+02  0.11665401487E+02  0.30013391554E+02  0.47000000000E+01 0. -1.
        -11    1    1    2    0    0 -0.18058874690E+01  0.30513851488E+02 -0.31292695848E+02  0.43744590244E+02  0.00000000000E+00 0.  1.
         11    1    1    2    0    0 -0.56277167473E+02 -0.47031269251E+02 -0.16354789056E+02  0.75143456077E+02  0.00000000000E+00 0. -1.
<mgrwt>
<rscale>  0 0.13065541E+03</rscale>
<asrwt>0</asrwt>
<pdfrwt beam="2">  1        2 0.34679462E-01 0.13882387E+03</pdfrwt>
<pdfrwt beam="1">  1       -2 0.10694534E-01 0.13882387E+03</pdfrwt>
<totfact> 0.84428687E+03</totfact>
</mgrwt>
</event>
<event>
 6    1  0.6101889E-006  0.3175607E+03  0.7546771E-02  0.1076777E+00
         -1   -1    0    0    0  501 -0.00000000000E+00  0.00000000000E+00  0.20437727723E+02  0.20437727723E+02  0.00000000000E+00 0.  1.
          1   -1    0    0  501    0  0.00000000000E+00 -0.00000000000E+00 -0.12335618738E+04  0.12335618738E+04  0.00000000000E+00 0. -1.
          5    1    1    2  502    0  0.28013816435E+02 -0.10635446889E+02 -0.55307940746E+03  0.55391046894E+03  0.47000000000E+01 0.  1.
         -5    1    1    2    0  502  0.76856250417E+02  0.45088300391E+02 -0.22935992105E+03  0.24610546813E+03  0.47000000000E+01 0.  1.
        -11    1    1    2    0    0 -0.29381058976E+02 -0.57458936656E+02 -0.20286583479E+03  0.21288335528E+03  0.00000000000E+00 0. -1.
         11    1    1    2    0    0 -0.75489007877E+02  0.23006083154E+02 -0.22781898277E+03  0.24110030917E+03  0.00000000000E+00 0.  1.
<mgrwt>
<rscale>  0 0.31756071E+03</rscale>
<asrwt>0</asrwt>
<pdfrwt beam="2">  1        1 0.18977883E+00 0.31756071E+03</pdfrwt>
<pdfrwt beam="1">  1       -1 0.31442644E-02 0.31756071E+03</pdfrwt>
<totfact> 0.38245592E+03</totfact>
</mgrwt>
</event>
<event>
 6    1  0.6101889E-006  0.1275340E+03  0.7546771E-02  0.1245197E+00
         -2   -1    0    0    0  501 -0.00000000000E+00  0.00000000000E+00  0.12103207362E+03  0.12103207362E+03  0.00000000000E+00 0. -1.
          2   -1    0    0  501    0  0.00000000000E+00 -0.00000000000E+00 -0.14069658133E+03  0.14069658133E+03  0.00000000000E+00 0.  1.
          5    1    1    2  502    0  0.63861341650E+02  0.25028033491E+02 -0.73140646806E+02  0.10038086288E+03  0.47000000000E+01 0.  1.
         -5    1    1    2    0  502 -0.38911317027E+02 -0.29233013866E+02 -0.49102560899E+01  0.49141228183E+02  0.47000000000E+01 0.  1.
        -11    1    1    2    0    0 -0.38367372539E+02 -0.12903168093E+02 -0.89418497490E+01  0.41454839275E+02  0.00000000000E+00 0.  1.
         11    1    1    2    0    0  0.13417347917E+02  0.17108148468E+02  0.67328244940E+02  0.70751724614E+02  0.00000000000E+00 0. -1.
<mgrwt>
<rscale>  0 0.11873607E+03</rscale>
<asrwt>0</asrwt>
<pdfrwt beam="2">  1        2 0.21645628E-01 0.12753397E+03</pdfrwt>
<pdfrwt beam="1">  1       -2 0.18620319E-01 0.12753397E+03</pdfrwt>
<totfact> 0.57090634E+03</totfact>
</mgrwt>
</event>
<event>
 6    1  0.6101889E-006  0.1287980E+03  0.7546771E-02  0.1243566E+00
         -1   -1    0    0    0  501 -0.00000000000E+00  0.00000000000E+00  0.78680578409E+02  0.78680578409E+02  0.00000000000E+00 0.  1.
          1   -1    0    0  501    0  0.00000000000E+00 -0.00000000000E+00 -0.28529079954E+03  0.28529079954E+03  0.00000000000E+00 0. -1.
          5    1    1    2  502    0 -0.11839354100E+02 -0.41347285003E+02 -0.18534426091E+02  0.47067857750E+02  0.47000000000E+01 0. -1.
         -5    1    1    2    0  502  0.38271608544E+02  0.25046890446E+02 -0.21274197015E+03  0.21765408015E+03  0.47000000000E+01 0. -1.
        -11    1    1    2    0    0  0.37605929980E+01 -0.28697627669E+02 -0.14515719223E+02  0.32379036398E+02  0.00000000000E+00 0. -1.
         11    1    1    2    0    0 -0.30192847442E+02  0.44998022226E+02  0.39181894333E+02  0.66870403651E+02  0.00000000000E+00 0.  1.
<mgrwt>
<rscale>  0 0.11971618E+03</rscale>
<asrwt>0</asrwt>
<pdfrwt beam="2">  1        1 0.43890891E-01 0.12879803E+03</pdfrwt>
<pdfrwt beam="1">  1       -1 0.12104705E-01 0.12879803E+03</pdfrwt>
<totfact> 0.40519888E+03</totfact>
</mgrwt>
</event>
<event>
 6    1  0.6101889E-006  0.1713554E+03  0.7546771E-02  0.1182409E+00
          2   -1    0    0  501    0  0.00000000000E+00  0.00000000000E+00  0.82621511908E+02  0.82621511908E+02  0.00000000000E+00 0.  1.
         -2   -1    0    0    0  501 -0.00000000000E+00 -0.00000000000E+00 -0.31720916395E+03  0.31720916395E+03  0.00000000000E+00 0. -1.
          5    1    1    2  502    0  0.20559490649E+02  0.17978539052E+02 -0.13345554501E+03  0.13630257891E+03  0.47000000000E+01 0. -1.
         -5    1    1    2    0  502  0.64286798265E+02  0.62877646689E+02 -0.16802696234E+02  0.91601372725E+02  0.47000000000E+01 0. -1.
        -11    1    1    2    0    0 -0.26389847431E+02  0.19507432683E+02 -0.11201350245E+02  0.34676133357E+02  0.00000000000E+00 0. -1.
         11    1    1    2    0    0 -0.58456441483E+02 -0.10036361842E+03 -0.73128060552E+02  0.13725059087E+03  0.00000000000E+00 0.  1.
<mgrwt>
<rscale>  0 0.16569865E+03</rscale>
<asrwt>0</asrwt>
<pdfrwt beam="1">  1        2 0.12711002E-01 0.17135540E+03</pdfrwt>
<pdfrwt beam="2">  1       -2 0.48801409E-01 0.17135540E+03</pdfrwt>
<totfact> 0.18805631E+03</totfact>
</mgrwt>
</event>
<event>
 6    1  0.6101889E-006  0.1255754E+03  0.7546771E-02  0.1249966E+00
         -3   -1    0    0    0  501 -0.00000000000E+00  0.00000000000E+00  0.26703379278E+02  0.26703379278E+02  0.00000000000E+00 0.  1.
          3   -1    0    0  501    0  0.00000000000E+00 -0.00000000000E+00 -0.53026139658E+03  0.53026139658E+03  0.00000000000E+00 0. -1.
          5    1    1    2  502    0 -0.45402301147E+02  0.33054370273E+02 -0.15084470553E+03  0.16102849291E+03  0.47000000000E+01 0.  1.
         -5    1    1    2    0  502  0.56822168348E+02 -0.36825827055E+02 -0.24773679943E+03  0.25686672059E+03  0.47000000000E+01 0.  1.
        -11    1    1    2    0    0  0.29995483822E+02  0.50384294403E+01 -0.49698316288E+01  0.30819053317E+02  0.00000000000E+00 0.  1.
         11    1    1    2    0    0 -0.41415351023E+02 -0.12669726583E+01 -0.10000668071E+03  0.10825050904E+03  0.00000000000E+00 0. -1.
<mgrwt>
<rscale>  0 0.11592998E+03</rscale>
<asrwt>0</asrwt>
<pdfrwt beam="2">  1        3 0.81578677E-01 0.12557545E+03</pdfrwt>
<pdfrwt beam="1">  1       -3 0.41082122E-02 0.12557545E+03</pdfrwt>
<totfact> 0.10144263E+03</totfact>
</mgrwt>
</event>
<event>
 6    1  0.6101889E-006  0.1319107E+03  0.7546771E-02  0.1236403E+00
         -2   -1    0    0    0  501 -0.00000000000E+00  0.00000000000E+00  0.41419744274E+02  0.41419744274E+02  0.00000000000E+00 0.  1.
          2   -1    0    0  501    0  0.00000000000E+00 -0.00000000000E+00 -0.35539122231E+03  0.35539122231E+03  0.00000000000E+00 0. -1.
          5    1    1    2  502    0 -0.65470948850E+02 -0.28717040436E+02 -0.99188782800E+02  0.12235856402E+03  0.47000000000E+01 0. -1.
         -5    1    1    2    0  502  0.56519686352E+02 -0.12476486708E+02 -0.12340111768E+03  0.13638204981E+03  0.47000000000E+01 0. -1.
        -11    1    1    2    0    0 -0.37935521296E+02  0.22492686526E+02 -0.15132603315E+02  0.46626391735E+02  0.00000000000E+00 0.  1.
         11    1    1    2    0    0  0.46886783795E+02  0.18700840617E+02 -0.76248974241E+02  0.91443961021E+02  0.00000000000E+00 0. -1.
<mgrwt>
<rscale>  0 0.12415040E+03</rscale>
<asrwt>0</asrwt>
<pdfrwt beam="2">  1        2 0.54675571E-01 0.13191073E+03</pdfrwt>
<pdfrwt beam="1">  1       -2 0.63722685E-02 0.13191073E+03</pdfrwt>
<totfact> 0.11562101E+04</totfact>
</mgrwt>
</event>
<event>
 6    1  0.6101889E-006  0.3830170E+03  0.7546771E-02  0.1096482E+00
         -2   -1    0    0    0  501 -0.00000000000E+00  0.00000000000E+00  0.81529848461E+02  0.81529848461E+02  0.00000000000E+00 0.  1.
          2   -1    0    0  501    0  0.00000000000E+00 -0.00000000000E+00 -0.86665809193E+03  0.86665809193E+03  0.00000000000E+00 0. -1.
          5    1    1    2  502    0  0.50681038605E+02 -0.19666159834E+02 -0.78000952963E+03  0.78191577668E+03  0.47000000000E+01 0. -1.
         -5    1    1    2    0  502  0.22254031457E+01  0.23310944908E+02  0.42710150828E+02  0.48934645757E+02  0.47000000000E+01 0.  1.
        -11    1    1    2    0    0  0.21159616242E+02  0.19900895738E+02 -0.86882371503E+01  0.30319308624E+02  0.00000000000E+00 0. -1.
         11    1    1    2    0    0 -0.74066057992E+02 -0.23545680812E+02 -0.39140627513E+02  0.87018209321E+02  0.00000000000E+00 0.  1.
<mgrwt>
<rscale>  0 0.27855351E+03</rscale>
<asrwt>0</asrwt>
<pdfrwt beam="2">  1        2 0.13333201E+00 0.38301704E+03</pdfrwt>
<pdfrwt beam="1">  1       -2 0.12543054E-01 0.38301704E+03</pdfrwt>
<totfact> 0.14700675E+03</totfact>
</mgrwt>
</event>
<event>
 6    1  0.6101889E-006  0.2034497E+03  0.7546771E-02  0.1150775E+00
          1   -1    0    0  501    0  0.00000000000E+00  0.00000000000E+00  0.25884032087E+03  0.25884032087E+03  0.00000000000E+00 0. -1.
         -1   -1    0    0    0  501 -0.00000000000E+00 -0.00000000000E+00 -0.14752547244E+03  0.14752547244E+03  0.00000000000E+00 0.  1.
          5    1    1    2  502    0  0.68491652157E+02  0.25424591111E+02  0.98330750034E+02  0.12259095664E+03  0.47000000000E+01 0.  1.
         -5    1    1    2    0  502  0.91799636072E+02 -0.16938988612E+02 -0.19706890067E+02  0.95522531552E+02  0.47000000000E+01 0.  1.
        -11    1    1    2    0    0 -0.38848967522E+02 -0.58782426162E+01 -0.31960365652E+02  0.50648405567E+02  0.00000000000E+00 0.  1.
         11    1    1    2    0    0 -0.12144232071E+03 -0.26073598822E+01  0.64651354112E+02  0.13760389955E+03  0.00000000000E+00 0. -1.
<mgrwt>
<rscale>  0 0.19877676E+03</rscale>
<asrwt>0</asrwt>
<pdfrwt beam="1">  1        1 0.39821588E-01 0.20344970E+03</pdfrwt>
<pdfrwt beam="2">  1       -1 0.22696227E-01 0.20344970E+03</pdfrwt>
<totfact> 0.17150783E+03</totfact>
</mgrwt>
</event>
<event>
 6    1  0.6101889E-006  0.1837311E+03  0.7546771E-02  0.1169470E+00
          1   -1    0    0  501    0  0.00000000000E+00  0.00000000000E+00  0.10165790242E+04  0.10165790242E+04  0.00000000000E+00 0. -1.
         -1   -1    0    0    0  501 -0.00000000000E+00 -0.00000000000E+00 -0.38421443421E+02  0.38421443421E+02  0.00000000000E+00 0.  1.
          5    1    1    2  502    0  0.22664186224E+02 -0.53569771092E+02  0.17928953945E+03  0.18854764561E+03  0.47000000000E+01 0.  1.
         -5    1    1    2    0  502  0.11185394622E+03  0.47565565922E+02  0.58551397804E+03  0.59801546537E+03  0.47000000000E+01 0.  1.
        -11    1    1    2    0    0 -0.13807050558E+03 -0.43160638158E+01  0.14907176213E+03  0.20323504418E+03  0.00000000000E+00 0. -1.
         11    1    1    2    0    0  0.35523731297E+01  0.10320268986E+02  0.64282301181E+02  0.65202312473E+02  0.00000000000E+00 0.  1.
<mgrwt>
<rscale>  0 0.17828788E+03</rscale>
<asrwt>0</asrwt>
<pdfrwt beam="1">  1        1 0.15639675E+00 0.18373107E+03</pdfrwt>
<pdfrwt beam="2">  1       -1 0.59109921E-02 0.18373107E+03</pdfrwt>
<totfact> 0.21146770E+03</totfact>
</mgrwt>
</event>
<event>
 6    1  0.6101889E-006  0.1450730E+03  0.7546771E-02  0.1216624E+00
         -1   -1    0    0    0  501 -0.00000000000E+00  0.00000000000E+00  0.38972809892E+02  0.38972809892E+02  0.00000000000E+00 0.  1.
          1   -1    0    0  501    0  0.00000000000E+00 -0.00000000000E+00 -0.44187019846E+03  0.44187019846E+03  0.00000000000E+00 0. -1.
          5    1    1    2  502    0  0.69073689519E+02  0.54502465139E+02 -0.76340326819E+02  0.11658314110E+03  0.47000000000E+01 0.  1.
         -5    1    1    2    0  502  0.90984740690E+00 -0.31595998945E+02 -0.14205528363E+03  0.14560538650E+03  0.47000000000E+01 0.  1.
        -11    1    1    2    0    0 -0.42416407191E+01 -0.23997293082E+02 -0.17471539172E+01  0.24431826335E+02  0.00000000000E+00 0.  1.
         11    1    1    2    0    0 -0.65741896207E+02  0.10908268883E+01 -0.18275462420E+03  0.19422265441E+03  0.00000000000E+00 0. -1.
<mgrwt>
<rscale>  0 0.13757905E+03</rscale>
<asrwt>0</asrwt>
<pdfrwt beam="2">  1        1 0.67980034E-01 0.14507302E+03</pdfrwt>
<pdfrwt beam="1">  1       -1 0.59958166E-02 0.14507302E+03</pdfrwt>
<totfact> 0.68387838E+03</totfact>
</mgrwt>
</event>
<event>
 6    1  0.6101889E-006  0.1304997E+03  0.7546771E-02  0.1241016E+00
         -2   -1    0    0    0  501 -0.00000000000E+00  0.00000000000E+00  0.41185605681E+03  0.41185605681E+03  0.00000000000E+00 0.  1.
          2   -1    0    0  501    0  0.00000000000E+00 -0.00000000000E+00 -0.34339759291E+02  0.34339759291E+02  0.00000000000E+00 0. -1.
          5    1    1    2  502    0 -0.37137803814E+01 -0.56255554853E+02  0.89008185897E+02  0.10546576114E+03  0.47000000000E+01 0. -1.
         -5    1    1    2    0  502 -0.33291900366E+02  0.62243496585E+02  0.61487910154E+02  0.93730766519E+02  0.47000000000E+01 0. -1.
        -11    1    1    2    0    0 -0.86830094527E+01 -0.17091478088E+02  0.46687991463E+01  0.19730964545E+02  0.00000000000E+00 0. -1.
         11    1    1    2    0    0  0.45688690200E+02  0.11103536356E+02  0.22235140232E+03  0.22726832390E+03  0.00000000000E+00 0.  1.
<mgrwt>
<rscale>  0 0.12127009E+03</rscale>
<asrwt>0</asrwt>
<pdfrwt beam="2">  1        2 0.52830402E-02 0.13049974E+03</pdfrwt>
<pdfrwt beam="1">  1       -2 0.63362467E-01 0.13049974E+03</pdfrwt>
<totfact> 0.32813786E+03</totfact>
</mgrwt>
</event>
<event>
 6    1  0.6101889E-006  0.1400209E+03  0.7546771E-02  0.1223324E+00
         -3   -1    0    0    0  501 -0.00000000000E+00  0.00000000000E+00  0.10826438861E+03  0.10826438861E+03  0.00000000000E+00 0.  1.
          3   -1    0    0  501    0  0.00000000000E+00 -0.00000000000E+00 -0.18795753731E+03  0.18795753731E+03  0.00000000000E+00 0. -1.
          5    1    1    2  502    0  0.16322484407E+02 -0.45892321175E+02  0.31265796705E+01  0.49034621855E+02  0.47000000000E+01 0. -1.
         -5    1    1    2    0  502 -0.61354600320E+02  0.17114247500E+01 -0.11403513431E+03  0.12958942014E+03  0.47000000000E+01 0. -1.
        -11    1    1    2    0    0 -0.11988406211E+01  0.26399676676E+02  0.56212934690E+02  0.62115007638E+02  0.00000000000E+00 0.  1.
         11    1    1    2    0    0  0.46230956534E+02  0.17781219749E+02 -0.24997528756E+02  0.55482876293E+02  0.00000000000E+00 0. -1.
<mgrwt>
<rscale>  0 0.13282443E+03</rscale>
<asrwt>0</asrwt>
<pdfrwt beam="2">  1        3 0.28916544E-01 0.14002086E+03</pdfrwt>
<pdfrwt beam="1">  1       -3 0.16656060E-01 0.14002086E+03</pdfrwt>
<totfact> 0.82599576E+02</totfact>
</mgrwt>
</event>
<event>
 6    1  0.6101889E-006  0.1417574E+03  0.7546771E-02  0.1222109E+00
         -1   -1    0    0    0  501 -0.00000000000E+00  0.00000000000E+00  0.17881084594E+02  0.17881084594E+02  0.00000000000E+00 0.  1.
          1   -1    0    0  501    0  0.00000000000E+00 -0.00000000000E+00 -0.10821581735E+04  0.10821581735E+04  0.00000000000E+00 0. -1.
          5    1    1    2  502    0 -0.29915252807E+02 -0.92357215282E+02 -0.51390187252E+03  0.52301243020E+03  0.47000000000E+01 0.  1.
         -5    1    1    2    0  502 -0.13331964439E+02  0.41365909284E+02 -0.29390737540E+03  0.29714056445E+03  0.47000000000E+01 0.  1.
        -11    1    1    2    0    0 -0.12044617464E+02  0.30303930197E+02 -0.25227176324E+02  0.41228769331E+02  0.00000000000E+00 0.  1.
         11    1    1    2    0    0  0.55291834710E+02  0.20687375801E+02 -0.23124066466E+03  0.23865749411E+03  0.00000000000E+00 0. -1.
<mgrwt>
<rscale>  0 0.13367045E+03</rscale>
<asrwt>0</asrwt>
<pdfrwt beam="2">  1        1 0.16648590E+00 0.14175738E+03</pdfrwt>
<pdfrwt beam="1">  1       -1 0.27509356E-02 0.14175738E+03</pdfrwt>
<totfact> 0.58227707E+03</totfact>
</mgrwt>
</event>
<event>
 6    1  0.6101889E-006  0.3349042E+03  0.7546771E-02  0.1068987E+00
          2   -1    0    0  501    0  0.00000000000E+00  0.00000000000E+00  0.10668423986E+04  0.10668423986E+04  0.00000000000E+00 0. -1.
         -2   -1    0    0    0  501 -0.00000000000E+00 -0.00000000000E+00 -0.26283364293E+02  0.26283364293E+02  0.00000000000E+00 0.  1.
          5    1    1    2  502    0 -0.11608247924E+02  0.16820309867E+02  0.29070177159E+03  0.29145717396E+03  0.47000000000E+01 0. -1.
         -5    1    1    2    0  502 -0.14260103423E+02 -0.12840815412E+03  0.43616105968E+03  0.45491819547E+03  0.47000000000E+01 0. -1.
        -11    1    1    2    0    0 -0.21689337464E+02  0.38154580036E+02  0.39894675183E+02  0.59310913375E+02  0.00000000000E+00 0.  1.
         11    1    1    2    0    0  0.47557688811E+02  0.73433264215E+02  0.27380152787E+03  0.28743948010E+03  0.00000000000E+00 0. -1.
<mgrwt>
<rscale>  0 0.33490421E+03</rscale>
<asrwt>0</asrwt>
<pdfrwt beam="1">  1        2 0.16412957E+00 0.33490421E+03</pdfrwt>
<pdfrwt beam="2">  1       -2 0.40435953E-02 0.33490421E+03</pdfrwt>
<totfact> 0.64871613E+03</totfact>
</mgrwt>
</event>
<event>
 6    1  0.6101889E-006  0.1356190E+03  0.7546771E-02  0.1229506E+00
         -1   -1    0    0    0  501 -0.00000000000E+00  0.00000000000E+00  0.38406933593E+02  0.38406933593E+02  0.00000000000E+00 0. -1.
          1   -1    0    0  501    0  0.00000000000E+00 -0.00000000000E+00 -0.39270842469E+03  0.39270842469E+03  0.00000000000E+00 0.  1.
          5    1    1    2  502    0  0.52452184573E+02 -0.19551601052E+01 -0.71761970801E+02  0.89033279007E+02  0.47000000000E+01 0. -1.
         -5    1    1    2    0  502 -0.66492831736E+02 -0.48749336318E+02 -0.13392247840E+03  0.15733758192E+03  0.47000000000E+01 0. -1.
        -11    1    1    2    0    0 -0.54682944192E+01  0.96894866536E+01  0.12858082213E+02  0.17003490043E+02  0.00000000000E+00 0. -1.
         11    1    1    2    0    0  0.19508941582E+02  0.41015009769E+02 -0.16147512411E+03  0.16774100731E+03  0.00000000000E+00 0.  1.
<mgrwt>
<rscale>  0 0.12862769E+03</rscale>
<asrwt>0</asrwt>
<pdfrwt beam="2">  1        1 0.60416682E-01 0.13561898E+03</pdfrwt>
<pdfrwt beam="1">  1       -1 0.59087589E-02 0.13561898E+03</pdfrwt>
<totfact> 0.80830192E+03</totfact>
</mgrwt>
</event>
<event>
 6    1  0.6101889E-006  0.1966111E+03  0.7546771E-02  0.1185485E+00
          3   -1    0    0  501    0  0.00000000000E+00  0.00000000000E+00  0.95378181414E+03  0.95378181414E+03  0.00000000000E+00 0. -1.
         -3   -1    0    0    0  501 -0.00000000000E+00 -0.00000000000E+00 -0.52464267454E+02  0.52464267454E+02  0.00000000000E+00 0.  1.
          5    1    1    2  502    0 -0.10059091603E+02  0.10627610976E+03  0.53789543233E+03  0.54840622074E+03  0.47000000000E+01 0. -1.
         -5    1    1    2    0  502  0.13049756487E+02 -0.87435152838E+02  0.35383480296E+03  0.36474149734E+03  0.47000000000E+01 0.  1.
        -11    1    1    2    0    0 -0.34175242067E+02 -0.41650059358E+02  0.76169988369E+01  0.54412253089E+02  0.00000000000E+00 0.  1.
         11    1    1    2    0    0  0.31184577183E+02  0.22809102439E+02  0.19703125627E+01  0.38686110424E+02  0.00000000000E+00 0. -1.
<mgrwt>
<rscale>  0 0.16287815E+03</rscale>
<asrwt>0</asrwt>
<pdfrwt beam="1">  1        3 0.14673565E+00 0.19661115E+03</pdfrwt>
<pdfrwt beam="2">  1       -3 0.80714265E-02 0.19661115E+03</pdfrwt>
<totfact> 0.93184053E+01</totfact>
</mgrwt>
</event>
<event>
 6    1  0.6101889E-006  0.1412816E+03  0.7546771E-02  0.1220965E+00
          1   -1    0    0  501    0  0.00000000000E+00  0.00000000000E+00  0.47960471550E+03  0.47960471550E+03  0.00000000000E+00 0. -1.
         -1   -1    0    0    0  501 -0.00000000000E+00 -0.00000000000E+00 -0.34818053676E+02  0.34818053676E+02  0.00000000000E+00 0.  1.
          5    1    1    2  502    0  0.28510448877E+02  0.43421794533E+01  0.13502325833E+02  0.32188554185E+02  0.47000000000E+01 0. -1.
         -5    1    1    2    0  502 -0.80921436988E+02 -0.44185532233E+02  0.25533697002E+03  0.27151371693E+03  0.47000000000E+01 0. -1.
        -11    1    1    2    0    0  0.68032597717E+02  0.49762072989E+02  0.17236737028E+03  0.19187289699E+03  0.00000000000E+00 0. -1.
         11    1    1    2    0    0 -0.15621609607E+02 -0.99187202095E+01  0.35799956975E+01  0.18847601081E+02  0.00000000000E+00 0.  1.
<mgrwt>
<rscale>  0 0.13447360E+03</rscale>
<asrwt>0</asrwt>
<pdfrwt beam="1">  1        1 0.73785336E-01 0.14128164E+03</pdfrwt>
<pdfrwt beam="2">  1       -1 0.53566240E-02 0.14128164E+03</pdfrwt>
<totfact> 0.72664440E+03</totfact>
</mgrwt>
</event>
<event>
 6    1  0.6101889E-006  0.1549692E+03  0.7546771E-02  0.1202798E+00
         -1   -1    0    0    0  501 -0.00000000000E+00  0.00000000000E+00  0.13983637754E+03  0.13983637754E+03  0.00000000000E+00 0.  1.
          1   -1    0    0  501    0  0.00000000000E+00 -0.00000000000E+00 -0.16159758785E+03  0.16159758785E+03  0.00000000000E+00 0. -1.
          5    1    1    2  502    0 -0.97594627356E+02  0.15772653237E+02 -0.50285236808E+02  0.11101433655E+03  0.47000000000E+01 0. -1.
         -5    1    1    2    0  502  0.13687051040E+02 -0.52448692451E+02 -0.10289277693E+02  0.55372917039E+02  0.47000000000E+01 0. -1.
        -11    1    1    2    0    0  0.67061107495E+02  0.65586205364E+02  0.17628548605E+02  0.95443743631E+02  0.00000000000E+00 0. -1.
         11    1    1    2    0    0  0.16846468821E+02 -0.28910166149E+02  0.21184755581E+02  0.39602968166E+02  0.00000000000E+00 0.  1.
<mgrwt>
<rscale>  0 0.14812375E+03</rscale>
<asrwt>0</asrwt>
<pdfrwt beam="2">  1        1 0.24861167E-01 0.15496918E+03</pdfrwt>
<pdfrwt beam="1">  1       -1 0.21513289E-01 0.15496918E+03</pdfrwt>
<totfact> 0.33445421E+03</totfact>
</mgrwt>
</event>
<event>
 6    1  0.6101889E-006  0.3995639E+03  0.7546771E-02  0.1043931E+00
          1   -1    0    0  501    0  0.00000000000E+00  0.00000000000E+00  0.10584886507E+03  0.10584886507E+03  0.00000000000E+00 0. -1.
         -1   -1    0    0    0  501 -0.00000000000E+00 -0.00000000000E+00 -0.37707364888E+03  0.37707364888E+03  0.00000000000E+00 0.  1.
          5    1    1    2  502    0  0.16602453781E+03  0.15138908082E+02 -0.13492717679E+03  0.21452451312E+03  0.47000000000E+01 0. -1.
         -5    1    1    2    0  502 -0.35527144190E+01  0.22740585717E+02  0.13127496378E+02  0.26910540308E+02  0.47000000000E+01 0. -1.
        -11    1    1    2    0    0 -0.11742334866E+03 -0.41472524757E+02 -0.15166446814E+03  0.19624047497E+03  0.00000000000E+00 0.  1.
         11    1    1    2    0    0 -0.45048474730E+02  0.35930309581E+01  0.22393647447E+01  0.45246985550E+02  0.00000000000E+00 0. -1.
<mgrwt>
<rscale>  0 0.39956385E+03</rscale>
<asrwt>0</asrwt>
<pdfrwt beam="1">  1        1 0.16284441E-01 0.39956385E+03</pdfrwt>
<pdfrwt beam="2">  1       -1 0.58011330E-01 0.39956385E+03</pdfrwt>
<totfact> 0.10410106E+03</totfact>
</mgrwt>
</event>
<event>
 6    1  0.6101889E-006  0.1361170E+03  0.7546771E-02  0.1234397E+00
         -1   -1    0    0    0  501 -0.00000000000E+00  0.00000000000E+00  0.33505352052E+02  0.33505352052E+02  0.00000000000E+00 0.  1.
          1   -1    0    0  501    0  0.00000000000E+00 -0.00000000000E+00 -0.67137940119E+03  0.67137940119E+03  0.00000000000E+00 0. -1.
          5    1    1    2  502    0  0.17849326332E+02 -0.88682498962E+02 -0.38325418021E+03  0.39381345930E+03  0.47000000000E+01 0. -1.
         -5    1    1    2    0  502  0.11824844006E+02  0.43699453369E+02 -0.18556199365E+03  0.19106232661E+03  0.47000000000E+01 0. -1.
        -11    1    1    2    0    0 -0.52619167279E+02  0.61832381969E+01 -0.39880444062E+02  0.66313339671E+02  0.00000000000E+00 0. -1.
         11    1    1    2    0    0  0.22944996941E+02  0.38799807396E+02 -0.29177431214E+02  0.53695627670E+02  0.00000000000E+00 0.  1.
<mgrwt>
<rscale>  0 0.12543116E+03</rscale>
<asrwt>0</asrwt>
<pdfrwt beam="2">  1        1 0.10328913E+00 0.13611703E+03</pdfrwt>
<pdfrwt beam="1">  1       -1 0.51546699E-02 0.13611703E+03</pdfrwt>
<totfact> 0.48821640E+03</totfact>
</mgrwt>
</event>
<event>
 6    1  0.6101889E-006  0.1533208E+03  0.7546771E-02  0.1206163E+00
          2   -1    0    0  501    0  0.00000000000E+00  0.00000000000E+00  0.43720753639E+02  0.43720753639E+02  0.00000000000E+00 0. -1.
         -2   -1    0    0    0  501 -0.00000000000E+00 -0.00000000000E+00 -0.46550178369E+03  0.46550178369E+03  0.00000000000E+00 0.  1.
          5    1    1    2  502    0  0.51301359032E+02  0.37679745860E+02 -0.82324876329E+02  0.10416845947E+03  0.47000000000E+01 0. -1.
         -5    1    1    2    0  502  0.23399073552E+02 -0.85653961778E+02 -0.90744820510E+02  0.12704656729E+03  0.47000000000E+01 0. -1.
        -11    1    1    2    0    0  0.10826024292E+02  0.22800972994E+02 -0.11189607253E+03  0.11470753340E+03  0.00000000000E+00 0.  1.
         11    1    1    2    0    0 -0.85526456876E+02  0.25173242925E+02 -0.13681526068E+03  0.16329997716E+03  0.00000000000E+00 0. -1.
<mgrwt>
<rscale>  0 0.14546200E+03</rscale>
<asrwt>0</asrwt>
<pdfrwt beam="1">  1        2 0.67262697E-02 0.15332080E+03</pdfrwt>
<pdfrwt beam="2">  1       -2 0.71615660E-01 0.15332080E+03</pdfrwt>
<totfact> 0.18751224E+03</totfact>
</mgrwt>
</event>
<event>
 6    1  0.6101889E-006  0.1284949E+03  0.7546771E-02  0.1244623E+00
         -1   -1    0    0    0  501 -0.00000000000E+00  0.00000000000E+00  0.28399740872E+03  0.28399740872E+03  0.00000000000E+00 0.  1.
          1   -1    0    0  501    0  0.00000000000E+00 -0.00000000000E+00 -0.54328710899E+02  0.54328710899E+02  0.00000000000E+00 0. -1.
          5    1    1    2  502    0 -0.23960223045E+02 -0.42088310021E+02  0.87355674512E+02  0.99993109753E+02  0.47000000000E+01 0.  1.
         -5    1    1    2    0  502  0.80702405010E+00  0.23371971033E+02 -0.32004960178E+02  0.39916259767E+02  0.47000000000E+01 0.  1.
        -11    1    1    2    0    0  0.52514884685E+02  0.24351350790E+01  0.62514461302E+02  0.81681092477E+02  0.00000000000E+00 0. -1.
         11    1    1    2    0    0 -0.29361685691E+02  0.16281203909E+02  0.11180352219E+03  0.11673565762E+03  0.00000000000E+00 0.  1.
<mgrwt>
<rscale>  0 0.11907996E+03</rscale>
<asrwt>0</asrwt>
<pdfrwt beam="2">  1        1 0.83582634E-02 0.12849486E+03</pdfrwt>
<pdfrwt beam="1">  1       -1 0.43691908E-01 0.12849486E+03</pdfrwt>
<totfact> 0.41152585E+03</totfact>
</mgrwt>
</event>
<event>
 6    1  0.6101889E-006  0.2535270E+03  0.7546771E-02  0.1114203E+00
         -3   -1    0    0    0  501 -0.00000000000E+00  0.00000000000E+00  0.49202462721E+03  0.49202462721E+03  0.00000000000E+00 0.  1.
          3   -1    0    0  501    0  0.00000000000E+00 -0.00000000000E+00 -0.16158407862E+03  0.16158407862E+03  0.00000000000E+00 0. -1.
          5    1    1    2  502    0 -0.14897807083E+03 -0.13067273173E+03 -0.28488426227E+02  0.20025860489E+03  0.47000000000E+01 0. -1.
         -5    1    1    2    0  502 -0.37880194633E+02  0.13470512943E+02  0.34746227201E+02  0.53345610589E+02  0.47000000000E+01 0. -1.
        -11    1    1    2    0    0  0.12196343331E+03  0.93674968163E+02  0.27556830543E+03  0.31557561642E+03  0.00000000000E+00 0.  1.
         11    1    1    2    0    0  0.64894832157E+02  0.23527250620E+02  0.48614442188E+02  0.84428873922E+02  0.00000000000E+00 0. -1.
<mgrwt>
<rscale>  0 0.24858432E+03</rscale>
<asrwt>0</asrwt>
<pdfrwt beam="2">  1        3 0.24859089E-01 0.25352700E+03</pdfrwt>
<pdfrwt beam="1">  1       -3 0.75696096E-01 0.25352700E+03</pdfrwt>
<totfact> 0.63461670E+01</totfact>
</mgrwt>
</event>
<event>
 6    1  0.6101889E-006  0.2463041E+03  0.7546771E-02  0.1118089E+00
         -1   -1    0    0    0  501 -0.00000000000E+00  0.00000000000E+00  0.75326685202E+02  0.75326685202E+02  0.00000000000E+00 0.  1.
          1   -1    0    0  501    0  0.00000000000E+00 -0.00000000000E+00 -0.85848756406E+03  0.85848756406E+03  0.00000000000E+00 0. -1.
          5    1    1    2  502    0  0.57363210570E+02 -0.18808585935E+03 -0.38878224782E+03  0.43570695959E+03  0.47000000000E+01 0. -1.
         -5    1    1    2    0  502 -0.33354584929E+02 -0.22774330267E+02 -0.17271225775E+03  0.17743396640E+03  0.47000000000E+01 0. -1.
        -11    1    1    2    0    0  0.22241584582E+02  0.94006833982E+02 -0.52538229229E+02  0.10996471457E+03  0.00000000000E+00 0.  1.
         11    1    1    2    0    0 -0.46250210224E+02  0.11685335564E+03 -0.16912814407E+03  0.21070860871E+03  0.00000000000E+00 0. -1.
<mgrwt>
<rscale>  0 0.24257491E+03</rscale>
<asrwt>0</asrwt>
<pdfrwt beam="2">  1        1 0.13207501E+00 0.24630411E+03</pdfrwt>
<pdfrwt beam="1">  1       -1 0.11588721E-01 0.24630411E+03</pdfrwt>
<totfact> 0.99994963E+02</totfact>
</mgrwt>
</event>
<event>
 6    1  0.6101889E-006  0.1372412E+03  0.7546771E-02  0.1228619E+00
         -1   -1    0    0    0  501 -0.00000000000E+00  0.00000000000E+00  0.21932333255E+03  0.21932333255E+03  0.00000000000E+00 0.  1.
          1   -1    0    0  501    0  0.00000000000E+00 -0.00000000000E+00 -0.68805995975E+02  0.68805995975E+02  0.00000000000E+00 0. -1.
          5    1    1    2  502    0 -0.37429504572E+02  0.50620571316E+02  0.59177668899E+02  0.86530321560E+02  0.47000000000E+01 0. -1.
         -5    1    1    2    0  502  0.71485707231E+02 -0.53359753104E+01  0.34956010759E+02  0.79891749630E+02  0.47000000000E+01 0. -1.
        -11    1    1    2    0    0  0.12013375640E+02 -0.39995401532E+02  0.62255612012E+02  0.74964755485E+02  0.00000000000E+00 0.  1.
         11    1    1    2    0    0 -0.46069578298E+02 -0.52891944734E+01 -0.58719550928E+01  0.46742501852E+02  0.00000000000E+00 0. -1.
<mgrwt>
<rscale>  0 0.12921932E+03</rscale>
<asrwt>0</asrwt>
<pdfrwt beam="2">  1        1 0.10585538E-01 0.13724123E+03</pdfrwt>
<pdfrwt beam="1">  1       -1 0.33742051E-01 0.13724123E+03</pdfrwt>
<totfact> 0.47336832E+03</totfact>
</mgrwt>
</event>
<event>
 6    1  0.6101889E-006  0.1355784E+03  0.7546771E-02  0.1231619E+00
         -1   -1    0    0    0  501 -0.00000000000E+00  0.00000000000E+00  0.29863984330E+02  0.29863984330E+02  0.00000000000E+00 0.  1.
          1   -1    0    0  501    0  0.00000000000E+00 -0.00000000000E+00 -0.55756277365E+03  0.55756277365E+03  0.00000000000E+00 0. -1.
          5    1    1    2  502    0  0.29919220995E+02  0.86610487721E+02 -0.30260467698E+03  0.31620913475E+03  0.47000000000E+01 0. -1.
         -5    1    1    2    0  502 -0.23629235263E+02 -0.34454711886E+02 -0.95373194563E+02  0.10422861494E+03  0.47000000000E+01 0. -1.
        -11    1    1    2    0    0  0.22681316582E+02 -0.10429363257E+02  0.27472525978E+01  0.25114958424E+02  0.00000000000E+00 0. -1.
         11    1    1    2    0    0 -0.28971302314E+02 -0.41726412578E+02 -0.13246817038E+03  0.14187404987E+03  0.00000000000E+00 0.  1.
<mgrwt>
<rscale>  0 0.12723355E+03</rscale>
<asrwt>0</asrwt>
<pdfrwt beam="2">  1        1 0.85778889E-01 0.13557845E+03</pdfrwt>
<pdfrwt beam="1">  1       -1 0.45944591E-02 0.13557845E+03</pdfrwt>
<totfact> 0.74626274E+03</totfact>
</mgrwt>
</event>
<event>
 6    1  0.6101889E-006  0.1278796E+03  0.7546771E-02  0.1245778E+00
         -1   -1    0    0    0  501 -0.00000000000E+00  0.00000000000E+00  0.55965415452E+03  0.55965415452E+03  0.00000000000E+00 0.  1.
          1   -1    0    0  501    0  0.00000000000E+00 -0.00000000000E+00 -0.24400422744E+02  0.24400422744E+02  0.00000000000E+00 0. -1.
          5    1    1    2  502    0 -0.23306424437E+02 -0.23119324104E+02  0.17890358989E+03  0.18195130404E+03  0.47000000000E+01 0.  1.
         -5    1    1    2    0  502  0.28174001304E+02  0.49651471549E+02  0.34599794140E+02  0.66919942701E+02  0.47000000000E+01 0.  1.
        -11    1    1    2    0    0 -0.18435439057E+02  0.20459460296E+02  0.36256801410E+02  0.45530325908E+02  0.00000000000E+00 0.  1.
         11    1    1    2    0    0  0.13567862189E+02 -0.46991607741E+02  0.28549354633E+03  0.28965300461E+03  0.00000000000E+00 0. -1.
<mgrwt>
<rscale>  0 0.11838940E+03</rscale>
<asrwt>0</asrwt>
<pdfrwt beam="2">  1        1 0.37539116E-02 0.12787964E+03</pdfrwt>
<pdfrwt beam="1">  1       -1 0.86100629E-01 0.12787964E+03</pdfrwt>
<totfact> 0.33280287E+03</totfact>
</mgrwt>
</event>
<event>
 6    1  0.6101889E-006  0.2365543E+03  0.7546771E-02  0.1126966E+00
         -2   -1    0    0    0  501 -0.00000000000E+00  0.00000000000E+00  0.46782855550E+03  0.46782855550E+03  0.00000000000E+00 0.  1.
          2   -1    0    0  501    0  0.00000000000E+00 -0.00000000000E+00 -0.11835474494E+03  0.11835474494E+03  0.00000000000E+00 0. -1.
          5    1    1    2  502    0  0.10658076768E+01 -0.14950994598E+02  0.46097149726E+02  0.48700158093E+02  0.47000000000E+01 0. -1.
         -5    1    1    2    0  502  0.19962043387E+03  0.73325242762E+01  0.45188212855E+02  0.20485640852E+03  0.47000000000E+01 0. -1.
        -11    1    1    2    0    0 -0.16385464643E+03  0.22849999509E+02  0.17758505806E+03  0.24270747924E+03  0.00000000000E+00 0. -1.
         11    1    1    2    0    0 -0.36831595111E+02 -0.15231529188E+02  0.80603389921E+02  0.89919254594E+02  0.00000000000E+00 0.  1.
<mgrwt>
<rscale>  0 0.22953773E+03</rscale>
<asrwt>0</asrwt>
<pdfrwt beam="2">  1        2 0.18208423E-01 0.23655425E+03</pdfrwt>
<pdfrwt beam="1">  1       -2 0.71973623E-01 0.23655425E+03</pdfrwt>
<totfact> 0.55637575E+02</totfact>
</mgrwt>
</event>
<event>
 6    1  0.6101889E-006  0.1314013E+03  0.7546771E-02  0.1239125E+00
         -2   -1    0    0    0  501 -0.00000000000E+00  0.00000000000E+00  0.20442476682E+03  0.20442476682E+03  0.00000000000E+00 0.  1.
          2   -1    0    0  501    0  0.00000000000E+00 -0.00000000000E+00 -0.13937527205E+03  0.13937527205E+03  0.00000000000E+00 0. -1.
          5    1    1    2  502    0  0.21031094300E+02  0.45980536880E+02 -0.10066078549E+03  0.11274395963E+03  0.47000000000E+01 0. -1.
         -5    1    1    2    0  502  0.19315169794E+02 -0.41035801260E+02  0.10277324091E+02  0.46741054329E+02  0.47000000000E+01 0.  1.
        -11    1    1    2    0    0 -0.65545624551E+02  0.13984736870E+02  0.96615525842E+02  0.11758555012E+03  0.00000000000E+00 0.  1.
         11    1    1    2    0    0  0.25199360457E+02 -0.18929472490E+02  0.58817430324E+02  0.66729474792E+02  0.00000000000E+00 0. -1.
<mgrwt>
<rscale>  0 0.12243987E+03</rscale>
<asrwt>0</asrwt>
<pdfrwt beam="2">  1        2 0.21442350E-01 0.13140129E+03</pdfrwt>
<pdfrwt beam="1">  1       -2 0.31449964E-01 0.13140129E+03</pdfrwt>
<totfact> 0.23239231E+03</totfact>
</mgrwt>
</event>
<event>
 6    1  0.6101889E-006  0.2087517E+03  0.7546771E-02  0.1146531E+00
          1   -1    0    0  501    0  0.00000000000E+00  0.00000000000E+00  0.21850144646E+04  0.21850144646E+04  0.00000000000E+00 0. -1.
         -1   -1    0    0    0  501 -0.00000000000E+00 -0.00000000000E+00 -0.21183899368E+02  0.21183899368E+02  0.00000000000E+00 0.  1.
          5    1    1    2  502    0 -0.29823078809E+02 -0.11510435797E+02  0.68820515794E+03  0.68896323239E+03  0.47000000000E+01 0. -1.
         -5    1    1    2    0  502 -0.10857391503E+03  0.10527487461E+03  0.85303431126E+03  0.86634907539E+03  0.47000000000E+01 0. -1.
        -11    1    1    2    0    0  0.48009688203E+02 -0.15788917975E+01  0.81471355304E+02  0.94578035482E+02  0.00000000000E+00 0.  1.
         11    1    1    2    0    0  0.90387305633E+02 -0.92185547014E+02  0.54111974071E+03  0.55630802069E+03  0.00000000000E+00 0. -1.
<mgrwt>
<rscale>  0 0.20384969E+03</rscale>
<asrwt>0</asrwt>
<pdfrwt beam="1">  1        1 0.33615589E+00 0.20875170E+03</pdfrwt>
<pdfrwt beam="2">  1       -1 0.32590632E-02 0.20875170E+03</pdfrwt>
<totfact> 0.85905688E+02</totfact>
</mgrwt>
</event>
<event>
 6    1  0.6101889E-006  0.1335104E+03  0.7546771E-02  0.1237051E+00
          1   -1    0    0  501    0  0.00000000000E+00  0.00000000000E+00  0.12277616027E+03  0.12277616027E+03  0.00000000000E+00 0. -1.
         -1   -1    0    0    0  501 -0.00000000000E+00 -0.00000000000E+00 -0.11851707517E+03  0.11851707517E+03  0.00000000000E+00 0.  1.
          5    1    1    2  502    0 -0.26186782283E+02 -0.44085474506E+02  0.24599683154E+02  0.57065848281E+02  0.47000000000E+01 0.  1.
         -5    1    1    2    0  502  0.72175566331E+02  0.34883937500E+02  0.10528572783E+02  0.80988532000E+02  0.47000000000E+01 0.  1.
        -11    1    1    2    0    0 -0.24549484722E+02 -0.31503020071E+02  0.10578592877E+02  0.41316148186E+02  0.00000000000E+00 0. -1.
         11    1    1    2    0    0 -0.21439299326E+02  0.40704557077E+02 -0.41447763709E+02  0.61922706973E+02  0.00000000000E+00 0.  1.
<mgrwt>
<rscale>  0 0.12374073E+03</rscale>
<asrwt>0</asrwt>
<pdfrwt beam="1">  1        1 0.18888640E-01 0.13351036E+03</pdfrwt>
<pdfrwt beam="2">  1       -1 0.18233396E-01 0.13351036E+03</pdfrwt>
<totfact> 0.61265639E+03</totfact>
</mgrwt>
</event>
<event>
 6    1  0.6101889E-006  0.3702885E+03  0.7546771E-02  0.1095136E+00
         -3   -1    0    0    0  501 -0.00000000000E+00  0.00000000000E+00  0.24602425373E+03  0.24602425373E+03  0.00000000000E+00 0.  1.
          3   -1    0    0  501    0  0.00000000000E+00 -0.00000000000E+00 -0.26354760058E+03  0.26354760058E+03  0.00000000000E+00 0. -1.
          5    1    1    2  502    0 -0.12547457760E+03 -0.11827685077E+03  0.46889077692E+02  0.17875670242E+03  0.47000000000E+01 0. -1.
         -5    1    1    2    0  502  0.50349507201E+02  0.15249373848E+03 -0.11541689548E+03  0.19781952106E+03  0.47000000000E+01 0.  1.
        -11    1    1    2    0    0 -0.10787588157E+02 -0.32694820265E+02  0.29741481689E+01  0.34556748802E+02  0.00000000000E+00 0. -1.
         11    1    1    2    0    0  0.85912658560E+02 -0.15220674454E+01  0.48030322760E+02  0.98438882026E+02  0.00000000000E+00 0.  1.
<mgrwt>
<rscale>  0 0.28101424E+03</rscale>
<asrwt>0</asrwt>
<pdfrwt beam="2">  1        3 0.40545785E-01 0.37028852E+03</pdfrwt>
<pdfrwt beam="1">  1       -3 0.37849885E-01 0.37028852E+03</pdfrwt>
<totfact> 0.10713889E+02</totfact>
</mgrwt>
</event>
<event>
 6    1  0.6101889E-006  0.2497265E+03  0.7546771E-02  0.1116440E+00
          1   -1    0    0  501    0  0.00000000000E+00  0.00000000000E+00  0.10234995170E+04  0.10234995170E+04  0.00000000000E+00 0. -1.
         -1   -1    0    0    0  501 -0.00000000000E+00 -0.00000000000E+00 -0.71158229905E+02  0.71158229905E+02  0.00000000000E+00 0.  1.
          5    1    1    2  502    0 -0.11191900637E+03  0.69200925784E+02  0.55240760384E+03  0.56788280736E+03  0.47000000000E+01 0.  1.
         -5    1    1    2    0  502 -0.98640204377E+02 -0.20173395911E+02  0.18517639728E+03  0.21082989335E+03  0.47000000000E+01 0.  1.
        -11    1    1    2    0    0  0.10129897458E+03 -0.27131089876E+02  0.47879135404E+02  0.11528221847E+03  0.00000000000E+00 0.  1.
         11    1    1    2    0    0  0.10926023616E+03 -0.21896439997E+02  0.16687815060E+03  0.20066282774E+03  0.00000000000E+00 0. -1.
<mgrwt>
<rscale>  0 0.24510141E+03</rscale>
<asrwt>0</asrwt>
<pdfrwt beam="1">  1        1 0.15746145E+00 0.24972647E+03</pdfrwt>
<pdfrwt beam="2">  1       -1 0.10947421E-01 0.24972647E+03</pdfrwt>
<totfact> 0.81538027E+02</totfact>
</mgrwt>
</event>
<event>
 6    1  0.6101889E-006  0.1575705E+03  0.7546771E-02  0.1199980E+00
          3   -1    0    0  501    0  0.00000000000E+00  0.00000000000E+00  0.15956732051E+03  0.15956732051E+03  0.00000000000E+00 0. -1.
         -3   -1    0    0    0  501 -0.00000000000E+00 -0.00000000000E+00 -0.14143330195E+03  0.14143330195E+03  0.00000000000E+00 0.  1.
          5    1    1    2  502    0 -0.11255928519E+03 -0.62588765843E+01  0.39672975049E+02  0.11960268044E+03  0.47000000000E+01 0.  1.
         -5    1    1    2    0  502  0.22190911418E+02  0.38462592560E+02  0.12262229864E+02  0.46306153557E+02  0.47000000000E+01 0.  1.
        -11    1    1    2    0    0  0.70679310149E+02 -0.37649957826E+02 -0.61289411491E+02  0.10084382068E+03  0.00000000000E+00 0.  1.
         11    1    1    2    0    0  0.19689063624E+02  0.54462418505E+01  0.27488225132E+02  0.34247967788E+02  0.00000000000E+00 0. -1.
<mgrwt>
<rscale>  0 0.15040209E+03</rscale>
<asrwt>0</asrwt>
<pdfrwt beam="1">  1        3 0.24548819E-01 0.15757054E+03</pdfrwt>
<pdfrwt beam="2">  1       -3 0.21758970E-01 0.15757054E+03</pdfrwt>
<totfact> 0.70883810E+02</totfact>
</mgrwt>
</event>
<event>
 6    1  0.6101889E-006  0.4745929E+03  0.7546771E-02  0.1020632E+00
          1   -1    0    0  501    0  0.00000000000E+00  0.00000000000E+00  0.51648971913E+03  0.51648971913E+03  0.00000000000E+00 0. -1.
         -1   -1    0    0    0  501 -0.00000000000E+00 -0.00000000000E+00 -0.10902366034E+03  0.10902366034E+03  0.00000000000E+00 0.  1.
          5    1    1    2  502    0  0.71448822261E+02  0.12853039184E+03  0.22928328455E+03  0.27242964303E+03  0.47000000000E+01 0.  1.
         -5    1    1    2    0  502  0.40354986382E+02 -0.16259205004E+02  0.16236194958E+03  0.16815581864E+03  0.47000000000E+01 0.  1.
        -11    1    1    2    0    0 -0.68195164917E+02 -0.51536774712E+01  0.10110273340E+02  0.69132904876E+02  0.00000000000E+00 0.  1.
         11    1    1    2    0    0 -0.43608643726E+02 -0.10711750936E+03  0.57105513157E+01  0.11579501291E+03  0.00000000000E+00 0. -1.
<mgrwt>
<rscale>  0 0.47459288E+03</rscale>
<asrwt>0</asrwt>
<pdfrwt beam="1">  1        1 0.79459955E-01 0.47459288E+03</pdfrwt>
<pdfrwt beam="2">  1       -1 0.16772871E-01 0.47459288E+03</pdfrwt>
<totfact> 0.11632963E+03</totfact>
</mgrwt>
</event>
<event>
 6    1  0.6101889E-006  0.1538134E+03  0.7546771E-02  0.1204459E+00
          1   -1    0    0  501    0  0.00000000000E+00  0.00000000000E+00  0.12044806078E+04  0.12044806078E+04  0.00000000000E+00 0. -1.
         -1   -1    0    0    0  501 -0.00000000000E+00 -0.00000000000E+00 -0.16626024494E+02  0.16626024494E+02  0.00000000000E+00 0.  1.
          5    1    1    2  502    0 -0.52744022670E+02  0.82343953303E+02  0.59620959653E+03  0.60419403471E+03  0.47000000000E+01 0.  1.
         -5    1    1    2    0  502 -0.24798851579E+02 -0.37386022071E+02  0.11658554233E+03  0.12500790522E+03  0.47000000000E+01 0.  1.
        -11    1    1    2    0    0  0.34355956208E+02 -0.69614235010E+02  0.30487312841E+03  0.31460149057E+03  0.00000000000E+00 0.  1.
         11    1    1    2    0    0  0.43186918040E+02  0.24656303777E+02  0.17018631606E+03  0.17730320183E+03  0.00000000000E+00 0. -1.
<mgrwt>
<rscale>  0 0.14680187E+03</rscale>
<asrwt>0</asrwt>
<pdfrwt beam="1">  1        1 0.18530464E+00 0.15381339E+03</pdfrwt>
<pdfrwt beam="2">  1       -1 0.25578509E-02 0.15381339E+03</pdfrwt>
<totfact> 0.53348358E+03</totfact>
</mgrwt>
</event>
<event>
 6    1  0.6101889E-006  0.1340007E+03  0.7546771E-02  0.1234644E+00
         -1   -1    0    0    0  501 -0.00000000000E+00  0.00000000000E+00  0.15012733422E+03  0.15012733422E+03  0.00000000000E+00 0.  1.
          1   -1    0    0  501    0  0.00000000000E+00 -0.00000000000E+00 -0.93803587365E+02  0.93803587365E+02  0.00000000000E+00 0. -1.
          5    1    1    2  502    0 -0.26465835974E+02  0.31573912529E+02 -0.34874991457E+02  0.54182169164E+02  0.47000000000E+01 0.  1.
         -5    1    1    2    0  502 -0.14324754053E+02 -0.57398175428E+02  0.55769901611E+02  0.81437835475E+02  0.47000000000E+01 0.  1.
        -11    1    1    2    0    0 -0.28260467418E+02  0.15652247573E+02  0.77161881417E+01  0.33214250439E+02  0.00000000000E+00 0.  1.
         11    1    1    2    0    0  0.69051057445E+02  0.10172015326E+02  0.27712648557E+02  0.75096666505E+02  0.00000000000E+00 0. -1.
<mgrwt>
<rscale>  0 0.12527229E+03</rscale>
<asrwt>0</asrwt>
<pdfrwt beam="2">  1        1 0.14431321E-01 0.13400070E+03</pdfrwt>
<pdfrwt beam="1">  1       -1 0.23096513E-01 0.13400070E+03</pdfrwt>
<totfact> 0.59215031E+03</totfact>
</mgrwt>
</event>
