<event>
 8    1  0.1033707E-005  0.1293588E+03  0.7546771E-02  0.1228854E+00
         -1   -1    0    0    0  501 -0.00000000000E+00  0.00000000000E+00  0.35999732755E+03  0.35999732755E+03  0.00000000000E+00 0.  1.
          1   -1    0    0  501    0  0.00000000000E+00 -0.00000000000E+00 -0.62644687317E+02  0.62644687317E+02  0.00000000000E+00 0. -1.
         23    2    1    2    0    0 -0.12479942816E+02 -0.30853199913E+02  0.25791401023E+03  0.28853652203E+03  0.12500407575E+03 0.  0.
         23    2    1    2    0    0  0.12479942816E+02  0.30853199913E+02  0.39438630000E+02  0.13410549283E+03  0.12377887039E+03 0.  0.
          5    1    3    3  502    0 -0.23566032588E+02 -0.32764686059E+02  0.26900391456E+03  0.27205528591E+03  0.47000000000E+01 0. -1.
         -5    1    3    3    0  502  0.11086089772E+02  0.19114861459E+01 -0.11089904334E+02  0.16481236114E+02  0.47000000000E+01 0. -1.
        -11    1    4    4    0    0 -0.12335579243E+02 -0.39473384698E+02 -0.12524693130E+02  0.43210907799E+02  0.00000000000E+00 0. -1.
         11    1    4    4    0    0  0.24815522059E+02  0.70326584611E+02  0.51963323130E+02  0.90894585036E+02  0.00000000000E+00 0.  1.
<mgrwt>
<rscale>  0 0.12906184E+03</rscale>
<asrwt>0</asrwt>
<pdfrwt beam="2">  1        1 0.96376444E-02 0.12935876E+03</pdfrwt>
<pdfrwt beam="1">  1       -1 0.55384203E-01 0.12935876E+03</pdfrwt>
<totfact> 0.22130128E+03</totfact>
</mgrwt>
</event>
<event>
 8    1  0.1033707E-005  0.1251362E+03  0.7546771E-02  0.1250314E+00
         -3   -1    0    0    0  501 -0.00000000000E+00  0.00000000000E+00  0.67131649921E+02  0.67131649921E+02  0.00000000000E+00 0.  1.
          3   -1    0    0  501    0  0.00000000000E+00 -0.00000000000E+00 -0.21549318767E+03  0.21549318767E+03  0.00000000000E+00 0. -1.
         23    2    1    2    0    0 -0.56085422163E+01  0.16527015825E+01 -0.22735826172E+02  0.12718482435E+03  0.12499949834E+03 0.  0.
         23    2    1    2    0    0  0.56085422163E+01 -0.16527015825E+01 -0.12562571158E+03  0.15544001325E+03  0.91354207015E+02 0.  0.
          5    1    3    3  502    0 -0.32218292142E+02 -0.22261480837E+02 -0.62237519518E+02  0.73683042238E+02  0.47000000000E+01 0. -1.
         -5    1    3    3    0  502  0.26609749926E+02  0.23914182420E+02  0.39501693346E+02  0.53501782112E+02  0.47000000000E+01 0. -1.
        -11    1    4    4    0    0  0.19814103148E+02 -0.30473335638E+02 -0.11649855854E+03  0.12203744102E+03  0.00000000000E+00 0. -1.
         11    1    4    4    0    0 -0.14205560931E+02  0.28820634055E+02 -0.91271530400E+01  0.33402572226E+02  0.00000000000E+00 0.  1.
<mgrwt>
<rscale>  0 0.11572874E+03</rscale>
<asrwt>0</asrwt>
<pdfrwt beam="2">  1        3 0.33152798E-01 0.12513617E+03</pdfrwt>
<pdfrwt beam="1">  1       -3 0.10327946E-01 0.12513617E+03</pdfrwt>
<totfact> 0.14111198E+03</totfact>
</mgrwt>
</event>
<event>
 8    1  0.1033707E-005  0.1252683E+03  0.7546771E-02  0.1249652E+00
          1   -1    0    0  501    0  0.00000000000E+00  0.00000000000E+00  0.52250621971E+02  0.52250621971E+02  0.00000000000E+00 0. -1.
         -1   -1    0    0    0  501 -0.00000000000E+00 -0.00000000000E+00 -0.23305779758E+03  0.23305779758E+03  0.00000000000E+00 0.  1.
         23    2    1    2    0    0  0.80460612681E+01  0.66137429497E+00 -0.12671437546E+03  0.17818160168E+03  0.12500789459E+03 0.  0.
         23    2    1    2    0    0 -0.80460612681E+01 -0.66137429497E+00 -0.54092800153E+02  0.10712681788E+03  0.92113775097E+02 0.  0.
          5    1    3    3  502    0 -0.37297283618E+02 -0.42600951712E+02 -0.34120857999E+02  0.66274062820E+02  0.47000000000E+01 0.  1.
         -5    1    3    3    0  502  0.45343344886E+02  0.43262326007E+02 -0.92593517461E+02  0.11190753886E+03  0.47000000000E+01 0.  1.
        -11    1    4    4    0    0 -0.21793284185E+02  0.28912097582E+02 -0.63576787257E+02  0.73163272890E+02  0.00000000000E+00 0.  1.
         11    1    4    4    0    0  0.13747222917E+02 -0.29573471877E+02  0.94839871041E+01  0.33963544988E+02  0.00000000000E+00 0. -1.
<mgrwt>
<rscale>  0 0.11611210E+03</rscale>
<asrwt>0</asrwt>
<pdfrwt beam="1">  1        1 0.80385572E-02 0.12526831E+03</pdfrwt>
<pdfrwt beam="2">  1       -1 0.35855046E-01 0.12526831E+03</pdfrwt>
<totfact> 0.61130274E+03</totfact>
</mgrwt>
</event>
<event>
 8    1  0.1033707E-005  0.1845485E+03  0.7546771E-02  0.1168649E+00
         -1   -1    0    0    0  501 -0.00000000000E+00  0.00000000000E+00  0.10605745026E+03  0.10605745026E+03  0.00000000000E+00 0.  1.
          1   -1    0    0  501    0  0.00000000000E+00 -0.00000000000E+00 -0.28609102192E+03  0.28609102192E+03  0.00000000000E+00 0. -1.
         23    2    1    2    0    0 -0.75725212679E+02  0.11268790245E+03 -0.93047616398E+02  0.20667852051E+03  0.12500112291E+03 0.  0.
         23    2    1    2    0    0  0.75725212679E+02 -0.11268790245E+03 -0.86985955262E+02  0.18546995168E+03  0.91649742872E+02 0.  0.
          5    1    3    3  502    0 -0.96010958255E+02  0.12195713357E+03 -0.97633800298E+02  0.18342872047E+03  0.47000000000E+01 0.  1.
         -5    1    3    3    0  502  0.20285745575E+02 -0.92692311154E+01  0.45861838993E+01  0.23249800037E+02  0.47000000000E+01 0.  1.
        -11    1    4    4    0    0  0.90042389562E+02 -0.10527343261E+03 -0.53863540600E+02  0.14863178845E+03  0.00000000000E+00 0.  1.
         11    1    4    4    0    0 -0.14317176883E+02 -0.74144698378E+01 -0.33122414662E+02  0.36838163227E+02  0.00000000000E+00 0. -1.
<mgrwt>
<rscale>  0 0.17912889E+03</rscale>
<asrwt>0</asrwt>
<pdfrwt beam="2">  1        1 0.44014003E-01 0.18454851E+03</pdfrwt>
<pdfrwt beam="1">  1       -1 0.16316531E-01 0.18454851E+03</pdfrwt>
<totfact> 0.25711019E+03</totfact>
</mgrwt>
</event>
<event>
 8    1  0.1033707E-005  0.1890038E+03  0.7546771E-02  0.1163909E+00
          1   -1    0    0  501    0  0.00000000000E+00  0.00000000000E+00  0.40637410236E+03  0.40637410236E+03  0.00000000000E+00 0. -1.
         -1   -1    0    0    0  501 -0.00000000000E+00 -0.00000000000E+00 -0.80363445409E+02  0.80363445409E+02  0.00000000000E+00 0.  1.
         23    2    1    2    0    0  0.49177016327E+00 -0.14176065809E+03  0.14383026747E+03  0.23750702034E+03  0.12500445133E+03 0.  0.
         23    2    1    2    0    0 -0.49177016327E+00  0.14176065809E+03  0.18218038948E+03  0.24923052743E+03  0.93967204234E+02 0.  0.
          5    1    3    3  502    0  0.25934190379E+01 -0.16505177827E+03  0.12653641803E+03  0.20804415497E+03  0.47000000000E+01 0. -1.
         -5    1    3    3    0  502 -0.21016488746E+01  0.23291120180E+02  0.17293849439E+02  0.29462865367E+02  0.47000000000E+01 0. -1.
        -11    1    4    4    0    0  0.24249156018E+02  0.12688964166E+03  0.17818604102E+03  0.22008922723E+03  0.00000000000E+00 0. -1.
         11    1    4    4    0    0 -0.24740926181E+02  0.14871016423E+02  0.39943484683E+01  0.29141300202E+02  0.00000000000E+00 0.  1.
<mgrwt>
<rscale>  0 0.18408325E+03</rscale>
<asrwt>0</asrwt>
<pdfrwt beam="1">  1        1 0.62519092E-01 0.18900381E+03</pdfrwt>
<pdfrwt beam="2">  1       -1 0.12363607E-01 0.18900381E+03</pdfrwt>
<totfact> 0.25590708E+03</totfact>
</mgrwt>
</event>
<event>
 8    1  0.1033707E-005  0.1493903E+03  0.7546771E-02  0.1205431E+00
          2   -1    0    0  501    0  0.00000000000E+00  0.00000000000E+00  0.27705853176E+03  0.27705853176E+03  0.00000000000E+00 0. -1.
         -2   -1    0    0    0  501 -0.00000000000E+00 -0.00000000000E+00 -0.73798503916E+02  0.73798503916E+02  0.00000000000E+00 0.  1.
         23    2    1    2    0    0 -0.47992267755E+02 -0.66212692960E+02  0.11238956254E+03  0.18694619376E+03  0.12502034683E+03 0.  0.
         23    2    1    2    0    0  0.47992267755E+02  0.66212692960E+02  0.90870465306E+02  0.16391084191E+03  0.10918765571E+03 0.  0.
          5    1    3    3  502    0 -0.57548080332E+02 -0.98925082082E+02  0.80163307666E+02  0.13980772264E+03  0.47000000000E+01 0. -1.
         -5    1    3    3    0  502  0.95558125772E+01  0.32712389123E+02  0.32226254870E+02  0.47138471115E+02  0.47000000000E+01 0. -1.
        -11    1    4    4    0    0  0.69480582377E+02  0.61008810333E+02  0.27005598782E+02  0.96327195699E+02  0.00000000000E+00 0.  1.
         11    1    4    4    0    0 -0.21488314622E+02  0.52038826265E+01  0.63864866524E+02  0.67583646216E+02  0.00000000000E+00 0. -1.
<mgrwt>
<rscale>  0 0.14603540E+03</rscale>
<asrwt>0</asrwt>
<pdfrwt beam="1">  1        2 0.42624389E-01 0.14939031E+03</pdfrwt>
<pdfrwt beam="2">  1       -2 0.11353616E-01 0.14939031E+03</pdfrwt>
<totfact> 0.61910547E+03</totfact>
</mgrwt>
</event>
<event>
 8    1  0.1033707E-005  0.1673568E+03  0.7546771E-02  0.1187684E+00
          1   -1    0    0  501    0  0.00000000000E+00  0.00000000000E+00  0.49917528124E+03  0.49917528124E+03  0.00000000000E+00 0. -1.
         -1   -1    0    0    0  501 -0.00000000000E+00 -0.00000000000E+00 -0.48805362679E+02  0.48805362679E+02  0.00000000000E+00 0.  1.
         23    2    1    2    0    0  0.77117728295E+02  0.80201025336E+02  0.27214269643E+03  0.31948387950E+03  0.12501581322E+03 0.  0.
         23    2    1    2    0    0 -0.77117728295E+02 -0.80201025336E+02  0.17822722213E+03  0.22849676442E+03  0.89813585619E+02 0.  0.
          5    1    3    3  502    0  0.72844400693E+02  0.11144322491E+03  0.19656449783E+03  0.23745650317E+03  0.47000000000E+01 0.  1.
         -5    1    3    3    0  502  0.42733276018E+01 -0.31242199574E+02  0.75578198601E+02  0.82027376325E+02  0.47000000000E+01 0.  1.
        -11    1    4    4    0    0 -0.89987591309E+02 -0.52883207753E+02  0.99610093126E+02  0.14427948886E+03  0.00000000000E+00 0.  1.
         11    1    4    4    0    0  0.12869863013E+02 -0.27317817583E+02  0.78617129002E+02  0.84217275567E+02  0.00000000000E+00 0. -1.
<mgrwt>
<rscale>  0 0.16090077E+03</rscale>
<asrwt>0</asrwt>
<pdfrwt beam="1">  1        1 0.76796194E-01 0.16735681E+03</pdfrwt>
<pdfrwt beam="2">  1       -1 0.75085177E-02 0.16735681E+03</pdfrwt>
<totfact> 0.41958495E+03</totfact>
</mgrwt>
</event>
<event>
 8    1  0.1033707E-005  0.1962636E+03  0.7546771E-02  0.1157259E+00
         -1   -1    0    0    0  501 -0.00000000000E+00  0.00000000000E+00  0.51312243448E+02  0.51312243448E+02  0.00000000000E+00 0.  1.
          1   -1    0    0  501    0  0.00000000000E+00 -0.00000000000E+00 -0.73306785823E+03  0.73306785823E+03  0.00000000000E+00 0. -1.
         23    2    1    2    0    0  0.14320822058E+03 -0.48844774851E+02 -0.25141953245E+03  0.31895324234E+03  0.12499993213E+03 0.  0.
         23    2    1    2    0    0 -0.14320822058E+03  0.48844774851E+02 -0.43033608234E+03  0.46542685933E+03  0.92404605712E+02 0.  0.
          5    1    3    3  502    0  0.79754302594E+02 -0.62997092937E+02 -0.63217061253E+02  0.11978259195E+03  0.47000000000E+01 0. -1.
         -5    1    3    3    0  502  0.63453917988E+02  0.14152318086E+02 -0.18820247119E+03  0.19917065039E+03  0.47000000000E+01 0. -1.
        -11    1    4    4    0    0 -0.45283892592E+02  0.34599593080E+02 -0.62803449052E+02  0.84805872334E+02  0.00000000000E+00 0.  1.
         11    1    4    4    0    0 -0.97924327991E+02  0.14245181771E+02 -0.36753263328E+03  0.38062098700E+03  0.00000000000E+00 0. -1.
<mgrwt>
<rscale>  0 0.19133879E+03</rscale>
<asrwt>0</asrwt>
<pdfrwt beam="2">  1        1 0.11277966E+00 0.19626357E+03</pdfrwt>
<pdfrwt beam="1">  1       -1 0.78941918E-02 0.19626357E+03</pdfrwt>
<totfact> 0.22966663E+03</totfact>
</mgrwt>
</event>
<event>
 8    1  0.1033707E-005  0.1326242E+03  0.7546771E-02  0.1237230E+00
          1   -1    0    0  501    0  0.00000000000E+00  0.00000000000E+00  0.18245066928E+03  0.18245066928E+03  0.00000000000E+00 0. -1.
         -1   -1    0    0    0  501 -0.00000000000E+00 -0.00000000000E+00 -0.74677630218E+02  0.74677630218E+02  0.00000000000E+00 0.  1.
         23    2    1    2    0    0  0.36682042523E+02 -0.24869257795E+02  0.71162545716E+02  0.15051009137E+03  0.12500050986E+03 0.  0.
         23    2    1    2    0    0 -0.36682042523E+02  0.24869257795E+02  0.36610493348E+02  0.10661820813E+03  0.89794553591E+02 0.  0.
          5    1    3    3  502    0 -0.42096981170E+02  0.94858664383E+00  0.19531062748E+01  0.42414151700E+02  0.47000000000E+01 0.  1.
         -5    1    3    3    0  502  0.78779023693E+02 -0.25817844439E+02  0.69209439441E+02  0.10809593967E+03  0.47000000000E+01 0.  1.
        -11    1    4    4    0    0 -0.29670914799E+02  0.50595569827E+02 -0.31568738143E+01  0.58738749760E+02  0.00000000000E+00 0.  1.
         11    1    4    4    0    0 -0.70111277242E+01 -0.25726312032E+02  0.39767367162E+02  0.47879458369E+02  0.00000000000E+00 0. -1.
<mgrwt>
<rscale>  0 0.12362722E+03</rscale>
<asrwt>0</asrwt>
<pdfrwt beam="1">  1        1 0.28069334E-01 0.13262420E+03</pdfrwt>
<pdfrwt beam="2">  1       -1 0.11488866E-01 0.13262420E+03</pdfrwt>
<totfact> 0.76509453E+03</totfact>
</mgrwt>
</event>
<event>
 8    1  0.1033707E-005  0.1319018E+03  0.7546771E-02  0.1237641E+00
         -1   -1    0    0    0  501 -0.00000000000E+00  0.00000000000E+00  0.26256110125E+02  0.26256110125E+02  0.00000000000E+00 0.  1.
          1   -1    0    0  501    0  0.00000000000E+00 -0.00000000000E+00 -0.51926005321E+03  0.51926005321E+03  0.00000000000E+00 0. -1.
         23    2    1    2    0    0 -0.41395698201E+02  0.79371033263E+01 -0.25841424049E+03  0.29013103249E+03  0.12498597877E+03 0.  0.
         23    2    1    2    0    0  0.41395698201E+02 -0.79371033263E+01 -0.23458970259E+03  0.25538513084E+03  0.91720417857E+02 0.  0.
          5    1    3    3  502    0 -0.59407308350E+02 -0.86697837264E+01 -0.44778981536E+02  0.75044257760E+02  0.47000000000E+01 0.  1.
         -5    1    3    3    0  502  0.18011610150E+02  0.16606887053E+02 -0.21363525895E+03  0.21508677474E+03  0.47000000000E+01 0.  1.
        -11    1    4    4    0    0 -0.23312412588E+02 -0.80137251114E+00 -0.18708685519E+02  0.29901934593E+02  0.00000000000E+00 0. -1.
         11    1    4    4    0    0  0.64708110788E+02 -0.71357308151E+01 -0.21588101707E+03  0.22548319624E+03  0.00000000000E+00 0.  1.
<mgrwt>
<rscale>  0 0.12336895E+03</rscale>
<asrwt>0</asrwt>
<pdfrwt beam="2">  1        1 0.79886155E-01 0.13190184E+03</pdfrwt>
<pdfrwt beam="1">  1       -1 0.40394019E-02 0.13190184E+03</pdfrwt>
<totfact> 0.98924731E+03</totfact>
</mgrwt>
</event>
<event>
 8    1  0.1033707E-005  0.1339224E+03  0.7546771E-02  0.1232163E+00
         -1   -1    0    0    0  501 -0.00000000000E+00  0.00000000000E+00  0.46958079882E+02  0.46958079882E+02  0.00000000000E+00 0.  1.
          1   -1    0    0  501    0  0.00000000000E+00 -0.00000000000E+00 -0.31592258264E+03  0.31592258264E+03  0.00000000000E+00 0. -1.
         23    2    1    2    0    0  0.19143588269E+02  0.44093545242E+02 -0.12694825576E+03  0.18452934105E+03  0.12499800144E+03 0.  0.
         23    2    1    2    0    0 -0.19143588269E+02 -0.44093545242E+02 -0.14201624699E+03  0.17835132147E+03  0.96591209519E+02 0.  0.
          5    1    3    3  502    0  0.15663398452E+02  0.40753105517E+02 -0.15219319486E+03  0.15840144009E+03  0.47000000000E+01 0.  1.
         -5    1    3    3    0  502  0.34801898178E+01  0.33404397251E+01  0.25244939097E+02  0.26127900963E+02  0.47000000000E+01 0.  1.
        -11    1    4    4    0    0  0.10930228392E+02 -0.67326542946E+02 -0.10563013107E+03  0.12573805258E+03  0.00000000000E+00 0. -1.
         11    1    4    4    0    0 -0.30073816662E+02  0.23232997704E+02 -0.36386115925E+02  0.52613268888E+02  0.00000000000E+00 0.  1.
<mgrwt>
<rscale>  0 0.12687815E+03</rscale>
<asrwt>0</asrwt>
<pdfrwt beam="2">  1        1 0.48603473E-01 0.13392243E+03</pdfrwt>
<pdfrwt beam="1">  1       -1 0.72243201E-02 0.13392243E+03</pdfrwt>
<totfact> 0.78459388E+03</totfact>
</mgrwt>
</event>
<event>
 8    1  0.1033707E-005  0.1275811E+03  0.7546771E-02  0.1247233E+00
         -2   -1    0    0    0  501 -0.00000000000E+00  0.00000000000E+00  0.29567619607E+02  0.29567619607E+02  0.00000000000E+00 0.  1.
          2   -1    0    0  501    0  0.00000000000E+00 -0.00000000000E+00 -0.42730285732E+03  0.42730285732E+03  0.00000000000E+00 0. -1.
         23    2    1    2    0    0  0.11158791443E+02 -0.22923626172E+02 -0.18079346175E+03  0.22127635210E+03  0.12500774745E+03 0.  0.
         23    2    1    2    0    0 -0.11158791443E+02  0.22923626172E+02 -0.21694177597E+03  0.23559412483E+03  0.88265770446E+02 0.  0.
          5    1    3    3  502    0  0.60200987049E+02  0.54993487217E+01 -0.13590999818E+03  0.14882210617E+03  0.47000000000E+01 0. -1.
         -5    1    3    3    0  502 -0.49042195606E+02 -0.28422974893E+02 -0.44883463564E+02  0.72454245929E+02  0.47000000000E+01 0. -1.
        -11    1    4    4    0    0  0.13561365126E+02  0.51264943989E+02 -0.10742973629E+03  0.11980464660E+03  0.00000000000E+00 0.  1.
         11    1    4    4    0    0 -0.24720156569E+02 -0.28341317817E+02 -0.10951203967E+03  0.11578947824E+03  0.00000000000E+00 0. -1.
<mgrwt>
<rscale>  0 0.11752715E+03</rscale>
<asrwt>0</asrwt>
<pdfrwt beam="2">  1        2 0.65738896E-01 0.12758114E+03</pdfrwt>
<pdfrwt beam="1">  1       -2 0.45488649E-02 0.12758114E+03</pdfrwt>
<totfact> 0.15738649E+04</totfact>
</mgrwt>
</event>
<event>
 8    1  0.1033707E-005  0.1459182E+03  0.7546771E-02  0.1214975E+00
         -1   -1    0    0    0  501 -0.00000000000E+00  0.00000000000E+00  0.51391815816E+03  0.51391815816E+03  0.00000000000E+00 0.  1.
          1   -1    0    0  501    0  0.00000000000E+00 -0.00000000000E+00 -0.34597756685E+02  0.34597756685E+02  0.00000000000E+00 0. -1.
         23    2    1    2    0    0 -0.71366828914E+02  0.23991140290E+02  0.23581268533E+03  0.27730803327E+03  0.12499329452E+03 0.  0.
         23    2    1    2    0    0  0.71366828914E+02 -0.23991140290E+02  0.24350771615E+03  0.27120788157E+03  0.92676362252E+02 0.  0.
          5    1    3    3  502    0 -0.40730750107E+02 -0.49619842361E+02  0.84661731129E+02  0.10635234590E+03  0.47000000000E+01 0.  1.
         -5    1    3    3    0  502 -0.30636078807E+02  0.73610982651E+02  0.15115095420E+03  0.17095568737E+03  0.47000000000E+01 0.  1.
        -11    1    4    4    0    0  0.24059147489E+02 -0.56883455293E+02  0.12873313131E+03  0.14278231389E+03  0.00000000000E+00 0.  1.
         11    1    4    4    0    0  0.47307681426E+02  0.32892315004E+02  0.11477458484E+03  0.12842556768E+03  0.00000000000E+00 0. -1.
<mgrwt>
<rscale>  0 0.13878366E+03</rscale>
<asrwt>0</asrwt>
<pdfrwt beam="2">  1        1 0.53227322E-02 0.14591821E+03</pdfrwt>
<pdfrwt beam="1">  1       -1 0.79064326E-01 0.14591821E+03</pdfrwt>
<totfact> 0.24765325E+03</totfact>
</mgrwt>
</event>
<event>
 8    1  0.1033707E-005  0.2536180E+03  0.7546771E-02  0.1113358E+00
          2   -1    0    0  501    0  0.00000000000E+00  0.00000000000E+00  0.59896286824E+03  0.59896286824E+03  0.00000000000E+00 0. -1.
         -2   -1    0    0    0  501 -0.00000000000E+00 -0.00000000000E+00 -0.10626147450E+03  0.10626147450E+03  0.00000000000E+00 0.  1.
         23    2    1    2    0    0  0.20796498646E+02 -0.21969284784E+03  0.17741811778E+03  0.30951455791E+03  0.12499852517E+03 0.  0.
         23    2    1    2    0    0 -0.20796498646E+02  0.21969284784E+03  0.31528327595E+03  0.39570978483E+03  0.92115405714E+02 0.  0.
          5    1    3    3  502    0  0.24876125421E+02 -0.14505526673E+03  0.18244101658E+03  0.23444971007E+03  0.47000000000E+01 0. -1.
         -5    1    3    3    0  502 -0.40796267747E+01 -0.74637581112E+02 -0.50228987993E+01  0.75064847840E+02  0.47000000000E+01 0. -1.
        -11    1    4    4    0    0  0.17663466325E+02  0.18198451829E+03  0.26548459568E+03  0.32235451522E+03  0.00000000000E+00 0. -1.
         11    1    4    4    0    0 -0.38459964971E+02  0.37708329547E+02  0.49798680270E+02  0.73355269609E+02  0.00000000000E+00 0.  1.
<mgrwt>
<rscale>  0 0.24991544E+03</rscale>
<asrwt>0</asrwt>
<pdfrwt beam="1">  1        2 0.92148131E-01 0.25361797E+03</pdfrwt>
<pdfrwt beam="2">  1       -2 0.16347920E-01 0.25361797E+03</pdfrwt>
<totfact> 0.14972507E+03</totfact>
</mgrwt>
</event>
<event>
 8    1  0.1033707E-005  0.1350243E+03  0.7546771E-02  0.1231660E+00
          2   -1    0    0  501    0  0.00000000000E+00  0.00000000000E+00  0.17122940047E+03  0.17122940047E+03  0.00000000000E+00 0. -1.
         -2   -1    0    0    0  501 -0.00000000000E+00 -0.00000000000E+00 -0.96702652685E+02  0.96702652685E+02  0.00000000000E+00 0.  1.
         23    2    1    2    0    0  0.43477389085E+02 -0.26743233533E+02 -0.50093249141E+01  0.13511722356E+03  0.12500434738E+03 0.  0.
         23    2    1    2    0    0 -0.43477389085E+02  0.26743233533E+02  0.79536072704E+02  0.13281482960E+03  0.93318316527E+02 0.  0.
          5    1    3    3  502    0  0.16219058520E+02 -0.75022990213E+02  0.98422499458E+01  0.77527200412E+02  0.47000000000E+01 0.  1.
         -5    1    3    3    0  502  0.27258330565E+02  0.48279756680E+02 -0.14851574860E+02  0.57590023147E+02  0.47000000000E+01 0.  1.
        -11    1    4    4    0    0 -0.66706305098E+02  0.40838701099E+02  0.66569223486E+02  0.10270828673E+03  0.00000000000E+00 0.  1.
         11    1    4    4    0    0  0.23228916013E+02 -0.14095467566E+02  0.12966849217E+02  0.30106542872E+02  0.00000000000E+00 0. -1.
<mgrwt>
<rscale>  0 0.12720672E+03</rscale>
<asrwt>0</asrwt>
<pdfrwt beam="1">  1        2 0.26342985E-01 0.13502433E+03</pdfrwt>
<pdfrwt beam="2">  1       -2 0.14877331E-01 0.13502433E+03</pdfrwt>
<totfact> 0.66810847E+03</totfact>
</mgrwt>
</event>
<event>
 8    1  0.1033707E-005  0.1264003E+03  0.7546771E-02  0.1248124E+00
          1   -1    0    0  501    0  0.00000000000E+00  0.00000000000E+00  0.22497806118E+02  0.22497806118E+02  0.00000000000E+00 0. -1.
         -1   -1    0    0    0  501 -0.00000000000E+00 -0.00000000000E+00 -0.54289981423E+03  0.54289981423E+03  0.00000000000E+00 0.  1.
         23    2    1    2    0    0  0.20614193552E+01 -0.18636776436E+02 -0.33533898978E+03  0.35837031729E+03  0.12500186944E+03 0.  0.
         23    2    1    2    0    0 -0.20614193552E+01  0.18636776436E+02 -0.18506301833E+03  0.20702730305E+03  0.90886767855E+02 0.  0.
          5    1    3    3  502    0  0.25657361293E+02  0.43666034434E+02 -0.21299503508E+03  0.21898401248E+03  0.47000000000E+01 0.  1.
         -5    1    3    3    0  502 -0.23595941938E+02 -0.62302810870E+02 -0.12234395470E+03  0.13938630481E+03  0.47000000000E+01 0.  1.
        -11    1    4    4    0    0 -0.22592856092E+01  0.55341686316E+02 -0.12351447131E+03  0.13536480798E+03  0.00000000000E+00 0.  1.
         11    1    4    4    0    0  0.19786625406E+00 -0.36704909881E+02 -0.61548547012E+02  0.71662495070E+02  0.00000000000E+00 0. -1.
<mgrwt>
<rscale>  0 0.11700356E+03</rscale>
<asrwt>0</asrwt>
<pdfrwt beam="1">  1        1 0.34612010E-02 0.12640034E+03</pdfrwt>
<pdfrwt beam="2">  1       -1 0.83523046E-01 0.12640034E+03</pdfrwt>
<totfact> 0.39614981E+03</totfact>
</mgrwt>
</event>
<event>
 8    1  0.1033707E-005  0.1519126E+03  0.7546771E-02  0.1206500E+00
          1   -1    0    0  501    0  0.00000000000E+00  0.00000000000E+00  0.96210278584E+03  0.96210278584E+03  0.00000000000E+00 0. -1.
         -1   -1    0    0    0  501 -0.00000000000E+00 -0.00000000000E+00 -0.21637139578E+02  0.21637139578E+02  0.00000000000E+00 0.  1.
         23    2    1    2    0    0  0.86237902506E+02 -0.48906310388E+01  0.38275615318E+03  0.41180056223E+03  0.12496614002E+03 0.  0.
         23    2    1    2    0    0 -0.86237902506E+02  0.48906310388E+01  0.55770949308E+03  0.57193936319E+03  0.92810895872E+02 0.  0.
          5    1    3    3  502    0  0.61374520694E+02  0.50332751997E+02  0.29169547683E+03  0.30233848401E+03  0.47000000000E+01 0. -1.
         -5    1    3    3    0  502  0.24863381812E+02 -0.55223383035E+02  0.91060676353E+02  0.10946207821E+03  0.47000000000E+01 0. -1.
        -11    1    4    4    0    0  0.54826730267E+01 -0.23582575189E+02  0.54335069822E+02  0.59485270182E+02  0.00000000000E+00 0.  1.
         11    1    4    4    0    0 -0.91720575533E+02  0.28473206228E+02  0.50337442326E+03  0.51245409301E+03  0.00000000000E+00 0. -1.
<mgrwt>
<rscale>  0 0.14519891E+03</rscale>
<asrwt>0</asrwt>
<pdfrwt beam="1">  1        1 0.14801578E+00 0.15191257E+03</pdfrwt>
<pdfrwt beam="2">  1       -1 0.33287915E-02 0.15191257E+03</pdfrwt>
<totfact> 0.54060258E+03</totfact>
</mgrwt>
</event>
<event>
 8    1  0.1033707E-005  0.1454089E+03  0.7546771E-02  0.1216372E+00
          1   -1    0    0  501    0  0.00000000000E+00  0.00000000000E+00  0.36218264442E+03  0.36218264442E+03  0.00000000000E+00 0. -1.
         -1   -1    0    0    0  501 -0.00000000000E+00 -0.00000000000E+00 -0.48706950189E+02  0.48706950189E+02  0.00000000000E+00 0.  1.
         23    2    1    2    0    0  0.67263331710E+02 -0.31515102546E+02  0.14221266597E+03  0.20339169616E+03  0.12500472880E+03 0.  0.
         23    2    1    2    0    0 -0.67263331710E+02  0.31515102546E+02  0.17126302826E+03  0.20749789845E+03  0.90591365661E+02 0.  0.
          5    1    3    3  502    0  0.23872271958E+02 -0.30163484420E+02  0.15347893780E+03  0.15829591122E+03  0.47000000000E+01 0.  1.
         -5    1    3    3    0  502  0.43391059752E+02 -0.13516181256E+01 -0.11266271830E+02  0.45095784935E+02  0.47000000000E+01 0.  1.
        -11    1    4    4    0    0 -0.37513125950E+02  0.32144761361E+02  0.17073275630E+03  0.17773630573E+03  0.00000000000E+00 0. -1.
         11    1    4    4    0    0 -0.29750205760E+02 -0.62965881480E+00  0.53027196048E+00  0.29761592722E+02  0.00000000000E+00 0.  1.
<mgrwt>
<rscale>  0 0.13776207E+03</rscale>
<asrwt>0</asrwt>
<pdfrwt beam="1">  1        1 0.55720405E-01 0.14540887E+03</pdfrwt>
<pdfrwt beam="2">  1       -1 0.74933772E-02 0.14540887E+03</pdfrwt>
<totfact> 0.62964210E+03</totfact>
</mgrwt>
</event>
<event>
 8    1  0.1033707E-005  0.1407675E+03  0.7546771E-02  0.1223189E+00
         -1   -1    0    0    0  501 -0.00000000000E+00  0.00000000000E+00  0.22105218968E+02  0.22105218968E+02  0.00000000000E+00 0.  1.
          1   -1    0    0  501    0  0.00000000000E+00 -0.00000000000E+00 -0.72492619583E+03  0.72492619583E+03  0.00000000000E+00 0. -1.
         23    2    1    2    0    0 -0.29743881131E+02  0.57499690488E+02 -0.36784991403E+03  0.39386423606E+03  0.12499825730E+03 0.  0.
         23    2    1    2    0    0  0.29743881131E+02 -0.57499690488E+02 -0.33497106284E+03  0.35316717874E+03  0.91271738932E+02 0.  0.
          5    1    3    3  502    0  0.41871602687E+01  0.91824365361E+02 -0.25153076260E+03  0.26784148469E+03  0.47000000000E+01 0. -1.
         -5    1    3    3    0  502 -0.33931041399E+02 -0.34324674873E+02 -0.11631915143E+03  0.12602275138E+03  0.47000000000E+01 0. -1.
        -11    1    4    4    0    0 -0.26120556934E+02  0.23388786017E+01 -0.47399667283E+02  0.54170862151E+02  0.00000000000E+00 0.  1.
         11    1    4    4    0    0  0.55864438064E+02 -0.59838569090E+02 -0.28757139555E+03  0.29899631659E+03  0.00000000000E+00 0. -1.
<mgrwt>
<rscale>  0 0.13291791E+03</rscale>
<asrwt>0</asrwt>
<pdfrwt beam="2">  1        1 0.11152710E+00 0.14076746E+03</pdfrwt>
<pdfrwt beam="1">  1       -1 0.34008032E-02 0.14076746E+03</pdfrwt>
<totfact> 0.80817404E+03</totfact>
</mgrwt>
</event>
<event>
 8    1  0.1033707E-005  0.1591028E+03  0.7546771E-02  0.1197644E+00
          1   -1    0    0  501    0  0.00000000000E+00  0.00000000000E+00  0.12470557783E+03  0.12470557783E+03  0.00000000000E+00 0. -1.
         -1   -1    0    0    0  501 -0.00000000000E+00 -0.00000000000E+00 -0.17542307171E+03  0.17542307171E+03  0.00000000000E+00 0.  1.
         23    2    1    2    0    0  0.89552066530E+02 -0.40833743092E+02 -0.48871332361E+02  0.16643951193E+03  0.12500694704E+03 0.  0.
         23    2    1    2    0    0 -0.89552066530E+02  0.40833743092E+02 -0.18461615205E+01  0.13368913761E+03  0.90456674761E+02 0.  0.
          5    1    3    3  502    0  0.75557509796E+02  0.32238150649E+02 -0.11607623322E+02  0.83096706091E+02  0.47000000000E+01 0.  1.
         -5    1    3    3    0  502  0.13994556734E+02 -0.73071893741E+02 -0.37263709039E+02  0.83342805835E+02  0.47000000000E+01 0.  1.
        -11    1    4    4    0    0 -0.36036918867E+02  0.65328222234E+02 -0.47804798954E+01  0.74761548471E+02  0.00000000000E+00 0.  1.
         11    1    4    4    0    0 -0.53515147663E+02 -0.24494479143E+02  0.29343183749E+01  0.58927589143E+02  0.00000000000E+00 0. -1.
<mgrwt>
<rscale>  0 0.15232531E+03</rscale>
<asrwt>0</asrwt>
<pdfrwt beam="1">  1        1 0.19185474E-01 0.15910281E+03</pdfrwt>
<pdfrwt beam="2">  1       -1 0.26988165E-01 0.15910281E+03</pdfrwt>
<totfact> 0.32071251E+03</totfact>
</mgrwt>
</event>
<event>
 8    1  0.1033707E-005  0.1262968E+03  0.7546771E-02  0.1247117E+00
          1   -1    0    0  501    0  0.00000000000E+00  0.00000000000E+00  0.26935760718E+03  0.26935760718E+03  0.00000000000E+00 0. -1.
         -1   -1    0    0    0  501 -0.00000000000E+00 -0.00000000000E+00 -0.51171535404E+02  0.51171535404E+02  0.00000000000E+00 0.  1.
         23    2    1    2    0    0  0.67011351599E+01  0.16750131368E+02  0.69590416538E+02  0.14420024315E+03  0.12500164774E+03 0.  0.
         23    2    1    2    0    0 -0.67011351599E+01 -0.16750131368E+02  0.14859565524E+03  0.17632889943E+03  0.93197317059E+02 0.  0.
          5    1    3    3  502    0  0.38078332743E+02 -0.11349925905E+02 -0.20265754695E+02  0.44850541311E+02  0.47000000000E+01 0. -1.
         -5    1    3    3    0  502 -0.31377197583E+02  0.28100057274E+02  0.89856171232E+02  0.99349701839E+02  0.47000000000E+01 0. -1.
        -11    1    4    4    0    0  0.37298072021E+02 -0.43881956636E+01  0.11089918600E+03  0.11708557509E+03  0.00000000000E+00 0. -1.
         11    1    4    4    0    0 -0.43999207181E+02 -0.12361935705E+02  0.37696469238E+02  0.59243324349E+02  0.00000000000E+00 0.  1.
<mgrwt>
<rscale>  0 0.11759590E+03</rscale>
<asrwt>0</asrwt>
<pdfrwt beam="1">  1        1 0.41439631E-01 0.12629681E+03</pdfrwt>
<pdfrwt beam="2">  1       -1 0.78725441E-02 0.12629681E+03</pdfrwt>
<totfact> 0.83616257E+03</totfact>
</mgrwt>
</event>
<event>
 8    1  0.1033707E-005  0.1426451E+03  0.7546771E-02  0.1220209E+00
          1   -1    0    0  501    0  0.00000000000E+00  0.00000000000E+00  0.37654719506E+03  0.37654719506E+03  0.00000000000E+00 0. -1.
         -1   -1    0    0    0  501 -0.00000000000E+00 -0.00000000000E+00 -0.43939676076E+02  0.43939676076E+02  0.00000000000E+00 0.  1.
         23    2    1    2    0    0 -0.62455658131E+02 -0.28667365604E+02  0.17737853722E+03  0.22761980134E+03  0.12500040565E+03 0.  0.
         23    2    1    2    0    0  0.62455658131E+02  0.28667365604E+02  0.15522898176E+03  0.19286706979E+03  0.91537657547E+02 0.  0.
          5    1    3    3  502    0 -0.75823607061E+02  0.24353708343E+02  0.14027109676E+03  0.16137036000E+03  0.47000000000E+01 0.  1.
         -5    1    3    3    0  502  0.13367948929E+02 -0.53021073948E+02  0.37107440458E+02  0.66249441345E+02  0.47000000000E+01 0.  1.
        -11    1    4    4    0    0  0.60504519565E+02  0.48713334968E+02  0.15424772476E+03  0.17270247967E+03  0.00000000000E+00 0. -1.
         11    1    4    4    0    0  0.19511385665E+01 -0.20045969364E+02  0.98125699993E+00  0.20164590121E+02  0.00000000000E+00 0.  1.
<mgrwt>
<rscale>  0 0.13500769E+03</rscale>
<asrwt>0</asrwt>
<pdfrwt beam="1">  1        1 0.57930335E-01 0.14264511E+03</pdfrwt>
<pdfrwt beam="2">  1       -1 0.67599504E-02 0.14264511E+03</pdfrwt>
<totfact> 0.69922050E+03</totfact>
</mgrwt>
</event>
<event>
 8    1  0.1033707E-005  0.1487277E+03  0.7546771E-02  0.1211704E+00
         -2   -1    0    0    0  501 -0.00000000000E+00  0.00000000000E+00  0.31551907682E+02  0.31551907682E+02  0.00000000000E+00 0.  1.
          2   -1    0    0  501    0  0.00000000000E+00 -0.00000000000E+00 -0.57788419929E+03  0.57788419929E+03  0.00000000000E+00 0. -1.
         23    2    1    2    0    0  0.30912185497E+02 -0.74446943907E+02 -0.31890459512E+03  0.35188076825E+03  0.12498809386E+03 0.  0.
         23    2    1    2    0    0 -0.30912185497E+02  0.74446943907E+02 -0.22742769648E+03  0.25755533872E+03  0.90074883871E+02 0.  0.
          5    1    3    3  502    0  0.62273257828E+02  0.54849129369E+01 -0.13022948366E+03  0.14453321876E+03  0.47000000000E+01 0.  1.
         -5    1    3    3    0  502 -0.31361072331E+02 -0.79931856844E+02 -0.18867511147E+03  0.20734754950E+03  0.47000000000E+01 0.  1.
        -11    1    4    4    0    0 -0.29829041170E+02  0.61799140677E+01 -0.15521522026E+03  0.15817625496E+03  0.00000000000E+00 0. -1.
         11    1    4    4    0    0 -0.10831443269E+01  0.68267029839E+02 -0.72212476225E+02  0.99379083751E+02  0.00000000000E+00 0.  1.
<mgrwt>
<rscale>  0 0.14121486E+03</rscale>
<asrwt>0</asrwt>
<pdfrwt beam="2">  1        2 0.88905253E-01 0.14872772E+03</pdfrwt>
<pdfrwt beam="1">  1       -2 0.48541401E-02 0.14872772E+03</pdfrwt>
<totfact> 0.10365471E+04</totfact>
</mgrwt>
</event>
<event>
 8    1  0.1033707E-005  0.1448578E+03  0.7546771E-02  0.1217903E+00
          2   -1    0    0  501    0  0.00000000000E+00  0.00000000000E+00  0.77048388174E+03  0.77048388174E+03  0.00000000000E+00 0.  1.
         -2   -1    0    0    0  501 -0.00000000000E+00 -0.00000000000E+00 -0.22793567954E+02  0.22793567954E+02  0.00000000000E+00 0. -1.
         23    2    1    2    0    0  0.17633870766E+02 -0.71048686588E+02  0.33590255766E+03  0.36580639572E+03  0.12499968657E+03 0.  0.
         23    2    1    2    0    0 -0.17633870766E+02  0.71048686588E+02  0.41178775612E+03  0.42747105397E+03  0.88337289003E+02 0.  0.
          5    1    3    3  502    0 -0.40729938415E+02 -0.74383966547E+02  0.17435017933E+03  0.19393807618E+03  0.47000000000E+01 0.  1.
         -5    1    3    3    0  502  0.58363809181E+02  0.33352799589E+01  0.16155237834E+03  0.17186831954E+03  0.47000000000E+01 0.  1.
        -11    1    4    4    0    0 -0.34851657832E+02  0.85403686917E+02  0.33701734542E+03  0.34941253399E+03  0.00000000000E+00 0. -1.
         11    1    4    4    0    0  0.17217787066E+02 -0.14355000329E+02  0.74770410694E+02  0.78058519979E+02  0.00000000000E+00 0.  1.
<mgrwt>
<rscale>  0 0.13665425E+03</rscale>
<asrwt>0</asrwt>
<pdfrwt beam="1">  1        2 0.11853596E+00 0.14485783E+03</pdfrwt>
<pdfrwt beam="2">  1       -2 0.35067034E-02 0.14485783E+03</pdfrwt>
<totfact> 0.11980642E+04</totfact>
</mgrwt>
</event>
<event>
 8    1  0.1033707E-005  0.1631174E+03  0.7546771E-02  0.1192513E+00
         -1   -1    0    0    0  501 -0.00000000000E+00  0.00000000000E+00  0.87721028655E+02  0.87721028655E+02  0.00000000000E+00 0.  1.
          1   -1    0    0  501    0  0.00000000000E+00 -0.00000000000E+00 -0.26246410240E+03  0.26246410240E+03  0.00000000000E+00 0. -1.
         23    2    1    2    0    0 -0.92286193973E+02 -0.49662261261E+02 -0.76709522893E+02  0.18025440314E+03  0.12499686858E+03 0.  0.
         23    2    1    2    0    0  0.92286193973E+02  0.49662261261E+02 -0.98033550856E+02  0.16993072793E+03  0.91009853357E+02 0.  0.
          5    1    3    3  502    0  0.16887656997E+02 -0.33630055956E+02  0.10700317403E+02  0.39405081081E+02  0.47000000000E+01 0.  1.
         -5    1    3    3    0  502 -0.10917385097E+03 -0.16032205305E+02 -0.87409840296E+02  0.14084932205E+03  0.47000000000E+01 0.  1.
        -11    1    4    4    0    0  0.10311965498E+03  0.32415025005E+02 -0.52752225452E+02  0.12027965073E+03  0.00000000000E+00 0.  1.
         11    1    4    4    0    0 -0.10833461012E+02  0.17247236256E+02 -0.45281325404E+02  0.49651077192E+02  0.00000000000E+00 0. -1.
<mgrwt>
<rscale>  0 0.15666569E+03</rscale>
<asrwt>0</asrwt>
<pdfrwt beam="2">  1        1 0.40379092E-01 0.16311744E+03</pdfrwt>
<pdfrwt beam="1">  1       -1 0.13495543E-01 0.16311744E+03</pdfrwt>
<totfact> 0.38406537E+03</totfact>
</mgrwt>
</event>
<event>
 8    1  0.1033707E-005  0.1530069E+03  0.7546771E-02  0.1205516E+00
         -1   -1    0    0    0  501 -0.00000000000E+00  0.00000000000E+00  0.15863489121E+02  0.15863489121E+02  0.00000000000E+00 0.  1.
          1   -1    0    0  501    0  0.00000000000E+00 -0.00000000000E+00 -0.12338304784E+04  0.12338304784E+04  0.00000000000E+00 0. -1.
         23    2    1    2    0    0  0.19616518269E+02 -0.86034975523E+02 -0.65311806338E+03  0.67080125043E+03  0.12499715221E+03 0.  0.
         23    2    1    2    0    0 -0.19616518269E+02  0.86034975523E+02 -0.56484892588E+03  0.57889271708E+03  0.90970566723E+02 0.  0.
          5    1    3    3  502    0 -0.89274131185E+01 -0.87671000953E+02 -0.22476020355E+03  0.24146457756E+03  0.47000000000E+01 0.  1.
         -5    1    3    3    0  502  0.28543931388E+02  0.16360254304E+01 -0.42835785982E+03  0.42933667287E+03  0.47000000000E+01 0.  1.
        -11    1    4    4    0    0  0.35088174063E+02  0.39476374728E+02 -0.18903087138E+03  0.19627081917E+03  0.00000000000E+00 0.  1.
         11    1    4    4    0    0 -0.54704692332E+02  0.46558600795E+02 -0.37581805450E+03  0.38262189791E+03  0.00000000000E+00 0. -1.
<mgrwt>
<rscale>  0 0.14596872E+03</rscale>
<asrwt>0</asrwt>
<pdfrwt beam="2">  1        1 0.18982014E+00 0.15300690E+03</pdfrwt>
<pdfrwt beam="1">  1       -1 0.24405360E-02 0.15300690E+03</pdfrwt>
<totfact> 0.54528072E+03</totfact>
</mgrwt>
</event>
<event>
 8    1  0.1033707E-005  0.1309925E+03  0.7546771E-02  0.1239481E+00
          2   -1    0    0  501    0  0.00000000000E+00  0.00000000000E+00  0.50141801271E+03  0.50141801271E+03  0.00000000000E+00 0. -1.
         -2   -1    0    0    0  501 -0.00000000000E+00 -0.00000000000E+00 -0.80491843663E+02  0.80491843663E+02  0.00000000000E+00 0.  1.
         23    2    1    2    0    0  0.87159442666E+01 -0.38186473498E+02 -0.17707090852E+02  0.13218387279E+03  0.12499944287E+03 0.  0.
         23    2    1    2    0    0 -0.87159442666E+01  0.38186473498E+02  0.43863325989E+03  0.44972598357E+03  0.91214851720E+02 0.  0.
          5    1    3    3  502    0 -0.25770921281E+02  0.38448708983E+02 -0.10590961151E+02  0.47714799216E+02  0.47000000000E+01 0. -1.
         -5    1    3    3    0  502  0.34486865547E+02 -0.76635182481E+02 -0.71161297010E+01  0.84469073578E+02  0.47000000000E+01 0. -1.
        -11    1    4    4    0    0  0.34502732751E+02 -0.64434017198E+01  0.20450920680E+03  0.20749932930E+03  0.00000000000E+00 0.  1.
         11    1    4    4    0    0 -0.43218677017E+02  0.44629875218E+02  0.23412405309E+03  0.24222665427E+03  0.00000000000E+00 0. -1.
<mgrwt>
<rscale>  0 0.12221885E+03</rscale>
<asrwt>0</asrwt>
<pdfrwt beam="1">  1        2 0.77141231E-01 0.13099250E+03</pdfrwt>
<pdfrwt beam="2">  1       -2 0.12383361E-01 0.13099250E+03</pdfrwt>
<totfact> 0.28374783E+03</totfact>
</mgrwt>
</event>
<event>
 8    1  0.1033707E-005  0.1283903E+03  0.7546771E-02  0.1243977E+00
         -1   -1    0    0    0  501 -0.00000000000E+00  0.00000000000E+00  0.34267163335E+02  0.34267163335E+02  0.00000000000E+00 0. -1.
          1   -1    0    0  501    0  0.00000000000E+00 -0.00000000000E+00 -0.48353445677E+03  0.48353445677E+03  0.00000000000E+00 0.  1.
         23    2    1    2    0    0  0.16415270691E+02  0.24308727161E+02 -0.12363087415E+03  0.17823762606E+03  0.12499473179E+03 0.  0.
         23    2    1    2    0    0 -0.16415270691E+02 -0.24308727161E+02 -0.32563641928E+03  0.33956399404E+03  0.91674713822E+02 0.  0.
          5    1    3    3  502    0 -0.40258599950E+02 -0.17293042808E+02 -0.11060212928E+02  0.45433715560E+02  0.47000000000E+01 0.  1.
         -5    1    3    3    0  502  0.56673870641E+02  0.41601769969E+02 -0.11257066122E+03  0.13280391051E+03  0.47000000000E+01 0.  1.
        -11    1    4    4    0    0 -0.37050058066E+02  0.16527281565E+02 -0.22995163764E+03  0.23350291967E+03  0.00000000000E+00 0.  1.
         11    1    4    4    0    0  0.20634787375E+02 -0.40836008726E+02 -0.95684781638E+02  0.10606107437E+03  0.00000000000E+00 0. -1.
<mgrwt>
<rscale>  0 0.11946826E+03</rscale>
<asrwt>0</asrwt>
<pdfrwt beam="2">  1        1 0.74389917E-01 0.12839026E+03</pdfrwt>
<pdfrwt beam="1">  1       -1 0.52718713E-02 0.12839026E+03</pdfrwt>
<totfact> 0.73183639E+03</totfact>
</mgrwt>
</event>
<event>
 8    1  0.1033707E-005  0.1343807E+03  0.7546771E-02  0.1233471E+00
         -2   -1    0    0    0  501 -0.00000000000E+00  0.00000000000E+00  0.24054277378E+03  0.24054277378E+03  0.00000000000E+00 0.  1.
          2   -1    0    0  501    0  0.00000000000E+00 -0.00000000000E+00 -0.62880865745E+02  0.62880865745E+02  0.00000000000E+00 0. -1.
         23    2    1    2    0    0 -0.37243446125E+01  0.49184119127E+02  0.13669059906E+03  0.19168328888E+03  0.12500086019E+03 0.  0.
         23    2    1    2    0    0  0.37243446125E+01 -0.49184119127E+02  0.40971308975E+02  0.11174035064E+03  0.91511253327E+02 0.  0.
          5    1    3    3  502    0  0.20316526303E+02  0.75585934549E+02  0.39016320940E+02  0.87580580281E+02  0.47000000000E+01 0.  1.
         -5    1    3    3    0  502 -0.24040870915E+02 -0.26401815422E+02  0.97674278121E+02  0.10410270860E+03  0.47000000000E+01 0.  1.
        -11    1    4    4    0    0  0.15460633956E+02 -0.14956307200E+02 -0.27129992525E+02  0.34623096652E+02  0.00000000000E+00 0. -1.
         11    1    4    4    0    0 -0.11736289344E+02 -0.34227811928E+02  0.68101301500E+02  0.77117253990E+02  0.00000000000E+00 0.  1.
<mgrwt>
<rscale>  0 0.12602800E+03</rscale>
<asrwt>0</asrwt>
<pdfrwt beam="2">  1        2 0.96739795E-02 0.13438067E+03</pdfrwt>
<pdfrwt beam="1">  1       -2 0.37006580E-01 0.13438067E+03</pdfrwt>
<totfact> 0.43988009E+03</totfact>
</mgrwt>
</event>
<event>
 8    1  0.1033707E-005  0.1579517E+03  0.7546771E-02  0.1199498E+00
         -1   -1    0    0    0  501 -0.00000000000E+00  0.00000000000E+00  0.14025189504E+04  0.14025189504E+04  0.00000000000E+00 0.  1.
          1   -1    0    0  501    0  0.00000000000E+00 -0.00000000000E+00 -0.16883500156E+02  0.16883500156E+02  0.00000000000E+00 0. -1.
         23    2    1    2    0    0  0.61621749240E+02  0.74335468183E+02  0.99138941649E+03  0.10038932834E+04  0.12500299012E+03 0.  0.
         23    2    1    2    0    0 -0.61621749240E+02 -0.74335468183E+02  0.39424603375E+03  0.41550916714E+03  0.88853424482E+02 0.  0.
          5    1    3    3  502    0  0.17218563988E+02 -0.18029987783E+02  0.55606294968E+03  0.55664140468E+03  0.47000000000E+01 0.  1.
         -5    1    3    3    0  502  0.44403185252E+02  0.92365455965E+02  0.43532646681E+03  0.44725187872E+03  0.47000000000E+01 0.  1.
        -11    1    4    4    0    0 -0.11925270984E+02 -0.68741339635E+02  0.14034789314E+03  0.15673262255E+03  0.00000000000E+00 0. -1.
         11    1    4    4    0    0 -0.49696478256E+02 -0.55941285483E+01  0.25389814061E+03  0.25877654459E+03  0.00000000000E+00 0.  1.
<mgrwt>
<rscale>  0 0.15079638E+03</rscale>
<asrwt>0</asrwt>
<pdfrwt beam="2">  1        1 0.25974627E-02 0.15795173E+03</pdfrwt>
<pdfrwt beam="1">  1       -1 0.21577205E+00 0.15795173E+03</pdfrwt>
<totfact> 0.54550764E+02</totfact>
</mgrwt>
</event>
<event>
 8    1  0.1033707E-005  0.2979381E+03  0.7546771E-02  0.1087818E+00
          1   -1    0    0  501    0  0.00000000000E+00  0.00000000000E+00  0.45522657280E+03  0.45522657280E+03  0.00000000000E+00 0. -1.
         -1   -1    0    0    0  501 -0.00000000000E+00 -0.00000000000E+00 -0.18740406037E+03  0.18740406037E+03  0.00000000000E+00 0.  1.
         23    2    1    2    0    0 -0.45077678968E+02 -0.26666664019E+03  0.12728727961E+03  0.32398941152E+03  0.12499597231E+03 0.  0.
         23    2    1    2    0    0  0.45077678968E+02  0.26666664019E+03  0.14053523282E+03  0.31864122165E+03  0.92946126010E+02 0.  0.
          5    1    3    3  502    0  0.18208379954E+02 -0.12288771704E+03  0.10978885409E+03  0.16585722349E+03  0.47000000000E+01 0.  1.
         -5    1    3    3    0  502 -0.63286058922E+02 -0.14377892315E+03  0.17498425513E+02  0.15813218803E+03  0.47000000000E+01 0.  1.
        -11    1    4    4    0    0 -0.12898800630E+02  0.18662543913E+03  0.95354986096E+02  0.20997144320E+03  0.00000000000E+00 0. -1.
         11    1    4    4    0    0  0.57976479598E+02  0.80041201067E+02  0.45180246721E+02  0.10866977845E+03  0.00000000000E+00 0.  1.
<mgrwt>
<rscale>  0 0.29490135E+03</rscale>
<asrwt>0</asrwt>
<pdfrwt beam="1">  1        1 0.70034857E-01 0.29793806E+03</pdfrwt>
<pdfrwt beam="2">  1       -1 0.28831394E-01 0.29793806E+03</pdfrwt>
<totfact> 0.56170481E+02</totfact>
</mgrwt>
</event>
<event>
 8    1  0.1033707E-005  0.1584142E+03  0.7546771E-02  0.1198336E+00
         -1   -1    0    0    0  501 -0.00000000000E+00  0.00000000000E+00  0.12904400919E+03  0.12904400919E+03  0.00000000000E+00 0.  1.
          1   -1    0    0  501    0  0.00000000000E+00 -0.00000000000E+00 -0.18827720043E+03  0.18827720043E+03  0.00000000000E+00 0. -1.
         23    2    1    2    0    0  0.96851550116E+02 -0.94855613268E+01  0.23796515962E+02  0.16019152915E+03  0.12499941283E+03 0.  0.
         23    2    1    2    0    0 -0.96851550116E+02  0.94855613268E+01 -0.83029707194E+02  0.15712968047E+03  0.91244756415E+02 0.  0.
          5    1    3    3  502    0  0.10024985075E+03  0.12289679046E+01 -0.30219772188E+02  0.10481825971E+03  0.47000000000E+01 0.  1.
         -5    1    3    3    0  502 -0.33983006306E+01 -0.10714529231E+02  0.54016288150E+02  0.55373269448E+02  0.47000000000E+01 0.  1.
        -11    1    4    4    0    0 -0.34168850330E+02  0.26096220593E+02  0.96042481734E+01  0.44054110423E+02  0.00000000000E+00 0.  1.
         11    1    4    4    0    0 -0.62682699785E+02 -0.16610659266E+02 -0.92633955368E+02  0.11307557004E+03  0.00000000000E+00 0. -1.
<mgrwt>
<rscale>  0 0.15175228E+03</rscale>
<asrwt>0</asrwt>
<pdfrwt beam="2">  1        1 0.28965723E-01 0.15841418E+03</pdfrwt>
<pdfrwt beam="1">  1       -1 0.19852925E-01 0.15841418E+03</pdfrwt>
<totfact> 0.31466643E+03</totfact>
</mgrwt>
</event>
<event>
 8    1  0.1033707E-005  0.1464792E+03  0.7546771E-02  0.1214016E+00
          1   -1    0    0  501    0  0.00000000000E+00  0.00000000000E+00  0.33229824629E+02  0.33229824629E+02  0.00000000000E+00 0. -1.
         -1   -1    0    0    0  501 -0.00000000000E+00 -0.00000000000E+00 -0.53632510490E+03  0.53632510490E+03  0.00000000000E+00 0.  1.
         23    2    1    2    0    0 -0.34595957727E+02 -0.68088831794E+02 -0.27025151928E+03  0.30739555767E+03  0.12499270336E+03 0.  0.
         23    2    1    2    0    0  0.34595957727E+02  0.68088831794E+02 -0.23284376099E+03  0.26215937186E+03  0.93157661619E+02 0.  0.
          5    1    3    3  502    0 -0.41575146957E+02 -0.10141137869E+03 -0.17968100154E+03  0.21052342598E+03  0.47000000000E+01 0. -1.
         -5    1    3    3    0  502  0.69791892298E+01  0.33322546892E+02 -0.90570517739E+02  0.96872131685E+02  0.47000000000E+01 0. -1.
        -11    1    4    4    0    0  0.32103845663E+01  0.76776935080E+02 -0.10427909686E+03  0.12953429805E+03  0.00000000000E+00 0. -1.
         11    1    4    4    0    0  0.31385573161E+02 -0.86881032856E+01 -0.12856466413E+03  0.13262507382E+03  0.00000000000E+00 0.  1.
<mgrwt>
<rscale>  0 0.13949070E+03</rscale>
<asrwt>0</asrwt>
<pdfrwt beam="1">  1        1 0.51122812E-02 0.14647916E+03</pdfrwt>
<pdfrwt beam="2">  1       -1 0.82511547E-01 0.14647916E+03</pdfrwt>
<totfact> 0.23976363E+03</totfact>
</mgrwt>
</event>
<event>
 8    1  0.1033707E-005  0.1385785E+03  0.7546771E-02  0.1228564E+00
          1   -1    0    0  501    0  0.00000000000E+00  0.00000000000E+00  0.19221500320E+03  0.19221500320E+03  0.00000000000E+00 0. -1.
         -1   -1    0    0    0  501 -0.00000000000E+00 -0.00000000000E+00 -0.89754075157E+02  0.89754075157E+02  0.00000000000E+00 0.  1.
         23    2    1    2    0    0  0.31931362740E+02 -0.50668709473E+02  0.48071063501E+01  0.13866187423E+03  0.12496830417E+03 0.  0.
         23    2    1    2    0    0 -0.31931362740E+02  0.50668709473E+02  0.97653821691E+02  0.14330720412E+03  0.86103169611E+02 0.  0.
          5    1    3    3  502    0  0.27066009191E+02 -0.22371826438E+02 -0.58838648133E+02  0.68681467557E+02  0.47000000000E+01 0. -1.
         -5    1    3    3    0  502  0.48653535491E+01 -0.28296883034E+02  0.63645754483E+02  0.69980406674E+02  0.47000000000E+01 0. -1.
        -11    1    4    4    0    0  0.77969680972E+01 -0.77055975107E+01  0.64277349880E+02  0.65205418886E+02  0.00000000000E+00 0. -1.
         11    1    4    4    0    0 -0.39728330837E+02  0.58374306983E+02  0.33376471812E+02  0.78101785239E+02  0.00000000000E+00 0.  1.
<mgrwt>
<rscale>  0 0.12925561E+03</rscale>
<asrwt>0</asrwt>
<pdfrwt beam="1">  1        1 0.29571539E-01 0.13857852E+03</pdfrwt>
<pdfrwt beam="2">  1       -1 0.13808319E-01 0.13857852E+03</pdfrwt>
<totfact> 0.54093751E+03</totfact>
</mgrwt>
</event>
<event>
 8    1  0.1033707E-005  0.1441127E+03  0.7546771E-02  0.1218211E+00
         -1   -1    0    0    0  501 -0.00000000000E+00  0.00000000000E+00  0.66897256189E+03  0.66897256189E+03  0.00000000000E+00 0.  1.
          1   -1    0    0  501    0  0.00000000000E+00 -0.00000000000E+00 -0.26305965118E+02  0.26305965118E+02  0.00000000000E+00 0. -1.
         23    2    1    2    0    0 -0.50204962971E+02 -0.51216471511E+02  0.42459682599E+03  0.44838703394E+03  0.12499920922E+03 0.  0.
         23    2    1    2    0    0  0.50204962971E+02  0.51216471511E+02  0.21806977078E+03  0.24689149307E+03  0.90869792336E+02 0.  0.
          5    1    3    3  502    0 -0.19805702949E+02  0.41607495479E+02  0.13817540362E+03  0.14573256917E+03  0.47000000000E+01 0.  1.
         -5    1    3    3    0  502 -0.30399260021E+02 -0.92823966990E+02  0.28642142236E+03  0.30265446477E+03  0.47000000000E+01 0.  1.
        -11    1    4    4    0    0  0.48327738905E+02  0.25131801821E+02  0.21350471908E+03  0.22034391954E+03  0.00000000000E+00 0.  1.
         11    1    4    4    0    0  0.18772240654E+01  0.26084669689E+02  0.45650517034E+01  0.26547573525E+02  0.00000000000E+00 0. -1.
<mgrwt>
<rscale>  0 0.13643279E+03</rscale>
<asrwt>0</asrwt>
<pdfrwt beam="2">  1        1 0.40470721E-02 0.14411269E+03</pdfrwt>
<pdfrwt beam="1">  1       -1 0.10291884E+00 0.14411269E+03</pdfrwt>
<totfact> 0.20563529E+03</totfact>
</mgrwt>
</event>
<event>
 8    1  0.1033707E-005  0.1266083E+03  0.7546771E-02  0.1245774E+00
         -1   -1    0    0    0  501 -0.00000000000E+00  0.00000000000E+00  0.15751760679E+02  0.15751760679E+02  0.00000000000E+00 0.  1.
          1   -1    0    0  501    0  0.00000000000E+00 -0.00000000000E+00 -0.81722302701E+03  0.81722302701E+03  0.00000000000E+00 0. -1.
         23    2    1    2    0    0  0.54696800183E+01 -0.19353571678E+02 -0.52481217061E+03  0.53986801271E+03  0.12500071436E+03 0.  0.
         23    2    1    2    0    0 -0.54696800183E+01  0.19353571678E+02 -0.27665909573E+03  0.29310677499E+03  0.94693443056E+02 0.  0.
          5    1    3    3  502    0 -0.13544662095E+02  0.86561508656E+01 -0.49265550064E+03  0.49294007661E+03  0.47000000000E+01 0.  1.
         -5    1    3    3    0  502  0.19014342113E+02 -0.28009722544E+02 -0.32156669971E+02  0.46927936100E+02  0.47000000000E+01 0.  1.
        -11    1    4    4    0    0 -0.39257356061E+02  0.16944029983E+02 -0.23755102173E+03  0.24136844881E+03  0.00000000000E+00 0. -1.
         11    1    4    4    0    0  0.33787676043E+02  0.24095416948E+01 -0.39108074001E+02  0.51738326177E+02  0.00000000000E+00 0.  1.
<mgrwt>
<rscale>  0 0.11839183E+03</rscale>
<asrwt>0</asrwt>
<pdfrwt beam="2">  1        1 0.12572659E+00 0.12660828E+03</pdfrwt>
<pdfrwt beam="1">  1       -1 0.24233483E-02 0.12660828E+03</pdfrwt>
<totfact> 0.11002836E+04</totfact>
</mgrwt>
</event>
<event>
 8    1  0.1033707E-005  0.1617759E+03  0.7546771E-02  0.1201299E+00
          2   -1    0    0  501    0  0.00000000000E+00  0.00000000000E+00  0.89573279020E+02  0.89573279020E+02  0.00000000000E+00 0. -1.
         -2   -1    0    0    0  501 -0.00000000000E+00 -0.00000000000E+00 -0.21865881484E+03  0.21865881484E+03  0.00000000000E+00 0.  1.
         23    2    1    2    0    0 -0.95240014585E+02  0.38420266026E+02 -0.85314512209E+02  0.18289344538E+03  0.12499867659E+03 0.  0.
         23    2    1    2    0    0  0.95240014585E+02 -0.38420266026E+02 -0.43771023609E+02  0.12533864848E+03  0.56983305242E+02 0.  0.
          5    1    3    3  502    0  0.25229562709E+02  0.28620879825E+02 -0.34647617070E+02  0.51751646980E+02  0.47000000000E+01 0. -1.
         -5    1    3    3    0  502 -0.12046957729E+03  0.97993862006E+01 -0.50666895139E+02  0.13114179840E+03  0.47000000000E+01 0. -1.
        -11    1    4    4    0    0  0.10531847042E+02 -0.14012512604E+02  0.11799678731E+02  0.21130611201E+02  0.00000000000E+00 0. -1.
         11    1    4    4    0    0  0.84708167544E+02 -0.24407753421E+02 -0.55570702340E+02  0.10420803728E+03  0.00000000000E+00 0.  1.
<mgrwt>
<rscale>  0 0.14932970E+03</rscale>
<asrwt>0</asrwt>
<pdfrwt beam="1">  1        2 0.13780505E-01 0.16177591E+03</pdfrwt>
<pdfrwt beam="2">  1       -2 0.33639817E-01 0.16177591E+03</pdfrwt>
<totfact> 0.34601614E+03</totfact>
</mgrwt>
</event>
<event>
 8    1  0.1033707E-005  0.1342049E+03  0.7546771E-02  0.1230311E+00
         -1   -1    0    0    0  501 -0.00000000000E+00  0.00000000000E+00  0.95332266185E+03  0.95332266185E+03  0.00000000000E+00 0.  1.
          1   -1    0    0  501    0  0.00000000000E+00 -0.00000000000E+00 -0.59281699354E+02  0.59281699354E+02  0.00000000000E+00 0. -1.
         23    2    1    2    0    0  0.45014955859E+02 -0.18985689607E+02  0.89113454799E+03  0.90118351879E+03  0.12499659695E+03 0.  0.
         23    2    1    2    0    0 -0.45014955859E+02  0.18985689607E+02  0.29064145002E+01  0.11142084241E+03  0.10009672431E+03 0.  0.
          5    1    3    3  502    0 -0.28988663025E+01  0.33876701019E+02  0.61451293633E+03  0.61547077364E+03  0.47000000000E+01 0. -1.
         -5    1    3    3    0  502  0.47913822161E+02 -0.52862390625E+02  0.27662161166E+03  0.28571274514E+03  0.47000000000E+01 0. -1.
        -11    1    4    4    0    0 -0.58335157934E+02 -0.15420802706E+02  0.28285616872E+02  0.66639837403E+02  0.00000000000E+00 0.  1.
         11    1    4    4    0    0  0.13320202076E+02  0.34406492313E+02 -0.25379202371E+02  0.44781005009E+02  0.00000000000E+00 0. -1.
<mgrwt>
<rscale>  0 0.12809463E+03</rscale>
<asrwt>0</asrwt>
<pdfrwt beam="2">  1        1 0.91202622E-02 0.13420489E+03</pdfrwt>
<pdfrwt beam="1">  1       -1 0.14666501E+00 0.13420489E+03</pdfrwt>
<totfact> 0.29338792E+02</totfact>
</mgrwt>
</event>
<event>
 8    1  0.1033707E-005  0.1801063E+03  0.7546771E-02  0.1173753E+00
          2   -1    0    0  501    0  0.00000000000E+00  0.00000000000E+00  0.94759558704E+02  0.94759558704E+02  0.00000000000E+00 0. -1.
         -2   -1    0    0    0  501 -0.00000000000E+00 -0.00000000000E+00 -0.32103969807E+03  0.32103969807E+03  0.00000000000E+00 0.  1.
         23    2    1    2    0    0  0.10470558619E+03 -0.76485497233E+02 -0.17410364532E+03  0.25050019801E+03  0.12499991529E+03 0.  0.
         23    2    1    2    0    0 -0.10470558619E+03  0.76485497233E+02 -0.52176494049E+02  0.16529905877E+03  0.88250219442E+02 0.  0.
          5    1    3    3  502    0  0.84102412310E+01 -0.47091444290E+02  0.14291144873E+01  0.48088134203E+02  0.47000000000E+01 0.  1.
         -5    1    3    3    0  502  0.96295344960E+02 -0.29394052943E+02 -0.17553275980E+03  0.20241206381E+03  0.47000000000E+01 0.  1.
        -11    1    4    4    0    0 -0.40210342261E+01  0.34496300604E+02 -0.43786558927E+02  0.55887621297E+02  0.00000000000E+00 0.  1.
         11    1    4    4    0    0 -0.10068455196E+03  0.41989196629E+02 -0.83899351226E+01  0.10941143747E+03  0.00000000000E+00 0. -1.
<mgrwt>
<rscale>  0 0.17398692E+03</rscale>
<asrwt>0</asrwt>
<pdfrwt beam="1">  1        2 0.14578393E-01 0.18010627E+03</pdfrwt>
<pdfrwt beam="2">  1       -2 0.49390724E-01 0.18010627E+03</pdfrwt>
<totfact> 0.15625150E+03</totfact>
</mgrwt>
</event>
<event>
 8    1  0.1033707E-005  0.1754422E+03  0.7546771E-02  0.1178147E+00
         -3   -1    0    0    0  501 -0.00000000000E+00  0.00000000000E+00  0.13182394305E+03  0.13182394305E+03  0.00000000000E+00 0.  1.
          3   -1    0    0  501    0  0.00000000000E+00 -0.00000000000E+00 -0.20582255179E+03  0.20582255179E+03  0.00000000000E+00 0. -1.
         23    2    1    2    0    0 -0.12261591275E+03 -0.10978301807E+02 -0.47434689844E+02  0.18174159919E+03  0.12499909563E+03 0.  0.
         23    2    1    2    0    0  0.12261591275E+03  0.10978301807E+02 -0.26563918898E+02  0.15590489565E+03  0.91899453371E+02 0.  0.
          5    1    3    3  502    0 -0.13426723333E+03 -0.16809347592E+02 -0.32490487977E+01  0.13543592740E+03  0.47000000000E+01 0. -1.
         -5    1    3    3    0  502  0.11651320577E+02  0.58310457847E+01 -0.44185641046E+02  0.46305671799E+02  0.47000000000E+01 0. -1.
        -11    1    4    4    0    0  0.29585639675E+02 -0.31614691604E+02 -0.31380252740E+02  0.53474471127E+02  0.00000000000E+00 0. -1.
         11    1    4    4    0    0  0.93030273074E+02  0.42592993411E+02  0.48163338429E+01  0.10243042452E+03  0.00000000000E+00 0.  1.
<mgrwt>
<rscale>  0 0.16971339E+03</rscale>
<asrwt>0</asrwt>
<pdfrwt beam="2">  1        3 0.31665008E-01 0.17544218E+03</pdfrwt>
<pdfrwt beam="1">  1       -3 0.20280606E-01 0.17544218E+03</pdfrwt>
<totfact> 0.51022985E+02</totfact>
</mgrwt>
</event>
<event>
 8    1  0.1721077E-005  0.2130922E+03  0.7546771E-02  0.1142580E+00
          2   -1    0    0  501    0  0.00000000000E+00  0.00000000000E+00  0.84951624271E+03  0.84951624271E+03  0.00000000000E+00 0. -1.
         -2   -1    0    0    0  501 -0.00000000000E+00 -0.00000000000E+00 -0.52268135649E+02  0.52268135649E+02  0.00000000000E+00 0.  1.
         23    2    1    2    0    0  0.14196352251E+03  0.98131401748E+02  0.30659548414E+03  0.37337522372E+03  0.12499941223E+03 0.  0.
         23    2    1    2    0    0 -0.14196352251E+03 -0.98131401748E+02  0.49065262292E+03  0.52840915464E+03  0.93235318418E+02 0.  0.
          5    1    3    3  502    0  0.49759824699E+02  0.78570540138E+01  0.19890017724E+03  0.20523436349E+03  0.47000000000E+01 0. -1.
         -5    1    3    3    0  502  0.92203697810E+02  0.90274347735E+02  0.10769530690E+03  0.16814086023E+03  0.47000000000E+01 0. -1.
        -11    1    4    4    0    0 -0.72415807880E+02 -0.33085967652E+02  0.34731507799E+03  0.35632358031E+03  0.00000000000E+00 0. -1.
         11    1    4    4    0    0 -0.69547714628E+02 -0.65045434096E+02  0.14333754493E+03  0.17208557433E+03  0.00000000000E+00 0.  1.
<mgrwt>
<rscale>  0 0.20872510E+03</rscale>
<asrwt>0</asrwt>
<pdfrwt beam="1">  1        2 0.13069480E+00 0.21309216E+03</pdfrwt>
<pdfrwt beam="2">  1       -2 0.80412523E-02 0.21309216E+03</pdfrwt>
<totfact> 0.30557650E+03</totfact>
</mgrwt>
</event>
<event>
 8    1  0.1033707E-005  0.1526345E+03  0.7546771E-02  0.1202149E+00
          2   -1    0    0  501    0  0.00000000000E+00  0.00000000000E+00  0.15920998405E+03  0.15920998405E+03  0.00000000000E+00 0. -1.
         -2   -1    0    0    0  501 -0.00000000000E+00 -0.00000000000E+00 -0.13893099095E+03  0.13893099095E+03  0.00000000000E+00 0.  1.
         23    2    1    2    0    0 -0.82898150857E+02 -0.59421897854E+02 -0.22629371398E+02  0.15430287326E+03  0.11355273175E+03 0.  0.
         23    2    1    2    0    0  0.82898150857E+02  0.59421897854E+02  0.42908364501E+02  0.14383810173E+03  0.91897804141E+02 0.  0.
          5    1    3    3  502    0 -0.37916081763E+02  0.28942348228E+02  0.11575818740E+02  0.49309008879E+02  0.47000000000E+01 0. -1.
         -5    1    3    3    0  502 -0.44982069094E+02 -0.88364246082E+02 -0.34205190138E+02  0.10499386438E+03  0.47000000000E+01 0.  1.
        -11    1    4    4    0    0 -0.15820549349E+02  0.67286261737E+01 -0.10182219746E+02  0.19981035780E+02  0.00000000000E+00 0.  1.
         11    1    4    4    0    0  0.98718700206E+02  0.52693271680E+02  0.53090584247E+02  0.12385706595E+03  0.00000000000E+00 0. -1.
<mgrwt>
<rscale>  0 0.14864437E+03</rscale>
<asrwt>0</asrwt>
<pdfrwt beam="1">  1        2 0.24493844E-01 0.15263449E+03</pdfrwt>
<pdfrwt beam="2">  1       -2 0.21373999E-01 0.15263449E+03</pdfrwt>
<totfact> 0.39826453E+03</totfact>
</mgrwt>
</event>
<event>
 8    1  0.1033707E-005  0.1302190E+03  0.7546771E-02  0.1241937E+00
          3   -1    0    0  501    0  0.00000000000E+00  0.00000000000E+00  0.31595071387E+03  0.31595071387E+03  0.00000000000E+00 0. -1.
         -3   -1    0    0    0  501 -0.00000000000E+00 -0.00000000000E+00 -0.46057683930E+02  0.46057683930E+02  0.00000000000E+00 0.  1.
         23    2    1    2    0    0  0.10620423671E+02  0.34909728233E+02  0.90821749142E+02  0.15876267111E+03  0.12500205237E+03 0.  0.
         23    2    1    2    0    0 -0.10620423671E+02 -0.34909728233E+02  0.17907128079E+03  0.20324572669E+03  0.88942786595E+02 0.  0.
          5    1    3    3  502    0  0.56344172499E+02  0.49676352169E+02  0.29789098364E+02  0.80943721936E+02  0.47000000000E+01 0.  1.
         -5    1    3    3    0  502 -0.45723748829E+02 -0.14766623936E+02  0.61032650778E+02  0.77818949173E+02  0.47000000000E+01 0.  1.
        -11    1    4    4    0    0  0.12171647442E+02 -0.56973224519E+02  0.78277258122E+02  0.97577796925E+02  0.00000000000E+00 0.  1.
         11    1    4    4    0    0 -0.22792071112E+02  0.22063496286E+02  0.10079402267E+03  0.10566792976E+03  0.00000000000E+00 0. -1.
<mgrwt>
<rscale>  0 0.12070586E+03</rscale>
<asrwt>0</asrwt>
<pdfrwt beam="1">  1        3 0.48607801E-01 0.13021903E+03</pdfrwt>
<pdfrwt beam="2">  1       -3 0.70857977E-02 0.13021903E+03</pdfrwt>
<totfact> 0.12579281E+03</totfact>
</mgrwt>
</event>
<event>
 8    1  0.1033707E-005  0.1499928E+03  0.7546771E-02  0.1209775E+00
          1   -1    0    0  501    0  0.00000000000E+00  0.00000000000E+00  0.12962663851E+04  0.12962663851E+04  0.00000000000E+00 0. -1.
         -1   -1    0    0    0  501 -0.00000000000E+00 -0.00000000000E+00 -0.14351427000E+02  0.14351427000E+02  0.00000000000E+00 0.  1.
         23    2    1    2    0    0  0.12363466234E+02  0.82008642829E+02  0.70186507065E+03  0.71771332431E+03  0.12497826089E+03 0.  0.
         23    2    1    2    0    0 -0.12363466234E+02 -0.82008642829E+02  0.58004988747E+03  0.59290448781E+03  0.90551570482E+02 0.  0.
          5    1    3    3  502    0  0.36098271695E+02  0.10699076753E+03  0.58354236952E+03  0.59438530986E+03  0.47000000000E+01 0. -1.
         -5    1    3    3    0  502 -0.23734805460E+02 -0.24982124696E+02  0.11832270113E+03  0.12332801445E+03  0.47000000000E+01 0. -1.
        -11    1    4    4    0    0  0.41115306846E+00  0.19679686210E+02  0.73460716909E+02  0.76052192769E+02  0.00000000000E+00 0.  1.
         11    1    4    4    0    0 -0.12774619303E+02 -0.10168832904E+03  0.50658917056E+03  0.51685229504E+03  0.00000000000E+00 0. -1.
<mgrwt>
<rscale>  0 0.14267414E+03</rscale>
<asrwt>0</asrwt>
<pdfrwt beam="1">  1        1 0.19942551E+00 0.14999279E+03</pdfrwt>
<pdfrwt beam="2">  1       -1 0.22079129E-02 0.14999279E+03</pdfrwt>
<totfact> 0.57178769E+03</totfact>
</mgrwt>
</event>
<event>
 8    1  0.1033707E-005  0.1800854E+03  0.7546771E-02  0.1173396E+00
          2   -1    0    0  501    0  0.00000000000E+00  0.00000000000E+00  0.14123030831E+03  0.14123030831E+03  0.00000000000E+00 0. -1.
         -2   -1    0    0    0  501 -0.00000000000E+00 -0.00000000000E+00 -0.23324480189E+03  0.23324480189E+03  0.00000000000E+00 0.  1.
         23    2    1    2    0    0 -0.12414427196E+03  0.37344933953E+02 -0.11639616300E+03  0.21442668539E+03  0.12499716916E+03 0.  0.
         23    2    1    2    0    0  0.12414427196E+03 -0.37344933953E+02  0.24381669413E+02  0.16004842480E+03  0.90634365046E+02 0.  0.
          5    1    3    3  502    0 -0.11928348234E+02  0.39623528277E+02 -0.89795225939E+02  0.98982736304E+02  0.47000000000E+01 0.  1.
         -5    1    3    3    0  502 -0.11221592372E+03 -0.22785943243E+01 -0.26600937056E+02  0.11544394909E+03  0.47000000000E+01 0.  1.
        -11    1    4    4    0    0  0.75690056967E+02 -0.26328484025E+02  0.58976813734E+02  0.99500946493E+02  0.00000000000E+00 0. -1.
         11    1    4    4    0    0  0.48454214990E+02 -0.11016449927E+02 -0.34595144321E+02  0.60547478311E+02  0.00000000000E+00 0.  1.
<mgrwt>
<rscale>  0 0.17433997E+03</rscale>
<asrwt>0</asrwt>
<pdfrwt beam="1">  1        2 0.21727740E-01 0.18008536E+03</pdfrwt>
<pdfrwt beam="2">  1       -2 0.35883816E-01 0.18008536E+03</pdfrwt>
<totfact> 0.18204702E+03</totfact>
</mgrwt>
</event>
<event>
 8    1  0.1033707E-005  0.1284080E+03  0.7546771E-02  0.1247746E+00
         -2   -1    0    0    0  501 -0.00000000000E+00  0.00000000000E+00  0.49843435331E+03  0.49843435331E+03  0.00000000000E+00 0.  1.
          2   -1    0    0  501    0  0.00000000000E+00 -0.00000000000E+00 -0.23782339423E+02  0.23782339423E+02  0.00000000000E+00 0. -1.
         23    2    1    2    0    0  0.29334161745E+02 -0.18023208043E+01  0.28974515802E+03  0.31692407594E+03  0.12499948763E+03 0.  0.
         23    2    1    2    0    0 -0.29334161745E+02  0.18023208043E+01  0.18490685587E+03  0.20529261679E+03  0.84206720390E+02 0.  0.
          5    1    3    3  502    0  0.28735587330E+02  0.10116507487E+02  0.29932959824E+03  0.30091257216E+03  0.47000000000E+01 0.  1.
         -5    1    3    3    0  502  0.59857441510E+00 -0.11918828292E+02 -0.95844402128E+01  0.16011503782E+02  0.47000000000E+01 0.  1.
        -11    1    4    4    0    0 -0.12889925776E+02 -0.32972858940E+02  0.14730721932E+03  0.15150173754E+03  0.00000000000E+00 0.  1.
         11    1    4    4    0    0 -0.16444235969E+02  0.34775179744E+02  0.37599636543E+02  0.53790879254E+02  0.00000000000E+00 0. -1.
<mgrwt>
<rscale>  0 0.11722514E+03</rscale>
<asrwt>0</asrwt>
<pdfrwt beam="2">  1        2 0.36588218E-02 0.12840800E+03</pdfrwt>
<pdfrwt beam="1">  1       -2 0.76682200E-01 0.12840800E+03</pdfrwt>
<totfact> 0.35443632E+03</totfact>
</mgrwt>
</event>
<event>
 8    1  0.1033707E-005  0.1541431E+03  0.7546771E-02  0.1203985E+00
         -2   -1    0    0    0  501 -0.00000000000E+00  0.00000000000E+00  0.36148807008E+02  0.36148807008E+02  0.00000000000E+00 0.  1.
          2   -1    0    0  501    0  0.00000000000E+00 -0.00000000000E+00 -0.62388706611E+03  0.62388706611E+03  0.00000000000E+00 0. -1.
         23    2    1    2    0    0  0.68389079053E+02  0.58786490543E+02 -0.20541041060E+03  0.25681416898E+03  0.12500865172E+03 0.  0.
         23    2    1    2    0    0 -0.68389079053E+02 -0.58786490543E+02 -0.38232784850E+03  0.40322170413E+03  0.90995831426E+02 0.  0.
          5    1    3    3  502    0  0.86750471613E+02  0.71386330566E+02 -0.20527479161E+03  0.23405444364E+03  0.47000000000E+01 0.  1.
         -5    1    3    3    0  502 -0.18361392559E+02 -0.12599840023E+02 -0.13561898766E+00  0.22759725346E+02  0.47000000000E+01 0.  1.
        -11    1    4    4    0    0 -0.88645087588E+02 -0.59897265208E+02 -0.33667922940E+03  0.35326836462E+03  0.00000000000E+00 0.  1.
         11    1    4    4    0    0  0.20256008535E+02  0.11107746647E+01 -0.45648619107E+02  0.49953339513E+02  0.00000000000E+00 0. -1.
<mgrwt>
<rscale>  0 0.14717769E+03</rscale>
<asrwt>0</asrwt>
<pdfrwt beam="2">  1        2 0.95982618E-01 0.15414305E+03</pdfrwt>
<pdfrwt beam="1">  1       -2 0.55613554E-02 0.15414305E+03</pdfrwt>
<totfact> 0.77518241E+03</totfact>
</mgrwt>
</event>
<event>
 8    1  0.1033707E-005  0.1997725E+03  0.7546771E-02  0.1155044E+00
         -1   -1    0    0    0  501 -0.00000000000E+00  0.00000000000E+00  0.33907622653E+03  0.33907622653E+03  0.00000000000E+00 0.  1.
          1   -1    0    0  501    0  0.00000000000E+00 -0.00000000000E+00 -0.10614765606E+03  0.10614765606E+03  0.00000000000E+00 0. -1.
         23    2    1    2    0    0  0.99057165579E+02 -0.12030037499E+03  0.14927513876E+03  0.24938350567E+03  0.12499825428E+03 0.  0.
         23    2    1    2    0    0 -0.99057165579E+02  0.12030037499E+03  0.83653431711E+02  0.19584037692E+03  0.84089561291E+02 0.  0.
          5    1    3    3  502    0 -0.25479281430E+02 -0.15215945340E+01  0.31385027645E+02  0.40726146299E+02  0.47000000000E+01 0.  1.
         -5    1    3    3    0  502  0.12453644701E+03 -0.11877878046E+03  0.11789011112E+03  0.20865735937E+03  0.47000000000E+01 0.  1.
        -11    1    4    4    0    0 -0.10299836103E+03  0.71427947544E+02  0.74953924735E+02  0.14604350344E+03  0.00000000000E+00 0. -1.
         11    1    4    4    0    0  0.39411954486E+01  0.48872427447E+02  0.86995069768E+01  0.49796873474E+02  0.00000000000E+00 0.  1.
<mgrwt>
<rscale>  0 0.19383900E+03</rscale>
<asrwt>0</asrwt>
<pdfrwt beam="2">  1        1 0.16330409E-01 0.19977254E+03</pdfrwt>
<pdfrwt beam="1">  1       -1 0.52165573E-01 0.19977254E+03</pdfrwt>
<totfact> 0.12550509E+03</totfact>
</mgrwt>
</event>
<event>
 8    1  0.1033707E-005  0.2686365E+03  0.7546771E-02  0.1104201E+00
         -1   -1    0    0    0  501 -0.00000000000E+00  0.00000000000E+00  0.98546560536E+02  0.98546560536E+02  0.00000000000E+00 0.  1.
          1   -1    0    0  501    0  0.00000000000E+00 -0.00000000000E+00 -0.78216987658E+03  0.78216987658E+03  0.00000000000E+00 0. -1.
         23    2    1    2    0    0  0.21357419487E+03  0.10452788529E+03 -0.20197596260E+03  0.33609503657E+03  0.12500227448E+03 0.  0.
         23    2    1    2    0    0 -0.21357419487E+03 -0.10452788529E+03 -0.48164735344E+03  0.54462140054E+03  0.89934872717E+02 0.  0.
          5    1    3    3  502    0  0.97819952375E+02 -0.51202995113E+01 -0.32385203612E+02  0.10327561166E+03  0.47000000000E+01 0. -1.
         -5    1    3    3    0  502  0.11575424250E+03  0.10964818480E+03 -0.16959075899E+03  0.23281942492E+03  0.47000000000E+01 0. -1.
        -11    1    4    4    0    0 -0.20230485829E+03 -0.80647453563E+02 -0.46481412746E+03  0.51330638077E+03  0.00000000000E+00 0. -1.
         11    1    4    4    0    0 -0.11269336586E+02 -0.23880431723E+02 -0.16833225988E+02  0.31315019776E+02  0.00000000000E+00 0.  1.
<mgrwt>
<rscale>  0 0.26495776E+03</rscale>
<asrwt>0</asrwt>
<pdfrwt beam="2">  1        1 0.12033382E+00 0.26863653E+03</pdfrwt>
<pdfrwt beam="1">  1       -1 0.15161010E-01 0.26863653E+03</pdfrwt>
<totfact> 0.75620745E+02</totfact>
</mgrwt>
</event>
<event>
 8    1  0.1033707E-005  0.1321350E+03  0.7546771E-02  0.1237502E+00
          1   -1    0    0  501    0  0.00000000000E+00  0.00000000000E+00  0.30112047282E+03  0.30112047282E+03  0.00000000000E+00 0. -1.
         -1   -1    0    0    0  501 -0.00000000000E+00 -0.00000000000E+00 -0.52938342154E+02  0.52938342154E+02  0.00000000000E+00 0.  1.
         23    2    1    2    0    0 -0.18174982329E+01 -0.42783348906E+02  0.70344191082E+02  0.14969287840E+03  0.12500373747E+03 0.  0.
         23    2    1    2    0    0  0.18174982329E+01  0.42783348906E+02  0.17783793958E+03  0.20436593657E+03  0.91133885205E+02 0.  0.
          5    1    3    3  502    0 -0.25833770263E+02 -0.80697577237E+02  0.32762142695E+02  0.90966645820E+02  0.47000000000E+01 0.  1.
         -5    1    3    3    0  502  0.24016272030E+02  0.37914228331E+02  0.37582048387E+02  0.58726232581E+02  0.47000000000E+01 0.  1.
        -11    1    4    4    0    0  0.42752368752E+02  0.38436717071E+02  0.12322608990E+03  0.13597726092E+03  0.00000000000E+00 0. -1.
         11    1    4    4    0    0 -0.40934870519E+02  0.43466318348E+01  0.54611849678E+02  0.68388675656E+02  0.00000000000E+00 0.  1.
<mgrwt>
<rscale>  0 0.12345631E+03</rscale>
<asrwt>0</asrwt>
<pdfrwt beam="1">  1        1 0.46326226E-01 0.13213498E+03</pdfrwt>
<pdfrwt beam="2">  1       -1 0.81443605E-02 0.13213498E+03</pdfrwt>
<totfact> 0.69458003E+03</totfact>
</mgrwt>
</event>
<event>
 8    1  0.1033707E-005  0.1261300E+03  0.7546771E-02  0.1249995E+00
          1   -1    0    0  501    0  0.00000000000E+00  0.00000000000E+00  0.29734141001E+03  0.29734141001E+03  0.00000000000E+00 0. -1.
         -1   -1    0    0    0  501 -0.00000000000E+00 -0.00000000000E+00 -0.43967588041E+02  0.43967588041E+02  0.00000000000E+00 0.  1.
         23    2    1    2    0    0 -0.16684452362E+02 -0.25092951658E+01  0.90497590591E+02  0.15523722346E+03  0.12499645648E+03 0.  0.
         23    2    1    2    0    0  0.16684452362E+02  0.25092951658E+01  0.16287623138E+03  0.18607177459E+03  0.88370645793E+02 0.  0.
          5    1    3    3  502    0  0.49799591806E+02 -0.11766105808E+02  0.13802321572E+02  0.53207468185E+02  0.47000000000E+01 0. -1.
         -5    1    3    3    0  502 -0.66484044167E+02  0.92568106426E+01  0.76695269019E+02  0.10202975528E+03  0.47000000000E+01 0. -1.
        -11    1    4    4    0    0 -0.29859936167E+02  0.19954613316E+02  0.97787616657E+02  0.10417399076E+03  0.00000000000E+00 0. -1.
         11    1    4    4    0    0  0.46544388529E+02 -0.17445318150E+02  0.65088614721E+02  0.81897783823E+02  0.00000000000E+00 0.  1.
<mgrwt>
<rscale>  0 0.11591363E+03</rscale>
<asrwt>0</asrwt>
<pdfrwt beam="1">  1        1 0.45744831E-01 0.12613002E+03</pdfrwt>
<pdfrwt beam="2">  1       -1 0.67642445E-02 0.12613002E+03</pdfrwt>
<totfact> 0.92919152E+03</totfact>
</mgrwt>
</event>
<event>
 8    1  0.1033707E-005  0.1272009E+03  0.7546771E-02  0.1249078E+00
         -2   -1    0    0    0  501 -0.00000000000E+00  0.00000000000E+00  0.25835245233E+03  0.25835245233E+03  0.00000000000E+00 0.  1.
          2   -1    0    0  501    0  0.00000000000E+00 -0.00000000000E+00 -0.46686113317E+02  0.46686113317E+02  0.00000000000E+00 0. -1.
         23    2    1    2    0    0 -0.22427347194E+02  0.72127923835E+01  0.14901944627E+03  0.19592565672E+03  0.12500022927E+03 0.  0.
         23    2    1    2    0    0  0.22427347194E+02 -0.72127923835E+01  0.62646892746E+02  0.10911290893E+03  0.86174146054E+02 0.  0.
          5    1    3    3  502    0 -0.50639737277E+02  0.23903703801E+02  0.15259946749E+03  0.16261751912E+03  0.47000000000E+01 0. -1.
         -5    1    3    3    0  502  0.28212390083E+02 -0.16690911417E+02 -0.35800212236E+01  0.33308137596E+02  0.47000000000E+01 0. -1.
        -11    1    4    4    0    0 -0.20114602107E+02 -0.39896041743E+01 -0.11541904390E+02  0.23531462265E+02  0.00000000000E+00 0. -1.
         11    1    4    4    0    0  0.42541949301E+02 -0.32231882092E+01  0.74188797136E+02  0.85581446664E+02  0.00000000000E+00 0.  1.
<mgrwt>
<rscale>  0 0.11644605E+03</rscale>
<asrwt>0</asrwt>
<pdfrwt beam="2">  1        2 0.71824792E-02 0.12720089E+03</pdfrwt>
<pdfrwt beam="1">  1       -2 0.39746530E-01 0.12720089E+03</pdfrwt>
<totfact> 0.55573478E+03</totfact>
</mgrwt>
</event>
<event>
 8    1  0.1033707E-005  0.3037286E+03  0.7546771E-02  0.1084774E+00
          1   -1    0    0  501    0  0.00000000000E+00  0.00000000000E+00  0.14470265784E+03  0.14470265784E+03  0.00000000000E+00 0. -1.
         -1   -1    0    0    0  501 -0.00000000000E+00 -0.00000000000E+00 -0.62905723178E+03  0.62905723178E+03  0.00000000000E+00 0.  1.
         23    2    1    2    0    0 -0.13582690784E+03  0.24119917544E+03 -0.30518657806E+03  0.43056928937E+03  0.12500029756E+03 0.  0.
         23    2    1    2    0    0  0.13582690784E+03 -0.24119917544E+03 -0.17916799588E+03  0.34319060025E+03  0.95145290077E+02 0.  0.
          5    1    3    3  502    0 -0.25234152551E+02  0.16786059670E+03 -0.15268296283E+03  0.22835962760E+03  0.47000000000E+01 0.  1.
         -5    1    3    3    0  502 -0.11059275529E+03  0.73338578747E+02 -0.15250361523E+03  0.20220966177E+03  0.47000000000E+01 0.  1.
        -11    1    4    4    0    0  0.10910963786E+03 -0.17307919102E+03 -0.17610845914E+03  0.26995464215E+03  0.00000000000E+00 0.  1.
         11    1    4    4    0    0  0.26717269977E+02 -0.68119984427E+02 -0.30595367348E+01  0.73235958097E+02  0.00000000000E+00 0. -1.
<mgrwt>
<rscale>  0 0.30093543E+03</rscale>
<asrwt>0</asrwt>
<pdfrwt beam="1">  1        1 0.22261947E-01 0.30372861E+03</pdfrwt>
<pdfrwt beam="2">  1       -1 0.96778036E-01 0.30372861E+03</pdfrwt>
<totfact> 0.24149152E+02</totfact>
</mgrwt>
</event>
<event>
 8    1  0.1033707E-005  0.1430539E+03  0.7546771E-02  0.1219204E+00
         -1   -1    0    0    0  501 -0.00000000000E+00  0.00000000000E+00  0.59126513798E+02  0.59126513798E+02  0.00000000000E+00 0.  1.
          1   -1    0    0  501    0  0.00000000000E+00 -0.00000000000E+00 -0.29887713711E+03  0.29887713711E+03  0.00000000000E+00 0. -1.
         23    2    1    2    0    0 -0.39550197786E+02 -0.57227049437E+02 -0.91465405773E+02  0.16979501451E+03  0.12500109266E+03 0.  0.
         23    2    1    2    0    0  0.39550197786E+02  0.57227049437E+02 -0.14828521754E+03  0.18820863639E+03  0.92708315385E+02 0.  0.
          5    1    3    3  502    0  0.41621111276E+02 -0.11050614106E+02 -0.53594488845E+02  0.68912206542E+02  0.47000000000E+01 0.  1.
         -5    1    3    3    0  502 -0.81171309062E+02 -0.46176435331E+02 -0.37870916928E+02  0.10088280797E+03  0.47000000000E+01 0.  1.
        -11    1    4    4    0    0  0.69391697994E+02  0.37282367951E+02 -0.11402882543E+03  0.13859204789E+03  0.00000000000E+00 0. -1.
         11    1    4    4    0    0 -0.29841500209E+02  0.19944681486E+02 -0.34256392108E+02  0.49616588501E+02  0.00000000000E+00 0.  1.
<mgrwt>
<rscale>  0 0.13572206E+03</rscale>
<asrwt>0</asrwt>
<pdfrwt beam="2">  1        1 0.45981097E-01 0.14305393E+03</pdfrwt>
<pdfrwt beam="1">  1       -1 0.90963870E-02 0.14305393E+03</pdfrwt>
<totfact> 0.59592596E+03</totfact>
</mgrwt>
</event>
<event>
 8    1  0.1033707E-005  0.1269936E+03  0.7546771E-02  0.1246113E+00
          2   -1    0    0  501    0  0.00000000000E+00  0.00000000000E+00  0.98201532072E+02  0.98201532072E+02  0.00000000000E+00 0. -1.
         -2   -1    0    0    0  501 -0.00000000000E+00 -0.00000000000E+00 -0.13312175662E+03  0.13312175662E+03  0.00000000000E+00 0.  1.
         23    2    1    2    0    0  0.88564571543E+00 -0.22435517676E+02  0.71014742752E+01  0.12719201098E+03  0.12499295940E+03 0.  0.
         23    2    1    2    0    0 -0.88564571543E+00  0.22435517676E+02 -0.42021698827E+02  0.10413127771E+03  0.92592456519E+02 0.  0.
          5    1    3    3  502    0 -0.26398390234E+02 -0.16602832506E+02  0.59670711098E+02  0.67492316727E+02  0.47000000000E+01 0. -1.
         -5    1    3    3    0  502  0.27284035950E+02 -0.58326851700E+01 -0.52569236823E+02  0.59699694255E+02  0.47000000000E+01 0. -1.
        -11    1    4    4    0    0  0.30837923858E+02  0.14057791506E+02  0.15997532699E+02  0.37476927600E+02  0.00000000000E+00 0. -1.
         11    1    4    4    0    0 -0.31723569573E+02  0.83777261705E+01 -0.58019231526E+02  0.66654350114E+02  0.00000000000E+00 0.  1.
<mgrwt>
<rscale>  0 0.11819039E+03</rscale>
<asrwt>0</asrwt>
<pdfrwt beam="1">  1        2 0.15107928E-01 0.12699361E+03</pdfrwt>
<pdfrwt beam="2">  1       -2 0.20480270E-01 0.12699361E+03</pdfrwt>
<totfact> 0.73315357E+03</totfact>
</mgrwt>
</event>
<event>
 8    1  0.1033707E-005  0.1377523E+03  0.7546771E-02  0.1227795E+00
          4   -1    0    0  501    0  0.00000000000E+00  0.00000000000E+00  0.54882488618E+03  0.54882488618E+03  0.00000000000E+00 0. -1.
         -4   -1    0    0    0  501 -0.00000000000E+00 -0.00000000000E+00 -0.27635414102E+02  0.27635414102E+02  0.00000000000E+00 0.  1.
         23    2    1    2    0    0 -0.15008736020E+02 -0.55908915680E+02  0.28529067503E+03  0.31680665471E+03  0.12499847279E+03 0.  0.
         23    2    1    2    0    0  0.15008736020E+02  0.55908915680E+02  0.23589879705E+03  0.25965364558E+03  0.91764395063E+02 0.  0.
          5    1    3    3  502    0 -0.31210173401E+02 -0.37081210749E+02  0.28734677213E+03  0.29144355983E+03  0.47000000000E+01 0. -1.
         -5    1    3    3    0  502  0.16201437382E+02 -0.18827704931E+02 -0.20560971037E+01  0.25363094872E+02  0.47000000000E+01 0. -1.
        -11    1    4    4    0    0 -0.33904830858E+02  0.22222279647E+02  0.14886985925E+03  0.15429064217E+03  0.00000000000E+00 0. -1.
         11    1    4    4    0    0  0.48913566877E+02  0.33686636033E+02  0.87028937803E+02  0.10536300341E+03  0.00000000000E+00 0.  1.
<mgrwt>
<rscale>  0 0.12977149E+03</rscale>
<asrwt>0</asrwt>
<pdfrwt beam="1">  1        4 0.84434590E-01 0.13775227E+03</pdfrwt>
<pdfrwt beam="2">  1       -4 0.42516026E-02 0.13775227E+03</pdfrwt>
<totfact> 0.64972724E+02</totfact>
</mgrwt>
</event>
<event>
 7    1  0.1033707E-005  0.5655805E+03  0.7546771E-02  0.1039082E+00
         -4   -1    0    0    0  501 -0.00000000000E+00  0.00000000000E+00  0.14606782617E+04  0.14606782617E+04  0.00000000000E+00 0.  1.
          4   -1    0    0  501    0  0.00000000000E+00 -0.00000000000E+00 -0.10223133425E+03  0.10223133425E+03  0.00000000000E+00 0. -1.
         23    2    1    2    0    0  0.56008493294E+02  0.11931328953E+03  0.12097574273E+03  0.20231552247E+03  0.94466014650E+02 0.  0.
          5    1    1    2  502    0 -0.22151860357E+03 -0.30089277570E+02  0.18147308297E+03  0.28797643340E+03  0.47000000000E+01 0. -1.
         -5    1    1    2    0  502  0.16551011028E+03 -0.89224011964E+02  0.10559981017E+04  0.10726176401E+04  0.47000000000E+01 0.  1.
        -11    1    3    3    0    0  0.20765611169E+02 -0.12209741332E+02  0.79887468813E+01  0.25379292097E+02  0.00000000000E+00 0.  1.
         11    1    3    3    0    0  0.35242882125E+02  0.13152303087E+03  0.11298699585E+03  0.17693623038E+03  0.00000000000E+00 0. -1.
<mgrwt>
<rscale>  0 0.41386428E+03</rscale>
<asrwt>0</asrwt>
<pdfrwt beam="2">  1        4 0.15727899E-01 0.56558050E+03</pdfrwt>
<pdfrwt beam="1">  1       -4 0.22471972E+00 0.56558050E+03</pdfrwt>
<totfact> 0.65383223E+00</totfact>
</mgrwt>
</event>
<event>
 8    1  0.1033707E-005  0.2562004E+03  0.7546771E-02  0.1111828E+00
          3   -1    0    0  501    0  0.00000000000E+00  0.00000000000E+00  0.14057563499E+03  0.14057563499E+03  0.00000000000E+00 0. -1.
         -3   -1    0    0    0  501 -0.00000000000E+00 -0.00000000000E+00 -0.47345745709E+03  0.47345745709E+03  0.00000000000E+00 0.  1.
         23    2    1    2    0    0 -0.41389933568E+02  0.21977569192E+03 -0.25282414086E+03  0.35994260243E+03  0.12499659790E+03 0.  0.
         23    2    1    2    0    0  0.41389933568E+02 -0.21977569192E+03 -0.80057681239E+02  0.25409048964E+03  0.90212323108E+02 0.  0.
          5    1    3    3  502    0 -0.67523999857E+02  0.59259246327E+02 -0.62431782276E+02  0.10950327059E+03  0.47000000000E+01 0. -1.
         -5    1    3    3    0  502  0.26134066289E+02  0.16051644560E+03 -0.19039235858E+03  0.25043933184E+03  0.47000000000E+01 0. -1.
        -11    1    4    4    0    0 -0.25237202822E+02 -0.35312359808E+02 -0.34781271414E+01  0.43542812609E+02  0.00000000000E+00 0.  1.
         11    1    4    4    0    0  0.66627136391E+02 -0.18446333212E+03 -0.76579554098E+02  0.21054767704E+03  0.00000000000E+00 0. -1.
<mgrwt>
<rscale>  0 0.25235162E+03</rscale>
<asrwt>0</asrwt>
<pdfrwt beam="1">  1        3 0.21627021E-01 0.25620037E+03</pdfrwt>
<pdfrwt beam="2">  1       -3 0.72839609E-01 0.25620037E+03</pdfrwt>
<totfact> 0.88880052E+01</totfact>
</mgrwt>
</event>
<event>
 8    1  0.1033707E-005  0.1502191E+03  0.7546771E-02  0.1209310E+00
         -2   -1    0    0    0  501 -0.00000000000E+00  0.00000000000E+00  0.71909072250E+02  0.71909072250E+02  0.00000000000E+00 0.  1.
          2   -1    0    0  501    0  0.00000000000E+00 -0.00000000000E+00 -0.26790606554E+03  0.26790606554E+03  0.00000000000E+00 0. -1.
         23    2    1    2    0    0  0.59348786781E+01 -0.83104916959E+02 -0.79001474142E+02  0.16972624217E+03  0.12499645737E+03 0.  0.
         23    2    1    2    0    0 -0.59348786781E+01  0.83104916959E+02 -0.11699551915E+03  0.17008889563E+03  0.91107798275E+02 0.  0.
          5    1    3    3  502    0 -0.51288192345E+02 -0.61525489593E+02 -0.72332724362E+02  0.10802767033E+03  0.47000000000E+01 0. -1.
         -5    1    3    3    0  502  0.57223071023E+02 -0.21579427366E+02 -0.66687497796E+01  0.61698571834E+02  0.47000000000E+01 0. -1.
        -11    1    4    4    0    0  0.35277547921E+02  0.42434748364E+02 -0.23201438640E+02  0.59862509227E+02  0.00000000000E+00 0.  1.
         11    1    4    4    0    0 -0.41212426600E+02  0.40670168595E+02 -0.93794080509E+02  0.11022638640E+03  0.00000000000E+00 0. -1.
<mgrwt>
<rscale>  0 0.14302930E+03</rscale>
<asrwt>0</asrwt>
<pdfrwt beam="2">  1        2 0.41216317E-01 0.15021905E+03</pdfrwt>
<pdfrwt beam="1">  1       -2 0.11062934E-01 0.15021905E+03</pdfrwt>
<totfact> 0.66888874E+03</totfact>
</mgrwt>
</event>
<event>
 8    1  0.1033707E-005  0.1266091E+03  0.7546771E-02  0.1247594E+00
          1   -1    0    0  501    0  0.00000000000E+00  0.00000000000E+00  0.72393203271E+02  0.72393203271E+02  0.00000000000E+00 0. -1.
         -1   -1    0    0    0  501 -0.00000000000E+00 -0.00000000000E+00 -0.17687837453E+03  0.17687837453E+03  0.00000000000E+00 0.  1.
         23    2    1    2    0    0  0.30129093983E+01  0.19903530361E+02 -0.88770224073E+02  0.15462860159E+03  0.12499849441E+03 0.  0.
         23    2    1    2    0    0 -0.30129093983E+01 -0.19903530361E+02 -0.15714947190E+02  0.94642976210E+02  0.91132350111E+02 0.  0.
          5    1    3    3  502    0 -0.51527278416E+02  0.34942127209E+02 -0.72279805852E+02  0.95511638081E+02  0.47000000000E+01 0. -1.
         -5    1    3    3    0  502  0.54540187814E+02 -0.15038596847E+02 -0.16490418221E+02  0.59116963513E+02  0.47000000000E+01 0. -1.
        -11    1    4    4    0    0 -0.14055547445E+02  0.16576124289E+02 -0.42720622172E+02  0.47930969834E+02  0.00000000000E+00 0.  1.
         11    1    4    4    0    0  0.11042638047E+02 -0.36479654650E+02  0.27005674982E+02  0.46712006376E+02  0.00000000000E+00 0. -1.
<mgrwt>
<rscale>  0 0.11731483E+03</rscale>
<asrwt>0</asrwt>
<pdfrwt beam="1">  1        1 0.11137416E-01 0.12660905E+03</pdfrwt>
<pdfrwt beam="2">  1       -1 0.27212057E-01 0.12660905E+03</pdfrwt>
<totfact> 0.63201443E+03</totfact>
</mgrwt>
</event>
<event>
 8    1  0.1033707E-005  0.1301110E+03  0.7546771E-02  0.1240463E+00
          1   -1    0    0  501    0  0.00000000000E+00  0.00000000000E+00  0.17476153253E+03  0.17476153253E+03  0.00000000000E+00 0. -1.
         -1   -1    0    0    0  501 -0.00000000000E+00 -0.00000000000E+00 -0.75761574854E+02  0.75761574854E+02  0.00000000000E+00 0.  1.
         23    2    1    2    0    0 -0.28199309811E+02 -0.22577836186E+02  0.46278511186E+02  0.13809627665E+03  0.12499568499E+03 0.  0.
         23    2    1    2    0    0  0.28199309811E+02  0.22577836186E+02  0.52721446487E+02  0.11242683073E+03  0.92494765187E+02 0.  0.
          5    1    3    3  502    0 -0.11656442422E+02 -0.70398770955E+01 -0.43265817894E+02  0.45601025399E+02  0.47000000000E+01 0.  1.
         -5    1    3    3    0  502 -0.16542867389E+02 -0.15537959090E+02  0.89544329080E+02  0.92495251254E+02  0.47000000000E+01 0.  1.
        -11    1    4    4    0    0 -0.25961459152E+02 -0.12401026594E+02  0.35494938872E+02  0.45691065948E+02  0.00000000000E+00 0. -1.
         11    1    4    4    0    0  0.54160768963E+02  0.34978862780E+02  0.17226507615E+02  0.66735764779E+02  0.00000000000E+00 0.  1.
<mgrwt>
<rscale>  0 0.12161063E+03</rscale>
<asrwt>0</asrwt>
<pdfrwt beam="1">  1        1 0.26886389E-01 0.13011103E+03</pdfrwt>
<pdfrwt beam="2">  1       -1 0.11655627E-01 0.13011103E+03</pdfrwt>
<totfact> 0.78848580E+03</totfact>
</mgrwt>
</event>
<event>
 8    1  0.1033707E-005  0.1343676E+03  0.7546771E-02  0.1234373E+00
         -3   -1    0    0    0  501 -0.00000000000E+00  0.00000000000E+00  0.12080136528E+03  0.12080136528E+03  0.00000000000E+00 0.  1.
          3   -1    0    0  501    0  0.00000000000E+00 -0.00000000000E+00 -0.11927121217E+03  0.11927121217E+03  0.00000000000E+00 0. -1.
         23    2    1    2    0    0  0.16125961577E+02 -0.46505553680E+02 -0.19706685257E+02  0.13580503884E+03  0.12502736489E+03 0.  0.
         23    2    1    2    0    0 -0.16125961577E+02  0.46505553680E+02  0.21236838374E+02  0.10426753861E+03  0.89430996552E+02 0.  0.
          5    1    3    3  502    0 -0.10411904808E+02 -0.13660179059E+02  0.50608717262E+02  0.53650167908E+02  0.47000000000E+01 0. -1.
         -5    1    3    3    0  502  0.26537866386E+02 -0.32845374621E+02 -0.70315402519E+02  0.82154870931E+02  0.47000000000E+01 0. -1.
        -11    1    4    4    0    0 -0.34027323705E+02  0.52982539429E+01  0.42384788880E+02  0.54611359457E+02  0.00000000000E+00 0.  1.
         11    1    4    4    0    0  0.17901362128E+02  0.41207299737E+02 -0.21147950506E+02  0.49656179155E+02  0.00000000000E+00 0. -1.
<mgrwt>
<rscale>  0 0.12544638E+03</rscale>
<asrwt>0</asrwt>
<pdfrwt beam="2">  1        3 0.18349417E-01 0.13436761E+03</pdfrwt>
<pdfrwt beam="1">  1       -3 0.18584825E-01 0.13436761E+03</pdfrwt>
<totfact> 0.15315926E+03</totfact>
</mgrwt>
</event>
<event>
 7    1  0.1033707E-005  0.2787093E+03  0.7546771E-02  0.1096396E+00
         -1   -1    0    0    0  501 -0.00000000000E+00  0.00000000000E+00  0.27514032906E+03  0.27514032906E+03  0.00000000000E+00 0.  1.
          1   -1    0    0  501    0  0.00000000000E+00 -0.00000000000E+00 -0.70581120016E+02  0.70581120016E+02  0.00000000000E+00 0. -1.
         23    2    1    2    0    0  0.39347066313E+02  0.93077441924E+01  0.18096166083E+02  0.10011055193E+03  0.89776531736E+02 0.  0.
          5    1    1    2  502    0 -0.13442110344E+02  0.14763476427E+02 -0.24328758462E+02  0.31821832993E+02  0.47000000000E+01 0. -1.
         -5    1    1    2    0  502 -0.25904955969E+02 -0.24071220620E+02  0.21079180143E+03  0.21378906416E+03  0.47000000000E+01 0.  1.
        -11    1    3    3    0    0 -0.88952799610E+01  0.39867413890E+02  0.25599850334E+01  0.40927866048E+02  0.00000000000E+00 0. -1.
         11    1    3    3    0    0  0.48242346274E+02 -0.30559669698E+02  0.15536181050E+02  0.59182685877E+02  0.00000000000E+00 0.  1.
<mgrwt>
<rscale>  0 0.27870926E+03</rscale>
<asrwt>0</asrwt>
<pdfrwt beam="2">  1        1 0.10858634E-01 0.27870926E+03</pdfrwt>
<pdfrwt beam="1">  1       -1 0.42329281E-01 0.27870926E+03</pdfrwt>
<totfact> 0.31887924E+03</totfact>
</mgrwt>
</event>
<event>
 8    1  0.1033707E-005  0.1344797E+03  0.7546771E-02  0.1232968E+00
         -2   -1    0    0    0  501 -0.00000000000E+00  0.00000000000E+00  0.81898307355E+02  0.81898307355E+02  0.00000000000E+00 0. -1.
          2   -1    0    0  501    0  0.00000000000E+00 -0.00000000000E+00 -0.21324310586E+03  0.21324310586E+03  0.00000000000E+00 0.  1.
         23    2    1    2    0    0 -0.48952302848E+02  0.80638094740E+01 -0.10072466922E+02  0.13485638538E+03  0.12499374829E+03 0.  0.
         23    2    1    2    0    0  0.48952302848E+02 -0.80638094740E+01 -0.12127233158E+03  0.16028502783E+03  0.92319871983E+02 0.  0.
          5    1    3    3  502    0 -0.90920699512E+02  0.12305212683E+02 -0.10005189949E+02  0.92413125068E+02  0.47000000000E+01 0.  1.
         -5    1    3    3    0  502  0.41968396664E+02 -0.42414032086E+01 -0.67276973437E-01  0.42443260312E+02  0.47000000000E+01 0.  1.
        -11    1    4    4    0    0  0.37480380278E+02  0.76357718452E+01 -0.13244609980E+03  0.13785881644E+03  0.00000000000E+00 0.  1.
         11    1    4    4    0    0  0.11471922571E+02 -0.15699581319E+02  0.11173768223E+02  0.22426211391E+02  0.00000000000E+00 0. -1.
<mgrwt>
<rscale>  0 0.12635405E+03</rscale>
<asrwt>0</asrwt>
<pdfrwt beam="2">  1        2 0.32806632E-01 0.13447970E+03</pdfrwt>
<pdfrwt beam="1">  1       -2 0.12599740E-01 0.13447970E+03</pdfrwt>
<totfact> 0.68876547E+03</totfact>
</mgrwt>
</event>
<event>
 7    1  0.1033707E-005  0.1700885E+03  0.7546771E-02  0.1189576E+00
          1   -1    0    0  501    0  0.00000000000E+00  0.00000000000E+00  0.56508847052E+02  0.56508847052E+02  0.00000000000E+00 0. -1.
         -1   -1    0    0    0  501 -0.00000000000E+00 -0.00000000000E+00 -0.83245738507E+03  0.83245738507E+03  0.00000000000E+00 0.  1.
         23    2    1    2    0    0 -0.13425510048E+02  0.55465363196E+02 -0.44481389895E+02  0.13798402060E+03  0.11749189359E+03 0.  0.
          5    1    1    2  502    0  0.37213350947E+01  0.77846149007E+01  0.54779037224E+01  0.11249266342E+02  0.47000000000E+01 0. -1.
         -5    1    1    2    0  502  0.97041749532E+01 -0.63249978097E+02 -0.73694505184E+03  0.73973294517E+03  0.47000000000E+01 0.  1.
        -11    1    3    3    0    0  0.20678318442E+02 -0.25623609427E+02 -0.37253222490E+02  0.49718857585E+02  0.00000000000E+00 0.  1.
         11    1    3    3    0    0 -0.34103828490E+02  0.81088972623E+02 -0.72281674057E+01  0.88265163019E+02  0.00000000000E+00 0. -1.
<mgrwt>
<rscale>  0 0.15922334E+03</rscale>
<asrwt>0</asrwt>
<pdfrwt beam="1">  1        1 0.86936690E-02 0.17008849E+03</pdfrwt>
<pdfrwt beam="2">  1       -1 0.12807036E+00 0.17008849E+03</pdfrwt>
<totfact> 0.43849724E+02</totfact>
</mgrwt>
</event>
<event>
 8    1  0.1033707E-005  0.1742721E+03  0.7546771E-02  0.1179299E+00
         -1   -1    0    0    0  501 -0.00000000000E+00  0.00000000000E+00  0.30630529175E+03  0.30630529175E+03  0.00000000000E+00 0.  1.
          1   -1    0    0  501    0  0.00000000000E+00 -0.00000000000E+00 -0.88263625232E+02  0.88263625232E+02  0.00000000000E+00 0. -1.
         23    2    1    2    0    0 -0.85104702661E+02 -0.86616850137E+02  0.13700104647E+03  0.22167557141E+03  0.12500193232E+03 0.  0.
         23    2    1    2    0    0  0.85104702661E+02  0.86616850137E+02  0.81040620053E+02  0.17289334557E+03  0.92624174505E+02 0.  0.
          5    1    3    3  502    0 -0.83457687855E+02 -0.11631634341E+03  0.12138785462E+03  0.18775457027E+03  0.47000000000E+01 0.  1.
         -5    1    3    3    0  502 -0.16470148063E+01  0.29699493277E+02  0.15613191841E+02  0.33921001138E+02  0.47000000000E+01 0.  1.
        -11    1    4    4    0    0  0.89639802337E+02  0.30949192952E+02  0.37110508647E+02  0.10183484943E+03  0.00000000000E+00 0.  1.
         11    1    4    4    0    0 -0.45350996755E+01  0.55667657185E+02  0.43930111405E+02  0.71058496140E+02  0.00000000000E+00 0. -1.
<mgrwt>
<rscale>  0 0.16861552E+03</rscale>
<asrwt>0</asrwt>
<pdfrwt beam="2">  1        1 0.13579019E-01 0.17427212E+03</pdfrwt>
<pdfrwt beam="1">  1       -1 0.47123891E-01 0.17427212E+03</pdfrwt>
<totfact> 0.19174217E+03</totfact>
</mgrwt>
</event>
<event>
 8    1  0.1033707E-005  0.1763020E+03  0.7546771E-02  0.1177407E+00
          1   -1    0    0  501    0  0.00000000000E+00  0.00000000000E+00  0.24955459070E+03  0.24955459070E+03  0.00000000000E+00 0. -1.
         -1   -1    0    0    0  501 -0.00000000000E+00 -0.00000000000E+00 -0.14167733604E+03  0.14167733604E+03  0.00000000000E+00 0.  1.
         23    2    1    2    0    0  0.83764978863E+02  0.91900338912E+02 -0.36659479769E+02  0.18007310943E+03  0.12498065173E+03 0.  0.
         23    2    1    2    0    0 -0.83764978863E+02 -0.91900338912E+02  0.14453673443E+03  0.21115881731E+03  0.90746540163E+02 0.  0.
          5    1    3    3  502    0  0.11101019991E+03  0.74341144274E+02 -0.52582298102E+02  0.14365534550E+03  0.47000000000E+01 0.  1.
         -5    1    3    3    0  502 -0.27245221046E+02  0.17559194638E+02  0.15922818333E+02  0.36417763932E+02  0.47000000000E+01 0.  1.
        -11    1    4    4    0    0  0.75303546138E+01 -0.39659187721E+02  0.12320963004E+02  0.42206202632E+02  0.00000000000E+00 0.  1.
         11    1    4    4    0    0 -0.91295333477E+02 -0.52241151192E+02  0.13221577142E+03  0.16895261468E+03  0.00000000000E+00 0. -1.
<mgrwt>
<rscale>  0 0.17042373E+03</rscale>
<asrwt>0</asrwt>
<pdfrwt beam="1">  1        1 0.38393014E-01 0.17630203E+03</pdfrwt>
<pdfrwt beam="2">  1       -1 0.21796513E-01 0.17630203E+03</pdfrwt>
<totfact> 0.19104953E+03</totfact>
</mgrwt>
</event>
<event>
 8    1  0.1033707E-005  0.1459696E+03  0.7546771E-02  0.1214495E+00
          1   -1    0    0  501    0  0.00000000000E+00  0.00000000000E+00  0.65657313872E+02  0.65657313872E+02  0.00000000000E+00 0. -1.
         -1   -1    0    0    0  501 -0.00000000000E+00 -0.00000000000E+00 -0.31132618353E+03  0.31132618353E+03  0.00000000000E+00 0.  1.
         23    2    1    2    0    0 -0.63660702580E+02 -0.40362647878E+02 -0.20113181574E+03  0.24851786209E+03  0.12500116830E+03 0.  0.
         23    2    1    2    0    0  0.63660702580E+02  0.40362647878E+02 -0.44537053917E+02  0.12846563531E+03  0.94010860478E+02 0.  0.
          5    1    3    3  502    0 -0.95611758629E+02 -0.26214940773E+02 -0.18457010905E+03  0.20956394409E+03  0.47000000000E+01 0. -1.
         -5    1    3    3    0  502  0.31951056049E+02 -0.14147707105E+02 -0.16561706692E+02  0.38953917999E+02  0.47000000000E+01 0. -1.
        -11    1    4    4    0    0  0.63560977238E+02  0.16298034213E+02  0.12285366586E+02  0.66757426394E+02  0.00000000000E+00 0. -1.
         11    1    4    4    0    0  0.99725342297E-01  0.24064613666E+02 -0.56822420503E+02  0.61708208918E+02  0.00000000000E+00 0.  1.
<mgrwt>
<rscale>  0 0.13913684E+03</rscale>
<asrwt>0</asrwt>
<pdfrwt beam="1">  1        1 0.10101125E-01 0.14596959E+03</pdfrwt>
<pdfrwt beam="2">  1       -1 0.47896338E-01 0.14596959E+03</pdfrwt>
<totfact> 0.27307481E+03</totfact>
</mgrwt>
</event>
<event>
 7    1  0.1033707E-005  0.2421636E+03  0.7546771E-02  0.1127095E+00
          3   -1    0    0  501    0  0.00000000000E+00  0.00000000000E+00  0.18273675574E+03  0.18273675574E+03  0.00000000000E+00 0. -1.
         -3   -1    0    0    0  501 -0.00000000000E+00 -0.00000000000E+00 -0.26309352926E+03  0.26309352926E+03  0.00000000000E+00 0.  1.
         23    2    1    2    0    0  0.11174871518E+03  0.13208548110E+03 -0.17462353885E+02  0.19563249251E+03  0.89625825860E+02 0.  0.
          5    1    1    2  502    0 -0.25259901340E+02 -0.90507523433E+02  0.46209829006E+02  0.10481942907E+03  0.47000000000E+01 0. -1.
         -5    1    1    2    0  502 -0.86488813837E+02 -0.41577957664E+02 -0.10910424864E+03  0.14537836343E+03  0.47000000000E+01 0.  1.
        -11    1    3    3    0    0  0.46264324006E+02  0.10205735000E+02  0.21304253801E+02  0.51946279295E+02  0.00000000000E+00 0. -1.
         11    1    3    3    0    0  0.65484391171E+02  0.12187974610E+03 -0.38766607686E+02  0.14368621321E+03  0.00000000000E+00 0.  1.
<mgrwt>
<rscale>  0 0.22935472E+03</rscale>
<asrwt>0</asrwt>
<pdfrwt beam="1">  1        3 0.28113347E-01 0.24216364E+03</pdfrwt>
<pdfrwt beam="2">  1       -3 0.40475927E-01 0.24216364E+03</pdfrwt>
<totfact> 0.18289161E+02</totfact>
</mgrwt>
</event>
<event>
 8    1  0.1033707E-005  0.1401960E+03  0.7546771E-02  0.1224147E+00
          3   -1    0    0  501    0  0.00000000000E+00  0.00000000000E+00  0.70997137579E+03  0.70997137579E+03  0.00000000000E+00 0. -1.
         -3   -1    0    0    0  501 -0.00000000000E+00 -0.00000000000E+00 -0.22478813036E+02  0.22478813036E+02  0.00000000000E+00 0.  1.
         23    2    1    2    0    0  0.88403881516E+01  0.62859397347E+02  0.34450395725E+03  0.37193804386E+03  0.12500190243E+03 0.  0.
         23    2    1    2    0    0 -0.88403881516E+01 -0.62859397347E+02  0.34298860551E+03  0.36051214497E+03  0.91095372364E+02 0.  0.
          5    1    3    3  502    0  0.48879307668E+01 -0.11018475860E+02 -0.55808845509E+01  0.14090243072E+02  0.47000000000E+01 0. -1.
         -5    1    3    3    0  502  0.39524573848E+01  0.73877873206E+02  0.35008484180E+03  0.35784780078E+03  0.47000000000E+01 0. -1.
        -11    1    4    4    0    0  0.12845707212E+02 -0.79624016922E+02  0.21521386820E+03  0.22983038382E+03  0.00000000000E+00 0.  1.
         11    1    4    4    0    0 -0.21686095364E+02  0.16764619575E+02  0.12777473731E+03  0.13068176115E+03  0.00000000000E+00 0. -1.
<mgrwt>
<rscale>  0 0.13225516E+03</rscale>
<asrwt>0</asrwt>
<pdfrwt beam="1">  1        3 0.10922635E+00 0.14019605E+03</pdfrwt>
<pdfrwt beam="2">  1       -3 0.34582795E-02 0.14019605E+03</pdfrwt>
<totfact> 0.70222870E+02</totfact>
</mgrwt>
</event>
<event>
 8    1  0.1033707E-005  0.1285622E+03  0.7546771E-02  0.1255620E+00
         -1   -1    0    0    0  501 -0.00000000000E+00  0.00000000000E+00  0.11862805019E+03  0.11862805019E+03  0.00000000000E+00 0.  1.
          1   -1    0    0  501    0  0.00000000000E+00 -0.00000000000E+00 -0.91765865629E+02  0.91765865629E+02  0.00000000000E+00 0. -1.
         23    2    1    2    0    0  0.40807086088E+02  0.84870928563E+01  0.36937352918E+02  0.13376322344E+03  0.12161818484E+03 0.  0.
         23    2    1    2    0    0 -0.40807086088E+02 -0.84870928563E+01 -0.10075168360E+02  0.76630692380E+02  0.63509880940E+02 0.  0.
          5    1    3    3  502    0  0.81768417497E+02 -0.10392412364E+02  0.17333131106E+02  0.84359965438E+02  0.47000000000E+01 0. -1.
         -5    1    3    3    0  502 -0.40961331409E+02  0.18879505220E+02  0.19604221813E+02  0.49403258000E+02  0.47000000000E+01 0.  1.
        -11    1    4    4    0    0 -0.30633488037E+02  0.15761177892E+02 -0.28343768845E+02  0.44611596589E+02  0.00000000000E+00 0. -1.
         11    1    4    4    0    0 -0.10173598051E+02 -0.24248270749E+02  0.18268600485E+02  0.32019095791E+02  0.00000000000E+00 0.  1.
<mgrwt>
<rscale>  0 0.11271688E+03</rscale>
<asrwt>0</asrwt>
<pdfrwt beam="2">  1        1 0.14117825E-01 0.12856217E+03</pdfrwt>
<pdfrwt beam="1">  1       -1 0.18250469E-01 0.12856217E+03</pdfrwt>
<totfact> 0.88705723E+03</totfact>
</mgrwt>
</event>
<event>
 8    1  0.1033707E-005  0.1807664E+03  0.7546771E-02  0.1172025E+00
         -2   -1    0    0    0  501 -0.00000000000E+00  0.00000000000E+00  0.74982732739E+02  0.74982732739E+02  0.00000000000E+00 0.  1.
          2   -1    0    0  501    0  0.00000000000E+00 -0.00000000000E+00 -0.50945141761E+03  0.50945141761E+03  0.00000000000E+00 0. -1.
         23    2    1    2    0    0 -0.67337028409E+02 -0.11187871994E+03 -0.85501787740E+02  0.19996759138E+03  0.12500143409E+03 0.  0.
         23    2    1    2    0    0  0.67337028409E+02  0.11187871994E+03 -0.34896689713E+03  0.38446655897E+03  0.94791963286E+02 0.  0.
          5    1    3    3  502    0 -0.33883187786E+02 -0.13310068585E+02 -0.88413165273E+02  0.95729860199E+02  0.47000000000E+01 0.  1.
         -5    1    3    3    0  502 -0.33453840623E+02 -0.98568651354E+02  0.29113775330E+01  0.10423773118E+03  0.47000000000E+01 0.  1.
        -11    1    4    4    0    0  0.59152139538E+01  0.94521811412E+02 -0.24244111116E+03  0.26028264439E+03  0.00000000000E+00 0. -1.
         11    1    4    4    0    0  0.61421814455E+02  0.17356908527E+02 -0.10652578597E+03  0.12418391458E+03  0.00000000000E+00 0.  1.
<mgrwt>
<rscale>  0 0.17570590E+03</rscale>
<asrwt>0</asrwt>
<pdfrwt beam="2">  1        2 0.78377142E-01 0.18076637E+03</pdfrwt>
<pdfrwt beam="1">  1       -2 0.11535805E-01 0.18076637E+03</pdfrwt>
<totfact> 0.31598767E+03</totfact>
</mgrwt>
</event>
<event>
 8    1  0.1033707E-005  0.1534031E+03  0.7546771E-02  0.1205904E+00
         -4   -1    0    0    0  501 -0.00000000000E+00  0.00000000000E+00  0.29310344764E+03  0.29310344764E+03  0.00000000000E+00 0.  1.
          4   -1    0    0  501    0  0.00000000000E+00 -0.00000000000E+00 -0.78225264904E+02  0.78225264904E+02  0.00000000000E+00 0. -1.
         23    2    1    2    0    0  0.45189718845E+02 -0.76573651035E+02  0.18993244807E+03  0.24414511699E+03  0.12500747418E+03 0.  0.
         23    2    1    2    0    0 -0.45189718845E+02  0.76573651035E+02  0.24945734669E+02  0.12718359555E+03  0.87451372646E+02 0.  0.
          5    1    3    3  502    0  0.43602782727E+02 -0.75303117671E+02  0.43091420926E+02  0.97214827829E+02  0.47000000000E+01 0. -1.
         -5    1    3    3    0  502  0.15869361180E+01 -0.12705333643E+01  0.14684102714E+03  0.14693028916E+03  0.47000000000E+01 0. -1.
        -11    1    4    4    0    0 -0.42051029365E+02 -0.55962310787E+01  0.10387476575E+02  0.43675010504E+02  0.00000000000E+00 0. -1.
         11    1    4    4    0    0 -0.31386894801E+01  0.82169882114E+02  0.14558258094E+02  0.83508585050E+02  0.00000000000E+00 0.  1.
<mgrwt>
<rscale>  0 0.14566447E+03</rscale>
<asrwt>0</asrwt>
<pdfrwt beam="2">  1        4 0.12034656E-01 0.15340307E+03</pdfrwt>
<pdfrwt beam="1">  1       -4 0.45092838E-01 0.15340307E+03</pdfrwt>
<totfact> 0.44967806E+02</totfact>
</mgrwt>
</event>
<event>
 7    1  0.1033707E-005  0.1899968E+03  0.7546771E-02  0.1180519E+00
          1   -1    0    0  501    0  0.00000000000E+00  0.00000000000E+00  0.11233622226E+03  0.11233622226E+03  0.00000000000E+00 0. -1.
         -1   -1    0    0    0  501 -0.00000000000E+00 -0.00000000000E+00 -0.21563155040E+03  0.21563155040E+03  0.00000000000E+00 0.  1.
         23    2    1    2    0    0  0.37307686034E+02 -0.67681237046E+02 -0.67941946618E+01  0.11486860715E+03  0.84711407396E+02 0.  0.
          5    1    1    2  502    0  0.39363059431E+02  0.76351760192E+02 -0.10453137783E+03  0.13538072493E+03  0.47000000000E+01 0. -1.
         -5    1    1    2    0  502 -0.76670745465E+02 -0.86705231464E+01  0.80302443501E+01  0.77718440579E+02  0.47000000000E+01 0.  1.
        -11    1    3    3    0    0 -0.24550581994E+02 -0.31255429576E+02  0.10336105470E+02  0.41066629159E+02  0.00000000000E+00 0.  1.
         11    1    3    3    0    0  0.61858268028E+02 -0.36425807469E+02 -0.17130300131E+02  0.73801977994E+02  0.00000000000E+00 0. -1.
<mgrwt>
<rscale>  0 0.16746336E+03</rscale>
<asrwt>0</asrwt>
<pdfrwt beam="1">  1        1 0.17282496E-01 0.18999680E+03</pdfrwt>
<pdfrwt beam="2">  1       -1 0.33174085E-01 0.18999680E+03</pdfrwt>
<totfact> 0.26089001E+03</totfact>
</mgrwt>
</event>
<event>
 8    1  0.1033707E-005  0.1441612E+03  0.7546771E-02  0.1218463E+00
          2   -1    0    0  501    0  0.00000000000E+00  0.00000000000E+00  0.87145115650E+03  0.87145115650E+03  0.00000000000E+00 0. -1.
         -2   -1    0    0    0  501 -0.00000000000E+00 -0.00000000000E+00 -0.19491707298E+02  0.19491707298E+02  0.00000000000E+00 0.  1.
         23    2    1    2    0    0  0.12826769263E+02 -0.70664623647E+02  0.42643966813E+03  0.45014803719E+03  0.12499779912E+03 0.  0.
         23    2    1    2    0    0 -0.12826769263E+02  0.70664623647E+02  0.42551978107E+03  0.44079482660E+03  0.89860892697E+02 0.  0.
          5    1    3    3  502    0  0.25973725415E+02 -0.84157781500E+02  0.42077866813E+03  0.42992318402E+03  0.47000000000E+01 0.  1.
         -5    1    3    3    0  502 -0.13146956152E+02  0.13493157852E+02  0.56609999973E+01  0.20224853173E+02  0.47000000000E+01 0.  1.
        -11    1    4    4    0    0 -0.12004638740E+02 -0.12887308206E+02  0.19541003685E+02  0.26306746076E+02  0.00000000000E+00 0.  1.
         11    1    4    4    0    0 -0.82213052309E+00  0.83551931854E+02  0.40597877738E+03  0.41448808053E+03  0.00000000000E+00 0. -1.
<mgrwt>
<rscale>  0 0.13625224E+03</rscale>
<asrwt>0</asrwt>
<pdfrwt beam="1">  1        2 0.13406938E+00 0.14416125E+03</pdfrwt>
<pdfrwt beam="2">  1       -2 0.29987249E-02 0.14416125E+03</pdfrwt>
<totfact> 0.12921793E+04</totfact>
</mgrwt>
</event>
<event>
 7    1  0.1033707E-005  0.1410483E+03  0.7546771E-02  0.1229362E+00
          1   -1    0    0  501    0  0.00000000000E+00  0.00000000000E+00  0.38000213121E+03  0.38000213121E+03  0.00000000000E+00 0. -1.
         -1   -1    0    0    0  501 -0.00000000000E+00 -0.00000000000E+00 -0.64329332476E+02  0.64329332476E+02  0.00000000000E+00 0.  1.
         23    2    1    2    0    0  0.19993921238E+02 -0.25479261646E+02  0.28315504169E+03  0.29958334127E+03  0.92327953886E+02 0.  0.
          5    1    1    2  502    0 -0.21668127571E+01 -0.50799391077E+02  0.41447470650E+02  0.65766678756E+02  0.47000000000E+01 0. -1.
         -5    1    1    2    0  502 -0.17827108481E+02  0.76278652724E+02 -0.89297136073E+01  0.78981443664E+02  0.47000000000E+01 0.  1.
        -11    1    3    3    0    0 -0.11077224039E+02  0.31253956688E+02  0.96369726222E+02  0.10191486071E+03  0.00000000000E+00 0.  1.
         11    1    3    3    0    0  0.31071145278E+02 -0.56733218334E+02  0.18678531547E+03  0.19766848056E+03  0.00000000000E+00 0. -1.
<mgrwt>
<rscale>  0 0.12872387E+03</rscale>
<asrwt>0</asrwt>
<pdfrwt beam="1">  1        1 0.58461865E-01 0.14104827E+03</pdfrwt>
<pdfrwt beam="2">  1       -1 0.98968206E-02 0.14104827E+03</pdfrwt>
<totfact> 0.38816632E+03</totfact>
</mgrwt>
</event>
<event>
 8    1  0.1033707E-005  0.1602442E+03  0.7546771E-02  0.1197040E+00
          1   -1    0    0  501    0  0.00000000000E+00  0.00000000000E+00  0.58708235272E+02  0.58708235272E+02  0.00000000000E+00 0. -1.
         -1   -1    0    0    0  501 -0.00000000000E+00 -0.00000000000E+00 -0.38108042014E+03  0.38108042014E+03  0.00000000000E+00 0.  1.
         23    2    1    2    0    0  0.66309436412E+02 -0.75206092595E+02 -0.22057305235E+03  0.27263650416E+03  0.12500117703E+03 0.  0.
         23    2    1    2    0    0 -0.66309436412E+02  0.75206092595E+02 -0.10179913252E+03  0.16715215125E+03  0.86740305306E+02 0.  0.
          5    1    3    3  502    0  0.98421698344E+02 -0.52115930407E+02 -0.19701126366E+03  0.22635907076E+03  0.47000000000E+01 0. -1.
         -5    1    3    3    0  502 -0.32112261932E+02 -0.23090162188E+02 -0.23561788691E+02  0.46277433405E+02  0.47000000000E+01 0. -1.
        -11    1    4    4    0    0 -0.48954891577E+02  0.81210946938E+02 -0.40412434728E+02  0.10307746695E+03  0.00000000000E+00 0. -1.
         11    1    4    4    0    0 -0.17354544835E+02 -0.60048543433E+01 -0.61386697797E+02  0.64074684303E+02  0.00000000000E+00 0.  1.
<mgrwt>
<rscale>  0 0.15282840E+03</rscale>
<asrwt>0</asrwt>
<pdfrwt beam="1">  1        1 0.90320357E-02 0.16024416E+03</pdfrwt>
<pdfrwt beam="2">  1       -1 0.58627760E-01 0.16024416E+03</pdfrwt>
<totfact> 0.21888586E+03</totfact>
</mgrwt>
</event>
<event>
 8    1  0.1033707E-005  0.1399863E+03  0.7546771E-02  0.1222848E+00
         -1   -1    0    0    0  501 -0.00000000000E+00  0.00000000000E+00  0.71334150648E+02  0.71334150648E+02  0.00000000000E+00 0.  1.
          1   -1    0    0  501    0  0.00000000000E+00 -0.00000000000E+00 -0.29677247342E+03  0.29677247342E+03  0.00000000000E+00 0. -1.
         23    2    1    2    0    0  0.63007031476E+02  0.15512564736E+01 -0.32512931521E+02  0.14371236857E+03  0.12499544693E+03 0.  0.
         23    2    1    2    0    0 -0.63007031476E+02 -0.15512564736E+01 -0.19292539125E+03  0.22439425550E+03  0.95709366832E+02 0.  0.
          5    1    3    3  502    0  0.57286367207E+02  0.14161973245E+02 -0.76861044196E+02  0.97015459947E+02  0.47000000000E+01 0.  1.
         -5    1    3    3    0  502  0.57206642688E+01 -0.12610716771E+02  0.44348112675E+02  0.46696908623E+02  0.47000000000E+01 0.  1.
        -11    1    4    4    0    0 -0.44149032421E+02  0.15440039535E+02 -0.19343136615E+03  0.19900559112E+03  0.00000000000E+00 0. -1.
         11    1    4    4    0    0 -0.18857999055E+02 -0.16991296009E+02  0.50597490169E+00  0.25388664380E+02  0.00000000000E+00 0.  1.
<mgrwt>
<rscale>  0 0.13315510E+03</rscale>
<asrwt>0</asrwt>
<pdfrwt beam="2">  1        1 0.45657304E-01 0.13998626E+03</pdfrwt>
<pdfrwt beam="1">  1       -1 0.10974485E-01 0.13998626E+03</pdfrwt>
<totfact> 0.45072963E+03</totfact>
</mgrwt>
</event>
<event>
 8    1  0.1033707E-005  0.1207271E+03  0.7546771E-02  0.1253176E+00
          2   -1    0    0  501    0  0.00000000000E+00  0.00000000000E+00  0.30978094500E+03  0.30978094500E+03  0.00000000000E+00 0. -1.
         -2   -1    0    0    0  501 -0.00000000000E+00 -0.00000000000E+00 -0.40596170277E+02  0.40596170277E+02  0.00000000000E+00 0.  1.
         23    2    1    2    0    0 -0.18603844138E+02  0.28144958137E+02  0.10481671072E+03  0.15987988393E+03  0.11591718058E+03 0.  0.
         23    2    1    2    0    0  0.18603844138E+02 -0.28144958137E+02  0.16436806401E+03  0.19049723135E+03  0.90189206683E+02 0.  0.
          5    1    3    3  502    0  0.15623806025E+02 -0.34522728423E+02  0.71253287981E+02  0.80839613684E+02  0.47000000000E+01 0. -1.
         -5    1    3    3    0  502 -0.34227650163E+02  0.62667686560E+02  0.33563422739E+02  0.79040270245E+02  0.47000000000E+01 0.  1.
        -11    1    4    4    0    0  0.38379395311E+02 -0.52404566586E+02  0.10836195349E+03  0.12633894708E+03  0.00000000000E+00 0. -1.
         11    1    4    4    0    0 -0.19775551173E+02  0.24259608449E+02  0.56006110514E+02  0.64158284276E+02  0.00000000000E+00 0.  1.
<mgrwt>
<rscale>  0 0.11409122E+03</rscale>
<asrwt>0</asrwt>
<pdfrwt beam="1">  1        2 0.47658605E-01 0.12072711E+03</pdfrwt>
<pdfrwt beam="2">  1       -2 0.62455649E-02 0.12072711E+03</pdfrwt>
<totfact> 0.13684719E+04</totfact>
</mgrwt>
</event>
<event>
 8    1  0.1033707E-005  0.2262847E+03  0.7546771E-02  0.1132635E+00
         -3   -1    0    0    0  501 -0.00000000000E+00  0.00000000000E+00  0.33769047171E+03  0.33769047171E+03  0.00000000000E+00 0.  1.
          3   -1    0    0  501    0  0.00000000000E+00 -0.00000000000E+00 -0.15302979310E+03  0.15302979310E+03  0.00000000000E+00 0. -1.
         23    2    1    2    0    0  0.14054211578E+03 -0.12580314085E+03  0.16760565748E+03  0.28159621200E+03  0.12500501446E+03 0.  0.
         23    2    1    2    0    0 -0.14054211578E+03  0.12580314085E+03  0.17055021131E+02  0.20912405280E+03  0.88676260403E+02 0.  0.
          5    1    3    3  502    0  0.54982405834E+02 -0.74946125288E+02  0.15549283689E+03  0.18121837371E+03  0.47000000000E+01 0. -1.
         -5    1    3    3    0  502  0.85559709945E+02 -0.50857015559E+02  0.12112820589E+02  0.10037783829E+03  0.47000000000E+01 0. -1.
        -11    1    4    4    0    0 -0.39572238049E+02  0.94821802324E+02  0.58313181281E+01  0.10291326684E+03  0.00000000000E+00 0.  1.
         11    1    4    4    0    0 -0.10096987773E+03  0.30981338523E+02  0.11223703003E+02  0.10621078596E+03  0.00000000000E+00 0. -1.
<mgrwt>
<rscale>  0 0.22168185E+03</rscale>
<asrwt>0</asrwt>
<pdfrwt beam="2">  1        3 0.23543045E-01 0.22628471E+03</pdfrwt>
<pdfrwt beam="1">  1       -3 0.51952380E-01 0.22628471E+03</pdfrwt>
<totfact> 0.15309143E+02</totfact>
</mgrwt>
</event>
<event>
 8    1  0.1033707E-005  0.1643272E+03  0.7546771E-02  0.1191217E+00
         -1   -1    0    0    0  501 -0.00000000000E+00  0.00000000000E+00  0.82095115707E+02  0.82095115707E+02  0.00000000000E+00 0.  1.
          1   -1    0    0  501    0  0.00000000000E+00 -0.00000000000E+00 -0.31118362682E+03  0.31118362682E+03  0.00000000000E+00 0. -1.
         23    2    1    2    0    0  0.90822984994E+02  0.55940100582E+02 -0.62350008800E+02  0.17575820988E+03  0.12500126113E+03 0.  0.
         23    2    1    2    0    0 -0.90822984994E+02 -0.55940100582E+02 -0.16673850231E+03  0.21752053265E+03  0.90196144682E+02 0.  0.
          5    1    3    3  502    0  0.11319619905E+03  0.56214149417E+02 -0.20575012972E+02  0.12813598726E+03  0.47000000000E+01 0.  1.
         -5    1    3    3    0  502 -0.22373214054E+02 -0.27404883437E+00 -0.41774995829E+02  0.47622222610E+02  0.47000000000E+01 0.  1.
        -11    1    4    4    0    0 -0.10722093930E+03 -0.57850809043E+02 -0.13571286515E+03  0.18237606120E+03  0.00000000000E+00 0.  1.
         11    1    4    4    0    0  0.16397954308E+02  0.19107084607E+01 -0.31025637162E+02  0.35144471451E+02  0.00000000000E+00 0. -1.
<mgrwt>
<rscale>  0 0.15778795E+03</rscale>
<asrwt>0</asrwt>
<pdfrwt beam="2">  1        1 0.47874405E-01 0.16432719E+03</pdfrwt>
<pdfrwt beam="1">  1       -1 0.12630018E-01 0.16432719E+03</pdfrwt>
<totfact> 0.34469609E+03</totfact>
</mgrwt>
</event>
<event>
 8    1  0.1033707E-005  0.2154336E+03  0.7546771E-02  0.1140771E+00
          1   -1    0    0  501    0  0.00000000000E+00  0.00000000000E+00  0.35058819924E+03  0.35058819924E+03  0.00000000000E+00 0. -1.
         -1   -1    0    0    0  501 -0.00000000000E+00 -0.00000000000E+00 -0.15818293491E+03  0.15818293491E+03  0.00000000000E+00 0.  1.
         23    2    1    2    0    0 -0.81079338361E+02 -0.15560471914E+03 -0.22227293279E+02  0.21657724649E+03  0.12499985360E+03 0.  0.
         23    2    1    2    0    0  0.81079338361E+02  0.15560471914E+03  0.21463255761E+03  0.29219388765E+03  0.92322507911E+02 0.  0.
          5    1    3    3  502    0 -0.53612736594E+02  0.16683978726E+01  0.66891492822E+01  0.54258121923E+02  0.47000000000E+01 0.  1.
         -5    1    3    3    0  502 -0.27466601767E+02 -0.15727311702E+03 -0.28916442562E+02  0.16231912456E+03  0.47000000000E+01 0.  1.
        -11    1    4    4    0    0  0.70645467237E+02  0.58783872358E+02  0.61025989810E+02  0.11031997608E+03  0.00000000000E+00 0.  1.
         11    1    4    4    0    0  0.10433871124E+02  0.96820846787E+02  0.15360656780E+03  0.18187391157E+03  0.00000000000E+00 0. -1.
<mgrwt>
<rscale>  0 0.21100765E+03</rscale>
<asrwt>0</asrwt>
<pdfrwt beam="1">  1        1 0.53936645E-01 0.21543364E+03</pdfrwt>
<pdfrwt beam="2">  1       -1 0.24335836E-01 0.21543364E+03</pdfrwt>
<totfact> 0.10453618E+03</totfact>
</mgrwt>
</event>
<event>
 8    1  0.1033707E-005  0.1515329E+03  0.7546771E-02  0.1206582E+00
         -1   -1    0    0    0  501 -0.00000000000E+00  0.00000000000E+00  0.19393602270E+03  0.19393602270E+03  0.00000000000E+00 0.  1.
          1   -1    0    0  501    0  0.00000000000E+00 -0.00000000000E+00 -0.10224715662E+03  0.10224715662E+03  0.00000000000E+00 0. -1.
         23    2    1    2    0    0  0.68584414376E+02  0.51305530676E+02  0.69661612678E+02  0.16677819210E+03  0.12500458274E+03 0.  0.
         23    2    1    2    0    0 -0.68584414376E+02 -0.51305530676E+02  0.22027253403E+02  0.12940498721E+03  0.94468891435E+02 0.  0.
          5    1    3    3  502    0  0.98647011194E+02  0.10041873340E+02  0.36739706672E+02  0.10584879822E+03  0.47000000000E+01 0. -1.
         -5    1    3    3    0  502 -0.30062596818E+02  0.41263657336E+02  0.32921906006E+02  0.60929393886E+02  0.47000000000E+01 0. -1.
        -11    1    4    4    0    0 -0.64116269119E+02 -0.68798533200E+02  0.41550339753E+02  0.10281325240E+03  0.00000000000E+00 0.  1.
         11    1    4    4    0    0 -0.44681452575E+01  0.17493002524E+02 -0.19523086350E+02  0.26591734806E+02  0.00000000000E+00 0. -1.
<mgrwt>
<rscale>  0 0.14513488E+03</rscale>
<asrwt>0</asrwt>
<pdfrwt beam="2">  1        1 0.15730332E-01 0.15153292E+03</pdfrwt>
<pdfrwt beam="1">  1       -1 0.29836311E-01 0.15153292E+03</pdfrwt>
<totfact> 0.34925014E+03</totfact>
</mgrwt>
</event>
<event>
 7    1  0.1033707E-005  0.2557662E+03  0.7546771E-02  0.1109714E+00
          2   -1    0    0  501    0  0.00000000000E+00  0.00000000000E+00  0.87293770996E+03  0.87293770996E+03  0.00000000000E+00 0. -1.
         -2   -1    0    0    0  501 -0.00000000000E+00 -0.00000000000E+00 -0.18734538650E+02  0.18734538650E+02  0.00000000000E+00 0.  1.
         23    2    1    2    0    0  0.31734121070E+02  0.37884376578E+01  0.51326084240E+03  0.52234983839E+03  0.91603791584E+02 0.  0.
          5    1    1    2  502    0  0.43131558929E+02 -0.23951233512E+01  0.23803868549E+03  0.24197225829E+03  0.47000000000E+01 0. -1.
         -5    1    1    2    0  502 -0.74865679998E+02 -0.13933143066E+01  0.10290364342E+03  0.12735015193E+03  0.47000000000E+01 0.  1.
        -11    1    3    3    0    0 -0.77832636113E+01  0.41528370148E+02  0.23697453028E+03  0.24071167965E+03  0.00000000000E+00 0.  1.
         11    1    3    3    0    0  0.39517384681E+02 -0.37739932490E+02  0.27628631212E+03  0.28163815874E+03  0.00000000000E+00 0. -1.
<mgrwt>
<rscale>  0 0.25576618E+03</rscale>
<asrwt>0</asrwt>
<pdfrwt beam="1">  1        2 0.13429808E+00 0.25576618E+03</pdfrwt>
<pdfrwt beam="2">  1       -2 0.28822374E-02 0.25576618E+03</pdfrwt>
<totfact> 0.14133791E+04</totfact>
</mgrwt>
</event>
<event>
 8    1  0.1033707E-005  0.1788336E+03  0.7546771E-02  0.1174486E+00
         -1   -1    0    0    0  501 -0.00000000000E+00  0.00000000000E+00  0.33115568814E+03  0.33115568814E+03  0.00000000000E+00 0.  1.
          1   -1    0    0  501    0  0.00000000000E+00 -0.00000000000E+00 -0.86987519258E+02  0.86987519258E+02  0.00000000000E+00 0. -1.
         23    2    1    2    0    0 -0.10226588710E+03 -0.76697745413E+02  0.15752911008E+03  0.23832097403E+03  0.12506242569E+03 0.  0.
         23    2    1    2    0    0  0.10226588710E+03  0.76697745413E+02  0.86639058802E+02  0.17982223338E+03  0.92134973216E+02 0.  0.
          5    1    3    3  502    0 -0.11271516504E+03 -0.38082849061E+02  0.61125403782E+02  0.13384101318E+03  0.47000000000E+01 0. -1.
         -5    1    3    3    0  502  0.10449277930E+02 -0.38614896352E+02  0.96403706303E+02  0.10447996085E+03  0.47000000000E+01 0. -1.
        -11    1    4    4    0    0  0.84837315423E+02  0.88163829596E+02  0.97363927084E+02  0.15636484654E+03  0.00000000000E+00 0.  1.
         11    1    4    4    0    0  0.17428571682E+02 -0.11466084183E+02 -0.10724868282E+02  0.23457386833E+02  0.00000000000E+00 0. -1.
<mgrwt>
<rscale>  0 0.17326400E+03</rscale>
<asrwt>0</asrwt>
<pdfrwt beam="2">  1        1 0.13382695E-01 0.17883363E+03</pdfrwt>
<pdfrwt beam="1">  1       -1 0.50947028E-01 0.17883363E+03</pdfrwt>
<totfact> 0.16959103E+03</totfact>
</mgrwt>
</event>
<event>
 8    1  0.1033707E-005  0.1733935E+03  0.7546771E-02  0.1181186E+00
          2   -1    0    0  501    0  0.00000000000E+00  0.00000000000E+00  0.75555531663E+03  0.75555531663E+03  0.00000000000E+00 0. -1.
         -2   -1    0    0    0  501 -0.00000000000E+00 -0.00000000000E+00 -0.36813282163E+02  0.36813282163E+02  0.00000000000E+00 0.  1.
         23    2    1    2    0    0  0.70772653293E+02  0.97117028367E+02  0.28212396241E+03  0.33114834635E+03  0.12499924589E+03 0.  0.
         23    2    1    2    0    0 -0.70772653293E+02 -0.97117028367E+02  0.43661807205E+03  0.46122025244E+03  0.87454529694E+02 0.  0.
          5    1    3    3  502    0  0.17154296449E+02  0.10710855498E+03  0.23517999655E+03  0.25903326662E+03  0.47000000000E+01 0. -1.
         -5    1    3    3    0  502  0.53618356844E+02 -0.99915266118E+01  0.46943965864E+02  0.72115079739E+02  0.47000000000E+01 0. -1.
        -11    1    4    4    0    0 -0.26470125053E+02  0.11491912115E+02  0.12419946263E+03  0.12750779616E+03  0.00000000000E+00 0. -1.
         11    1    4    4    0    0 -0.44302528240E+02 -0.10860894048E+03  0.31241860942E+03  0.33371245628E+03  0.00000000000E+00 0.  1.
<mgrwt>
<rscale>  0 0.16683841E+03</rscale>
<asrwt>0</asrwt>
<pdfrwt beam="1">  1        2 0.11623927E+00 0.17339347E+03</pdfrwt>
<pdfrwt beam="2">  1       -2 0.56635824E-02 0.17339347E+03</pdfrwt>
<totfact> 0.60389957E+03</totfact>
</mgrwt>
</event>
<event>
 8    1  0.1033707E-005  0.1323775E+03  0.7546771E-02  0.1237224E+00
         -3   -1    0    0    0  501 -0.00000000000E+00  0.00000000000E+00  0.35929970661E+02  0.35929970661E+02  0.00000000000E+00 0.  1.
          3   -1    0    0  501    0  0.00000000000E+00 -0.00000000000E+00 -0.39676934521E+03  0.39676934521E+03  0.00000000000E+00 0. -1.
         23    2    1    2    0    0 -0.43360732396E+02  0.42625942333E+01 -0.15716584600E+03  0.20548702568E+03  0.12500196698E+03 0.  0.
         23    2    1    2    0    0  0.43360732396E+02 -0.42625942333E+01 -0.20367352855E+03  0.22721229020E+03  0.90797553706E+02 0.  0.
          5    1    3    3  502    0 -0.43834807372E+02  0.51985664138E+02 -0.40348492133E+02  0.79209156230E+02  0.47000000000E+01 0.  1.
         -5    1    3    3    0  502  0.47407497623E+00 -0.47723069905E+02 -0.11681735386E+03  0.12627786945E+03  0.47000000000E+01 0.  1.
        -11    1    4    4    0    0  0.71640360128E+02 -0.71171398366E+01 -0.15358225181E+03  0.16961869870E+03  0.00000000000E+00 0.  1.
         11    1    4    4    0    0 -0.28279627731E+02  0.28545456033E+01 -0.50091276747E+02  0.57593591496E+02  0.00000000000E+00 0. -1.
<mgrwt>
<rscale>  0 0.12363145E+03</rscale>
<asrwt>0</asrwt>
<pdfrwt beam="2">  1        3 0.61041439E-01 0.13237755E+03</pdfrwt>
<pdfrwt beam="1">  1       -3 0.55276877E-02 0.13237755E+03</pdfrwt>
<totfact> 0.11842325E+03</totfact>
</mgrwt>
</event>
<event>
 8    1  0.1033707E-005  0.1503694E+03  0.7546771E-02  0.1208821E+00
          1   -1    0    0  501    0  0.00000000000E+00  0.00000000000E+00  0.34751689741E+03  0.34751689741E+03  0.00000000000E+00 0. -1.
         -1   -1    0    0    0  501 -0.00000000000E+00 -0.00000000000E+00 -0.54503121251E+02  0.54503121251E+02  0.00000000000E+00 0.  1.
         23    2    1    2    0    0  0.82795991838E+02  0.11492509765E+02  0.14827226046E+03  0.21117676045E+03  0.12499482744E+03 0.  0.
         23    2    1    2    0    0 -0.82795991838E+02 -0.11492509765E+02  0.14474151570E+03  0.19084325821E+03  0.92107485000E+02 0.  0.
          5    1    3    3  502    0  0.66160513486E+01  0.22309048036E+01 -0.22430980480E+02  0.23958045767E+02  0.47000000000E+01 0.  1.
         -5    1    3    3    0  502  0.76179940489E+02  0.92616049618E+01  0.17070324094E+03  0.18721871468E+03  0.47000000000E+01 0.  1.
        -11    1    4    4    0    0 -0.59815474534E+02  0.84342256823E+01  0.14838442775E+03  0.16020913068E+03  0.00000000000E+00 0. -1.
         11    1    4    4    0    0 -0.22980517304E+02 -0.19926735448E+02 -0.36429120496E+01  0.30634127527E+02  0.00000000000E+00 0.  1.
<mgrwt>
<rscale>  0 0.14340344E+03</rscale>
<asrwt>0</asrwt>
<pdfrwt beam="1">  1        1 0.53464137E-01 0.15036941E+03</pdfrwt>
<pdfrwt beam="2">  1       -1 0.83850958E-02 0.15036941E+03</pdfrwt>
<totfact> 0.56057763E+03</totfact>
</mgrwt>
</event>
<event>
 8    1  0.1033707E-005  0.1193279E+03  0.7546771E-02  0.1256582E+00
          2   -1    0    0  501    0  0.00000000000E+00  0.00000000000E+00  0.71831995883E+03  0.71831995883E+03  0.00000000000E+00 0. -1.
         -2   -1    0    0    0  501 -0.00000000000E+00 -0.00000000000E+00 -0.17306791111E+02  0.17306791111E+02  0.00000000000E+00 0.  1.
         23    2    1    2    0    0 -0.91075746433E+01  0.31224235013E+02  0.27908480872E+03  0.30352510423E+03  0.11480965845E+03 0.  0.
         23    2    1    2    0    0  0.91075746433E+01 -0.31224235013E+02  0.42192835900E+03  0.43210164571E+03  0.87352111189E+02 0.  0.
          5    1    3    3  502    0 -0.29235761943E+02  0.66782620523E+02  0.21774205837E+03  0.22967007242E+03  0.47000000000E+01 0. -1.
         -5    1    3    3    0  502  0.20128187299E+02 -0.35558385510E+02  0.61342750347E+02  0.73855031813E+02  0.47000000000E+01 0.  1.
        -11    1    4    4    0    0  0.34031373937E+02 -0.51055049120E+02  0.27935879635E+03  0.28601763853E+03  0.00000000000E+00 0.  1.
         11    1    4    4    0    0 -0.24923799294E+02  0.19830814107E+02  0.14256956265E+03  0.14608400718E+03  0.00000000000E+00 0. -1.
<mgrwt>
<rscale>  0 0.11218206E+03</rscale>
<asrwt>0</asrwt>
<pdfrwt beam="1">  1        2 0.11051074E+00 0.11932794E+03</pdfrwt>
<pdfrwt beam="2">  1       -2 0.26625838E-02 0.11932794E+03</pdfrwt>
<totfact> 0.19269042E+04</totfact>
</mgrwt>
</event>
<event>
 8    1  0.1033707E-005  0.1900253E+03  0.7546771E-02  0.1163383E+00
         -2   -1    0    0    0  501 -0.00000000000E+00  0.00000000000E+00  0.26111130053E+03  0.26111130053E+03  0.00000000000E+00 0.  1.
          2   -1    0    0  501    0  0.00000000000E+00 -0.00000000000E+00 -0.14468283002E+03  0.14468283002E+03  0.00000000000E+00 0. -1.
         23    2    1    2    0    0  0.31503936827E+02 -0.13961113595E+03  0.13825615024E+03  0.23499864643E+03  0.12500333366E+03 0.  0.
         23    2    1    2    0    0 -0.31503936827E+02  0.13961113595E+03 -0.21827679733E+02  0.17079548412E+03  0.90613919884E+02 0.  0.
          5    1    3    3  502    0  0.45270478579E+02 -0.13156925809E+03  0.54333825257E+02  0.14944611226E+03  0.47000000000E+01 0.  1.
         -5    1    3    3    0  502 -0.13766541752E+02 -0.80418778664E+01  0.83922324984E+02  0.85552534166E+02  0.47000000000E+01 0.  1.
        -11    1    4    4    0    0 -0.63268082497E+02  0.81696616354E+02 -0.12363076518E+02  0.10406744471E+03  0.00000000000E+00 0.  1.
         11    1    4    4    0    0  0.31764145670E+02  0.57914519597E+02 -0.94646032150E+01  0.66728039416E+02  0.00000000000E+00 0. -1.
<mgrwt>
<rscale>  0 0.18464333E+03</rscale>
<asrwt>0</asrwt>
<pdfrwt beam="2">  1        2 0.22258897E-01 0.19002526E+03</pdfrwt>
<pdfrwt beam="1">  1       -2 0.40170969E-01 0.19002526E+03</pdfrwt>
<totfact> 0.14345964E+03</totfact>
</mgrwt>
</event>
<event>
 6    1  0.1033707E-005  0.3100137E+03  0.7546771E-02  0.1080339E+00
          1   -1    0    0  501    0  0.00000000000E+00  0.00000000000E+00  0.10107666417E+03  0.10107666417E+03  0.00000000000E+00 0. -1.
         -1   -1    0    0    0  501 -0.00000000000E+00 -0.00000000000E+00 -0.23771180095E+03  0.23771180095E+03  0.00000000000E+00 0.  1.
          5    1    1    2  502    0  0.33041401919E+01 -0.37364389850E+02  0.31771805534E+02  0.49381703071E+02  0.47000000000E+01 0. -1.
         -5    1    1    2    0  502  0.20115615808E+02  0.30705870627E+02 -0.97038703062E+02  0.10385609458E+03  0.47000000000E+01 0.  1.
        -11    1    1    2    0    0  0.69446284311E+02 -0.36049314436E+01 -0.59208166180E+02  0.91331204293E+02  0.00000000000E+00 0.  1.
         11    1    1    2    0    0 -0.92866040311E+02  0.10263450666E+02 -0.12160073080E+02  0.94219463169E+02  0.00000000000E+00 0. -1.
<mgrwt>
<rscale>  0 0.31001365E+03</rscale>
<asrwt>0</asrwt>
<pdfrwt beam="1">  1        1 0.15550256E-01 0.31001365E+03</pdfrwt>
<pdfrwt beam="2">  1       -1 0.36571046E-01 0.31001365E+03</pdfrwt>
<totfact> 0.25726664E+03</totfact>
</mgrwt>
</event>
<event>
 8    1  0.1033707E-005  0.1597155E+03  0.7546771E-02  0.1196870E+00
          1   -1    0    0  501    0  0.00000000000E+00  0.00000000000E+00  0.31519278004E+02  0.31519278004E+02  0.00000000000E+00 0. -1.
         -1   -1    0    0    0  501 -0.00000000000E+00 -0.00000000000E+00 -0.10810553953E+04  0.10810553953E+04  0.00000000000E+00 0.  1.
         23    2    1    2    0    0  0.98889048563E+02  0.10216054610E+02 -0.88888475685E+03  0.90311967201E+03  0.12500247721E+03 0.  0.
         23    2    1    2    0    0 -0.98889048563E+02 -0.10216054610E+02 -0.16065136049E+03  0.20945500134E+03  0.90438522001E+02 0.  0.
          5    1    3    3  502    0  0.25848686852E+02 -0.52398693753E+02 -0.44919869968E+03  0.45300699720E+03  0.47000000000E+01 0.  1.
         -5    1    3    3    0  502  0.73040361711E+02  0.62614748363E+02 -0.43968605717E+03  0.45011267480E+03  0.47000000000E+01 0.  1.
        -11    1    4    4    0    0 -0.12098987589E+02 -0.23825311234E+01  0.11272524010E+02  0.16707236540E+02  0.00000000000E+00 0. -1.
         11    1    4    4    0    0 -0.86790060974E+02 -0.78335234864E+01 -0.17192388450E+03  0.19274776480E+03  0.00000000000E+00 0.  1.
<mgrwt>
<rscale>  0 0.15297046E+03</rscale>
<asrwt>0</asrwt>
<pdfrwt beam="1">  1        1 0.48491189E-02 0.15971547E+03</pdfrwt>
<pdfrwt beam="2">  1       -1 0.16631624E+00 0.15971547E+03</pdfrwt>
<totfact> 0.49522874E+02</totfact>
</mgrwt>
</event>
<event>
 8    1  0.1033707E-005  0.1414496E+03  0.7546771E-02  0.1222211E+00
          1   -1    0    0  501    0  0.00000000000E+00  0.00000000000E+00  0.31541087864E+03  0.31541087864E+03  0.00000000000E+00 0. -1.
         -1   -1    0    0    0  501 -0.00000000000E+00 -0.00000000000E+00 -0.11109386811E+03  0.11109386811E+03  0.00000000000E+00 0.  1.
         23    2    1    2    0    0  0.53693569897E+02 -0.38728829710E+02 -0.48682853149E+02  0.14959277395E+03  0.12500022451E+03 0.  0.
         23    2    1    2    0    0 -0.53693569897E+02  0.38728829710E+02  0.25299986367E+03  0.27691197280E+03  0.91040584139E+02 0.  0.
          5    1    3    3  502    0  0.60314000522E+02  0.20031002410E+02 -0.61877037726E+02  0.88824982489E+02  0.47000000000E+01 0. -1.
         -5    1    3    3    0  502 -0.66204306251E+01 -0.58759832120E+02  0.13194184577E+02  0.60767791462E+02  0.47000000000E+01 0. -1.
        -11    1    4    4    0    0  0.24669396646E+02  0.15074660306E+02  0.89723737904E+02  0.94266503370E+02  0.00000000000E+00 0.  1.
         11    1    4    4    0    0 -0.78362966543E+02  0.23654169404E+02  0.16327612577E+03  0.18264546943E+03  0.00000000000E+00 0. -1.
<mgrwt>
<rscale>  0 0.13359921E+03</rscale>
<asrwt>0</asrwt>
<pdfrwt beam="1">  1        1 0.48524750E-01 0.14144956E+03</pdfrwt>
<pdfrwt beam="2">  1       -1 0.17091364E-01 0.14144956E+03</pdfrwt>
<totfact> 0.20960676E+03</totfact>
</mgrwt>
</event>
<event>
 8    1  0.1033707E-005  0.1325059E+03  0.7546771E-02  0.1236724E+00
          2   -1    0    0  501    0  0.00000000000E+00  0.00000000000E+00  0.61918284815E+03  0.61918284815E+03  0.00000000000E+00 0. -1.
         -2   -1    0    0    0  501 -0.00000000000E+00 -0.00000000000E+00 -0.22458185695E+02  0.22458185695E+02  0.00000000000E+00 0.  1.
         23    2    1    2    0    0  0.41188537951E+02 -0.15319827969E+02  0.29713132056E+03  0.32533804732E+03  0.12500652219E+03 0.  0.
         23    2    1    2    0    0 -0.41188537951E+02  0.15319827969E+02  0.29959334190E+03  0.31630298653E+03  0.91434216722E+02 0.  0.
          5    1    3    3  502    0  0.70536974089E+02  0.22791109951E+02  0.11498546443E+03  0.13688917575E+03  0.47000000000E+01 0.  1.
         -5    1    3    3    0  502 -0.29348436137E+02 -0.38110937920E+02  0.18214585612E+03  0.18844887157E+03  0.47000000000E+01 0.  1.
        -11    1    4    4    0    0 -0.58395092334E+02 -0.19233038157E+02  0.20832389214E+03  0.21720667715E+03  0.00000000000E+00 0.  1.
         11    1    4    4    0    0  0.17206554383E+02  0.34552866125E+02  0.91269449761E+02  0.99096309371E+02  0.00000000000E+00 0. -1.
<mgrwt>
<rscale>  0 0.12394695E+03</rscale>
<asrwt>0</asrwt>
<pdfrwt beam="1">  1        2 0.95258887E-01 0.13250594E+03</pdfrwt>
<pdfrwt beam="2">  1       -2 0.34551060E-02 0.13250594E+03</pdfrwt>
<totfact> 0.15767292E+04</totfact>
</mgrwt>
</event>
<event>
 8    1  0.1033707E-005  0.1367414E+03  0.7546771E-02  0.1230123E+00
         -1   -1    0    0    0  501 -0.00000000000E+00  0.00000000000E+00  0.19522821092E+02  0.19522821092E+02  0.00000000000E+00 0.  1.
          1   -1    0    0  501    0  0.00000000000E+00 -0.00000000000E+00 -0.77277085369E+03  0.77277085369E+03  0.00000000000E+00 0. -1.
         23    2    1    2    0    0 -0.54755378114E+02 -0.89360541637E+01 -0.48686119782E+03  0.50569954942E+03  0.12498081389E+03 0.  0.
         23    2    1    2    0    0  0.54755378114E+02  0.89360541637E+01 -0.26638683478E+03  0.28659412536E+03  0.89979122327E+02 0.  0.
          5    1    3    3  502    0 -0.46026072641E+02  0.37864115572E+02 -0.41555002668E+03  0.41982854272E+03  0.47000000000E+01 0.  1.
         -5    1    3    3    0  502 -0.87293054737E+01 -0.46800169736E+02 -0.71311171148E+02  0.85871006701E+02  0.47000000000E+01 0.  1.
        -11    1    4    4    0    0  0.60095278519E+02  0.41292277835E+02 -0.18394155568E+03  0.19786609263E+03  0.00000000000E+00 0. -1.
         11    1    4    4    0    0 -0.53399004041E+01 -0.32356223671E+02 -0.82445279099E+02  0.88728032731E+02  0.00000000000E+00 0.  1.
<mgrwt>
<rscale>  0 0.12821897E+03</rscale>
<asrwt>0</asrwt>
<pdfrwt beam="2">  1        1 0.11888783E+00 0.13674139E+03</pdfrwt>
<pdfrwt beam="1">  1       -1 0.30035108E-02 0.13674139E+03</pdfrwt>
<totfact> 0.88066731E+03</totfact>
</mgrwt>
</event>
<event>
 8    1  0.1033707E-005  0.1418147E+03  0.7546771E-02  0.1222176E+00
         -1   -1    0    0    0  501 -0.00000000000E+00  0.00000000000E+00  0.20796948113E+03  0.20796948113E+03  0.00000000000E+00 0.  1.
          1   -1    0    0  501    0  0.00000000000E+00 -0.00000000000E+00 -0.77317720460E+02  0.77317720460E+02  0.00000000000E+00 0. -1.
         23    2    1    2    0    0  0.66477232646E+02 -0.82254083120E+01  0.74678206720E+02  0.16027550493E+03  0.12499809246E+03 0.  0.
         23    2    1    2    0    0 -0.66477232646E+02  0.82254083120E+01  0.55973553952E+02  0.12501169666E+03  0.89487461462E+02 0.  0.
          5    1    3    3  502    0  0.62256805850E+02  0.51989444452E+02  0.44230725089E+02  0.92505455250E+02  0.47000000000E+01 0. -1.
         -5    1    3    3    0  502  0.42204267954E+01 -0.60214852764E+02  0.30447481631E+02  0.67770049678E+02  0.47000000000E+01 0. -1.
        -11    1    4    4    0    0 -0.74567644758E+02 -0.97015764198E+01  0.68479045461E+02  0.10170464049E+03  0.00000000000E+00 0.  1.
         11    1    4    4    0    0  0.80904121122E+01  0.17926984732E+02 -0.12505491508E+02  0.23307056176E+02  0.00000000000E+00 0. -1.
<mgrwt>
<rscale>  0 0.13362337E+03</rscale>
<asrwt>0</asrwt>
<pdfrwt beam="2">  1        1 0.11895034E-01 0.14181468E+03</pdfrwt>
<pdfrwt beam="1">  1       -1 0.31995305E-01 0.14181468E+03</pdfrwt>
<totfact> 0.44522931E+03</totfact>
</mgrwt>
</event>
<event>
 7    1  0.1033707E-005  0.3082899E+03  0.7546771E-02  0.1125798E+00
         -1   -1    0    0    0  501 -0.00000000000E+00  0.00000000000E+00  0.10813379832E+03  0.10813379832E+03  0.00000000000E+00 0.  1.
          1   -1    0    0  501    0  0.00000000000E+00 -0.00000000000E+00 -0.41582044815E+03  0.41582044815E+03  0.00000000000E+00 0. -1.
         23    2    1    2    0    0  0.29152097103E+02 -0.83617765033E+01 -0.14672230914E+03  0.17617243838E+03  0.92679706368E+02 0.  0.
          5    1    1    2  502    0  0.30055039782E+02  0.10743040323E+03 -0.19729215199E+03  0.22669556720E+03  0.47000000000E+01 0. -1.
         -5    1    1    2    0  502 -0.59207136886E+02 -0.99068626726E+02  0.36327811300E+02  0.12108624089E+03  0.47000000000E+01 0.  1.
        -11    1    3    3    0    0 -0.16204573792E+02 -0.19590633948E+02 -0.36764812083E+01  0.25688473375E+02  0.00000000000E+00 0.  1.
         11    1    3    3    0    0  0.45356670895E+02  0.11228857445E+02 -0.14304582793E+03  0.15048396500E+03  0.00000000000E+00 0. -1.
<mgrwt>
<rscale>  0 0.23120009E+03</rscale>
<asrwt>0</asrwt>
<pdfrwt beam="2">  1        1 0.63972376E-01 0.30828991E+03</pdfrwt>
<pdfrwt beam="1">  1       -1 0.16635969E-01 0.30828991E+03</pdfrwt>
<totfact> 0.15690965E+03</totfact>
</mgrwt>
</event>
<event>
 8    1  0.1033707E-005  0.1550793E+03  0.7546771E-02  0.1203132E+00
          1   -1    0    0  501    0  0.00000000000E+00  0.00000000000E+00  0.87875788580E+02  0.87875788580E+02  0.00000000000E+00 0. -1.
         -1   -1    0    0    0  501 -0.00000000000E+00 -0.00000000000E+00 -0.23946011891E+03  0.23946011891E+03  0.00000000000E+00 0.  1.
         23    2    1    2    0    0 -0.83627268600E+02  0.37820213148E+02 -0.11798905303E+03  0.19486149969E+03  0.12500279537E+03 0.  0.
         23    2    1    2    0    0  0.83627268600E+02 -0.37820213148E+02 -0.33595277301E+02  0.13247440780E+03  0.89425597511E+02 0.  0.
          5    1    3    3  502    0 -0.50602872306E+02  0.67499760241E+02 -0.19484172192E+02  0.86709810773E+02  0.47000000000E+01 0. -1.
         -5    1    3    3    0  502 -0.33024396294E+02 -0.29679547093E+02 -0.98504880839E+02  0.10815168892E+03  0.47000000000E+01 0. -1.
        -11    1    4    4    0    0 -0.16313320107E+02 -0.10827348556E+02  0.76742737112E+01  0.21029749562E+02  0.00000000000E+00 0. -1.
         11    1    4    4    0    0  0.99940588707E+02 -0.26992864592E+02 -0.41269551012E+02  0.11144465824E+03  0.00000000000E+00 0.  1.
<mgrwt>
<rscale>  0 0.14785627E+03</rscale>
<asrwt>0</asrwt>
<pdfrwt beam="1">  1        1 0.13519352E-01 0.15507929E+03</pdfrwt>
<pdfrwt beam="2">  1       -1 0.36840017E-01 0.15507929E+03</pdfrwt>
<totfact> 0.29703378E+03</totfact>
</mgrwt>
</event>
<event>
 7    1  0.1033707E-005  0.1630132E+03  0.7546771E-02  0.1211667E+00
          1   -1    0    0  501    0  0.00000000000E+00  0.00000000000E+00  0.24907915361E+03  0.24907915361E+03  0.00000000000E+00 0. -1.
         -1   -1    0    0    0  501 -0.00000000000E+00 -0.00000000000E+00 -0.21273420166E+03  0.21273420166E+03  0.00000000000E+00 0.  1.
         23    2    1    2    0    0  0.14945879053E+02  0.31752562829E+01  0.20659688462E+03  0.22610373701E+03  0.90593408172E+02 0.  0.
          5    1    1    2  502    0  0.62341095086E+02 -0.90208991626E+01 -0.13773062292E+03  0.15152426620E+03  0.47000000000E+01 0. -1.
         -5    1    1    2    0  502 -0.77286974139E+02  0.58456428797E+01 -0.32521309754E+02  0.84185352053E+02  0.47000000000E+01 0.  1.
        -11    1    3    3    0    0  0.19582727725E+01  0.46325599975E+02  0.93665555117E+02  0.10451378981E+03  0.00000000000E+00 0.  1.
         11    1    3    3    0    0  0.12987606281E+02 -0.43150343692E+02  0.11293132950E+03  0.12158994720E+03  0.00000000000E+00 0. -1.
<mgrwt>
<rscale>  0 0.14124202E+03</rscale>
<asrwt>0</asrwt>
<pdfrwt beam="1">  1        1 0.38319870E-01 0.16301320E+03</pdfrwt>
<pdfrwt beam="2">  1       -1 0.32728339E-01 0.16301320E+03</pdfrwt>
<totfact> 0.97128021E+02</totfact>
</mgrwt>
</event>
<event>
 8    1  0.1033707E-005  0.1415641E+03  0.7546771E-02  0.1224325E+00
         -1   -1    0    0    0  501 -0.00000000000E+00  0.00000000000E+00  0.41411713688E+03  0.41411713688E+03  0.00000000000E+00 0.  1.
          1   -1    0    0  501    0  0.00000000000E+00 -0.00000000000E+00 -0.42541268228E+02  0.42541268228E+02  0.00000000000E+00 0. -1.
         23    2    1    2    0    0  0.46295047598E+02  0.47690955541E+02  0.28665879462E+03  0.31970870741E+03  0.12499093722E+03 0.  0.
         23    2    1    2    0    0 -0.46295047598E+02 -0.47690955541E+02  0.84917074036E+02  0.13694969770E+03  0.84419497542E+02 0.  0.
          5    1    3    3  502    0  0.62831181716E+02  0.80705038029E+02  0.23189939734E+03  0.25349651092E+03  0.47000000000E+01 0.  1.
         -5    1    3    3    0  502 -0.16536134118E+02 -0.33014082488E+02  0.54759397274E+02  0.66212196489E+02  0.47000000000E+01 0.  1.
        -11    1    4    4    0    0 -0.57853236389E+02 -0.93717086232E+01  0.75949299762E+02  0.95932903728E+02  0.00000000000E+00 0.  1.
         11    1    4    4    0    0  0.11558188791E+02 -0.38319246918E+02  0.89677742736E+01  0.41016793974E+02  0.00000000000E+00 0. -1.
<mgrwt>
<rscale>  0 0.13213286E+03</rscale>
<asrwt>0</asrwt>
<pdfrwt beam="2">  1        1 0.65448108E-02 0.14156410E+03</pdfrwt>
<pdfrwt beam="1">  1       -1 0.63710326E-01 0.14156410E+03</pdfrwt>
<totfact> 0.28644987E+03</totfact>
</mgrwt>
</event>
<event>
 8    1  0.1033707E-005  0.1357580E+03  0.7546771E-02  0.1231571E+00
         -2   -1    0    0    0  501 -0.00000000000E+00  0.00000000000E+00  0.66971185490E+03  0.66971185490E+03  0.00000000000E+00 0.  1.
          2   -1    0    0  501    0  0.00000000000E+00 -0.00000000000E+00 -0.35771258049E+02  0.35771258049E+02  0.00000000000E+00 0. -1.
         23    2    1    2    0    0 -0.35696984220E+02 -0.39164820246E+02  0.56240876104E+03  0.57856187995E+03  0.12498830591E+03 0.  0.
         23    2    1    2    0    0  0.35696984220E+02  0.39164820246E+02  0.71531835808E+02  0.12692123299E+03  0.90465673174E+02 0.  0.
          5    1    3    3  502    0 -0.76662079132E+01  0.42034356953E+02  0.28186175047E+03  0.28512066618E+03  0.47000000000E+01 0.  1.
         -5    1    3    3    0  502 -0.28030776307E+02 -0.81199177200E+02  0.28054701057E+03  0.29344121377E+03  0.47000000000E+01 0.  1.
        -11    1    4    4    0    0  0.33746243269E+02  0.26192926597E+01 -0.11849336060E+02  0.35861907281E+02  0.00000000000E+00 0. -1.
         11    1    4    4    0    0  0.19507409515E+01  0.36545527587E+02  0.83381171868E+02  0.91059325711E+02  0.00000000000E+00 0.  1.
<mgrwt>
<rscale>  0 0.12726519E+03</rscale>
<asrwt>0</asrwt>
<pdfrwt beam="2">  1        2 0.55032709E-02 0.13575800E+03</pdfrwt>
<pdfrwt beam="1">  1       -2 0.10303258E+00 0.13575800E+03</pdfrwt>
<totfact> 0.10739189E+03</totfact>
</mgrwt>
</event>
<event>
 8    1  0.1650319E-005  0.1839602E+03  0.7546771E-02  0.1169451E+00
         -1   -1    0    0    0  501 -0.00000000000E+00  0.00000000000E+00  0.28986279841E+02  0.28986279841E+02  0.00000000000E+00 0.  1.
          1   -1    0    0  501    0  0.00000000000E+00 -0.00000000000E+00 -0.10408007824E+04  0.10408007824E+04  0.00000000000E+00 0. -1.
         23    2    1    2    0    0 -0.11907270318E+03 -0.63546821552E+02 -0.49573388257E+03  0.52876595881E+03  0.12499939878E+03 0.  0.
         23    2    1    2    0    0  0.11907270318E+03  0.63546821552E+02 -0.51608062003E+03  0.54102110347E+03  0.90266942223E+02 0.  0.
          5    1    3    3  502    0 -0.77760468811E+01 -0.57101836943E+02 -0.27973939325E+03  0.28565241960E+03  0.47000000000E+01 0.  1.
         -5    1    3    3    0  502 -0.11129665630E+03 -0.64449846090E+01 -0.21599448931E+03  0.24311353920E+03  0.47000000000E+01 0.  1.
        -11    1    4    4    0    0  0.11142759339E+03  0.17279280661E+02 -0.40600739583E+03  0.42137475907E+03  0.00000000000E+00 0.  1.
         11    1    4    4    0    0  0.76451097913E+01  0.46267540891E+02 -0.11007322420E+03  0.11964634440E+03  0.00000000000E+00 0. -1.
<mgrwt>
<rscale>  0 0.17830791E+03</rscale>
<asrwt>0</asrwt>
<pdfrwt beam="2">  1        1 0.16012323E+00 0.18396020E+03</pdfrwt>
<pdfrwt beam="1">  1       -1 0.44594267E-02 0.18396020E+03</pdfrwt>
<totfact> 0.30913198E+03</totfact>
</mgrwt>
</event>
<event>
 8    1  0.1033707E-005  0.1560162E+03  0.7546771E-02  0.1200898E+00
         -2   -1    0    0    0  501 -0.00000000000E+00  0.00000000000E+00  0.28082862077E+02  0.28082862077E+02  0.00000000000E+00 0.  1.
          2   -1    0    0  501    0  0.00000000000E+00 -0.00000000000E+00 -0.74437535739E+03  0.74437535739E+03  0.00000000000E+00 0. -1.
         23    2    1    2    0    0  0.33374754608E+02  0.87190429560E+02 -0.35468821199E+03  0.38748519622E+03  0.12500001725E+03 0.  0.
         23    2    1    2    0    0 -0.33374754608E+02 -0.87190429560E+02 -0.36160428332E+03  0.38497302324E+03  0.93437281950E+02 0.  0.
          5    1    3    3  502    0 -0.27094328138E+02  0.66905283567E+02 -0.27982824362E+03  0.28902656542E+03  0.47000000000E+01 0. -1.
         -5    1    3    3    0  502  0.60469082746E+02  0.20285145994E+02 -0.74859968369E+02  0.98458630807E+02  0.47000000000E+01 0. -1.
        -11    1    4    4    0    0  0.40732788799E+01 -0.72350974089E+02 -0.31566010912E+03  0.32387120827E+03  0.00000000000E+00 0. -1.
         11    1    4    4    0    0 -0.37448033488E+02 -0.14839455471E+02 -0.45944174193E+02  0.61101814974E+02  0.00000000000E+00 0.  1.
<mgrwt>
<rscale>  0 0.14965492E+03</rscale>
<asrwt>0</asrwt>
<pdfrwt beam="2">  1        2 0.11451928E+00 0.15601618E+03</pdfrwt>
<pdfrwt beam="1">  1       -2 0.43204404E-02 0.15601618E+03</pdfrwt>
<totfact> 0.92021491E+03</totfact>
</mgrwt>
</event>
<event>
 8    1  0.1033707E-005  0.2711624E+03  0.7546771E-02  0.1102565E+00
          3   -1    0    0  501    0  0.00000000000E+00  0.00000000000E+00  0.12150584356E+04  0.12150584356E+04  0.00000000000E+00 0. -1.
         -3   -1    0    0    0  501 -0.00000000000E+00 -0.00000000000E+00 -0.59492459197E+02  0.59492459197E+02  0.00000000000E+00 0.  1.
         23    2    1    2    0    0  0.12771709772E+03 -0.20394875120E+03  0.70623367258E+03  0.75650183278E+03  0.12498908970E+03 0.  0.
         23    2    1    2    0    0 -0.12771709772E+03  0.20394875120E+03  0.44933230387E+03  0.51804906206E+03  0.92566523306E+02 0.  0.
          5    1    3    3  502    0 -0.71841050708E+01 -0.98364783298E+02  0.22683487156E+03  0.24739319092E+03  0.47000000000E+01 0.  1.
         -5    1    3    3    0  502  0.13490120279E+03 -0.10558396791E+03  0.47939880103E+03  0.50910864186E+03  0.47000000000E+01 0.  1.
        -11    1    4    4    0    0 -0.61332320881E+02  0.16277510319E+03  0.25573673804E+03  0.30928735342E+03  0.00000000000E+00 0.  1.
         11    1    4    4    0    0 -0.66384776841E+02  0.41173648017E+02  0.19359556583E+03  0.20876170865E+03  0.00000000000E+00 0. -1.
<mgrwt>
<rscale>  0 0.26776548E+03</rscale>
<asrwt>0</asrwt>
<pdfrwt beam="1">  1        3 0.18693205E+00 0.27116235E+03</pdfrwt>
<pdfrwt beam="2">  1       -3 0.91526869E-02 0.27116235E+03</pdfrwt>
<totfact> 0.41191875E+01</totfact>
</mgrwt>
</event>
<event>
 8    1  0.1033707E-005  0.2880036E+03  0.7546771E-02  0.1093109E+00
          2   -1    0    0  501    0  0.00000000000E+00  0.00000000000E+00  0.73231913990E+03  0.73231913990E+03  0.00000000000E+00 0. -1.
         -2   -1    0    0    0  501 -0.00000000000E+00 -0.00000000000E+00 -0.11356532745E+03  0.11356532745E+03  0.00000000000E+00 0.  1.
         23    2    1    2    0    0 -0.22064852454E+03  0.13651369716E+03  0.22521921237E+03  0.36560873114E+03  0.12499715907E+03 0.  0.
         23    2    1    2    0    0  0.22064852454E+03 -0.13651369716E+03  0.39353460009E+03  0.48027573621E+03  0.92051835545E+02 0.  0.
          5    1    3    3  502    0 -0.17149234041E+03  0.12493374474E+03  0.23201240089E+03  0.31443585604E+03  0.47000000000E+01 0. -1.
         -5    1    3    3    0  502 -0.49156184131E+02  0.11579952420E+02 -0.67931885265E+01  0.51172875107E+02  0.47000000000E+01 0. -1.
        -11    1    4    4    0    0  0.13330991295E+03 -0.13231517652E+03  0.27247317111E+03  0.33093876745E+03  0.00000000000E+00 0.  1.
         11    1    4    4    0    0  0.87338611584E+02 -0.41985206361E+01  0.12106142898E+03  0.14933696875E+03  0.00000000000E+00 0. -1.
<mgrwt>
<rscale>  0 0.28477619E+03</rscale>
<asrwt>0</asrwt>
<pdfrwt beam="1">  1        2 0.11266448E+00 0.28800356E+03</pdfrwt>
<pdfrwt beam="2">  1       -2 0.17471589E-01 0.28800356E+03</pdfrwt>
<totfact> 0.10524681E+03</totfact>
</mgrwt>
</event>
<event>
 8    1  0.1033707E-005  0.2342812E+03  0.7546771E-02  0.1126611E+00
          1   -1    0    0  501    0  0.00000000000E+00  0.00000000000E+00  0.10928921778E+03  0.10928921778E+03  0.00000000000E+00 0. -1.
         -1   -1    0    0    0  501 -0.00000000000E+00 -0.00000000000E+00 -0.46762316832E+03  0.46762316832E+03  0.00000000000E+00 0.  1.
         23    2    1    2    0    0 -0.61119915820E+02  0.18839761187E+03 -0.18028078064E+03  0.29561605728E+03  0.12513348547E+03 0.  0.
         23    2    1    2    0    0  0.61119915820E+02 -0.18839761187E+03 -0.17805316990E+03  0.28129632882E+03  0.90528387979E+02 0.  0.
          5    1    3    3  502    0  0.10513692059E+02  0.14778843199E+03 -0.13971769524E+03  0.20370341851E+03  0.47000000000E+01 0. -1.
         -5    1    3    3    0  502 -0.71633607879E+02  0.40609179883E+02 -0.40563085398E+02  0.91912638769E+02  0.47000000000E+01 0. -1.
        -11    1    4    4    0    0  0.14984884013E+01 -0.10524390651E+03 -0.47637453204E+02  0.11553290558E+03  0.00000000000E+00 0. -1.
         11    1    4    4    0    0  0.59621427419E+02 -0.83153705359E+02 -0.13041571670E+03  0.16576342324E+03  0.00000000000E+00 0.  1.
<mgrwt>
<rscale>  0 0.23004017E+03</rscale>
<asrwt>0</asrwt>
<pdfrwt beam="1">  1        1 0.16813726E-01 0.23428123E+03</pdfrwt>
<pdfrwt beam="2">  1       -1 0.71942025E-01 0.23428123E+03</pdfrwt>
<totfact> 0.65075970E+02</totfact>
</mgrwt>
</event>
<event>
 8    1  0.1033707E-005  0.1393767E+03  0.7546771E-02  0.1225267E+00
         -1   -1    0    0    0  501 -0.00000000000E+00  0.00000000000E+00  0.71435465379E+02  0.71435465379E+02  0.00000000000E+00 0.  1.
          1   -1    0    0  501    0  0.00000000000E+00 -0.00000000000E+00 -0.23656490874E+03  0.23656490874E+03  0.00000000000E+00 0. -1.
         23    2    1    2    0    0  0.31172571557E+02  0.53194432350E+02 -0.48917715669E+02  0.14771186848E+03  0.12499790532E+03 0.  0.
         23    2    1    2    0    0 -0.31172571557E+02 -0.53194432350E+02 -0.11621172769E+03  0.16028850564E+03  0.91574355226E+02 0.  0.
          5    1    3    3  502    0 -0.15509961309E+02 -0.21781678120E+02  0.21520442327E+02  0.34644189115E+02  0.47000000000E+01 0.  1.
         -5    1    3    3    0  502  0.46682532866E+02  0.74976110470E+02 -0.70438157996E+02  0.11306767937E+03  0.47000000000E+01 0.  1.
        -11    1    4    4    0    0  0.26917023576E+01 -0.43037078844E+02 -0.47831972041E+01  0.43385647310E+02  0.00000000000E+00 0.  1.
         11    1    4    4    0    0 -0.33864273915E+02 -0.10157353507E+02 -0.11142853049E+03  0.11690285833E+03  0.00000000000E+00 0. -1.
<mgrwt>
<rscale>  0 0.13148636E+03</rscale>
<asrwt>0</asrwt>
<pdfrwt beam="2">  1        1 0.36394601E-01 0.13937666E+03</pdfrwt>
<pdfrwt beam="1">  1       -1 0.10990072E-01 0.13937666E+03</pdfrwt>
<totfact> 0.59526128E+03</totfact>
</mgrwt>
</event>
<event>
 8    1  0.1033707E-005  0.1340038E+03  0.7546771E-02  0.1234089E+00
          2   -1    0    0  501    0  0.00000000000E+00  0.00000000000E+00  0.37764691208E+03  0.37764691208E+03  0.00000000000E+00 0. -1.
         -2   -1    0    0    0  501 -0.00000000000E+00 -0.00000000000E+00 -0.42388325939E+02  0.42388325939E+02  0.00000000000E+00 0.  1.
         23    2    1    2    0    0 -0.31576715381E+02  0.36536335809E+02  0.11468898975E+03  0.17638195058E+03  0.12500014133E+03 0.  0.
         23    2    1    2    0    0  0.31576715381E+02 -0.36536335809E+02  0.22056959640E+03  0.24365328744E+03  0.91564102339E+02 0.  0.
          5    1    3    3  502    0 -0.46301576320E+02  0.69028096577E+02  0.11300715785E+03  0.14036175338E+03  0.47000000000E+01 0.  1.
         -5    1    3    3    0  502  0.14724860940E+02 -0.32491760769E+02  0.16818318921E+01  0.36020197196E+02  0.47000000000E+01 0.  1.
        -11    1    4    4    0    0  0.43374370581E+02 -0.38475185976E+02  0.22386510113E+03  0.23125150694E+03  0.00000000000E+00 0. -1.
         11    1    4    4    0    0 -0.11797655200E+02  0.19388501669E+01 -0.32955047294E+01  0.12401780502E+02  0.00000000000E+00 0.  1.
<mgrwt>
<rscale>  0 0.12562958E+03</rscale>
<asrwt>0</asrwt>
<pdfrwt beam="1">  1        2 0.58099523E-01 0.13400384E+03</pdfrwt>
<pdfrwt beam="2">  1       -2 0.65212812E-02 0.13400384E+03</pdfrwt>
<totfact> 0.10476533E+04</totfact>
</mgrwt>
</event>
<event>
 8    1  0.1033707E-005  0.1394802E+03  0.7546771E-02  0.1225327E+00
         -1   -1    0    0    0  501 -0.00000000000E+00  0.00000000000E+00  0.96712840170E+02  0.96712840170E+02  0.00000000000E+00 0.  1.
          1   -1    0    0  501    0  0.00000000000E+00 -0.00000000000E+00 -0.16407245299E+03  0.16407245299E+03  0.00000000000E+00 0. -1.
         23    2    1    2    0    0 -0.94145107345E+01  0.61165364150E+02 -0.19585669544E+02  0.14084859426E+03  0.12499957308E+03 0.  0.
         23    2    1    2    0    0  0.94145107345E+01 -0.61165364150E+02 -0.47773943276E+02  0.11993669890E+03  0.90953984532E+02 0.  0.
          5    1    3    3  502    0  0.48972827458E+02 -0.68997612859E+01 -0.72224537543E+01  0.50201577398E+02  0.47000000000E+01 0. -1.
         -5    1    3    3    0  502 -0.58387338193E+02  0.68065125436E+02 -0.12363215790E+02  0.90647016865E+02  0.47000000000E+01 0. -1.
        -11    1    4    4    0    0 -0.48146132707E+01 -0.46423626788E+02  0.18773330124E+02  0.50306774386E+02  0.00000000000E+00 0.  1.
         11    1    4    4    0    0  0.14229124005E+02 -0.14741737361E+02 -0.66547273401E+02  0.69629924511E+02  0.00000000000E+00 0. -1.
<mgrwt>
<rscale>  0 0.13144487E+03</rscale>
<asrwt>0</asrwt>
<pdfrwt beam="2">  1        1 0.25241916E-01 0.13948021E+03</pdfrwt>
<pdfrwt beam="1">  1       -1 0.14878898E-01 0.13948021E+03</pdfrwt>
<totfact> 0.58693774E+03</totfact>
</mgrwt>
</event>
<event>
 8    1  0.1033707E-005  0.1359298E+03  0.7546771E-02  0.1230821E+00
         -2   -1    0    0    0  501 -0.00000000000E+00  0.00000000000E+00  0.21263589533E+03  0.21263589533E+03  0.00000000000E+00 0.  1.
          2   -1    0    0  501    0  0.00000000000E+00 -0.00000000000E+00 -0.15130418824E+03  0.15130418824E+03  0.00000000000E+00 0. -1.
         23    2    1    2    0    0 -0.50903195870E+02  0.16064733763E+02  0.16624844601E+03  0.21474510529E+03  0.12501081324E+03 0.  0.
         23    2    1    2    0    0  0.50903195870E+02 -0.16064733763E+02 -0.10491673892E+03  0.14919497828E+03  0.91664651951E+02 0.  0.
          5    1    3    3  502    0  0.34925193966E+01  0.55487278074E+02  0.31419732734E+02  0.64033782684E+02  0.47000000000E+01 0.  1.
         -5    1    3    3    0  502 -0.54395715267E+02 -0.39422544311E+02  0.13482871327E+03  0.15071132261E+03  0.47000000000E+01 0.  1.
        -11    1    4    4    0    0  0.50127008640E+02  0.29364065995E+02 -0.74691490297E+02  0.94624437064E+02  0.00000000000E+00 0. -1.
         11    1    4    4    0    0  0.77618723023E+00 -0.45428799758E+02 -0.30225248620E+02  0.54570541212E+02  0.00000000000E+00 0.  1.
<mgrwt>
<rscale>  0 0.12775795E+03</rscale>
<asrwt>0</asrwt>
<pdfrwt beam="2">  1        2 0.23277568E-01 0.13592981E+03</pdfrwt>
<pdfrwt beam="1">  1       -2 0.32713214E-01 0.13592981E+03</pdfrwt>
<totfact> 0.19768893E+03</totfact>
</mgrwt>
</event>
<event>
 8    1  0.1033707E-005  0.1818226E+03  0.7546771E-02  0.1171510E+00
          4   -1    0    0  501    0  0.00000000000E+00  0.00000000000E+00  0.47261920217E+03  0.47261920217E+03  0.00000000000E+00 0. -1.
         -4   -1    0    0    0  501 -0.00000000000E+00 -0.00000000000E+00 -0.62221793989E+02  0.62221793989E+02  0.00000000000E+00 0.  1.
         23    2    1    2    0    0 -0.17669965459E+02  0.13085345820E+03  0.20076138737E+03  0.27085899399E+03  0.12499841904E+03 0.  0.
         23    2    1    2    0    0  0.17669965459E+02 -0.13085345820E+03  0.20963602081E+03  0.26398200217E+03  0.91128376734E+02 0.  0.
          5    1    3    3  502    0  0.44556668383E+02  0.33049549444E+02  0.26873447586E+02  0.61821044969E+02  0.47000000000E+01 0. -1.
         -5    1    3    3    0  502 -0.62226633843E+02  0.97803908759E+02  0.17388793979E+03  0.20903794902E+03  0.47000000000E+01 0. -1.
        -11    1    4    4    0    0  0.41510606224E+02 -0.10829329605E+03  0.11300274272E+03  0.16192649030E+03  0.00000000000E+00 0.  1.
         11    1    4    4    0    0 -0.23840640765E+02 -0.22560162148E+02  0.96633278090E+02  0.10205551187E+03  0.00000000000E+00 0. -1.
<mgrwt>
<rscale>  0 0.17622210E+03</rscale>
<asrwt>0</asrwt>
<pdfrwt beam="1">  1        4 0.72710644E-01 0.18182261E+03</pdfrwt>
<pdfrwt beam="2">  1       -4 0.95725840E-02 0.18182261E+03</pdfrwt>
<totfact> 0.25130709E+02</totfact>
</mgrwt>
</event>
<event>
 8    1  0.1033707E-005  0.1781674E+03  0.7546771E-02  0.1174948E+00
          1   -1    0    0  501    0  0.00000000000E+00  0.00000000000E+00  0.90915316016E+03  0.90915316016E+03  0.00000000000E+00 0. -1.
         -1   -1    0    0    0  501 -0.00000000000E+00 -0.00000000000E+00 -0.33084437851E+02  0.33084437851E+02  0.00000000000E+00 0.  1.
         23    2    1    2    0    0  0.12508107000E+03  0.21757698411E+02  0.58062017167E+03  0.60734125817E+03  0.12499979442E+03 0.  0.
         23    2    1    2    0    0 -0.12508107000E+03 -0.21757698411E+02  0.29544855063E+03  0.33489633984E+03  0.93525616052E+02 0.  0.
          5    1    3    3  502    0  0.12552460718E+03  0.54739680771E+02  0.52425072240E+03  0.54186139334E+03  0.47000000000E+01 0.  1.
         -5    1    3    3    0  502 -0.44353718939E+00 -0.32981982360E+02  0.56369449272E+02  0.65479864821E+02  0.47000000000E+01 0.  1.
        -11    1    4    4    0    0 -0.13996197560E+03 -0.25538974960E+02  0.26379277578E+03  0.29971356728E+03  0.00000000000E+00 0. -1.
         11    1    4    4    0    0  0.14880905605E+02  0.37812765490E+01  0.31655774847E+02  0.35182772561E+02  0.00000000000E+00 0.  1.
<mgrwt>
<rscale>  0 0.17281096E+03</rscale>
<asrwt>0</asrwt>
<pdfrwt beam="1">  1        1 0.13986970E+00 0.17816739E+03</pdfrwt>
<pdfrwt beam="2">  1       -1 0.50899142E-02 0.17816739E+03</pdfrwt>
<totfact> 0.31840188E+03</totfact>
</mgrwt>
</event>
<event>
 8    1  0.1033707E-005  0.1727888E+03  0.7546771E-02  0.1181436E+00
         -2   -1    0    0    0  501 -0.00000000000E+00  0.00000000000E+00  0.97763117448E+02  0.97763117448E+02  0.00000000000E+00 0.  1.
          2   -1    0    0  501    0  0.00000000000E+00 -0.00000000000E+00 -0.26659757020E+03  0.26659757020E+03  0.00000000000E+00 0. -1.
         23    2    1    2    0    0  0.10926322151E+03 -0.47877217602E+02 -0.10288436742E+03  0.20109985214E+03  0.12500111173E+03 0.  0.
         23    2    1    2    0    0 -0.10926322151E+03  0.47877217602E+02 -0.65950085339E+02  0.16326083551E+03  0.89855479039E+02 0.  0.
          5    1    3    3  502    0 -0.19278999269E+02 -0.38342659586E+02 -0.33462071283E+02  0.54622701979E+02  0.47000000000E+01 0. -1.
         -5    1    3    3    0  502  0.12854222078E+03 -0.95345580163E+01 -0.69422296133E+02  0.14647715017E+03  0.47000000000E+01 0. -1.
        -11    1    4    4    0    0 -0.77891192649E+01  0.34887575856E+02 -0.47274619826E+02  0.59268060604E+02  0.00000000000E+00 0. -1.
         11    1    4    4    0    0 -0.10147410225E+03  0.12989641746E+02 -0.18675465513E+02  0.10399277490E+03  0.00000000000E+00 0.  1.
<mgrwt>
<rscale>  0 0.16660428E+03</rscale>
<asrwt>0</asrwt>
<pdfrwt beam="2">  1        2 0.41015011E-01 0.17278877E+03</pdfrwt>
<pdfrwt beam="1">  1       -2 0.15040480E-01 0.17278877E+03</pdfrwt>
<totfact> 0.41265192E+03</totfact>
</mgrwt>
</event>
<event>
 8    1  0.1033707E-005  0.1166303E+03  0.7546771E-02  0.1258579E+00
         -1   -1    0    0    0  501 -0.00000000000E+00  0.00000000000E+00  0.20315110972E+03  0.20315110972E+03  0.00000000000E+00 0.  1.
          1   -1    0    0  501    0  0.00000000000E+00 -0.00000000000E+00 -0.62947515552E+02  0.62947515552E+02  0.00000000000E+00 0. -1.
         23    2    1    2    0    0  0.22924546022E+02  0.18559435531E+02  0.12131585271E+03  0.16828594624E+03  0.11283898318E+03 0.  0.
         23    2    1    2    0    0 -0.22924546022E+02 -0.18559435531E+02  0.18887741455E+02  0.97812679032E+02  0.91326808466E+02 0.  0.
          5    1    3    3  502    0 -0.28399109298E+02 -0.62896854443E+00 -0.61684025261E+01  0.29445614275E+02  0.47000000000E+01 0. -1.
         -5    1    3    3    0  502  0.51323655320E+02  0.19188404076E+02  0.12748425524E+03  0.13884033197E+03  0.47000000000E+01 0.  1.
        -11    1    4    4    0    0 -0.53675674133E+01 -0.97886448129E+01  0.55317485531E+02  0.56432725901E+02  0.00000000000E+00 0.  1.
         11    1    4    4    0    0 -0.17556978609E+02 -0.87707907186E+01 -0.36429744076E+02  0.41379953131E+02  0.00000000000E+00 0. -1.
<mgrwt>
<rscale>  0 0.11108217E+03</rscale>
<asrwt>0</asrwt>
<pdfrwt beam="2">  1        1 0.96842333E-02 0.11663029E+03</pdfrwt>
<pdfrwt beam="1">  1       -1 0.31254017E-01 0.11663029E+03</pdfrwt>
<totfact> 0.59947439E+03</totfact>
</mgrwt>
</event>
<event>
 8    1  0.1033707E-005  0.1211195E+03  0.7546771E-02  0.1251755E+00
         -2   -1    0    0    0  501 -0.00000000000E+00  0.00000000000E+00  0.19567887467E+03  0.19567887467E+03  0.00000000000E+00 0.  1.
          2   -1    0    0  501    0  0.00000000000E+00 -0.00000000000E+00 -0.94188698369E+02  0.94188698369E+02  0.00000000000E+00 0. -1.
         23    2    1    2    0    0 -0.13777578960E+02  0.32635327850E+02  0.13943109210E+03  0.18469154479E+03  0.11582336106E+03 0.  0.
         23    2    1    2    0    0  0.13777578960E+02 -0.32635327850E+02 -0.37940915797E+02  0.10517602825E+03  0.91474573086E+02 0.  0.
          5    1    3    3  502    0  0.42512961702E+02  0.29006494643E+02  0.25842377855E+02  0.57781027486E+02  0.47000000000E+01 0. -1.
         -5    1    3    3    0  502 -0.56290540662E+02  0.36288332075E+01  0.11358871424E+03  0.12691051730E+03  0.47000000000E+01 0.  1.
        -11    1    4    4    0    0  0.33675119275E+02 -0.23142916779E+01  0.18193369427E+02  0.38345381668E+02  0.00000000000E+00 0.  1.
         11    1    4    4    0    0 -0.19897540315E+02 -0.30321036172E+02 -0.56134285224E+02  0.66830646583E+02  0.00000000000E+00 0. -1.
<mgrwt>
<rscale>  0 0.11490039E+03</rscale>
<asrwt>0</asrwt>
<pdfrwt beam="2">  1        2 0.14490569E-01 0.12111952E+03</pdfrwt>
<pdfrwt beam="1">  1       -2 0.30104442E-01 0.12111952E+03</pdfrwt>
<totfact> 0.39213522E+03</totfact>
</mgrwt>
</event>
<event>
 8    1  0.1033707E-005  0.1260794E+03  0.7546771E-02  0.1248274E+00
          1   -1    0    0  501    0  0.00000000000E+00  0.00000000000E+00  0.16714285808E+02  0.16714285808E+02  0.00000000000E+00 0. -1.
         -1   -1    0    0    0  501 -0.00000000000E+00 -0.00000000000E+00 -0.72320598219E+03  0.72320598219E+03  0.00000000000E+00 0.  1.
         23    2    1    2    0    0  0.35335570275E+01  0.16087891046E+02 -0.43242476635E+03  0.45043002291E+03  0.12499888287E+03 0.  0.
         23    2    1    2    0    0 -0.35335570275E+01 -0.16087891046E+02 -0.27406693003E+03  0.28949024509E+03  0.91763901412E+02 0.  0.
          5    1    3    3  502    0  0.92786819999E+01  0.25284823214E+02 -0.12031694555E+02  0.29870853662E+02  0.47000000000E+01 0. -1.
         -5    1    3    3    0  502 -0.57451249724E+01 -0.91969321684E+01 -0.42039307180E+03  0.42055916924E+03  0.47000000000E+01 0. -1.
        -11    1    4    4    0    0 -0.11574385200E+02  0.31502974136E+02 -0.18656354934E+03  0.18955833328E+03  0.00000000000E+00 0.  1.
         11    1    4    4    0    0  0.80408281723E+01 -0.47590865182E+02 -0.87503380693E+02  0.99931911816E+02  0.00000000000E+00 0. -1.
<mgrwt>
<rscale>  0 0.11691566E+03</rscale>
<asrwt>0</asrwt>
<pdfrwt beam="1">  1        1 0.25714295E-02 0.12607945E+03</pdfrwt>
<pdfrwt beam="2">  1       -1 0.11126242E+00 0.12607945E+03</pdfrwt>
<totfact> 0.32061631E+03</totfact>
</mgrwt>
</event>
<event>
 8    1  0.1033707E-005  0.1346416E+03  0.7546771E-02  0.1234847E+00
          2   -1    0    0  501    0  0.00000000000E+00  0.00000000000E+00  0.49987118811E+02  0.49987118811E+02  0.00000000000E+00 0.  1.
         -2   -1    0    0    0  501 -0.00000000000E+00 -0.00000000000E+00 -0.36239999744E+03  0.36239999744E+03  0.00000000000E+00 0. -1.
         23    2    1    2    0    0 -0.23018438108E+02  0.44420493281E+02 -0.27310584637E+03  0.30449163285E+03  0.12500128973E+03 0.  0.
         23    2    1    2    0    0  0.23018438108E+02 -0.44420493281E+02 -0.39307032258E+02  0.10789548341E+03  0.87139909560E+02 0.  0.
          5    1    3    3  502    0  0.13763105456E+02  0.68244010811E+02 -0.23837574831E+03  0.24837825079E+03  0.47000000000E+01 0.  1.
         -5    1    3    3    0  502 -0.36781543565E+02 -0.23823517530E+02 -0.34730098064E+02  0.56113382058E+02  0.47000000000E+01 0.  1.
        -11    1    4    4    0    0 -0.22610381127E+02  0.48476346048E+01  0.93767932332E+01  0.24953018802E+02  0.00000000000E+00 0.  1.
         11    1    4    4    0    0  0.45628819235E+02 -0.49268127886E+02 -0.48683825491E+02  0.82942464604E+02  0.00000000000E+00 0. -1.
<mgrwt>
<rscale>  0 0.12514259E+03</rscale>
<asrwt>0</asrwt>
<pdfrwt beam="1">  1        2 0.76903259E-02 0.13464157E+03</pdfrwt>
<pdfrwt beam="2">  1       -2 0.55753847E-01 0.13464157E+03</pdfrwt>
<totfact> 0.26428222E+03</totfact>
</mgrwt>
</event>
<event>
 8    1  0.1033707E-005  0.1310207E+03  0.7546771E-02  0.1239597E+00
         -2   -1    0    0    0  501 -0.00000000000E+00  0.00000000000E+00  0.10695786206E+03  0.10695786206E+03  0.00000000000E+00 0. -1.
          2   -1    0    0  501    0  0.00000000000E+00 -0.00000000000E+00 -0.17690777490E+03  0.17690777490E+03  0.00000000000E+00 0.  1.
         23    2    1    2    0    0  0.71142691064E+01 -0.38590185594E+02  0.38972405201E+02  0.13669409551E+03  0.12500644835E+03 0.  0.
         23    2    1    2    0    0 -0.71142691064E+01  0.38590185594E+02 -0.10892231804E+03  0.14717154145E+03  0.90860200282E+02 0.  0.
          5    1    3    3  502    0 -0.39389815791E+02  0.23463255773E+02  0.36796899723E+02  0.58976128974E+02  0.47000000000E+01 0.  1.
         -5    1    3    3    0  502  0.46504084898E+02 -0.62053441368E+02  0.21755054780E+01  0.77717966532E+02  0.47000000000E+01 0.  1.
        -11    1    4    4    0    0  0.29296284616E+02 -0.25945437938E+01 -0.53198533806E+01  0.29888204860E+02  0.00000000000E+00 0.  1.
         11    1    4    4    0    0 -0.36410553722E+02  0.41184729388E+02 -0.10360246466E+03  0.11728333659E+03  0.00000000000E+00 0. -1.
<mgrwt>
<rscale>  0 0.12214697E+03</rscale>
<asrwt>0</asrwt>
<pdfrwt beam="2">  1        2 0.27216581E-01 0.13102071E+03</pdfrwt>
<pdfrwt beam="1">  1       -2 0.16455056E-01 0.13102071E+03</pdfrwt>
<totfact> 0.54530230E+03</totfact>
</mgrwt>
</event>
<event>
 8    1  0.1033707E-005  0.1354861E+03  0.7546771E-02  0.1231449E+00
          1   -1    0    0  501    0  0.00000000000E+00  0.00000000000E+00  0.44885598754E+02  0.44885598754E+02  0.00000000000E+00 0. -1.
         -1   -1    0    0    0  501 -0.00000000000E+00 -0.00000000000E+00 -0.38063267450E+03  0.38063267450E+03  0.00000000000E+00 0.  1.
         23    2    1    2    0    0 -0.87941970817E+01  0.51542942645E+02 -0.26695640032E+03  0.29936968691E+03  0.12498990733E+03 0.  0.
         23    2    1    2    0    0  0.87941970817E+01 -0.51542942645E+02 -0.68790675431E+02  0.12614858634E+03  0.91909172401E+02 0.  0.
          5    1    3    3  502    0 -0.32978928542E+02 -0.27533678809E+02 -0.14967990187E+03  0.15579433950E+03  0.47000000000E+01 0. -1.
         -5    1    3    3    0  502  0.24184731461E+02  0.79076621454E+02 -0.11727649845E+03  0.14357534741E+03  0.47000000000E+01 0. -1.
        -11    1    4    4    0    0 -0.29150758139E+02 -0.50848111660E+02 -0.15323312795E+02  0.60581359133E+02  0.00000000000E+00 0. -1.
         11    1    4    4    0    0  0.37944955221E+02 -0.69483098538E+00 -0.53467362636E+02  0.65567227210E+02  0.00000000000E+00 0.  1.
<mgrwt>
<rscale>  0 0.12734523E+03</rscale>
<asrwt>0</asrwt>
<pdfrwt beam="1">  1        1 0.69054766E-02 0.13548612E+03</pdfrwt>
<pdfrwt beam="2">  1       -1 0.58558874E-01 0.13548612E+03</pdfrwt>
<totfact> 0.31218838E+03</totfact>
</mgrwt>
</event>
<event>
 8    1  0.1033707E-005  0.1332940E+03  0.7546771E-02  0.1234963E+00
          1   -1    0    0  501    0  0.00000000000E+00  0.00000000000E+00  0.97207592263E+02  0.97207592263E+02  0.00000000000E+00 0. -1.
         -1   -1    0    0    0  501 -0.00000000000E+00 -0.00000000000E+00 -0.14926670625E+03  0.14926670625E+03  0.00000000000E+00 0.  1.
         23    2    1    2    0    0  0.27515323414E+02  0.37213463932E+02 -0.52230190107E+02  0.14316171488E+03  0.12500139571E+03 0.  0.
         23    2    1    2    0    0 -0.27515323414E+02 -0.37213463932E+02  0.17107612176E+00  0.10331258363E+03  0.92366258714E+02 0.  0.
          5    1    3    3  502    0 -0.21767444223E+02  0.41940624270E+01 -0.75831301525E+02  0.79144728685E+02  0.47000000000E+01 0. -1.
         -5    1    3    3    0  502  0.49282767637E+02  0.33019401505E+02  0.23601111418E+02  0.64016986198E+02  0.47000000000E+01 0. -1.
        -11    1    4    4    0    0  0.20092461135E+02  0.20360055585E+02  0.98130939482E-01  0.28605043044E+02  0.00000000000E+00 0.  1.
         11    1    4    4    0    0 -0.47607784549E+02 -0.57573519517E+02  0.72945182279E-01  0.74707540585E+02  0.00000000000E+00 0. -1.
<mgrwt>
<rscale>  0 0.12506795E+03</rscale>
<asrwt>0</asrwt>
<pdfrwt beam="1">  1        1 0.14955014E-01 0.13329398E+03</pdfrwt>
<pdfrwt beam="2">  1       -1 0.22964108E-01 0.13329398E+03</pdfrwt>
<totfact> 0.57054400E+03</totfact>
</mgrwt>
</event>
<event>
 8    1  0.1033707E-005  0.1286830E+03  0.7546771E-02  0.1243205E+00
          1   -1    0    0  501    0  0.00000000000E+00  0.00000000000E+00  0.27331966667E+03  0.27331966667E+03  0.00000000000E+00 0. -1.
         -1   -1    0    0    0  501 -0.00000000000E+00 -0.00000000000E+00 -0.47383637738E+02  0.47383637738E+02  0.00000000000E+00 0.  1.
         23    2    1    2    0    0 -0.25464367959E+02 -0.16926849219E+02  0.10846973995E+03  0.16830034572E+03  0.12499747848E+03 0.  0.
         23    2    1    2    0    0  0.25464367959E+02  0.16926849219E+02  0.11746628899E+03  0.15240295869E+03  0.92159538343E+02 0.  0.
          5    1    3    3  502    0 -0.47826135280E+02 -0.15675974300E+02 -0.65994472498E+01  0.50977623425E+02  0.47000000000E+01 0.  1.
         -5    1    3    3    0  502  0.22361767321E+02 -0.12508749190E+01  0.11506918720E+03  0.11732272230E+03  0.47000000000E+01 0.  1.
        -11    1    4    4    0    0 -0.21080934419E+02 -0.26116684571E+02  0.44594292214E+02  0.55813420492E+02  0.00000000000E+00 0.  1.
         11    1    4    4    0    0  0.46545302379E+02  0.43043533790E+02  0.72871996773E+02  0.96589538193E+02  0.00000000000E+00 0. -1.
<mgrwt>
<rscale>  0 0.11993483E+03</rscale>
<asrwt>0</asrwt>
<pdfrwt beam="1">  1        1 0.42049179E-01 0.12868303E+03</pdfrwt>
<pdfrwt beam="2">  1       -1 0.72897905E-02 0.12868303E+03</pdfrwt>
<totfact> 0.92312325E+03</totfact>
</mgrwt>
</event>
<event>
 8    1  0.1033707E-005  0.1317315E+03  0.7546771E-02  0.1239261E+00
          4   -1    0    0  501    0  0.00000000000E+00  0.00000000000E+00  0.46668633361E+02  0.46668633361E+02  0.00000000000E+00 0. -1.
         -4   -1    0    0    0  501 -0.00000000000E+00 -0.00000000000E+00 -0.28338684296E+03  0.28338684296E+03  0.00000000000E+00 0.  1.
         23    2    1    2    0    0  0.37070226597E+02  0.18792905458E+02 -0.12845702139E+03  0.18399561415E+03  0.12500321871E+03 0.  0.
         23    2    1    2    0    0 -0.37070226597E+02 -0.18792905458E+02 -0.10826118821E+03  0.14605986217E+03  0.88801033040E+02 0.  0.
          5    1    3    3  502    0  0.52927589861E+02  0.17874123936E+02 -0.16236453999E+01  0.56085116559E+02  0.47000000000E+01 0. -1.
         -5    1    3    3    0  502 -0.15857363265E+02  0.91878152170E+00 -0.12683337599E+03  0.12791049759E+03  0.47000000000E+01 0. -1.
        -11    1    4    4    0    0 -0.33843312464E+01  0.25616882689E+02 -0.18156205101E+01  0.25903182324E+02  0.00000000000E+00 0. -1.
         11    1    4    4    0    0 -0.33685895350E+02 -0.44409788147E+02 -0.10644556770E+03  0.12015667984E+03  0.00000000000E+00 0.  1.
<mgrwt>
<rscale>  0 0.12235579E+03</rscale>
<asrwt>0</asrwt>
<pdfrwt beam="1">  1        4 0.71797896E-02 0.13173147E+03</pdfrwt>
<pdfrwt beam="2">  1       -4 0.43597977E-01 0.13173147E+03</pdfrwt>
<totfact> 0.11103508E+03</totfact>
</mgrwt>
</event>
<event>
 8    1  0.1033707E-005  0.1621992E+03  0.7546771E-02  0.1192511E+00
         -2   -1    0    0    0  501 -0.00000000000E+00  0.00000000000E+00  0.20917993110E+02  0.20917993110E+02  0.00000000000E+00 0. -1.
          2   -1    0    0  501    0  0.00000000000E+00 -0.00000000000E+00 -0.11067590421E+04  0.11067590421E+04  0.00000000000E+00 0.  1.
         23    2    1    2    0    0  0.32242589553E+02  0.98208947755E+02 -0.53637051373E+03  0.56035871994E+03  0.12499593998E+03 0.  0.
         23    2    1    2    0    0 -0.32242589553E+02 -0.98208947755E+02 -0.54947053522E+03  0.56731831523E+03  0.96164545046E+02 0.  0.
          5    1    3    3  502    0  0.11032765968E+02  0.11248675427E+03 -0.27024647921E+03  0.29296798688E+03  0.47000000000E+01 0. -1.
         -5    1    3    3    0  502  0.21209823584E+02 -0.14277806516E+02 -0.26612403452E+03  0.26739073306E+03  0.47000000000E+01 0. -1.
        -11    1    4    4    0    0 -0.59639226950E+02 -0.89979666365E+02 -0.48364412209E+03  0.49554496727E+03  0.00000000000E+00 0.  1.
         11    1    4    4    0    0  0.27396637397E+02 -0.82292813895E+01 -0.65826413125E+02  0.71773347962E+02  0.00000000000E+00 0. -1.
<mgrwt>
<rscale>  0 0.15666820E+03</rscale>
<asrwt>0</asrwt>
<pdfrwt beam="2">  1        2 0.17027064E+00 0.16219916E+03</pdfrwt>
<pdfrwt beam="1">  1       -2 0.32181524E-02 0.16219916E+03</pdfrwt>
<totfact> 0.84393909E+03</totfact>
</mgrwt>
</event>
<event>
 8    1  0.1033707E-005  0.1347878E+03  0.7546771E-02  0.1233068E+00
         -1   -1    0    0    0  501 -0.00000000000E+00  0.00000000000E+00  0.37863956871E+02  0.37863956871E+02  0.00000000000E+00 0.  1.
          1   -1    0    0  501    0  0.00000000000E+00 -0.00000000000E+00 -0.43097594420E+03  0.43097594420E+03  0.00000000000E+00 0. -1.
         23    2    1    2    0    0  0.50270280494E+02 -0.39752369704E+01 -0.13572588115E+03  0.19128319343E+03  0.12499936666E+03 0.  0.
         23    2    1    2    0    0 -0.50270280494E+02  0.39752369704E+01 -0.25738610618E+03  0.27755670764E+03  0.90814176712E+02 0.  0.
          5    1    3    3  502    0  0.32929425645E+02  0.51702622835E+02 -0.11276308861E+03  0.12843329955E+03  0.47000000000E+01 0.  1.
         -5    1    3    3    0  502  0.17340854849E+02 -0.55677859806E+02 -0.22962792543E+02  0.62849893881E+02  0.47000000000E+01 0.  1.
        -11    1    4    4    0    0 -0.36056924056E+02 -0.41204614930E+02 -0.11232471411E+03  0.12495904715E+03  0.00000000000E+00 0.  1.
         11    1    4    4    0    0 -0.14213356438E+02  0.45179851900E+02 -0.14506139207E+03  0.15259766050E+03  0.00000000000E+00 0. -1.
<mgrwt>
<rscale>  0 0.12628919E+03</rscale>
<asrwt>0</asrwt>
<pdfrwt beam="2">  1        1 0.66303991E-01 0.13478778E+03</pdfrwt>
<pdfrwt beam="1">  1       -1 0.58252241E-02 0.13478778E+03</pdfrwt>
<totfact> 0.73371442E+03</totfact>
</mgrwt>
</event>
<event>
 8    1  0.1033707E-005  0.1322221E+03  0.7546771E-02  0.1237071E+00
          1   -1    0    0  501    0  0.00000000000E+00  0.00000000000E+00  0.47097746804E+03  0.47097746804E+03  0.00000000000E+00 0. -1.
         -1   -1    0    0    0  501 -0.00000000000E+00 -0.00000000000E+00 -0.32457905914E+02  0.32457905914E+02  0.00000000000E+00 0.  1.
         23    2    1    2    0    0 -0.19697193189E+02 -0.38289728342E+02  0.16318311424E+03  0.21002717077E+03  0.12501440305E+03 0.  0.
         23    2    1    2    0    0  0.19697193189E+02  0.38289728342E+02  0.27533644788E+03  0.29340820319E+03  0.91783067333E+02 0.  0.
          5    1    3    3  502    0  0.48864893571E+02 -0.34303451231E+02  0.52282957364E+02  0.79499070565E+02  0.47000000000E+01 0.  1.
         -5    1    3    3    0  502 -0.68562086760E+02 -0.39862771112E+01  0.11090015688E+03  0.13052810020E+03  0.47000000000E+01 0.  1.
        -11    1    4    4    0    0 -0.21831056105E+02 -0.18201013928E+02  0.11410719143E+03  0.11759389038E+03  0.00000000000E+00 0. -1.
         11    1    4    4    0    0  0.41528249295E+02  0.56490742270E+02  0.16122925645E+03  0.17581431280E+03  0.00000000000E+00 0.  1.
<mgrwt>
<rscale>  0 0.12372793E+03</rscale>
<asrwt>0</asrwt>
<pdfrwt beam="1">  1        1 0.72458067E-01 0.13222210E+03</pdfrwt>
<pdfrwt beam="2">  1       -1 0.49935244E-02 0.13222210E+03</pdfrwt>
<totfact> 0.82197000E+03</totfact>
</mgrwt>
</event>
<event>
 8    1  0.1033707E-005  0.1513523E+03  0.7546771E-02  0.1205982E+00
          3   -1    0    0  501    0  0.00000000000E+00  0.00000000000E+00  0.27394168658E+02  0.27394168658E+02  0.00000000000E+00 0. -1.
         -3   -1    0    0    0  501 -0.00000000000E+00 -0.00000000000E+00 -0.12464675907E+04  0.12464675907E+04  0.00000000000E+00 0.  1.
         23    2    1    2    0    0  0.85336017523E+02  0.16177843648E-01 -0.10497850647E+04  0.10606395236E+04  0.12500112312E+03 0.  0.
         23    2    1    2    0    0 -0.85336017523E+02 -0.16177843648E-01 -0.16928835734E+03  0.21322223577E+03  0.97585540666E+02 0.  0.
          5    1    3    3  502    0  0.10512618038E+03 -0.27328329547E+02 -0.61626120784E+03  0.62577816971E+03  0.47000000000E+01 0.  1.
         -5    1    3    3    0  502 -0.19790162855E+02  0.27344507391E+02 -0.43352385688E+03  0.43486135390E+03  0.47000000000E+01 0.  1.
        -11    1    4    4    0    0 -0.30186962105E+02 -0.10208914742E+01 -0.15264955224E+03  0.15560906368E+03  0.00000000000E+00 0.  1.
         11    1    4    4    0    0 -0.55149055418E+02  0.10047136306E+01 -0.16638805102E+02  0.57613172089E+02  0.00000000000E+00 0. -1.
<mgrwt>
<rscale>  0 0.14560361E+03</rscale>
<asrwt>0</asrwt>
<pdfrwt beam="1">  1        3 0.42144869E-02 0.15135229E+03</pdfrwt>
<pdfrwt beam="2">  1       -3 0.19176427E+00 0.15135229E+03</pdfrwt>
<totfact> 0.12809836E+02</totfact>
</mgrwt>
</event>
<event>
 7    1  0.1033707E-005  0.1374604E+03  0.7546771E-02  0.1234035E+00
          2   -1    0    0  501    0  0.00000000000E+00  0.00000000000E+00  0.45902053669E+03  0.45902053669E+03  0.00000000000E+00 0. -1.
         -2   -1    0    0    0  501 -0.00000000000E+00 -0.00000000000E+00 -0.34390494961E+02  0.34390494961E+02  0.00000000000E+00 0.  1.
         23    2    1    2    0    0  0.86206102452E+00  0.31794751608E+02  0.26976115781E+03  0.28633683462E+03  0.90587257467E+02 0.  0.
          5    1    1    2  502    0 -0.49446228454E+02 -0.23215599570E+02  0.14700328892E+03  0.15689471159E+03  0.47000000000E+01 0. -1.
         -5    1    1    2    0  502  0.48584167430E+02 -0.85791520370E+01  0.78655949934E+01  0.50179485441E+02  0.47000000000E+01 0.  1.
        -11    1    3    3    0    0 -0.40564633361E+02 -0.43104716241E+00  0.83667470424E+02  0.92983444164E+02  0.00000000000E+00 0. -1.
         11    1    3    3    0    0  0.41426694386E+02  0.32225798770E+02  0.18609368739E+03  0.19335339045E+03  0.00000000000E+00 0.  1.
<mgrwt>
<rscale>  0 0.12566402E+03</rscale>
<asrwt>0</asrwt>
<pdfrwt beam="1">  1        2 0.70618540E-01 0.13746036E+03</pdfrwt>
<pdfrwt beam="2">  1       -2 0.52908457E-02 0.13746036E+03</pdfrwt>
<totfact> 0.11684145E+04</totfact>
</mgrwt>
</event>
<event>
 8    1  0.1033707E-005  0.1302815E+03  0.7546771E-02  0.1238908E+00
          1   -1    0    0  501    0  0.00000000000E+00  0.00000000000E+00  0.28419626873E+03  0.28419626873E+03  0.00000000000E+00 0. -1.
         -1   -1    0    0    0  501 -0.00000000000E+00 -0.00000000000E+00 -0.48214702825E+02  0.48214702825E+02  0.00000000000E+00 0.  1.
         23    2    1    2    0    0  0.36101098614E+02  0.67284752338E+01  0.11197651251E+03  0.17179063000E+03  0.12499887800E+03 0.  0.
         23    2    1    2    0    0 -0.36101098614E+02 -0.67284752338E+01  0.12400505339E+03  0.16062034155E+03  0.95252712052E+02 0.  0.
          5    1    3    3  502    0  0.41408914276E+02  0.45694463039E+02  0.11652976480E+03  0.13192406232E+03  0.47000000000E+01 0.  1.
         -5    1    3    3    0  502 -0.53078156619E+01 -0.38965987805E+02 -0.45532522867E+01  0.39866567686E+02  0.47000000000E+01 0.  1.
        -11    1    4    4    0    0 -0.52331089767E+02  0.12390205273E+02  0.26520485658E+02  0.59961623581E+02  0.00000000000E+00 0.  1.
         11    1    4    4    0    0  0.16229991153E+02 -0.19118680507E+02  0.97484567736E+02  0.10065871797E+03  0.00000000000E+00 0. -1.
<mgrwt>
<rscale>  0 0.12257565E+03</rscale>
<asrwt>0</asrwt>
<pdfrwt beam="1">  1        1 0.43722502E-01 0.13028155E+03</pdfrwt>
<pdfrwt beam="2">  1       -1 0.74176468E-02 0.13028155E+03</pdfrwt>
<totfact> 0.85786880E+03</totfact>
</mgrwt>
</event>
<event>
 8    1  0.1033707E-005  0.1256717E+03  0.7546771E-02  0.1249116E+00
         -2   -1    0    0    0  501 -0.00000000000E+00  0.00000000000E+00  0.37346751981E+02  0.37346751981E+02  0.00000000000E+00 0.  1.
          2   -1    0    0  501    0  0.00000000000E+00 -0.00000000000E+00 -0.34519328041E+03  0.34519328041E+03  0.00000000000E+00 0. -1.
         23    2    1    2    0    0  0.10781841971E+01 -0.12855694925E+02 -0.12318895091E+03  0.17597983682E+03  0.12500781562E+03 0.  0.
         23    2    1    2    0    0 -0.10781841971E+01  0.12855694925E+02 -0.18465757752E+03  0.20656019558E+03  0.91663853763E+02 0.  0.
          5    1    3    3  502    0  0.42367394639E+02  0.32694937566E+02 -0.23219788514E+02  0.58525239423E+02  0.47000000000E+01 0. -1.
         -5    1    3    3    0  502 -0.41289210441E+02 -0.45550632490E+02 -0.99969162395E+02  0.11745459739E+03  0.47000000000E+01 0. -1.
        -11    1    4    4    0    0  0.31481697117E+02  0.31513506894E+02 -0.50903380030E+02  0.67641351765E+02  0.00000000000E+00 0.  1.
         11    1    4    4    0    0 -0.32559881314E+02 -0.18657811970E+02 -0.13375419749E+03  0.13891884381E+03  0.00000000000E+00 0. -1.
<mgrwt>
<rscale>  0 0.11642401E+03</rscale>
<asrwt>0</asrwt>
<pdfrwt beam="2">  1        2 0.53106656E-01 0.12567174E+03</pdfrwt>
<pdfrwt beam="1">  1       -2 0.57456544E-02 0.12567174E+03</pdfrwt>
<totfact> 0.13894069E+04</totfact>
</mgrwt>
</event>
<event>
 8    1  0.1033707E-005  0.1576322E+03  0.7546771E-02  0.1198675E+00
          2   -1    0    0  501    0  0.00000000000E+00  0.00000000000E+00  0.72422190853E+02  0.72422190853E+02  0.00000000000E+00 0. -1.
         -2   -1    0    0    0  501 -0.00000000000E+00 -0.00000000000E+00 -0.30392049935E+03  0.30392049935E+03  0.00000000000E+00 0.  1.
         23    2    1    2    0    0  0.81518510846E+02 -0.50774508457E+02 -0.15787221013E+03  0.22309538462E+03  0.12499839034E+03 0.  0.
         23    2    1    2    0    0 -0.81518510846E+02  0.50774508457E+02 -0.73626098368E+02  0.15324730559E+03  0.94024549929E+02 0.  0.
          5    1    3    3  502    0  0.10826497867E+03 -0.23811346694E+02 -0.14529284276E+03  0.18281243392E+03  0.47000000000E+01 0.  1.
         -5    1    3    3    0  502 -0.26746467827E+02 -0.26963161763E+02 -0.12579367369E+02  0.40282950697E+02  0.47000000000E+01 0.  1.
        -11    1    4    4    0    0 -0.33899758648E+02  0.63581287053E+02 -0.99919196244E+01  0.72743468143E+02  0.00000000000E+00 0.  1.
         11    1    4    4    0    0 -0.47618752198E+02 -0.12806778596E+02 -0.63634178744E+02  0.80503837444E+02  0.00000000000E+00 0. -1.
<mgrwt>
<rscale>  0 0.15147302E+03</rscale>
<asrwt>0</asrwt>
<pdfrwt beam="1">  1        2 0.11141876E-01 0.15763222E+03</pdfrwt>
<pdfrwt beam="2">  1       -2 0.46757000E-01 0.15763222E+03</pdfrwt>
<totfact> 0.23899085E+03</totfact>
</mgrwt>
</event>
<event>
 8    1  0.1033707E-005  0.1535591E+03  0.7546771E-02  0.1205044E+00
         -1   -1    0    0    0  501 -0.00000000000E+00  0.00000000000E+00  0.94104131736E+03  0.94104131736E+03  0.00000000000E+00 0.  1.
          1   -1    0    0  501    0  0.00000000000E+00 -0.00000000000E+00 -0.21441703174E+02  0.21441703174E+02  0.00000000000E+00 0. -1.
         23    2    1    2    0    0 -0.88649779698E+02 -0.10340139245E+02  0.58165354312E+03  0.60158227002E+03  0.12495871904E+03 0.  0.
         23    2    1    2    0    0  0.88649779698E+02  0.10340139245E+02  0.33794607106E+03  0.36090075051E+03  0.89867139989E+02 0.  0.
          5    1    3    3  502    0 -0.14569538171E+02  0.50172750666E+02  0.13625117067E+03  0.14600016391E+03  0.47000000000E+01 0. -1.
         -5    1    3    3    0  502 -0.74080241527E+02 -0.60512889910E+02  0.44540237245E+03  0.45558210612E+03  0.47000000000E+01 0. -1.
        -11    1    4    4    0    0  0.64880934627E+02 -0.34055649945E+02  0.16027868591E+03  0.17623444649E+03  0.00000000000E+00 0. -1.
         11    1    4    4    0    0  0.23768845071E+02  0.44395789190E+02  0.17766738515E+03  0.18466630402E+03  0.00000000000E+00 0.  1.
<mgrwt>
<rscale>  0 0.14634006E+03</rscale>
<asrwt>0</asrwt>
<pdfrwt beam="2">  1        1 0.32987243E-02 0.15355906E+03</pdfrwt>
<pdfrwt beam="1">  1       -1 0.14477556E+00 0.15355906E+03</pdfrwt>
<totfact> 0.12153519E+03</totfact>
</mgrwt>
</event>
<event>
 6    1  0.1033707E-005  0.2300493E+03  0.7546771E-02  0.1165694E+00
          2   -1    0    0  501    0  0.00000000000E+00  0.00000000000E+00  0.59776417213E+03  0.59776417213E+03  0.00000000000E+00 0. -1.
         -2   -1    0    0    0  501 -0.00000000000E+00 -0.00000000000E+00 -0.62356561683E+02  0.62356561683E+02  0.00000000000E+00 0.  1.
          5    1    1    2  502    0 -0.28749492696E+02 -0.13849346765E+01  0.21885502007E+03  0.22078963106E+03  0.47000000000E+01 0. -1.
         -5    1    1    2    0  502 -0.47344863571E+02  0.26782079189E+02 -0.42409738884E+02  0.69133868866E+02  0.47000000000E+01 0.  1.
        -11    1    1    2    0    0  0.45627614373E+02 -0.44624613405E+01  0.26993396391E+03  0.27379944782E+03  0.00000000000E+00 0. -1.
         11    1    1    2    0    0  0.30466741894E+02 -0.20934683172E+02  0.89028365353E+02  0.96397786067E+02  0.00000000000E+00 0.  1.
<mgrwt>
<rscale>  0 0.18219638E+03</rscale>
<asrwt>0</asrwt>
<pdfrwt beam="1">  1        2 0.91963715E-01 0.23004934E+03</pdfrwt>
<pdfrwt beam="2">  1       -2 0.95933176E-02 0.23004934E+03</pdfrwt>
<totfact> 0.35635481E+03</totfact>
</mgrwt>
</event>
<event>
 8    1  0.1033707E-005  0.2348238E+03  0.7546771E-02  0.1125966E+00
          2   -1    0    0  501    0  0.00000000000E+00  0.00000000000E+00  0.40178039678E+03  0.40178039678E+03  0.00000000000E+00 0. -1.
         -2   -1    0    0    0  501 -0.00000000000E+00 -0.00000000000E+00 -0.12974684222E+03  0.12974684222E+03  0.00000000000E+00 0.  1.
         23    2    1    2    0    0  0.93650287994E+00  0.19879008363E+03  0.11523792337E+03  0.26157600203E+03  0.12499540579E+03 0.  0.
         23    2    1    2    0    0 -0.93650287994E+00 -0.19879008363E+03  0.15679563119E+03  0.26995123698E+03  0.93650552569E+02 0.  0.
          5    1    3    3  502    0 -0.46875098303E+01 -0.99153885439E+01 -0.12089775424E+02  0.16986475449E+02  0.47000000000E+01 0.  1.
         -5    1    3    3    0  502  0.56240127102E+01  0.20870547217E+03  0.12732769879E+03  0.24458952658E+03  0.47000000000E+01 0.  1.
        -11    1    4    4    0    0  0.38180752439E+02 -0.15989403185E+03  0.12224865427E+03  0.20486240443E+03  0.00000000000E+00 0. -1.
         11    1    4    4    0    0 -0.39117255319E+02 -0.38896051784E+02  0.34546976925E+02  0.65088832550E+02  0.00000000000E+00 0.  1.
<mgrwt>
<rscale>  0 0.23096034E+03</rscale>
<asrwt>0</asrwt>
<pdfrwt beam="1">  1        2 0.61812368E-01 0.23482382E+03</pdfrwt>
<pdfrwt beam="2">  1       -2 0.19961053E-01 0.23482382E+03</pdfrwt>
<totfact> 0.16690368E+03</totfact>
</mgrwt>
</event>
<event>
 8    1  0.1033707E-005  0.1299236E+03  0.7546771E-02  0.1242658E+00
         -3   -1    0    0    0  501 -0.00000000000E+00  0.00000000000E+00  0.13413105523E+03  0.13413105523E+03  0.00000000000E+00 0.  1.
          3   -1    0    0  501    0  0.00000000000E+00 -0.00000000000E+00 -0.95282509342E+02  0.95282509342E+02  0.00000000000E+00 0. -1.
         23    2    1    2    0    0 -0.31505826994E+02  0.16174721637E+02  0.31814475317E+02  0.13376209636E+03  0.12500359526E+03 0.  0.
         23    2    1    2    0    0  0.31505826994E+02 -0.16174721637E+02  0.70340705702E+01  0.95651468212E+02  0.88574750735E+02 0.  0.
          5    1    3    3  502    0  0.43862939400E+02 -0.27451834892E+01 -0.10111182241E+02  0.45341145679E+02  0.47000000000E+01 0. -1.
         -5    1    3    3    0  502 -0.75368766393E+02  0.18919905126E+02  0.41925657557E+02  0.88420950680E+02  0.47000000000E+01 0. -1.
        -11    1    4    4    0    0  0.22726600062E+02 -0.26411714581E+02 -0.36270613200E+02  0.50295470963E+02  0.00000000000E+00 0. -1.
         11    1    4    4    0    0  0.87792269318E+01  0.10236992945E+02  0.43304683770E+02  0.45355997249E+02  0.00000000000E+00 0.  1.
<mgrwt>
<rscale>  0 0.12026646E+03</rscale>
<asrwt>0</asrwt>
<pdfrwt beam="2">  1        3 0.14658848E-01 0.12992358E+03</pdfrwt>
<pdfrwt beam="1">  1       -3 0.20635547E-01 0.12992358E+03</pdfrwt>
<totfact> 0.18660850E+03</totfact>
</mgrwt>
</event>
<event>
 8    1  0.1033707E-005  0.1516529E+03  0.7546771E-02  0.1207470E+00
         -1   -1    0    0    0  501 -0.00000000000E+00  0.00000000000E+00  0.72660909034E+02  0.72660909034E+02  0.00000000000E+00 0.  1.
          1   -1    0    0  501    0  0.00000000000E+00 -0.00000000000E+00 -0.26320842441E+03  0.26320842441E+03  0.00000000000E+00 0. -1.
         23    2    1    2    0    0 -0.85790862338E+02  0.36000666878E+01 -0.99596069442E+02  0.18143313965E+03  0.12500229828E+03 0.  0.
         23    2    1    2    0    0  0.85790862338E+02 -0.36000666878E+01 -0.90951445930E+02  0.15443619379E+03  0.90583331219E+02 0.  0.
          5    1    3    3  502    0 -0.42798500326E+02 -0.55109049521E+02 -0.79320660242E+02  0.10574770026E+03  0.47000000000E+01 0.  1.
         -5    1    3    3    0  502 -0.42992362012E+02  0.58709116209E+02 -0.20275409200E+02  0.75685439390E+02  0.47000000000E+01 0.  1.
        -11    1    4    4    0    0  0.48558665022E+02 -0.17465451894E+02  0.37481277639E+01  0.51740065909E+02  0.00000000000E+00 0.  1.
         11    1    4    4    0    0  0.37232197316E+02  0.13865385206E+02 -0.94699573694E+02  0.10269612788E+03  0.00000000000E+00 0. -1.
<mgrwt>
<rscale>  0 0.14444527E+03</rscale>
<asrwt>0</asrwt>
<pdfrwt beam="2">  1        1 0.40493603E-01 0.15165292E+03</pdfrwt>
<pdfrwt beam="1">  1       -1 0.11178601E-01 0.15165292E+03</pdfrwt>
<totfact> 0.51061897E+03</totfact>
</mgrwt>
</event>
<event>
 8    1  0.1033707E-005  0.1542935E+03  0.7546771E-02  0.1203625E+00
          2   -1    0    0  501    0  0.00000000000E+00  0.00000000000E+00  0.21837863797E+03  0.21837863797E+03  0.00000000000E+00 0. -1.
         -2   -1    0    0    0  501 -0.00000000000E+00 -0.00000000000E+00 -0.10957018862E+03  0.10957018862E+03  0.00000000000E+00 0.  1.
         23    2    1    2    0    0 -0.22525380054E+02  0.87595366672E+02 -0.74702297305E+01  0.15447418963E+03  0.12500451960E+03 0.  0.
         23    2    1    2    0    0  0.22525380054E+02 -0.87595366672E+02  0.11627867907E+03  0.17347463697E+03  0.91609920065E+02 0.  0.
          5    1    3    3  502    0 -0.16895035636E+02  0.21152988427E+02 -0.62253364720E+02  0.68047502287E+02  0.47000000000E+01 0.  1.
         -5    1    3    3    0  502 -0.56303444186E+01  0.66442378245E+02  0.54783134990E+02  0.86426687339E+02  0.47000000000E+01 0.  1.
        -11    1    4    4    0    0 -0.25855663582E+02 -0.68514200826E+01  0.41403289532E+01  0.27066577550E+02  0.00000000000E+00 0.  1.
         11    1    4    4    0    0  0.48381043636E+02 -0.80743946589E+02  0.11213835012E+03  0.14640805942E+03  0.00000000000E+00 0. -1.
<mgrwt>
<rscale>  0 0.14746361E+03</rscale>
<asrwt>0</asrwt>
<pdfrwt beam="1">  1        2 0.33596713E-01 0.15429346E+03</pdfrwt>
<pdfrwt beam="2">  1       -2 0.16856952E-01 0.15429346E+03</pdfrwt>
<totfact> 0.42103039E+03</totfact>
</mgrwt>
</event>
<event>
 8    1  0.1033707E-005  0.1364591E+03  0.7546771E-02  0.1226835E+00
          2   -1    0    0  501    0  0.00000000000E+00  0.00000000000E+00  0.23725654975E+03  0.23725654975E+03  0.00000000000E+00 0. -1.
         -2   -1    0    0    0  501 -0.00000000000E+00 -0.00000000000E+00 -0.12453514975E+03  0.12453514975E+03  0.00000000000E+00 0.  1.
         23    2    1    2    0    0 -0.34771226170E+02 -0.42276914493E+02 -0.64667439030E+02  0.15100653860E+03  0.12499888544E+03 0.  0.
         23    2    1    2    0    0  0.34771226170E+02  0.42276914493E+02  0.17738883904E+03  0.21078516090E+03  0.99835906239E+02 0.  0.
          5    1    3    3  502    0  0.14223407574E+02 -0.72920094685E+02 -0.54216217005E+02  0.92093070957E+02  0.47000000000E+01 0.  1.
         -5    1    3    3    0  502 -0.48994633744E+02  0.30643180192E+02 -0.10451222025E+02  0.58913467644E+02  0.47000000000E+01 0.  1.
        -11    1    4    4    0    0  0.54491747281E+02  0.23681319572E+01  0.14724915828E+03  0.15702634551E+03  0.00000000000E+00 0.  1.
         11    1    4    4    0    0 -0.19720521111E+02  0.39908782536E+02  0.30139680758E+02  0.53758815394E+02  0.00000000000E+00 0. -1.
<mgrwt>
<rscale>  0 0.13041952E+03</rscale>
<asrwt>0</asrwt>
<pdfrwt beam="1">  1        2 0.36501008E-01 0.13645914E+03</pdfrwt>
<pdfrwt beam="2">  1       -2 0.19159254E-01 0.13645914E+03</pdfrwt>
<totfact> 0.30905185E+03</totfact>
</mgrwt>
</event>
<event>
 8    1  0.1033707E-005  0.1285848E+03  0.7546771E-02  0.1243706E+00
         -2   -1    0    0    0  501 -0.00000000000E+00  0.00000000000E+00  0.19871414768E+03  0.19871414768E+03  0.00000000000E+00 0.  1.
          2   -1    0    0  501    0  0.00000000000E+00 -0.00000000000E+00 -0.77702078035E+02  0.77702078035E+02  0.00000000000E+00 0. -1.
         23    2    1    2    0    0 -0.29801423283E+02  0.45409852833E+01  0.12588987219E+03  0.17995083474E+03  0.12500119050E+03 0.  0.
         23    2    1    2    0    0  0.29801423283E+02 -0.45409852833E+01 -0.48778025395E+01  0.96465390979E+02  0.91504280348E+02 0.  0.
          5    1    3    3  502    0  0.19599353915E+02  0.54405193940E+02  0.62124351752E+02  0.85003440414E+02  0.47000000000E+01 0.  1.
         -5    1    3    3    0  502 -0.49400777198E+02 -0.49864208657E+02  0.63765520433E+02  0.94947394324E+02  0.47000000000E+01 0.  1.
        -11    1    4    4    0    0 -0.13046617147E+02  0.24990890550E+01  0.35045774496E+02  0.37478873717E+02  0.00000000000E+00 0.  1.
         11    1    4    4    0    0  0.42848040430E+02 -0.70400743383E+01 -0.39923577035E+02  0.58986517262E+02  0.00000000000E+00 0. -1.
<mgrwt>
<rscale>  0 0.11963164E+03</rscale>
<asrwt>0</asrwt>
<pdfrwt beam="2">  1        2 0.11954166E-01 0.12858477E+03</pdfrwt>
<pdfrwt beam="1">  1       -2 0.30571407E-01 0.12858477E+03</pdfrwt>
<totfact> 0.48115713E+03</totfact>
</mgrwt>
</event>
<event>
 8    1  0.1033707E-005  0.1545183E+03  0.7546771E-02  0.1203407E+00
         -1   -1    0    0    0  501 -0.00000000000E+00  0.00000000000E+00  0.27457656023E+03  0.27457656023E+03  0.00000000000E+00 0.  1.
          1   -1    0    0  501    0  0.00000000000E+00 -0.00000000000E+00 -0.73072916298E+02  0.73072916298E+02  0.00000000000E+00 0. -1.
         23    2    1    2    0    0 -0.71166324652E+00  0.90830295420E+02  0.10972756699E+03  0.18951528816E+03  0.12500102583E+03 0.  0.
         23    2    1    2    0    0  0.71166324652E+00 -0.90830295420E+02  0.91776076941E+02  0.15813418837E+03  0.91284851984E+02 0.  0.
          5    1    3    3  502    0 -0.28832213762E+02 -0.80395441490E+01 -0.97559161942E+01  0.31830782607E+02  0.47000000000E+01 0.  1.
         -5    1    3    3    0  502  0.28120550516E+02  0.98869839569E+02  0.11948348319E+03  0.15768450556E+03  0.47000000000E+01 0.  1.
        -11    1    4    4    0    0 -0.18214522801E+02  0.11104267053E+02  0.32002279113E+02  0.38460622149E+02  0.00000000000E+00 0. -1.
         11    1    4    4    0    0  0.18926186047E+02 -0.10193456247E+03  0.59773797828E+02  0.11967356622E+03  0.00000000000E+00 0.  1.
<mgrwt>
<rscale>  0 0.14763683E+03</rscale>
<asrwt>0</asrwt>
<pdfrwt beam="2">  1        1 0.11241987E-01 0.15451830E+03</pdfrwt>
<pdfrwt beam="1">  1       -1 0.42242547E-01 0.15451830E+03</pdfrwt>
<totfact> 0.29770991E+03</totfact>
</mgrwt>
</event>
<event>
 8    1  0.1033707E-005  0.2394939E+03  0.7546771E-02  0.1122933E+00
         -2   -1    0    0    0  501 -0.00000000000E+00  0.00000000000E+00  0.67843231618E+02  0.67843231618E+02  0.00000000000E+00 0.  1.
          2   -1    0    0  501    0  0.00000000000E+00 -0.00000000000E+00 -0.79232026667E+03  0.79232026667E+03  0.00000000000E+00 0. -1.
         23    2    1    2    0    0  0.36284852447E+02 -0.20105135791E+03 -0.40123431055E+03  0.46727541622E+03  0.12497641223E+03 0.  0.
         23    2    1    2    0    0 -0.36284852447E+02  0.20105135791E+03 -0.32324272451E+03  0.39288808206E+03  0.90205027822E+02 0.  0.
          5    1    3    3  502    0  0.24545796116E+02 -0.21668918118E+03 -0.35216702405E+03  0.41424678656E+03  0.47000000000E+01 0. -1.
         -5    1    3    3    0  502  0.11739056330E+02  0.15637823268E+02 -0.49067286495E+02  0.53028629664E+02  0.47000000000E+01 0. -1.
        -11    1    4    4    0    0 -0.61467475786E+02  0.16107082111E+03 -0.28010069326E+03  0.32890493818E+03  0.00000000000E+00 0. -1.
         11    1    4    4    0    0  0.25182623339E+02  0.39980536800E+02 -0.43142031243E+02  0.63983143880E+02  0.00000000000E+00 0.  1.
<mgrwt>
<rscale>  0 0.23534580E+03</rscale>
<asrwt>0</asrwt>
<pdfrwt beam="2">  1        2 0.12189542E+00 0.23949393E+03</pdfrwt>
<pdfrwt beam="1">  1       -2 0.10437420E-01 0.23949393E+03</pdfrwt>
<totfact> 0.22182693E+03</totfact>
</mgrwt>
</event>
<event>
 8    1  0.1033707E-005  0.1855268E+03  0.7546771E-02  0.1171118E+00
         -3   -1    0    0    0  501 -0.00000000000E+00  0.00000000000E+00  0.18456531271E+03  0.18456531271E+03  0.00000000000E+00 0.  1.
          3   -1    0    0  501    0  0.00000000000E+00 -0.00000000000E+00 -0.15624072414E+03  0.15624072414E+03  0.00000000000E+00 0. -1.
         23    2    1    2    0    0 -0.11288651714E+03  0.77792064151E+02 -0.15384003484E+01  0.18553319183E+03  0.12500091038E+03 0.  0.
         23    2    1    2    0    0  0.11288651714E+03 -0.77792064151E+02  0.29862988922E+02  0.15527284502E+03  0.66504791531E+02 0.  0.
          5    1    3    3  502    0  0.26392604807E+02  0.20675446779E+02  0.74192928483E+01  0.34658037947E+02  0.47000000000E+01 0. -1.
         -5    1    3    3    0  502 -0.13927912195E+03  0.57116617372E+02 -0.89576931967E+01  0.15087515388E+03  0.47000000000E+01 0. -1.
        -11    1    4    4    0    0  0.47186774721E+02  0.26747074238E+01  0.28794167900E+00  0.47263396818E+02  0.00000000000E+00 0.  1.
         11    1    4    4    0    0  0.65699742419E+02 -0.80466771575E+02  0.29575047243E+02  0.10800944820E+03  0.00000000000E+00 0. -1.
<mgrwt>
<rscale>  0 0.17661711E+03</rscale>
<asrwt>0</asrwt>
<pdfrwt beam="2">  1        3 0.24037035E-01 0.18552681E+03</pdfrwt>
<pdfrwt beam="1">  1       -3 0.28394663E-01 0.18552681E+03</pdfrwt>
<totfact> 0.46418126E+02</totfact>
</mgrwt>
</event>
<event>
 8    1  0.1033707E-005  0.1287709E+03  0.7546771E-02  0.1243128E+00
         -2   -1    0    0    0  501 -0.00000000000E+00  0.00000000000E+00  0.23194888034E+03  0.23194888034E+03  0.00000000000E+00 0.  1.
          2   -1    0    0  501    0  0.00000000000E+00 -0.00000000000E+00 -0.55087950111E+02  0.55087950111E+02  0.00000000000E+00 0. -1.
         23    2    1    2    0    0 -0.30127005478E+02  0.70853381201E+01  0.10755482805E+03  0.16777957017E+03  0.12499641857E+03 0.  0.
         23    2    1    2    0    0  0.30127005478E+02 -0.70853381201E+01  0.69306102175E+02  0.11925726027E+03  0.91984345701E+02 0.  0.
          5    1    3    3  502    0  0.32608586438E+02 -0.26323456937E+02  0.81807819323E+02  0.92037240272E+02  0.47000000000E+01 0.  1.
         -5    1    3    3    0  502 -0.62735591916E+02  0.33408795057E+02  0.25747008727E+02  0.75742329900E+02  0.47000000000E+01 0.  1.
        -11    1    4    4    0    0 -0.97848067364E+01  0.64503179263E+01 -0.18477670457E+02  0.21880890058E+02  0.00000000000E+00 0. -1.
         11    1    4    4    0    0  0.39911812215E+02 -0.13535656046E+02  0.87783772632E+02  0.97376370216E+02  0.00000000000E+00 0.  1.
<mgrwt>
<rscale>  0 0.11998132E+03</rscale>
<asrwt>0</asrwt>
<pdfrwt beam="2">  1        2 0.84750693E-02 0.12877089E+03</pdfrwt>
<pdfrwt beam="1">  1       -2 0.35684443E-01 0.12877089E+03</pdfrwt>
<totfact> 0.55273135E+03</totfact>
</mgrwt>
</event>
<event>
 8    1  0.1033707E-005  0.1359988E+03  0.7546771E-02  0.1231036E+00
          2   -1    0    0  501    0  0.00000000000E+00  0.00000000000E+00  0.29020027302E+03  0.29020027302E+03  0.00000000000E+00 0. -1.
         -2   -1    0    0    0  501 -0.00000000000E+00 -0.00000000000E+00 -0.76974800297E+02  0.76974800297E+02  0.00000000000E+00 0.  1.
         23    2    1    2    0    0  0.53664913434E+02 -0.62543007728E+00  0.77451333294E+01  0.13621916378E+03  0.12496143163E+03 0.  0.
         23    2    1    2    0    0 -0.53664913434E+02  0.62543007728E+00  0.20548033940E+03  0.23095590954E+03  0.90764245030E+02 0.  0.
          5    1    3    3  502    0 -0.20240346668E+02  0.17993394904E+02 -0.38231416991E+02  0.47086783056E+02  0.47000000000E+01 0. -1.
         -5    1    3    3    0  502  0.73905260102E+02 -0.18618824982E+02  0.45976550320E+02  0.89132380726E+02  0.47000000000E+01 0. -1.
        -11    1    4    4    0    0  0.85897782915E+01 -0.29773001149E+02  0.10055997606E+03  0.10522606461E+03  0.00000000000E+00 0. -1.
         11    1    4    4    0    0 -0.62254691725E+02  0.30398431227E+02  0.10492036334E+03  0.12572984493E+03  0.00000000000E+00 0.  1.
<mgrwt>
<rscale>  0 0.12761652E+03</rscale>
<asrwt>0</asrwt>
<pdfrwt beam="1">  1        2 0.44646195E-01 0.13599880E+03</pdfrwt>
<pdfrwt beam="2">  1       -2 0.11842277E-01 0.13599880E+03</pdfrwt>
<totfact> 0.54800283E+03</totfact>
</mgrwt>
</event>
<event>
 8    1  0.1033707E-005  0.1934590E+03  0.7546771E-02  0.1159940E+00
         -1   -1    0    0    0  501 -0.00000000000E+00  0.00000000000E+00  0.13931972691E+03  0.13931972691E+03  0.00000000000E+00 0.  1.
          1   -1    0    0  501    0  0.00000000000E+00 -0.00000000000E+00 -0.24222301894E+03  0.24222301894E+03  0.00000000000E+00 0. -1.
         23    2    1    2    0    0 -0.32973378468E+02  0.14388627952E+03 -0.57417069354E+02  0.20179964128E+03  0.12504347343E+03 0.  0.
         23    2    1    2    0    0  0.32973378468E+02 -0.14388627952E+03 -0.45486222683E+02  0.17974310456E+03  0.91913448756E+02 0.  0.
          5    1    3    3  502    0  0.43690190083E+02  0.40761739300E+02 -0.39957107447E+02  0.72034800866E+02  0.47000000000E+01 0. -1.
         -5    1    3    3    0  502 -0.76663568551E+02  0.10312454022E+03 -0.17459961907E+02  0.12976484042E+03  0.47000000000E+01 0. -1.
        -11    1    4    4    0    0 -0.27475048085E+02 -0.62958994556E+02  0.64658968709E+00  0.68695933948E+02  0.00000000000E+00 0.  1.
         11    1    4    4    0    0  0.60448426553E+02 -0.80927284967E+02 -0.46132812370E+02  0.11104717062E+03  0.00000000000E+00 0. -1.
<mgrwt>
<rscale>  0 0.18837005E+03</rscale>
<asrwt>0</asrwt>
<pdfrwt beam="2">  1        1 0.37265079E-01 0.19345898E+03</pdfrwt>
<pdfrwt beam="1">  1       -1 0.21433805E-01 0.19345898E+03</pdfrwt>
<totfact> 0.20437317E+03</totfact>
</mgrwt>
</event>
<event>
 7    1  0.1033707E-005  0.2880643E+03  0.7546771E-02  0.1130011E+00
         -1   -1    0    0    0  501 -0.00000000000E+00  0.00000000000E+00  0.44965238515E+03  0.44965238515E+03  0.00000000000E+00 0.  1.
          1   -1    0    0  501    0  0.00000000000E+00 -0.00000000000E+00 -0.94748188161E+02  0.94748188161E+02  0.00000000000E+00 0. -1.
         23    2    1    2    0    0 -0.19160406065E+02  0.52368510964E+02  0.33568814906E+02  0.11284818347E+03  0.92186035151E+02 0.  0.
          5    1    1    2  502    0  0.12157321792E+03 -0.21245517229E+02  0.38912985501E+02  0.12949026897E+03  0.47000000000E+01 0. -1.
         -5    1    1    2    0  502 -0.10241281186E+03 -0.31122993735E+02  0.28242239658E+03  0.30206212087E+03  0.47000000000E+01 0.  1.
        -11    1    3    3    0    0  0.14573386683E+02  0.93055774482E+01  0.52255398739E+02  0.55041839254E+02  0.00000000000E+00 0.  1.
         11    1    3    3    0    0 -0.33733792748E+02  0.43062933516E+02 -0.18686583833E+02  0.57806344215E+02  0.00000000000E+00 0. -1.
<mgrwt>
<rscale>  0 0.22527398E+03</rscale>
<asrwt>0</asrwt>
<pdfrwt beam="2">  1        1 0.14576645E-01 0.28806429E+03</pdfrwt>
<pdfrwt beam="1">  1       -1 0.69177289E-01 0.28806429E+03</pdfrwt>
<totfact> 0.85045056E+02</totfact>
</mgrwt>
</event>
<event>
 8    1  0.1033707E-005  0.1696747E+03  0.7546771E-02  0.1189868E+00
          1   -1    0    0  501    0  0.00000000000E+00  0.00000000000E+00  0.44329920077E+03  0.44329920077E+03  0.00000000000E+00 0. -1.
         -1   -1    0    0    0  501 -0.00000000000E+00 -0.00000000000E+00 -0.51051835340E+02  0.51051835340E+02  0.00000000000E+00 0.  1.
         23    2    1    2    0    0 -0.45845933444E+02  0.10517080305E+03  0.23515990025E+03  0.28998220729E+03  0.12500701753E+03 0.  0.
         23    2    1    2    0    0  0.45845933444E+02 -0.10517080305E+03  0.15708746517E+03  0.20436882881E+03  0.62668963989E+02 0.  0.
          5    1    3    3  502    0 -0.83836905197E+02  0.38877796146E+02  0.14065077548E+03  0.16835925977E+03  0.47000000000E+01 0. -1.
         -5    1    3    3    0  502  0.37990971753E+02  0.66293006906E+02  0.94509124770E+02  0.12162294752E+03  0.47000000000E+01 0. -1.
        -11    1    4    4    0    0  0.48926558999E+02 -0.64753663228E+02  0.13674611155E+03  0.15901680446E+03  0.00000000000E+00 0. -1.
         11    1    4    4    0    0 -0.30806255544E+01 -0.40417139825E+02  0.20341353620E+02  0.45352024349E+02  0.00000000000E+00 0.  1.
<mgrwt>
<rscale>  0 0.15896665E+03</rscale>
<asrwt>0</asrwt>
<pdfrwt beam="1">  1        1 0.68199875E-01 0.16967469E+03</pdfrwt>
<pdfrwt beam="2">  1       -1 0.78541288E-02 0.16967469E+03</pdfrwt>
<totfact> 0.45761801E+03</totfact>
</mgrwt>
</event>
<event>
 7    1  0.1033707E-005  0.1456067E+03  0.7546771E-02  0.1212203E+00
         -1   -1    0    0    0  501 -0.00000000000E+00  0.00000000000E+00  0.16636852094E+03  0.16636852094E+03  0.00000000000E+00 0.  1.
          1   -1    0    0  501    0  0.00000000000E+00 -0.00000000000E+00 -0.11795434421E+03  0.11795434421E+03  0.00000000000E+00 0. -1.
         23    2    1    2    0    0  0.17128616387E+02 -0.18077185651E+02  0.54427948627E+02  0.13859200984E+03  0.12500067783E+03 0.  0.
          5    1    3    3  502    0  0.10265224136E+02 -0.38312871776E+01  0.94504186628E+02  0.95253267021E+02  0.47000000000E+01 0. -1.
         -5    1    3    3    0  502  0.68633922505E+01 -0.14245898474E+02 -0.40076238001E+02  0.43338742815E+02  0.47000000000E+01 0. -1.
        -11    1    1    2    0    0  0.52427103104E+02 -0.14842473465E+02 -0.33563487917E+02  0.63995373892E+02  0.00000000000E+00 0. -1.
         11    1    1    2    0    0 -0.69555719490E+02  0.32919659116E+02  0.27549716024E+02  0.81735481421E+02  0.00000000000E+00 0.  1.
<mgrwt>
<rscale>  0 0.14084038E+03</rscale>
<asrwt>0</asrwt>
<pdfrwt beam="2">  1        1 0.18146822E-01 0.14560672E+03</pdfrwt>
<pdfrwt beam="1">  1       -1 0.25595157E-01 0.14560672E+03</pdfrwt>
<totfact> 0.37429828E+03</totfact>
</mgrwt>
</event>
<event>
 8    1  0.1033707E-005  0.1321444E+03  0.7546771E-02  0.1238678E+00
         -2   -1    0    0    0  501 -0.00000000000E+00  0.00000000000E+00  0.84236985937E+02  0.84236985937E+02  0.00000000000E+00 0.  1.
          2   -1    0    0  501    0  0.00000000000E+00 -0.00000000000E+00 -0.16413699434E+03  0.16413699434E+03  0.00000000000E+00 0. -1.
         23    2    1    2    0    0 -0.10355519789E+01 -0.42840616830E+02 -0.21037574219E+02  0.13380854992E+03  0.12500303070E+03 0.  0.
         23    2    1    2    0    0  0.10355519789E+01  0.42840616830E+02 -0.58862434186E+02  0.11456543036E+03  0.88453721560E+02 0.  0.
          5    1    3    3  502    0  0.48626575256E+02  0.15274296142E+02 -0.25310279285E+02  0.57101209981E+02  0.47000000000E+01 0.  1.
         -5    1    3    3    0  502 -0.49662127235E+02 -0.58114912972E+02  0.42727050662E+01  0.76707339934E+02  0.47000000000E+01 0.  1.
        -11    1    4    4    0    0  0.17779088992E+02  0.23850545481E+02  0.17225980823E+02  0.34375557311E+02  0.00000000000E+00 0.  1.
         11    1    4    4    0    0 -0.16743537013E+02  0.18990071349E+02 -0.76088415009E+02  0.80189873052E+02  0.00000000000E+00 0. -1.
<mgrwt>
<rscale>  0 0.12271886E+03</rscale>
<asrwt>0</asrwt>
<pdfrwt beam="2">  1        2 0.25251845E-01 0.13214442E+03</pdfrwt>
<pdfrwt beam="1">  1       -2 0.12959536E-01 0.13214442E+03</pdfrwt>
<totfact> 0.87390681E+03</totfact>
</mgrwt>
</event>
<event>
 8    1  0.1033707E-005  0.1254811E+03  0.7546771E-02  0.1254811E+00
          2   -1    0    0  501    0  0.00000000000E+00  0.00000000000E+00  0.28891968462E+03  0.28891968462E+03  0.00000000000E+00 0. -1.
         -2   -1    0    0    0  501 -0.00000000000E+00 -0.00000000000E+00 -0.40309145666E+02  0.40309145666E+02  0.00000000000E+00 0.  1.
         23    2    1    2    0    0 -0.24655341423E+01  0.10512162191E+02  0.10621362530E+03  0.16439844777E+03  0.12501572308E+03 0.  0.
         23    2    1    2    0    0  0.24655341423E+01 -0.10512162191E+02  0.14239691365E+03  0.16483038251E+03  0.82313969464E+02 0.  0.
          5    1    3    3  502    0  0.14400046824E+02  0.61763272548E+02  0.85175099181E+02  0.10629652254E+03  0.47000000000E+01 0.  1.
         -5    1    3    3    0  502 -0.16865580966E+02 -0.51251110357E+02  0.21038526122E+02  0.58101925230E+02  0.47000000000E+01 0.  1.
        -11    1    4    4    0    0  0.12578140271E+02 -0.30622332302E+02  0.13797447387E+03  0.14189042352E+03  0.00000000000E+00 0. -1.
         11    1    4    4    0    0 -0.10112606128E+02  0.20110170110E+02  0.44224397769E+01  0.22939958983E+02  0.00000000000E+00 0.  1.
<mgrwt>
<rscale>  0 0.11316923E+03</rscale>
<asrwt>0</asrwt>
<pdfrwt beam="1">  1        2 0.44449181E-01 0.12548114E+03</pdfrwt>
<pdfrwt beam="2">  1       -2 0.62014072E-02 0.12548114E+03</pdfrwt>
<totfact> 0.14939359E+04</totfact>
</mgrwt>
</event>
<event>
 8    1  0.1033707E-005  0.1258084E+03  0.7546771E-02  0.1249651E+00
          3   -1    0    0  501    0  0.00000000000E+00  0.00000000000E+00  0.37023307265E+03  0.37023307265E+03  0.00000000000E+00 0. -1.
         -3   -1    0    0    0  501 -0.00000000000E+00 -0.00000000000E+00 -0.32431780664E+02  0.32431780664E+02  0.00000000000E+00 0.  1.
         23    2    1    2    0    0 -0.13606310081E+02 -0.40134063934E+01  0.16803709068E+03  0.20991477122E+03  0.12500603276E+03 0.  0.
         23    2    1    2    0    0  0.13606310081E+02  0.40134063934E+01  0.16976420130E+03  0.19275008209E+03  0.90174669376E+02 0.  0.
          5    1    3    3  502    0 -0.32588817779E+02 -0.84448321820E+01  0.18221419523E+03  0.18535762509E+03  0.47000000000E+01 0.  1.
         -5    1    3    3    0  502  0.18982507698E+02  0.44314257886E+01 -0.14177104546E+02  0.24557146136E+02  0.47000000000E+01 0.  1.
        -11    1    4    4    0    0  0.21100198286E+02 -0.37111402063E+02  0.49170988266E+02  0.65117283557E+02  0.00000000000E+00 0.  1.
         11    1    4    4    0    0 -0.74938882050E+01  0.41124808456E+02  0.12059321304E+03  0.12763279853E+03  0.00000000000E+00 0. -1.
<mgrwt>
<rscale>  0 0.11611289E+03</rscale>
<asrwt>0</asrwt>
<pdfrwt beam="1">  1        3 0.56958931E-01 0.12580838E+03</pdfrwt>
<pdfrwt beam="2">  1       -3 0.49895050E-02 0.12580838E+03</pdfrwt>
<totfact> 0.15911522E+03</totfact>
</mgrwt>
</event>
<event>
 8    1  0.1033707E-005  0.1445352E+03  0.7546771E-02  0.1217956E+00
         -1   -1    0    0    0  501 -0.00000000000E+00  0.00000000000E+00  0.31897788911E+02  0.31897788911E+02  0.00000000000E+00 0.  1.
          1   -1    0    0  501    0  0.00000000000E+00 -0.00000000000E+00 -0.52975855192E+03  0.52975855192E+03  0.00000000000E+00 0. -1.
         23    2    1    2    0    0  0.71377136552E+02 -0.13131984792E+02 -0.26989135045E+03  0.30615642367E+03  0.12499308005E+03 0.  0.
         23    2    1    2    0    0 -0.71377136552E+02  0.13131984792E+02 -0.22796941256E+03  0.25549991716E+03  0.89682829789E+02 0.  0.
          5    1    3    3  502    0  0.10514827515E+03 -0.98396257511E+01 -0.23274072321E+03  0.25562337969E+03  0.47000000000E+01 0. -1.
         -5    1    3    3    0  502 -0.33771138597E+02 -0.32923590414E+01 -0.37150627240E+02  0.50533043986E+02  0.47000000000E+01 0. -1.
        -11    1    4    4    0    0 -0.74520948945E+02 -0.23806495568E+02 -0.15867538589E+03  0.17691240530E+03  0.00000000000E+00 0.  1.
         11    1    4    4    0    0  0.31438123931E+01  0.36938480360E+02 -0.69294026676E+02  0.78587511862E+02  0.00000000000E+00 0. -1.
<mgrwt>
<rscale>  0 0.13661646E+03</rscale>
<asrwt>0</asrwt>
<pdfrwt beam="2">  1        1 0.81501322E-01 0.14453517E+03</pdfrwt>
<pdfrwt beam="1">  1       -1 0.49073518E-02 0.14453517E+03</pdfrwt>
<totfact> 0.72742657E+03</totfact>
</mgrwt>
</event>
<event>
 8    1  0.1033707E-005  0.1401434E+03  0.7546771E-02  0.1224170E+00
         -2   -1    0    0    0  501 -0.00000000000E+00  0.00000000000E+00  0.65298696987E+03  0.65298696987E+03  0.00000000000E+00 0.  1.
          2   -1    0    0  501    0  0.00000000000E+00 -0.00000000000E+00 -0.24871663969E+02  0.24871663969E+02  0.00000000000E+00 0. -1.
         23    2    1    2    0    0  0.12931943909E+02  0.62041872772E+02  0.40596850857E+03  0.42947712902E+03  0.12499498089E+03 0.  0.
         23    2    1    2    0    0 -0.12931943909E+02 -0.62041872772E+02  0.22214679733E+03  0.24838150482E+03  0.91256469485E+02 0.  0.
          5    1    3    3  502    0  0.22953088314E+02  0.39178805294E+02  0.40100536277E+03  0.40359535926E+03  0.47000000000E+01 0.  1.
         -5    1    3    3    0  502 -0.10021144405E+02  0.22863067478E+02  0.49631458069E+01  0.25881769761E+02  0.47000000000E+01 0.  1.
        -11    1    4    4    0    0 -0.42191084455E+02 -0.68571354609E+01  0.13170019690E+03  0.13846317119E+03  0.00000000000E+00 0.  1.
         11    1    4    4    0    0  0.29259140546E+02 -0.55184737311E+02  0.90446600429E+02  0.10991833362E+03  0.00000000000E+00 0. -1.
<mgrwt>
<rscale>  0 0.13223982E+03</rscale>
<asrwt>0</asrwt>
<pdfrwt beam="2">  1        2 0.38264103E-02 0.14014341E+03</pdfrwt>
<pdfrwt beam="1">  1       -2 0.10045952E+00 0.14014341E+03</pdfrwt>
<totfact> 0.18385122E+03</totfact>
</mgrwt>
</event>
<event>
 8    1  0.1033707E-005  0.1269613E+03  0.7546771E-02  0.1246716E+00
         -1   -1    0    0    0  501 -0.00000000000E+00  0.00000000000E+00  0.41823154496E+02  0.41823154496E+02  0.00000000000E+00 0.  1.
          1   -1    0    0  501    0  0.00000000000E+00 -0.00000000000E+00 -0.30062307950E+03  0.30062307950E+03  0.00000000000E+00 0. -1.
         23    2    1    2    0    0  0.22072503019E+02  0.24105250953E+01 -0.11998099934E+03  0.17468435008E+03  0.12500470368E+03 0.  0.
         23    2    1    2    0    0 -0.22072503019E+02 -0.24105250953E+01 -0.13881892567E+03  0.16776188391E+03  0.91544249136E+02 0.  0.
          5    1    3    3  502    0 -0.92219023408E+01 -0.24112270689E+02  0.17232727465E+02  0.31392705784E+02  0.47000000000E+01 0. -1.
         -5    1    3    3    0  502  0.31294405360E+02  0.26522795784E+02 -0.13721372680E+03  0.14329164430E+03  0.47000000000E+01 0. -1.
        -11    1    4    4    0    0  0.17063561002E+02  0.30773363667E+02 -0.25774830825E+02  0.43617736410E+02  0.00000000000E+00 0.  1.
         11    1    4    4    0    0 -0.39136064021E+02 -0.33183888763E+02 -0.11304409484E+03  0.12414414750E+03  0.00000000000E+00 0. -1.
<mgrwt>
<rscale>  0 0.11783237E+03</rscale>
<asrwt>0</asrwt>
<pdfrwt beam="2">  1        1 0.46249703E-01 0.12696134E+03</pdfrwt>
<pdfrwt beam="1">  1       -1 0.64343316E-02 0.12696134E+03</pdfrwt>
<totfact> 0.98822385E+03</totfact>
</mgrwt>
</event>
<event>
 8    1  0.1033707E-005  0.1268245E+03  0.7546771E-02  0.1240122E+00
         -1   -1    0    0    0  501 -0.00000000000E+00  0.00000000000E+00  0.54046999840E+03  0.54046999840E+03  0.00000000000E+00 0.  1.
          1   -1    0    0  501    0  0.00000000000E+00 -0.00000000000E+00 -0.61162493137E+02  0.61162493137E+02  0.00000000000E+00 0. -1.
         23    2    1    2    0    0  0.35176030388E+02  0.48844803429E+02  0.47707271675E+03  0.49364240405E+03  0.11163009481E+03 0.  0.
         23    2    1    2    0    0 -0.35176030388E+02 -0.48844803429E+02  0.22347885117E+01  0.10799008749E+03  0.89630891890E+02 0.  0.
          5    1    3    3  502    0  0.49275579763E+02  0.23896548258E+02  0.89828481073E+02  0.10531084366E+03  0.47000000000E+01 0. -1.
         -5    1    3    3    0  502 -0.14099549375E+02  0.24948255170E+02  0.38724423568E+03  0.38833156039E+03  0.47000000000E+01 0.  1.
        -11    1    4    4    0    0 -0.16011473649E+02 -0.33886213530E+02 -0.42752297262E+02  0.56854214241E+02  0.00000000000E+00 0. -1.
         11    1    4    4    0    0 -0.19164556739E+02 -0.14958589899E+02  0.44987085774E+02  0.51135873251E+02  0.00000000000E+00 0.  1.
<mgrwt>
<rscale>  0 0.12182180E+03</rscale>
<asrwt>0</asrwt>
<pdfrwt beam="2">  1        1 0.94096147E-02 0.12682447E+03</pdfrwt>
<pdfrwt beam="1">  1       -1 0.83149227E-01 0.12682447E+03</pdfrwt>
<totfact> 0.10302818E+03</totfact>
</mgrwt>
</event>
<event>
 8    1  0.1033707E-005  0.1984683E+03  0.7546771E-02  0.1155773E+00
         -2   -1    0    0    0  501 -0.00000000000E+00  0.00000000000E+00  0.20536281206E+03  0.20536281206E+03  0.00000000000E+00 0.  1.
          2   -1    0    0  501    0  0.00000000000E+00 -0.00000000000E+00 -0.28405262130E+03  0.28405262130E+03  0.00000000000E+00 0. -1.
         23    2    1    2    0    0  0.65191159309E+02  0.13969873214E+03  0.11281064984E+03  0.22828909807E+03  0.12499618621E+03 0.  0.
         23    2    1    2    0    0 -0.65191159309E+02 -0.13969873214E+03 -0.19150045908E+03  0.26112633529E+03  0.88027916808E+02 0.  0.
          5    1    3    3  502    0  0.55621739877E+02 -0.22420412327E+00  0.48411946157E+02  0.73889341214E+02  0.47000000000E+01 0.  1.
         -5    1    3    3    0  502  0.95694194325E+01  0.13992293626E+03  0.64398703686E+02  0.15439975686E+03  0.47000000000E+01 0.  1.
        -11    1    4    4    0    0 -0.44257545948E+02 -0.28820885489E+02 -0.21361239275E+02  0.56970837778E+02  0.00000000000E+00 0.  1.
         11    1    4    4    0    0 -0.20933613361E+02 -0.11087784665E+03 -0.17013921981E+03  0.20415549751E+03  0.00000000000E+00 0. -1.
<mgrwt>
<rscale>  0 0.19301108E+03</rscale>
<asrwt>0</asrwt>
<pdfrwt beam="2">  1        2 0.43700403E-01 0.19846831E+03</pdfrwt>
<pdfrwt beam="1">  1       -2 0.31594279E-01 0.19846831E+03</pdfrwt>
<totfact> 0.10744315E+03</totfact>
</mgrwt>
</event>
<event>
 8    1  0.1033707E-005  0.1646780E+03  0.7546771E-02  0.1190335E+00
          2   -1    0    0  501    0  0.00000000000E+00  0.00000000000E+00  0.49509646927E+03  0.49509646927E+03  0.00000000000E+00 0. -1.
         -2   -1    0    0    0  501 -0.00000000000E+00 -0.00000000000E+00 -0.56884959606E+02  0.56884959606E+02  0.00000000000E+00 0.  1.
         23    2    1    2    0    0  0.97364139090E+02 -0.44880745759E+02  0.12013958543E+03  0.20384393721E+03  0.12499909532E+03 0.  0.
         23    2    1    2    0    0 -0.97364139090E+02  0.44880745759E+02  0.31807192423E+03  0.34813749166E+03  0.92389973443E+02 0.  0.
          5    1    3    3  502    0  0.52881928579E+02 -0.27914700190E+02  0.13979825947E+03  0.15212288522E+03  0.47000000000E+01 0.  1.
         -5    1    3    3    0  502  0.44482210511E+02 -0.16966045569E+02 -0.19658674042E+02  0.51721051994E+02  0.47000000000E+01 0.  1.
        -11    1    4    4    0    0 -0.92694753971E+02 -0.20290397378E+01  0.23487740650E+03  0.25251501044E+03  0.00000000000E+00 0.  1.
         11    1    4    4    0    0 -0.46693851193E+01  0.46909785497E+02  0.83194517738E+02  0.95622481219E+02  0.00000000000E+00 0. -1.
<mgrwt>
<rscale>  0 0.15855744E+03</rscale>
<asrwt>0</asrwt>
<pdfrwt beam="1">  1        2 0.76168685E-01 0.16467796E+03</pdfrwt>
<pdfrwt beam="2">  1       -2 0.87515326E-02 0.16467796E+03</pdfrwt>
<totfact> 0.50287997E+03</totfact>
</mgrwt>
</event>
<event>
 8    1  0.1033707E-005  0.1849929E+03  0.7546771E-02  0.1168154E+00
          1   -1    0    0  501    0  0.00000000000E+00  0.00000000000E+00  0.95136070547E+03  0.95136070547E+03  0.00000000000E+00 0. -1.
         -1   -1    0    0    0  501 -0.00000000000E+00 -0.00000000000E+00 -0.32822494016E+02  0.32822494016E+02  0.00000000000E+00 0.  1.
         23    2    1    2    0    0  0.10557833155E+03  0.86319214811E+02  0.41248566808E+03  0.45206946888E+03  0.12499834954E+03 0.  0.
         23    2    1    2    0    0 -0.10557833155E+03 -0.86319214811E+02  0.50605254338E+03  0.53211373061E+03  0.91967682921E+02 0.  0.
          5    1    3    3  502    0  0.33658710140E+02  0.48850942720E+02  0.33350192482E+03  0.33876975549E+03  0.47000000000E+01 0.  1.
         -5    1    3    3    0  502  0.71919621409E+02  0.37468272091E+02  0.78983743259E+02  0.11329971340E+03  0.47000000000E+01 0.  1.
        -11    1    4    4    0    0 -0.10308031023E+03 -0.47138871553E+02  0.27012920919E+03  0.29294609270E+03  0.00000000000E+00 0.  1.
         11    1    4    4    0    0 -0.24980213145E+01 -0.39180343258E+02  0.23592333419E+03  0.23916763791E+03  0.00000000000E+00 0. -1.
<mgrwt>
<rscale>  0 0.17963831E+03</rscale>
<asrwt>0</asrwt>
<pdfrwt beam="1">  1        1 0.14636316E+00 0.18499291E+03</pdfrwt>
<pdfrwt beam="2">  1       -1 0.50496152E-02 0.18499291E+03</pdfrwt>
<totfact> 0.29938976E+03</totfact>
</mgrwt>
</event>
<event>
 8    1  0.1033707E-005  0.1336589E+03  0.7546771E-02  0.1239491E+00
          1   -1    0    0  501    0  0.00000000000E+00  0.00000000000E+00  0.26818001541E+03  0.26818001541E+03  0.00000000000E+00 0.  1.
         -1   -1    0    0    0  501 -0.00000000000E+00 -0.00000000000E+00 -0.50445514286E+02  0.50445514286E+02  0.00000000000E+00 0. -1.
         23    2    1    2    0    0 -0.48878412647E+01 -0.47133619197E+02  0.93209693573E+02  0.16295014563E+03  0.12497693360E+03 0.  0.
         23    2    1    2    0    0  0.48878412647E+01  0.47133619197E+02  0.12452480755E+03  0.15567538407E+03  0.80516634672E+02 0.  0.
          5    1    3    3  502    0 -0.26841739564E+02  0.16230003066E+02  0.90250369307E+02  0.95661440207E+02  0.47000000000E+01 0. -1.
         -5    1    3    3    0  502  0.21953898300E+02 -0.63363622263E+02  0.29593242660E+01  0.67288705419E+02  0.47000000000E+01 0. -1.
        -11    1    4    4    0    0  0.36796655599E+02  0.15261134782E+02  0.26703610546E+02  0.47958095399E+02  0.00000000000E+00 0. -1.
         11    1    4    4    0    0 -0.31908814335E+02  0.31872484415E+02  0.97821197009E+02  0.10771728867E+03  0.00000000000E+00 0.  1.
<mgrwt>
<rscale>  0 0.12221239E+03</rscale>
<asrwt>0</asrwt>
<pdfrwt beam="1">  1        1 0.41258463E-01 0.13365891E+03</pdfrwt>
<pdfrwt beam="2">  1       -1 0.77608485E-02 0.13365891E+03</pdfrwt>
<totfact> 0.86258142E+03</totfact>
</mgrwt>
</event>
<event>
 8    1  0.1033707E-005  0.1405617E+03  0.7546771E-02  0.1222799E+00
          1   -1    0    0  501    0  0.00000000000E+00  0.00000000000E+00  0.65061210518E+03  0.65061210518E+03  0.00000000000E+00 0. -1.
         -1   -1    0    0    0  501 -0.00000000000E+00 -0.00000000000E+00 -0.26773725356E+02  0.26773725356E+02  0.00000000000E+00 0.  1.
         23    2    1    2    0    0  0.13129114443E+02  0.62931116018E+02  0.25062985212E+03  0.28735501379E+03  0.12499952866E+03 0.  0.
         23    2    1    2    0    0 -0.13129114443E+02 -0.62931116018E+02  0.37320852770E+03  0.39003081675E+03  0.93309880803E+02 0.  0.
          5    1    3    3  502    0 -0.20535598716E+02  0.66026524289E+02  0.24258063521E+03  0.25228687501E+03  0.47000000000E+01 0. -1.
         -5    1    3    3    0  502  0.33664713160E+02 -0.30954082704E+01  0.80492169169E+01  0.35068138779E+02  0.47000000000E+01 0. -1.
        -11    1    4    4    0    0  0.33486463389E+02 -0.18110220421E+02  0.66929393688E+02  0.76999136706E+02  0.00000000000E+00 0.  1.
         11    1    4    4    0    0 -0.46615577832E+02 -0.44820895598E+02  0.30627913401E+03  0.31303168004E+03  0.00000000000E+00 0. -1.
<mgrwt>
<rscale>  0 0.13318901E+03</rscale>
<asrwt>0</asrwt>
<pdfrwt beam="1">  1        1 0.10009416E+00 0.14056166E+03</pdfrwt>
<pdfrwt beam="2">  1       -1 0.41190352E-02 0.14056166E+03</pdfrwt>
<totfact> 0.71159048E+03</totfact>
</mgrwt>
</event>
<event>
 8    1  0.1033707E-005  0.1474607E+03  0.7546771E-02  0.1215065E+00
          1   -1    0    0  501    0  0.00000000000E+00  0.00000000000E+00  0.33465061563E+03  0.33465061563E+03  0.00000000000E+00 0. -1.
         -1   -1    0    0    0  501 -0.00000000000E+00 -0.00000000000E+00 -0.51662630194E+02  0.51662630194E+02  0.00000000000E+00 0.  1.
         23    2    1    2    0    0  0.31282715305E+02 -0.71698587539E+02  0.15546707126E+03  0.21427710588E+03  0.12500148850E+03 0.  0.
         23    2    1    2    0    0 -0.31282715305E+02  0.71698587539E+02  0.12752091418E+03  0.17203613995E+03  0.84944418074E+02 0.  0.
          5    1    3    3  502    0 -0.48544672975E+02 -0.24157807120E+02  0.56652163743E+02  0.78560439000E+02  0.47000000000E+01 0.  1.
         -5    1    3    3    0  502  0.79827388280E+02 -0.47540780419E+02  0.98814907515E+02  0.13571666688E+03  0.47000000000E+01 0.  1.
        -11    1    4    4    0    0 -0.36907088544E+02 -0.58508473967E+01  0.35211755901E+02  0.51344263104E+02  0.00000000000E+00 0.  1.
         11    1    4    4    0    0  0.56243732395E+01  0.77549434936E+02  0.92309158281E+02  0.12069187684E+03  0.00000000000E+00 0. -1.
<mgrwt>
<rscale>  0 0.13871736E+03</rscale>
<asrwt>0</asrwt>
<pdfrwt beam="1">  1        1 0.51484709E-01 0.14746073E+03</pdfrwt>
<pdfrwt beam="2">  1       -1 0.79480972E-02 0.14746073E+03</pdfrwt>
<totfact> 0.63647529E+03</totfact>
</mgrwt>
</event>
<event>
 8    1  0.1033707E-005  0.2390644E+03  0.7546771E-02  0.1123179E+00
          2   -1    0    0  501    0  0.00000000000E+00  0.00000000000E+00  0.11221442786E+04  0.11221442786E+04  0.00000000000E+00 0. -1.
         -2   -1    0    0    0  501 -0.00000000000E+00 -0.00000000000E+00 -0.53402468362E+02  0.53402468362E+02  0.00000000000E+00 0.  1.
         23    2    1    2    0    0 -0.69569596527E+02  0.19153322870E+03  0.35710862578E+03  0.42974222116E+03  0.12500759811E+03 0.  0.
         23    2    1    2    0    0  0.69569596527E+02 -0.19153322870E+03  0.71163318445E+03  0.74580452579E+03  0.90981838967E+02 0.  0.
          5    1    3    3  502    0 -0.32899790745E+02  0.28921890142E+01  0.13439663579E+02  0.35964921041E+02  0.47000000000E+01 0.  1.
         -5    1    3    3    0  502 -0.36669805782E+02  0.18864103969E+03  0.34366896220E+03  0.39377730012E+03  0.47000000000E+01 0.  1.
        -11    1    4    4    0    0  0.58939527439E+02 -0.19959148751E+03  0.68649415679E+03  0.71734570264E+03  0.00000000000E+00 0.  1.
         11    1    4    4    0    0  0.10630069088E+02  0.80582588062E+01  0.25139027663E+02  0.28458823160E+02  0.00000000000E+00 0. -1.
<mgrwt>
<rscale>  0 0.23498641E+03</rscale>
<asrwt>0</asrwt>
<pdfrwt beam="1">  1        2 0.17263756E+00 0.23906444E+03</pdfrwt>
<pdfrwt beam="2">  1       -2 0.82157652E-02 0.23906444E+03</pdfrwt>
<totfact> 0.20085043E+03</totfact>
</mgrwt>
</event>
<event>
 8    1  0.1033707E-005  0.1391624E+03  0.7546771E-02  0.1227373E+00
         -2   -1    0    0    0  501 -0.00000000000E+00  0.00000000000E+00  0.72516735325E+03  0.72516735325E+03  0.00000000000E+00 0.  1.
          2   -1    0    0  501    0  0.00000000000E+00 -0.00000000000E+00 -0.20757011826E+02  0.20757011826E+02  0.00000000000E+00 0. -1.
         23    2    1    2    0    0 -0.57620836386E+02 -0.20505888952E+02  0.39179491079E+03  0.41577568890E+03  0.12500207636E+03 0.  0.
         23    2    1    2    0    0  0.57620836386E+02  0.20505888952E+02  0.31261543064E+03  0.33014867617E+03  0.86770321199E+02 0.  0.
          5    1    3    3  502    0 -0.65144350706E+02  0.40919464853E+02  0.21298460233E+03  0.22650103722E+03  0.47000000000E+01 0.  1.
         -5    1    3    3    0  502  0.75235143195E+01 -0.61425353805E+02  0.17881030845E+03  0.18927465168E+03  0.47000000000E+01 0.  1.
        -11    1    4    4    0    0  0.29093054364E+02 -0.17836200828E+02  0.36657175321E+02  0.50082775230E+02  0.00000000000E+00 0. -1.
         11    1    4    4    0    0  0.28527782022E+02  0.38342089780E+02  0.27595825531E+03  0.28006590094E+03  0.00000000000E+00 0.  1.
<mgrwt>
<rscale>  0 0.13005608E+03</rscale>
<asrwt>0</asrwt>
<pdfrwt beam="2">  1        2 0.31933870E-02 0.13916239E+03</pdfrwt>
<pdfrwt beam="1">  1       -2 0.11156419E+00 0.13916239E+03</pdfrwt>
<totfact> 0.18312692E+03</totfact>
</mgrwt>
</event>
<event>
 8    1  0.1033707E-005  0.1695171E+03  0.7546771E-02  0.1185256E+00
          1   -1    0    0  501    0  0.00000000000E+00  0.00000000000E+00  0.19792663373E+03  0.19792663373E+03  0.00000000000E+00 0. -1.
         -1   -1    0    0    0  501 -0.00000000000E+00 -0.00000000000E+00 -0.12674841358E+03  0.12674841358E+03  0.00000000000E+00 0.  1.
         23    2    1    2    0    0 -0.26458065483E+02 -0.11140569770E+03  0.56640416619E+02  0.17872938139E+03  0.12499918507E+03 0.  0.
         23    2    1    2    0    0  0.26458065483E+02  0.11140569770E+03  0.14537803532E+02  0.14594566592E+03  0.89317025030E+02 0.  0.
          5    1    3    3  502    0  0.82735607440E+01  0.25952905087E+02  0.11705525376E+02  0.30018567824E+02  0.47000000000E+01 0.  1.
         -5    1    3    3    0  502 -0.34731626227E+02 -0.13735860279E+03  0.44934891243E+02  0.14871081357E+03  0.47000000000E+01 0.  1.
        -11    1    4    4    0    0  0.45351001566E+02  0.98970654710E+02  0.36100890743E+02  0.11469602499E+03  0.00000000000E+00 0. -1.
         11    1    4    4    0    0 -0.18892936083E+02  0.12435042992E+02 -0.21563087212E+02  0.31249640928E+02  0.00000000000E+00 0.  1.
<mgrwt>
<rscale>  0 0.16308598E+03</rscale>
<asrwt>0</asrwt>
<pdfrwt beam="1">  1        1 0.30450252E-01 0.16951712E+03</pdfrwt>
<pdfrwt beam="2">  1       -1 0.19499756E-01 0.16951712E+03</pdfrwt>
<totfact> 0.30516177E+03</totfact>
</mgrwt>
</event>
<event>
 8    1  0.1033707E-005  0.1298072E+03  0.7546771E-02  0.1241571E+00
         -2   -1    0    0    0  501 -0.00000000000E+00  0.00000000000E+00  0.12898909510E+02  0.12898909510E+02  0.00000000000E+00 0.  1.
          2   -1    0    0  501    0  0.00000000000E+00 -0.00000000000E+00 -0.10052575499E+04  0.10052575499E+04  0.00000000000E+00 0. -1.
         23    2    1    2    0    0 -0.31498025600E+02  0.15287788408E+02 -0.58470943591E+03  0.59894492600E+03  0.12499623133E+03 0.  0.
         23    2    1    2    0    0  0.31498025600E+02 -0.15287788408E+02 -0.40764920449E+03  0.41921153342E+03  0.91293996197E+02 0.  0.
          5    1    3    3  502    0  0.11174063486E+02  0.48230418938E+01 -0.52237301867E+03  0.52253591461E+03  0.47000000000E+01 0.  1.
         -5    1    3    3    0  502 -0.42672089086E+02  0.10464746514E+02 -0.62336417246E+02  0.76409011391E+02  0.47000000000E+01 0.  1.
        -11    1    4    4    0    0 -0.17092571869E+02 -0.36330126575E+02 -0.24191029333E+03  0.24521954271E+03  0.00000000000E+00 0. -1.
         11    1    4    4    0    0  0.48590597469E+02  0.21042338167E+02 -0.16573891116E+03  0.17399199071E+03  0.00000000000E+00 0.  1.
<mgrwt>
<rscale>  0 0.12092990E+03</rscale>
<asrwt>0</asrwt>
<pdfrwt beam="2">  1        2 0.15465506E+00 0.12980716E+03</pdfrwt>
<pdfrwt beam="1">  1       -2 0.19844470E-02 0.12980716E+03</pdfrwt>
<totfact> 0.19383680E+04</totfact>
</mgrwt>
</event>
<event>
 8    1  0.1033707E-005  0.1287025E+03  0.7546771E-02  0.1244671E+00
         -3   -1    0    0    0  501 -0.00000000000E+00  0.00000000000E+00  0.72390073006E+03  0.72390073006E+03  0.00000000000E+00 0.  1.
          3   -1    0    0  501    0  0.00000000000E+00 -0.00000000000E+00 -0.17195455213E+02  0.17195455213E+02  0.00000000000E+00 0. -1.
         23    2    1    2    0    0  0.29876410013E+02 -0.65161675786E+01  0.39199458666E+03  0.41258221938E+03  0.12501708466E+03 0.  0.
         23    2    1    2    0    0 -0.29876410013E+02  0.65161675786E+01  0.31471068819E+03  0.32851396590E+03  0.89126585352E+02 0.  0.
          5    1    3    3  502    0 -0.32602898555E+01  0.51269254111E+02  0.25515947079E+03  0.26032213014E+03  0.47000000000E+01 0.  1.
         -5    1    3    3    0  502  0.33136699868E+02 -0.57785421690E+02  0.13683511587E+03  0.15226008923E+03  0.47000000000E+01 0.  1.
        -11    1    4    4    0    0 -0.55307334150E+02 -0.14222446030E+01  0.27619830622E+03  0.28168498070E+03  0.00000000000E+00 0.  1.
         11    1    4    4    0    0  0.25430924137E+02  0.79384121816E+01  0.38512381965E+02  0.46828985202E+02  0.00000000000E+00 0. -1.
<mgrwt>
<rscale>  0 0.11905108E+03</rscale>
<asrwt>0</asrwt>
<pdfrwt beam="2">  1        3 0.26454552E-02 0.12870249E+03</pdfrwt>
<pdfrwt beam="1">  1       -3 0.11136932E+00 0.12870249E+03</pdfrwt>
<totfact> 0.10001334E+03</totfact>
</mgrwt>
</event>
<event>
 8    1  0.1033707E-005  0.1392754E+03  0.7546771E-02  0.1225327E+00
          1   -1    0    0  501    0  0.00000000000E+00  0.00000000000E+00  0.63179098571E+02  0.63179098571E+02  0.00000000000E+00 0. -1.
         -1   -1    0    0    0  501 -0.00000000000E+00 -0.00000000000E+00 -0.27108304882E+03  0.27108304882E+03  0.00000000000E+00 0.  1.
         23    2    1    2    0    0  0.18044234341E+02  0.58725134958E+02 -0.16451083141E+03  0.21554920915E+03  0.12499364803E+03 0.  0.
         23    2    1    2    0    0 -0.18044234341E+02 -0.58725134958E+02 -0.43393118839E+02  0.11871293823E+03  0.91845321453E+02 0.  0.
          5    1    3    3  502    0  0.63455327837E+02  0.18127964880E+02 -0.12876234068E+03  0.14476543827E+03  0.47000000000E+01 0. -1.
         -5    1    3    3    0  502 -0.45411093496E+02  0.40597170077E+02 -0.35748490727E+02  0.70783770881E+02  0.47000000000E+01 0. -1.
        -11    1    4    4    0    0 -0.34535324005E+02 -0.30828871837E+02  0.17696019366E+02  0.49560640072E+02  0.00000000000E+00 0. -1.
         11    1    4    4    0    0  0.16491089665E+02 -0.27896263121E+02 -0.61089138206E+02  0.69152298162E+02  0.00000000000E+00 0.  1.
<mgrwt>
<rscale>  0 0.13144512E+03</rscale>
<asrwt>0</asrwt>
<pdfrwt beam="1">  1        1 0.97198612E-02 0.13927544E+03</pdfrwt>
<pdfrwt beam="2">  1       -1 0.41705085E-01 0.13927544E+03</pdfrwt>
<totfact> 0.36726337E+03</totfact>
</mgrwt>
</event>
<event>
 8    1  0.1033707E-005  0.2896125E+03  0.7546771E-02  0.1092285E+00
          2   -1    0    0  501    0  0.00000000000E+00  0.00000000000E+00  0.44960199300E+03  0.44960199300E+03  0.00000000000E+00 0.  1.
         -2   -1    0    0    0  501 -0.00000000000E+00 -0.00000000000E+00 -0.24774858291E+03  0.24774858291E+03  0.00000000000E+00 0. -1.
         23    2    1    2    0    0  0.12279931518E+03 -0.23058834996E+03 -0.81965823161E+02  0.30098801844E+03  0.12499892852E+03 0.  0.
         23    2    1    2    0    0 -0.12279931518E+03  0.23058834996E+03  0.28381923325E+03  0.39636255748E+03  0.91100279156E+02 0.  0.
          5    1    3    3  502    0  0.98078897626E+02 -0.10461286855E+03 -0.94673894118E+02  0.17189694196E+03  0.47000000000E+01 0.  1.
         -5    1    3    3    0  502  0.24720417550E+02 -0.12597548141E+03  0.12708070957E+02  0.12909107648E+03  0.47000000000E+01 0.  1.
        -11    1    4    4    0    0 -0.11644261098E+03  0.17410383443E+03  0.17239191642E+03  0.27127476783E+03  0.00000000000E+00 0. -1.
         11    1    4    4    0    0 -0.63567041966E+01  0.56484515533E+02  0.11142731683E+03  0.12508778964E+03  0.00000000000E+00 0.  1.
<mgrwt>
<rscale>  0 0.28632288E+03</rscale>
<asrwt>0</asrwt>
<pdfrwt beam="1">  1        2 0.69169537E-01 0.28961248E+03</pdfrwt>
<pdfrwt beam="2">  1       -2 0.38115167E-01 0.28961248E+03</pdfrwt>
<totfact> 0.46068276E+02</totfact>
</mgrwt>
</event>
<event>
 8    1  0.1033707E-005  0.2057098E+03  0.7546771E-02  0.1148946E+00
         -2   -1    0    0    0  501 -0.00000000000E+00  0.00000000000E+00  0.16569859124E+03  0.16569859124E+03  0.00000000000E+00 0.  1.
          2   -1    0    0  501    0  0.00000000000E+00 -0.00000000000E+00 -0.33834306926E+03  0.33834306926E+03  0.00000000000E+00 0. -1.
         23    2    1    2    0    0 -0.10544479730E+02 -0.16303388616E+03  0.51387530362E+02  0.21203113047E+03  0.12500115169E+03 0.  0.
         23    2    1    2    0    0  0.10544479730E+02  0.16303388616E+03 -0.22403200837E+03  0.29201053003E+03  0.91589163040E+02 0.  0.
          5    1    3    3  502    0 -0.38031827959E+02 -0.22021683554E+02 -0.23385081746E+02  0.50003265220E+02  0.47000000000E+01 0. -1.
         -5    1    3    3    0  502  0.27487348229E+02 -0.14101220260E+03  0.74772612108E+02  0.16202786525E+03  0.47000000000E+01 0. -1.
        -11    1    4    4    0    0 -0.21167991642E+01  0.67450388350E+02 -0.16668331485E+03  0.17982592465E+03  0.00000000000E+00 0. -1.
         11    1    4    4    0    0  0.12661278894E+02  0.95583497805E+02 -0.57348693525E+02  0.11218460538E+03  0.00000000000E+00 0.  1.
<mgrwt>
<rscale>  0 0.20094323E+03</rscale>
<asrwt>0</asrwt>
<pdfrwt beam="2">  1        2 0.52052780E-01 0.20570980E+03</pdfrwt>
<pdfrwt beam="1">  1       -2 0.25492091E-01 0.20570980E+03</pdfrwt>
<totfact> 0.13103452E+03</totfact>
</mgrwt>
</event>
<event>
 8    1  0.1033707E-005  0.1409451E+03  0.7546771E-02  0.1223005E+00
         -1   -1    0    0    0  501 -0.00000000000E+00  0.00000000000E+00  0.13686647583E+04  0.13686647583E+04  0.00000000000E+00 0.  1.
          1   -1    0    0  501    0  0.00000000000E+00 -0.00000000000E+00 -0.11785813621E+02  0.11785813621E+02  0.00000000000E+00 0. -1.
         23    2    1    2    0    0  0.52574149596E+02 -0.38436856013E+02  0.82121050714E+03  0.83321799680E+03  0.12499640018E+03 0.  0.
         23    2    1    2    0    0 -0.52574149596E+02  0.38436856013E+02  0.53566843756E+03  0.54723257513E+03  0.91002105399E+02 0.  0.
          5    1    3    3  502    0  0.58123226086E+02 -0.16096168736E+02  0.15200421695E+03  0.16359941329E+03  0.47000000000E+01 0.  1.
         -5    1    3    3    0  502 -0.55490764903E+01 -0.22340687276E+02  0.66920629019E+03  0.66961858351E+03  0.47000000000E+01 0.  1.
        -11    1    4    4    0    0 -0.31446979449E+02  0.67794876791E+02  0.39360771775E+03  0.40063960527E+03  0.00000000000E+00 0.  1.
         11    1    4    4    0    0 -0.21127170147E+02 -0.29358020779E+02  0.14206071981E+03  0.14659296987E+03  0.00000000000E+00 0. -1.
<mgrwt>
<rscale>  0 0.13304554E+03</rscale>
<asrwt>0</asrwt>
<pdfrwt beam="2">  1        1 0.18132032E-02 0.14094514E+03</pdfrwt>
<pdfrwt beam="1">  1       -1 0.21056368E+00 0.14094514E+03</pdfrwt>
<totfact> 0.97095088E+02</totfact>
</mgrwt>
</event>
<event>
 8    1  0.1033707E-005  0.1339977E+03  0.7546771E-02  0.1234623E+00
          2   -1    0    0  501    0  0.00000000000E+00  0.00000000000E+00  0.50365759080E+03  0.50365759080E+03  0.00000000000E+00 0. -1.
         -2   -1    0    0    0  501 -0.00000000000E+00 -0.00000000000E+00 -0.28576089591E+02  0.28576089591E+02  0.00000000000E+00 0.  1.
         23    2    1    2    0    0 -0.40169284505E+02 -0.26763679588E+02  0.22323986721E+03  0.26036785800E+03  0.12500206880E+03 0.  0.
         23    2    1    2    0    0  0.40169284505E+02  0.26763679588E+02  0.25184163400E+03  0.27186582239E+03  0.90315839184E+02 0.  0.
          5    1    3    3  502    0 -0.60289174609E+02 -0.63709156864E+02  0.17750419083E+03  0.19804915805E+03  0.47000000000E+01 0.  1.
         -5    1    3    3    0  502  0.20119890103E+02  0.36945477276E+02  0.45735676378E+02  0.62318699943E+02  0.47000000000E+01 0.  1.
        -11    1    4    4    0    0  0.56895906741E+02  0.10031341698E+02  0.23699271284E+03  0.24393301942E+03  0.00000000000E+00 0. -1.
         11    1    4    4    0    0 -0.16726622236E+02  0.16732337890E+02  0.14848921154E+02  0.27932802976E+02  0.00000000000E+00 0.  1.
<mgrwt>
<rscale>  0 0.12528627E+03</rscale>
<asrwt>0</asrwt>
<pdfrwt beam="1">  1        2 0.77485777E-01 0.13399770E+03</pdfrwt>
<pdfrwt beam="2">  1       -2 0.43963219E-02 0.13399770E+03</pdfrwt>
<totfact> 0.13910506E+04</totfact>
</mgrwt>
</event>
<event>
 8    1  0.1033707E-005  0.1346269E+03  0.7546771E-02  0.1233071E+00
         -4   -1    0    0    0  501 -0.00000000000E+00  0.00000000000E+00  0.71986831545E+02  0.71986831545E+02  0.00000000000E+00 0.  1.
          4   -1    0    0  501    0  0.00000000000E+00 -0.00000000000E+00 -0.23538850304E+03  0.23538850304E+03  0.00000000000E+00 0. -1.
         23    2    1    2    0    0  0.31380677725E+02  0.38878682634E+02 -0.29744521135E+02  0.13787363322E+03  0.12501241259E+03 0.  0.
         23    2    1    2    0    0 -0.31380677725E+02 -0.38878682634E+02 -0.13365715037E+03  0.16950170137E+03  0.91489310992E+02 0.  0.
          5    1    3    3  502    0  0.57604949365E+02  0.55014576505E+02 -0.55714601509E+02  0.97319785453E+02  0.47000000000E+01 0. -1.
         -5    1    3    3    0  502 -0.26224271640E+02 -0.16135893871E+02  0.25970080374E+02  0.40553847767E+02  0.47000000000E+01 0. -1.
        -11    1    4    4    0    0  0.93324034039E+01  0.24478987298E+02 -0.19159132649E+02  0.32455922978E+02  0.00000000000E+00 0.  1.
         11    1    4    4    0    0 -0.40713081129E+02 -0.63357669933E+02 -0.11449801772E+03  0.13704577839E+03  0.00000000000E+00 0. -1.
<mgrwt>
<rscale>  0 0.12628756E+03</rscale>
<asrwt>0</asrwt>
<pdfrwt beam="2">  1        4 0.36213616E-01 0.13462690E+03</pdfrwt>
<pdfrwt beam="1">  1       -4 0.11074897E-01 0.13462690E+03</pdfrwt>
<totfact> 0.77892402E+02</totfact>
</mgrwt>
</event>
<event>
 8    1  0.1033707E-005  0.2156298E+03  0.7546771E-02  0.1140860E+00
         -1   -1    0    0    0  501 -0.00000000000E+00  0.00000000000E+00  0.23408353237E+03  0.23408353237E+03  0.00000000000E+00 0.  1.
          1   -1    0    0  501    0  0.00000000000E+00 -0.00000000000E+00 -0.18391465547E+03  0.18391465547E+03  0.00000000000E+00 0. -1.
         23    2    1    2    0    0 -0.15368231208E+03 -0.85162681060E+02  0.46889358347E+02  0.22066903514E+03  0.12500110341E+03 0.  0.
         23    2    1    2    0    0  0.15368231208E+03  0.85162681060E+02  0.32795185574E+01  0.19732915270E+03  0.89761372378E+02 0.  0.
          5    1    3    3  502    0 -0.80618326933E+02  0.19939575512E+02 -0.29302996093E+01  0.83232072934E+02  0.47000000000E+01 0.  1.
         -5    1    3    3    0  502 -0.73063985147E+02 -0.10510225657E+03  0.49819657956E+02  0.13743696221E+03  0.47000000000E+01 0.  1.
        -11    1    4    4    0    0  0.12116275716E+03  0.19076153694E+02  0.11618584783E+02  0.12320432166E+03  0.00000000000E+00 0.  1.
         11    1    4    4    0    0  0.32519554919E+02  0.66086527366E+02 -0.83390662260E+01  0.74124831042E+02  0.00000000000E+00 0. -1.
<mgrwt>
<rscale>  0 0.21089409E+03</rscale>
<asrwt>0</asrwt>
<pdfrwt beam="2">  1        1 0.28294562E-01 0.21562980E+03</pdfrwt>
<pdfrwt beam="1">  1       -1 0.36012851E-01 0.21562980E+03</pdfrwt>
<totfact> 0.12095310E+03</totfact>
</mgrwt>
</event>
<event>
 8    1  0.1033707E-005  0.1761554E+03  0.7546771E-02  0.1177345E+00
         -2   -1    0    0    0  501 -0.00000000000E+00  0.00000000000E+00  0.15464370102E+03  0.15464370102E+03  0.00000000000E+00 0.  1.
          2   -1    0    0  501    0  0.00000000000E+00 -0.00000000000E+00 -0.19979721227E+03  0.19979721227E+03  0.00000000000E+00 0. -1.
         23    2    1    2    0    0  0.14996465354E+02  0.12321147287E+03  0.36139677509E+02  0.17982436011E+03  0.12499905272E+03 0.  0.
         23    2    1    2    0    0 -0.14996465354E+02 -0.12321147287E+03 -0.81293188759E+02  0.17461655318E+03  0.92067350825E+02 0.  0.
          5    1    3    3  502    0 -0.17862307105E+02 -0.19697341834E+02 -0.49798848990E+01  0.27457904947E+02  0.47000000000E+01 0.  1.
         -5    1    3    3    0  502  0.32858772459E+02  0.14290881470E+03  0.41119562408E+02  0.15236645516E+03  0.47000000000E+01 0.  1.
        -11    1    4    4    0    0 -0.40112236010E+02 -0.83192140854E+02 -0.87178110783E+02  0.12700372741E+03  0.00000000000E+00 0. -1.
         11    1    4    4    0    0  0.25115770656E+02 -0.40019332013E+02  0.58849220247E+01  0.47612825769E+02  0.00000000000E+00 0.  1.
<mgrwt>
<rscale>  0 0.17048321E+03</rscale>
<asrwt>0</asrwt>
<pdfrwt beam="2">  1        2 0.30738033E-01 0.17615540E+03</pdfrwt>
<pdfrwt beam="1">  1       -2 0.23791338E-01 0.17615540E+03</pdfrwt>
<totfact> 0.25965900E+03</totfact>
</mgrwt>
</event>
<event>
 8    1  0.1033707E-005  0.1460332E+03  0.7546771E-02  0.1215005E+00
         -1   -1    0    0    0  501 -0.00000000000E+00  0.00000000000E+00  0.44255302411E+03  0.44255302411E+03  0.00000000000E+00 0.  1.
          1   -1    0    0  501    0  0.00000000000E+00 -0.00000000000E+00 -0.42698151088E+02  0.42698151088E+02  0.00000000000E+00 0. -1.
         23    2    1    2    0    0  0.74063506152E+02 -0.14689792701E+02  0.28288455509E+03  0.31835414367E+03  0.12499798529E+03 0.  0.
         23    2    1    2    0    0 -0.74063506152E+02  0.14689792701E+02  0.11697031793E+03  0.16689703153E+03  0.92040050545E+02 0.  0.
          5    1    3    3  502    0  0.88939875391E+02 -0.52617661266E+02  0.22234650533E+03  0.24523249814E+03  0.47000000000E+01 0.  1.
         -5    1    3    3    0  502 -0.14876369240E+02  0.37927868565E+02  0.60538049763E+02  0.73121645528E+02  0.47000000000E+01 0.  1.
        -11    1    4    4    0    0 -0.55522399505E+02  0.46135632091E+02  0.10696541088E+03  0.12904585433E+03  0.00000000000E+00 0.  1.
         11    1    4    4    0    0 -0.18541106647E+02 -0.31445839390E+02  0.10004907054E+02  0.37851177205E+02  0.00000000000E+00 0. -1.
<mgrwt>
<rscale>  0 0.13876173E+03</rscale>
<asrwt>0</asrwt>
<pdfrwt beam="2">  1        1 0.65689466E-02 0.14603318E+03</pdfrwt>
<pdfrwt beam="1">  1       -1 0.68085078E-01 0.14603318E+03</pdfrwt>
<totfact> 0.25087377E+03</totfact>
</mgrwt>
</event>
<event>
 8    1  0.1033707E-005  0.1893443E+03  0.7546771E-02  0.1163910E+00
         -1   -1    0    0    0  501 -0.00000000000E+00  0.00000000000E+00  0.22166262084E+03  0.22166262084E+03  0.00000000000E+00 0.  1.
          1   -1    0    0  501    0  0.00000000000E+00 -0.00000000000E+00 -0.14501762174E+03  0.14501762174E+03  0.00000000000E+00 0. -1.
         23    2    1    2    0    0 -0.34652691089E+02  0.13793091695E+03  0.44372287127E+02  0.19447403639E+03  0.12500201645E+03 0.  0.
         23    2    1    2    0    0  0.34652691089E+02 -0.13793091695E+03  0.32272711973E+02  0.17220620619E+03  0.91584401852E+02 0.  0.
          5    1    3    3  502    0 -0.53258328126E+02  0.33110357510E+02 -0.24611182129E+02  0.67531811578E+02  0.47000000000E+01 0. -1.
         -5    1    3    3    0  502  0.18605637038E+02  0.10482055944E+03  0.68983469256E+02  0.12694222482E+03  0.47000000000E+01 0. -1.
        -11    1    4    4    0    0  0.13896461076E+02 -0.66376605780E+02  0.62100303150E+02  0.91953320096E+02  0.00000000000E+00 0.  1.
         11    1    4    4    0    0  0.20756230013E+02 -0.71554311169E+02 -0.29827591177E+02  0.80252886096E+02  0.00000000000E+00 0. -1.
<mgrwt>
<rscale>  0 0.18408161E+03</rscale>
<asrwt>0</asrwt>
<pdfrwt beam="2">  1        1 0.22310403E-01 0.18934427E+03</pdfrwt>
<pdfrwt beam="1">  1       -1 0.34101942E-01 0.18934427E+03</pdfrwt>
<totfact> 0.17918736E+03</totfact>
</mgrwt>
</event>
<event>
 8    1  0.1033707E-005  0.2030392E+03  0.7546771E-02  0.1150937E+00
          1   -1    0    0  501    0  0.00000000000E+00  0.00000000000E+00  0.70117847908E+03  0.70117847908E+03  0.00000000000E+00 0. -1.
         -1   -1    0    0    0  501 -0.00000000000E+00 -0.00000000000E+00 -0.53939154410E+02  0.53939154410E+02  0.00000000000E+00 0.  1.
         23    2    1    2    0    0  0.71328959320E+02 -0.14322472526E+03  0.34671536421E+03  0.40179154075E+03  0.12499502418E+03 0.  0.
         23    2    1    2    0    0 -0.71328959320E+02  0.14322472526E+03  0.30052396045E+03  0.35332609274E+03  0.94464462311E+02 0.  0.
          5    1    3    3  502    0  0.59338550050E+02 -0.26295452956E+02  0.21760505042E+03  0.22712675390E+03  0.47000000000E+01 0. -1.
         -5    1    3    3    0  502  0.11990409271E+02 -0.11692927231E+03  0.12911031379E+03  0.17466478685E+03  0.47000000000E+01 0. -1.
        -11    1    4    4    0    0  0.10115168252E+02  0.84944864922E+02  0.14465078759E+03  0.16805295908E+03  0.00000000000E+00 0. -1.
         11    1    4    4    0    0 -0.81444127572E+02  0.58279860342E+02  0.15587317286E+03  0.18527313366E+03  0.00000000000E+00 0.  1.
<mgrwt>
<rscale>  0 0.19858711E+03</rscale>
<asrwt>0</asrwt>
<pdfrwt beam="1">  1        1 0.10787361E+00 0.20303915E+03</pdfrwt>
<pdfrwt beam="2">  1       -1 0.82983319E-02 0.20303915E+03</pdfrwt>
<totfact> 0.22729296E+03</totfact>
</mgrwt>
</event>
<event>
 8    1  0.1033707E-005  0.3071373E+03  0.7546771E-02  0.1083170E+00
          2   -1    0    0  501    0  0.00000000000E+00  0.00000000000E+00  0.10335469660E+03  0.10335469660E+03  0.00000000000E+00 0. -1.
         -2   -1    0    0    0  501 -0.00000000000E+00 -0.00000000000E+00 -0.10941527381E+04  0.10941527381E+04  0.00000000000E+00 0.  1.
         23    2    1    2    0    0 -0.17518425590E+03 -0.21914369592E+03 -0.76894726516E+03  0.82801762862E+03  0.12497925319E+03 0.  0.
         23    2    1    2    0    0  0.17518425590E+03  0.21914369592E+03 -0.22185077632E+03  0.36948980607E+03  0.92690165899E+02 0.  0.
          5    1    3    3  502    0  0.15391321149E+02 -0.23945016976E+02 -0.13158809529E+03  0.13471367201E+03  0.47000000000E+01 0. -1.
         -5    1    3    3    0  502 -0.19057557705E+03 -0.19519867895E+03 -0.63735916988E+03  0.69330395661E+03  0.47000000000E+01 0. -1.
        -11    1    4    4    0    0  0.16991721546E+03  0.15171711799E+03 -0.17385492989E+03  0.28655798828E+03  0.00000000000E+00 0.  1.
         11    1    4    4    0    0  0.52670404437E+01  0.67426577933E+02 -0.47995846427E+02  0.82931817784E+02  0.00000000000E+00 0. -1.
<mgrwt>
<rscale>  0 0.30417901E+03</rscale>
<asrwt>0</asrwt>
<pdfrwt beam="1">  1        2 0.15900721E-01 0.30713726E+03</pdfrwt>
<pdfrwt beam="2">  1       -2 0.16833120E+00 0.30713726E+03</pdfrwt>
<totfact> 0.84965404E+01</totfact>
</mgrwt>
</event>
<event>
 8    1  0.1033707E-005  0.1337356E+03  0.7546771E-02  0.1234839E+00
         -2   -1    0    0    0  501 -0.00000000000E+00  0.00000000000E+00  0.48960662244E+02  0.48960662244E+02  0.00000000000E+00 0.  1.
          2   -1    0    0  501    0  0.00000000000E+00 -0.00000000000E+00 -0.30881695463E+03  0.30881695463E+03  0.00000000000E+00 0. -1.
         23    2    1    2    0    0 -0.45464045801E+02 -0.13867463374E+02 -0.96566765924E+02  0.16495559790E+03  0.12500369193E+03 0.  0.
         23    2    1    2    0    0  0.45464045801E+02  0.13867463374E+02 -0.16328952646E+03  0.19282201898E+03  0.90871203080E+02 0.  0.
          5    1    3    3  502    0 -0.76006042057E+02 -0.44927430535E+02 -0.52571027164E+02  0.10286493737E+03  0.47000000000E+01 0.  1.
         -5    1    3    3    0  502  0.30541996256E+02  0.31059967161E+02 -0.43995738760E+02  0.62090660525E+02  0.47000000000E+01 0.  1.
        -11    1    4    4    0    0  0.31763386231E+01  0.40009292737E+02 -0.28691683670E+02  0.49336045081E+02  0.00000000000E+00 0.  1.
         11    1    4    4    0    0  0.42287707178E+02 -0.26141829364E+02 -0.13459784279E+03  0.14348597390E+03  0.00000000000E+00 0. -1.
<mgrwt>
<rscale>  0 0.12514717E+03</rscale>
<asrwt>0</asrwt>
<pdfrwt beam="2">  1        2 0.47510302E-01 0.13373559E+03</pdfrwt>
<pdfrwt beam="1">  1       -2 0.75324094E-02 0.13373559E+03</pdfrwt>
<totfact> 0.10401752E+04</totfact>
</mgrwt>
</event>
<event>
 8    1  0.1033707E-005  0.1250315E+03  0.7546771E-02  0.1249524E+00
         -2   -1    0    0    0  501 -0.00000000000E+00  0.00000000000E+00  0.57219192606E+02  0.57219192606E+02  0.00000000000E+00 0.  1.
          2   -1    0    0  501    0  0.00000000000E+00 -0.00000000000E+00 -0.26118417337E+03  0.26118417337E+03  0.00000000000E+00 0. -1.
         23    2    1    2    0    0  0.32042389448E+01  0.14619187825E+01 -0.42689370848E+02  0.13211834164E+03  0.12498187653E+03 0.  0.
         23    2    1    2    0    0 -0.32042389448E+01 -0.14619187825E+01 -0.16127560991E+03  0.18628502433E+03  0.93165892820E+02 0.  0.
          5    1    3    3  502    0 -0.24911569578E+02  0.18195696932E+01  0.38464295731E+02  0.46103027870E+02  0.47000000000E+01 0. -1.
         -5    1    3    3    0  502  0.28115808523E+02 -0.35765091069E+00 -0.81153666580E+02  0.86015313767E+02  0.47000000000E+01 0. -1.
        -11    1    4    4    0    0 -0.36374665326E+02 -0.30437893520E+02 -0.10150431244E+03  0.11203886417E+03  0.00000000000E+00 0. -1.
         11    1    4    4    0    0  0.33170426381E+02  0.28975974738E+02 -0.59771297469E+02  0.74246160166E+02  0.00000000000E+00 0.  1.
<mgrwt>
<rscale>  0 0.11618667E+03</rscale>
<asrwt>0</asrwt>
<pdfrwt beam="2">  1        2 0.40182180E-01 0.12503149E+03</pdfrwt>
<pdfrwt beam="1">  1       -2 0.88029528E-02 0.12503149E+03</pdfrwt>
<totfact> 0.97118621E+03</totfact>
</mgrwt>
</event>
<event>
 8    1  0.1033707E-005  0.1396144E+03  0.7546771E-02  0.1224895E+00
         -4   -1    0    0    0  501 -0.00000000000E+00  0.00000000000E+00  0.19077815392E+03  0.19077815392E+03  0.00000000000E+00 0.  1.
          4   -1    0    0  501    0  0.00000000000E+00 -0.00000000000E+00 -0.13038900674E+03  0.13038900674E+03  0.00000000000E+00 0. -1.
         23    2    1    2    0    0 -0.29754999343E+02 -0.54578023620E+02  0.12970639195E+03  0.19056736839E+03  0.12501221193E+03 0.  0.
         23    2    1    2    0    0  0.29754999343E+02  0.54578023620E+02 -0.69317244773E+02  0.13059979227E+03  0.91582229001E+02 0.  0.
          5    1    3    3  502    0  0.43242076483E+02 -0.48952102641E+02  0.51266787956E+02  0.83165852842E+02  0.47000000000E+01 0.  1.
         -5    1    3    3    0  502 -0.72997075826E+02 -0.56259209787E+01  0.78439603997E+02  0.10740151554E+03  0.47000000000E+01 0.  1.
        -11    1    4    4    0    0  0.38860563115E+02  0.62318231167E+02 -0.84058821971E+02  0.11162253739E+03  0.00000000000E+00 0. -1.
         11    1    4    4    0    0 -0.91055637720E+01 -0.77402075471E+01  0.14741577198E+02  0.18977254880E+02  0.00000000000E+00 0.  1.
<mgrwt>
<rscale>  0 0.13174099E+03</rscale>
<asrwt>0</asrwt>
<pdfrwt beam="2">  1        4 0.20059847E-01 0.13961438E+03</pdfrwt>
<pdfrwt beam="1">  1       -4 0.29350485E-01 0.13961438E+03</pdfrwt>
<totfact> 0.41532805E+02</totfact>
</mgrwt>
</event>
<event>
 8    1  0.1033707E-005  0.1381440E+03  0.7546771E-02  0.1228276E+00
          2   -1    0    0  501    0  0.00000000000E+00  0.00000000000E+00  0.61634679000E+02  0.61634679000E+02  0.00000000000E+00 0.  1.
         -2   -1    0    0    0  501 -0.00000000000E+00 -0.00000000000E+00 -0.24674036236E+03  0.24674036236E+03  0.00000000000E+00 0. -1.
         23    2    1    2    0    0  0.24397712124E+02 -0.53509222446E+02 -0.12368769939E+03  0.18542497467E+03  0.12500115602E+03 0.  0.
         23    2    1    2    0    0 -0.24397712124E+02  0.53509222446E+02 -0.61417983969E+02  0.12295006669E+03  0.88803518514E+02 0.  0.
          5    1    3    3  502    0  0.67111779919E+02  0.27471693276E+01 -0.58686171764E+02  0.89317941645E+02  0.47000000000E+01 0.  1.
         -5    1    3    3    0  502 -0.42714067795E+02 -0.56256391773E+02 -0.65001527623E+02  0.96107033022E+02  0.47000000000E+01 0.  1.
        -11    1    4    4    0    0 -0.12947318209E+02 -0.16115652916E+02  0.96406407365E+01  0.22809850318E+02  0.00000000000E+00 0.  1.
         11    1    4    4    0    0 -0.11450393916E+02  0.69624875362E+02 -0.71058624706E+02  0.10014021637E+03  0.00000000000E+00 0. -1.
<mgrwt>
<rscale>  0 0.12944865E+03</rscale>
<asrwt>0</asrwt>
<pdfrwt beam="1">  1        2 0.94822582E-02 0.13814403E+03</pdfrwt>
<pdfrwt beam="2">  1       -2 0.37960056E-01 0.13814403E+03</pdfrwt>
<totfact> 0.43071643E+03</totfact>
</mgrwt>
</event>
<event>
 8    1  0.1033707E-005  0.1142108E+03  0.7546771E-02  0.1263453E+00
         -1   -1    0    0    0  501 -0.00000000000E+00  0.00000000000E+00  0.26976252016E+02  0.26976252016E+02  0.00000000000E+00 0.  1.
          1   -1    0    0  501    0  0.00000000000E+00 -0.00000000000E+00 -0.39904503998E+03  0.39904503998E+03  0.00000000000E+00 0. -1.
         23    2    1    2    0    0  0.11122580484E+02 -0.21862217753E+02 -0.21853563310E+03  0.24658047285E+03  0.11154567807E+03 0.  0.
         23    2    1    2    0    0 -0.11122580484E+02  0.21862217753E+02 -0.15353315487E+03  0.17944081915E+03  0.89581859606E+02 0.  0.
          5    1    3    3  502    0 -0.31918669135E+02 -0.48339487018E+02 -0.15317455531E+03  0.16382930702E+03  0.47000000000E+01 0. -1.
         -5    1    3    3    0  502  0.43041249619E+02  0.26477269266E+02 -0.65361077784E+02  0.82751165826E+02  0.47000000000E+01 0.  1.
        -11    1    4    4    0    0 -0.46821687260E+02  0.17628620260E+02 -0.12108271808E+03  0.13101169134E+03  0.00000000000E+00 0. -1.
         11    1    4    4    0    0  0.35699106777E+02  0.42335974922E+01 -0.32450436791E+02  0.48429127809E+02  0.00000000000E+00 0.  1.
<mgrwt>
<rscale>  0 0.10845765E+03</rscale>
<asrwt>0</asrwt>
<pdfrwt beam="2">  1        1 0.61391544E-01 0.11421080E+03</pdfrwt>
<pdfrwt beam="1">  1       -1 0.41501927E-02 0.11421080E+03</pdfrwt>
<totfact> 0.13169434E+04</totfact>
</mgrwt>
</event>
<event>
 8    1  0.1033707E-005  0.2888155E+03  0.7546771E-02  0.1091167E+00
          3   -1    0    0  501    0  0.00000000000E+00  0.00000000000E+00  0.14380236700E+03  0.14380236700E+03  0.00000000000E+00 0. -1.
         -3   -1    0    0    0  501 -0.00000000000E+00 -0.00000000000E+00 -0.67079597030E+03  0.67079597030E+03  0.00000000000E+00 0.  1.
         23    2    1    2    0    0  0.18641836290E+03 -0.18176002231E+03 -0.41635580881E+03  0.50672135423E+03  0.12500343824E+03 0.  0.
         23    2    1    2    0    0 -0.18641836290E+03  0.18176002231E+03 -0.11063779449E+03  0.30787698307E+03  0.12148663875E+03 0.  0.
          5    1    3    3  502    0  0.11173281183E+03 -0.24318285596E+02 -0.16959214635E+03  0.20459517677E+03  0.47000000000E+01 0. -1.
         -5    1    3    3    0  502  0.74685551067E+02 -0.15744173672E+03 -0.24676366246E+03  0.30212617746E+03  0.47000000000E+01 0. -1.
        -11    1    4    4    0    0 -0.79441408475E+01  0.35373615092E+02 -0.62239216135E+02  0.72028619615E+02  0.00000000000E+00 0.  1.
         11    1    4    4    0    0 -0.17847422205E+03  0.14638640722E+03 -0.48398578357E+02  0.23584836345E+03  0.00000000000E+00 0. -1.
<mgrwt>
<rscale>  0 0.28843857E+03</rscale>
<asrwt>0</asrwt>
<pdfrwt beam="1">  1        3 0.22123441E-01 0.28881546E+03</pdfrwt>
<pdfrwt beam="2">  1       -3 0.10319938E+00 0.28881546E+03</pdfrwt>
<totfact> 0.39423368E+01</totfact>
</mgrwt>
</event>
<event>
 8    1  0.1033707E-005  0.1338820E+03  0.7546771E-02  0.1233617E+00
          1   -1    0    0  501    0  0.00000000000E+00  0.00000000000E+00  0.35565227707E+02  0.35565227707E+02  0.00000000000E+00 0. -1.
         -1   -1    0    0    0  501 -0.00000000000E+00 -0.00000000000E+00 -0.46494168359E+03  0.46494168359E+03  0.00000000000E+00 0.  1.
         23    2    1    2    0    0  0.47401413992E+02  0.70958055585E+01 -0.14463370457E+03  0.19708706246E+03  0.12500862845E+03 0.  0.
         23    2    1    2    0    0 -0.47401413992E+02 -0.70958055585E+01 -0.28474275132E+03  0.30341984884E+03  0.93209043207E+02 0.  0.
          5    1    3    3  502    0  0.17269573067E+02 -0.58684165430E+02 -0.64435611790E+02  0.88972509759E+02  0.47000000000E+01 0. -1.
         -5    1    3    3    0  502  0.30131840925E+02  0.65779970989E+02 -0.80198092776E+02  0.10811455270E+03  0.47000000000E+01 0. -1.
        -11    1    4    4    0    0  0.10410572774E+02  0.32382946402E+02 -0.11130396499E+03  0.11638559991E+03  0.00000000000E+00 0. -1.
         11    1    4    4    0    0 -0.57811986766E+02 -0.39478751961E+02 -0.17343878632E+03  0.18703424893E+03  0.00000000000E+00 0.  1.
<mgrwt>
<rscale>  0 0.12593388E+03</rscale>
<asrwt>0</asrwt>
<pdfrwt beam="1">  1        1 0.54715736E-02 0.13388204E+03</pdfrwt>
<pdfrwt beam="2">  1       -1 0.71529488E-01 0.13388204E+03</pdfrwt>
<totfact> 0.29047313E+03</totfact>
</mgrwt>
</event>
<event>
 8    1  0.1033707E-005  0.1402160E+03  0.7546771E-02  0.1224222E+00
         -2   -1    0    0    0  501 -0.00000000000E+00  0.00000000000E+00  0.28359798455E+03  0.28359798455E+03  0.00000000000E+00 0.  1.
          2   -1    0    0  501    0  0.00000000000E+00 -0.00000000000E+00 -0.93030329800E+02  0.93030329800E+02  0.00000000000E+00 0. -1.
         23    2    1    2    0    0  0.23265842707E+02  0.59123243240E+02  0.22098780735E+03  0.26171765560E+03  0.12499465160E+03 0.  0.
         23    2    1    2    0    0 -0.23265842707E+02 -0.59123243240E+02 -0.30420152598E+02  0.11491065875E+03  0.90786653653E+02 0.  0.
          5    1    3    3  502    0  0.71626691351E+02  0.20302972338E+02  0.14867160983E+03  0.16633680041E+03  0.47000000000E+01 0. -1.
         -5    1    3    3    0  502 -0.48360848644E+02  0.38820270902E+02  0.72316197513E+02  0.95380855192E+02  0.47000000000E+01 0. -1.
        -11    1    4    4    0    0 -0.12582266671E+02  0.46239288703E+01 -0.46425687383E+02  0.48322237136E+02  0.00000000000E+00 0. -1.
         11    1    4    4    0    0 -0.10683576036E+02 -0.63747172110E+02  0.16005534785E+02  0.66588421612E+02  0.00000000000E+00 0.  1.
<mgrwt>
<rscale>  0 0.13220377E+03</rscale>
<asrwt>0</asrwt>
<pdfrwt beam="2">  1        2 0.14312359E-01 0.14021598E+03</pdfrwt>
<pdfrwt beam="1">  1       -2 0.43630459E-01 0.14021598E+03</pdfrwt>
<totfact> 0.20133572E+03</totfact>
</mgrwt>
</event>
<event>
 7    1  0.1033707E-005  0.4638140E+03  0.7546771E-02  0.1074796E+00
         -1   -1    0    0    0  501 -0.00000000000E+00  0.00000000000E+00  0.26279086153E+03  0.26279086153E+03  0.00000000000E+00 0.  1.
          1   -1    0    0  501    0  0.00000000000E+00 -0.00000000000E+00 -0.38887754729E+03  0.38887754729E+03  0.00000000000E+00 0. -1.
         23    2    1    2    0    0  0.49395501411E+02  0.28434242449E+02 -0.15305792616E+03  0.18707083668E+03  0.91215938693E+02 0.  0.
          5    1    1    2  502    0 -0.15602002388E+03 -0.16854547283E+03 -0.96845532227E+02  0.24930096545E+03  0.47000000000E+01 0. -1.
         -5    1    1    2    0  502  0.10662452247E+03  0.14011123038E+03  0.12381677262E+03  0.21529660669E+03  0.47000000000E+01 0.  1.
        -11    1    3    3    0    0 -0.87315902582E+01 -0.25122440744E+02 -0.24509115310E+02  0.36167311631E+02  0.00000000000E+00 0. -1.
         11    1    3    3    0    0  0.58127091670E+02  0.53556683193E+02 -0.12854881085E+03  0.15090352504E+03  0.00000000000E+00 0.  1.
<mgrwt>
<rscale>  0 0.32186133E+03</rscale>
<asrwt>0</asrwt>
<pdfrwt beam="2">  1        1 0.59827315E-01 0.46381403E+03</pdfrwt>
<pdfrwt beam="1">  1       -1 0.40429363E-01 0.46381403E+03</pdfrwt>
<totfact> 0.37933293E+02</totfact>
</mgrwt>
</event>
<event>
 8    1  0.1033707E-005  0.1803983E+03  0.7546771E-02  0.1172970E+00
          1   -1    0    0  501    0  0.00000000000E+00  0.00000000000E+00  0.80478324899E+03  0.80478324899E+03  0.00000000000E+00 0. -1.
         -1   -1    0    0    0  501 -0.00000000000E+00 -0.00000000000E+00 -0.35782093431E+02  0.35782093431E+02  0.00000000000E+00 0.  1.
         23    2    1    2    0    0 -0.23742785860E+02  0.12788131323E+03  0.41924853244E+03  0.45641307594E+03  0.12500485503E+03 0.  0.
         23    2    1    2    0    0  0.23742785860E+02 -0.12788131323E+03  0.34975262312E+03  0.38415226649E+03  0.91261800950E+02 0.  0.
          5    1    3    3  502    0  0.12138622538E+02  0.12402133808E+03  0.39081890305E+03  0.41023181671E+03  0.47000000000E+01 0.  1.
         -5    1    3    3    0  502 -0.35881408398E+02  0.38599751440E+01  0.28429629385E+02  0.46181259227E+02  0.47000000000E+01 0.  1.
        -11    1    4    4    0    0 -0.23299103254E+02 -0.71204505647E+02  0.24425183755E+03  0.25548363937E+03  0.00000000000E+00 0.  1.
         11    1    4    4    0    0  0.47041889114E+02 -0.56676807579E+02  0.10550078557E+03  0.12866862712E+03  0.00000000000E+00 0. -1.
<mgrwt>
<rscale>  0 0.17476265E+03</rscale>
<asrwt>0</asrwt>
<pdfrwt beam="1">  1        1 0.12381279E+00 0.18039835E+03</pdfrwt>
<pdfrwt beam="2">  1       -1 0.55049380E-02 0.18039835E+03</pdfrwt>
<totfact> 0.34314179E+03</totfact>
</mgrwt>
</event>
<event>
 8    1  0.1033707E-005  0.1636045E+03  0.7546771E-02  0.1191775E+00
         -4   -1    0    0    0  501 -0.00000000000E+00  0.00000000000E+00  0.27845583660E+03  0.27845583660E+03  0.00000000000E+00 0.  1.
          4   -1    0    0  501    0  0.00000000000E+00 -0.00000000000E+00 -0.83333521612E+02  0.83333521612E+02  0.00000000000E+00 0. -1.
         23    2    1    2    0    0  0.25632372881E+02 -0.10240184394E+03  0.12138216464E+03  0.20371564689E+03  0.12499311466E+03 0.  0.
         23    2    1    2    0    0 -0.25632372881E+02  0.10240184394E+03  0.73740150342E+02  0.15807371132E+03  0.91687143351E+02 0.  0.
          5    1    3    3  502    0  0.26160970405E+02 -0.22075563391E+02 -0.20810225911E+02  0.40334629960E+02  0.47000000000E+01 0. -1.
         -5    1    3    3    0  502 -0.52859752424E+00 -0.80326280548E+02  0.14219239055E+03  0.16338101693E+03  0.47000000000E+01 0. -1.
        -11    1    4    4    0    0 -0.52639877694E+02  0.66307866013E+02  0.74813543935E+02  0.11298122045E+03  0.00000000000E+00 0.  1.
         11    1    4    4    0    0  0.27007504812E+02  0.36093977925E+02 -0.10733935929E+01  0.45092490866E+02  0.00000000000E+00 0. -1.
<mgrwt>
<rscale>  0 0.15730370E+03</rscale>
<asrwt>0</asrwt>
<pdfrwt beam="2">  1        4 0.12820542E-01 0.16360451E+03</pdfrwt>
<pdfrwt beam="1">  1       -4 0.42839359E-01 0.16360451E+03</pdfrwt>
<totfact> 0.45215755E+02</totfact>
</mgrwt>
</event>
<event>
 8    1  0.1033707E-005  0.1415672E+03  0.7546771E-02  0.1222204E+00
          4   -1    0    0  501    0  0.00000000000E+00  0.00000000000E+00  0.15868923020E+03  0.15868923020E+03  0.00000000000E+00 0. -1.
         -4   -1    0    0    0  501 -0.00000000000E+00 -0.00000000000E+00 -0.11726400448E+03  0.11726400448E+03  0.00000000000E+00 0.  1.
         23    2    1    2    0    0  0.66148281926E+02  0.64494085226E+01 -0.27461348025E+02  0.14420607120E+03  0.12499630100E+03 0.  0.
         23    2    1    2    0    0 -0.66148281926E+02 -0.64494085226E+01  0.68886573738E+02  0.13174716347E+03  0.90524941149E+02 0.  0.
          5    1    3    3  502    0 -0.23647580169E+02 -0.34829044295E+02 -0.42003224180E+01  0.42567629517E+02  0.47000000000E+01 0. -1.
         -5    1    3    3    0  502  0.89795862095E+02  0.41278452817E+02 -0.23261025607E+02  0.10163844169E+03  0.47000000000E+01 0. -1.
        -11    1    4    4    0    0 -0.42377613939E+02 -0.43549360360E+02  0.15855457893E+02  0.62799717324E+02  0.00000000000E+00 0.  1.
         11    1    4    4    0    0 -0.23770667987E+02  0.37099951837E+02  0.53031115845E+02  0.68947446150E+02  0.00000000000E+00 0. -1.
<mgrwt>
<rscale>  0 0.13360408E+03</rscale>
<asrwt>0</asrwt>
<pdfrwt beam="1">  1        4 0.24413728E-01 0.14156718E+03</pdfrwt>
<pdfrwt beam="2">  1       -4 0.18040616E-01 0.14156718E+03</pdfrwt>
<totfact> 0.70973486E+02</totfact>
</mgrwt>
</event>
<event>
 8    1  0.1033707E-005  0.1265841E+03  0.7546771E-02  0.1247038E+00
          4   -1    0    0  501    0  0.00000000000E+00  0.00000000000E+00  0.14252795690E+03  0.14252795690E+03  0.00000000000E+00 0.  1.
         -4   -1    0    0    0  501 -0.00000000000E+00 -0.00000000000E+00 -0.96076863519E+02  0.96076863519E+02  0.00000000000E+00 0. -1.
         23    2    1    2    0    0  0.25667777282E+01 -0.19811590657E+02 -0.12632960948E+02  0.12721287828E+03  0.12499774888E+03 0.  0.
         23    2    1    2    0    0 -0.25667777282E+01  0.19811590657E+02  0.59084054327E+02  0.11139194214E+03  0.92293834167E+02 0.  0.
          5    1    3    3  502    0  0.47659458785E+02  0.31515920666E+02  0.12166801149E+01  0.57343243522E+02  0.47000000000E+01 0.  1.
         -5    1    3    3    0  502 -0.45092681056E+02 -0.51327511323E+02 -0.13849641063E+02  0.69869634757E+02  0.47000000000E+01 0.  1.
        -11    1    4    4    0    0 -0.33338513974E+02  0.42903723865E+02  0.44558882603E+02  0.70268627810E+02  0.00000000000E+00 0.  1.
         11    1    4    4    0    0  0.30771736246E+02 -0.23092133208E+02  0.14525171724E+02  0.41123314328E+02  0.00000000000E+00 0. -1.
<mgrwt>
<rscale>  0 0.11764218E+03</rscale>
<asrwt>0</asrwt>
<pdfrwt beam="1">  1        4 0.21927378E-01 0.12658406E+03</pdfrwt>
<pdfrwt beam="2">  1       -4 0.14781056E-01 0.12658406E+03</pdfrwt>
<totfact> 0.11984177E+03</totfact>
</mgrwt>
</event>
<event>
 7    1  0.1033707E-005  0.2377185E+03  0.7546771E-02  0.1131561E+00
         -2   -1    0    0    0  501 -0.00000000000E+00  0.00000000000E+00  0.10590924314E+03  0.10590924314E+03  0.00000000000E+00 0.  1.
          2   -1    0    0  501    0  0.00000000000E+00 -0.00000000000E+00 -0.85850037134E+03  0.85850037134E+03  0.00000000000E+00 0. -1.
         23    2    1    2    0    0 -0.16078571902E+03 -0.22201969466E+01 -0.69598909680E+03  0.72004536071E+03  0.90595374574E+02 0.  0.
          5    1    1    2  502    0  0.75372219396E+01 -0.63239347657E+02 -0.43235417194E+02  0.77119492391E+02  0.47000000000E+01 0. -1.
         -5    1    1    2    0  502  0.15324849708E+03  0.65459544604E+02 -0.13366614206E+02  0.16724476139E+03  0.47000000000E+01 0.  1.
        -11    1    3    3    0    0 -0.57005734359E+02 -0.43658881238E+02 -0.30990544752E+03  0.31811497617E+03  0.00000000000E+00 0. -1.
         11    1    3    3    0    0 -0.10377998466E+03  0.41438684292E+02 -0.38608364928E+03  0.40193038454E+03  0.00000000000E+00 0.  1.
<mgrwt>
<rscale>  0 0.22314390E+03</rscale>
<asrwt>0</asrwt>
<pdfrwt beam="2">  1        2 0.13207698E+00 0.23771853E+03</pdfrwt>
<pdfrwt beam="1">  1       -2 0.16293729E-01 0.23771853E+03</pdfrwt>
<totfact> 0.96714994E+02</totfact>
</mgrwt>
</event>
<event>
 8    1  0.1033707E-005  0.2493487E+03  0.7546771E-02  0.1116385E+00
          2   -1    0    0  501    0  0.00000000000E+00  0.00000000000E+00  0.37564644421E+03  0.37564644421E+03  0.00000000000E+00 0. -1.
         -2   -1    0    0    0  501 -0.00000000000E+00 -0.00000000000E+00 -0.17586381917E+03  0.17586381917E+03  0.00000000000E+00 0.  1.
         23    2    1    2    0    0 -0.83092951613E+02  0.19910975246E+03  0.77212742151E+01  0.24946822609E+03  0.12500258244E+03 0.  0.
         23    2    1    2    0    0  0.83092951613E+02 -0.19910975246E+03  0.19206135082E+03  0.30204203730E+03  0.88276257747E+02 0.  0.
          5    1    3    3  502    0  0.47644056009E+01  0.45700785875E+02  0.49551722268E+02  0.67740125259E+02  0.47000000000E+01 0.  1.
         -5    1    3    3    0  502 -0.87857357213E+02  0.15340896659E+03 -0.41830448053E+02  0.18172810083E+03  0.47000000000E+01 0.  1.
        -11    1    4    4    0    0  0.84291533446E+02 -0.18427112997E+03  0.20038798413E+03  0.28498465948E+03  0.00000000000E+00 0.  1.
         11    1    4    4    0    0 -0.11985818336E+01 -0.14838622492E+02 -0.83266333110E+01  0.17057377822E+02  0.00000000000E+00 0. -1.
<mgrwt>
<rscale>  0 0.24518682E+03</rscale>
<asrwt>0</asrwt>
<pdfrwt beam="1">  1        2 0.57791761E-01 0.24934871E+03</pdfrwt>
<pdfrwt beam="2">  1       -2 0.27055972E-01 0.24934871E+03</pdfrwt>
<totfact> 0.10556445E+03</totfact>
</mgrwt>
</event>
<event>
 8    1  0.1033707E-005  0.1321901E+03  0.7546771E-02  0.1238567E+00
         -1   -1    0    0    0  501 -0.00000000000E+00  0.00000000000E+00  0.20682095014E+03  0.20682095014E+03  0.00000000000E+00 0.  1.
          1   -1    0    0  501    0  0.00000000000E+00 -0.00000000000E+00 -0.68533892213E+02  0.68533892213E+02  0.00000000000E+00 0. -1.
         23    2    1    2    0    0 -0.31876929660E+02 -0.28880321286E+02  0.11261072289E+03  0.17365308870E+03  0.12499603475E+03 0.  0.
         23    2    1    2    0    0  0.31876929660E+02  0.28880321286E+02  0.25676335034E+02  0.10170175365E+03  0.88508535815E+02 0.  0.
          5    1    3    3  502    0 -0.35748934333E+02  0.34328536556E+02  0.67960591748E+01  0.50246503841E+02  0.47000000000E+01 0.  1.
         -5    1    3    3    0  502  0.38720046732E+01 -0.63208857841E+02  0.10581466371E+03  0.12340658486E+03  0.47000000000E+01 0.  1.
        -11    1    4    4    0    0  0.10644849021E+02 -0.20609922491E+02  0.39765575673E+02  0.46036754060E+02  0.00000000000E+00 0.  1.
         11    1    4    4    0    0  0.21232080638E+02  0.49490243776E+02 -0.14089240639E+02  0.55664999587E+02  0.00000000000E+00 0. -1.
<mgrwt>
<rscale>  0 0.12278798E+03</rscale>
<asrwt>0</asrwt>
<pdfrwt beam="2">  1        1 0.10543676E-01 0.13219009E+03</pdfrwt>
<pdfrwt beam="1">  1       -1 0.31818607E-01 0.13219009E+03</pdfrwt>
<totfact> 0.52450268E+03</totfact>
</mgrwt>
</event>
<event>
 8    1  0.1237981E-005  0.2679870E+03  0.7546771E-02  0.1104503E+00
         -1   -1    0    0    0  501 -0.00000000000E+00  0.00000000000E+00  0.28915863188E+04  0.28915863188E+04  0.00000000000E+00 0.  1.
          1   -1    0    0  501    0  0.00000000000E+00 -0.00000000000E+00 -0.26461821602E+02  0.26461821602E+02  0.00000000000E+00 0. -1.
         23    2    1    2    0    0 -0.21217494101E+03 -0.10570710392E+03  0.19490979530E+04  0.19674348458E+04  0.12499937900E+03 0.  0.
         23    2    1    2    0    0  0.21217494101E+03  0.10570710392E+03  0.91602654421E+03  0.95061329460E+03  0.91481193399E+02 0.  0.
          5    1    3    3  502    0 -0.12506505943E+03 -0.12546419998E+03  0.13845438923E+04  0.13958389643E+04  0.47000000000E+01 0.  1.
         -5    1    3    3    0  502 -0.87109881583E+02  0.19757096055E+02  0.56455406067E+03  0.57159588149E+03  0.47000000000E+01 0.  1.
        -11    1    4    4    0    0  0.10235942140E+03  0.10164841523E+01  0.37093065283E+03  0.38479609353E+03  0.00000000000E+00 0.  1.
         11    1    4    4    0    0  0.10981551961E+03  0.10469061977E+03  0.54509589139E+03  0.56581720106E+03  0.00000000000E+00 0. -1.
<mgrwt>
<rscale>  0 0.26444271E+03</rscale>
<asrwt>0</asrwt>
<pdfrwt beam="2">  1        1 0.40710518E-02 0.26798702E+03</pdfrwt>
<pdfrwt beam="1">  1       -1 0.44485918E+00 0.26798702E+03</pdfrwt>
<totfact> 0.96760356E+00</totfact>
</mgrwt>
</event>
<event>
 8    1  0.1033707E-005  0.1286520E+03  0.7546771E-02  0.1243967E+00
          1   -1    0    0  501    0  0.00000000000E+00  0.00000000000E+00  0.53360534144E+02  0.53360534144E+02  0.00000000000E+00 0. -1.
         -1   -1    0    0    0  501 -0.00000000000E+00 -0.00000000000E+00 -0.23740714442E+03  0.23740714442E+03  0.00000000000E+00 0.  1.
         23    2    1    2    0    0  0.30321697473E+02  0.23873048628E+01 -0.11733314863E+03  0.17412179400E+03  0.12500490716E+03 0.  0.
         23    2    1    2    0    0 -0.30321697473E+02 -0.23873048628E+01 -0.66713461638E+02  0.11664588456E+03  0.90721948059E+02 0.  0.
          5    1    3    3  502    0  0.74782978413E+02 -0.91196548568E+01 -0.98893614857E+02  0.12440940087E+03  0.47000000000E+01 0.  1.
         -5    1    3    3    0  502 -0.44461280939E+02  0.11506959720E+02 -0.18439533778E+02  0.49712393130E+02  0.47000000000E+01 0.  1.
        -11    1    4    4    0    0  0.31417389811E+02 -0.11101714604E+02 -0.24137481757E+02  0.41145090536E+02  0.00000000000E+00 0.  1.
         11    1    4    4    0    0 -0.61739087284E+02  0.87144097410E+01 -0.42575979882E+02  0.75500794027E+02  0.00000000000E+00 0. -1.
<mgrwt>
<rscale>  0 0.11947391E+03</rscale>
<asrwt>0</asrwt>
<pdfrwt beam="1">  1        1 0.82093129E-02 0.12865198E+03</pdfrwt>
<pdfrwt beam="2">  1       -1 0.36524176E-01 0.12865198E+03</pdfrwt>
<totfact> 0.57687214E+03</totfact>
</mgrwt>
</event>
<event>
 8    1  0.1033707E-005  0.2861776E+03  0.7546771E-02  0.1094054E+00
         -2   -1    0    0    0  501 -0.00000000000E+00  0.00000000000E+00  0.14535113915E+03  0.14535113915E+03  0.00000000000E+00 0.  1.
          2   -1    0    0  501    0  0.00000000000E+00 -0.00000000000E+00 -0.62605955005E+03  0.62605955005E+03  0.00000000000E+00 0. -1.
         23    2    1    2    0    0  0.74945158904E+02 -0.24628618541E+03 -0.10132936259E+03  0.30358736211E+03  0.12499593891E+03 0.  0.
         23    2    1    2    0    0 -0.74945158904E+02  0.24628618541E+03 -0.37937904832E+03  0.46782332709E+03  0.93040534707E+02 0.  0.
          5    1    3    3  502    0 -0.67859253016E+01 -0.95301324570E+02  0.14042874928E+02  0.96683419382E+02  0.47000000000E+01 0. -1.
         -5    1    3    3    0  502  0.81731084205E+02 -0.15098486084E+03 -0.11537223752E+03  0.20690394273E+03  0.47000000000E+01 0. -1.
        -11    1    4    4    0    0 -0.15043426970E+02  0.18241966914E+03 -0.22202406190E+03  0.28774628486E+03  0.00000000000E+00 0.  1.
         11    1    4    4    0    0 -0.59901731934E+02  0.63866516265E+02 -0.15735498642E+03  0.18007704223E+03  0.00000000000E+00 0. -1.
<mgrwt>
<rscale>  0 0.28301464E+03</rscale>
<asrwt>0</asrwt>
<pdfrwt beam="2">  1        2 0.96316855E-01 0.28617765E+03</pdfrwt>
<pdfrwt beam="1">  1       -2 0.22361714E-01 0.28617765E+03</pdfrwt>
<totfact> 0.83292692E+02</totfact>
</mgrwt>
</event>
<event>
 8    1  0.1033707E-005  0.1376176E+03  0.7546771E-02  0.1227922E+00
         -3   -1    0    0    0  501 -0.00000000000E+00  0.00000000000E+00  0.62854645621E+03  0.62854645621E+03  0.00000000000E+00 0.  1.
          3   -1    0    0  501    0  0.00000000000E+00 -0.00000000000E+00 -0.34320263560E+02  0.34320263560E+02  0.00000000000E+00 0. -1.
         23    2    1    2    0    0 -0.53745846563E+02  0.20740963274E+02  0.50175196728E+03  0.52028228244E+03  0.12497925097E+03 0.  0.
         23    2    1    2    0    0  0.53745846563E+02 -0.20740963274E+02  0.92474225364E+02  0.14258443732E+03  0.91978453075E+02 0.  0.
          5    1    3    3  502    0  0.35323415539E+01  0.11527915148E+02  0.41850831549E+03  0.41870833572E+03  0.47000000000E+01 0. -1.
         -5    1    3    3    0  502 -0.57278188117E+02  0.92130481261E+01  0.83243651792E+02  0.10157394673E+03  0.47000000000E+01 0. -1.
        -11    1    4    4    0    0  0.73626479226E+02 -0.15715928700E+02  0.95766747775E+02  0.12181592194E+03  0.00000000000E+00 0.  1.
         11    1    4    4    0    0 -0.19880632663E+02 -0.50250345739E+01 -0.32925224105E+01  0.20768515387E+02  0.00000000000E+00 0. -1.
<mgrwt>
<rscale>  0 0.12968609E+03</rscale>
<asrwt>0</asrwt>
<pdfrwt beam="2">  1        3 0.52800410E-02 0.13761765E+03</pdfrwt>
<pdfrwt beam="1">  1       -3 0.96699447E-01 0.13761765E+03</pdfrwt>
<totfact> 0.47489671E+02</totfact>
</mgrwt>
</event>
<event>
 8    1  0.1033707E-005  0.1250899E+03  0.7546771E-02  0.1252296E+00
         -1   -1    0    0    0  501 -0.00000000000E+00  0.00000000000E+00  0.35028307471E+03  0.35028307471E+03  0.00000000000E+00 0.  1.
          1   -1    0    0  501    0  0.00000000000E+00 -0.00000000000E+00 -0.40249559370E+02  0.40249559370E+02  0.00000000000E+00 0. -1.
         23    2    1    2    0    0 -0.91518884419E+00  0.50907854514E+01  0.26168097003E+03  0.29004209913E+03  0.12498294095E+03 0.  0.
         23    2    1    2    0    0  0.91518884419E+00 -0.50907854514E+01  0.48352545308E+02  0.10049053494E+03  0.87941033131E+02 0.  0.
          5    1    3    3  502    0 -0.29286146765E+02  0.46074718600E+02  0.55977935000E+02  0.78333755772E+02  0.47000000000E+01 0. -1.
         -5    1    3    3    0  502  0.28370957921E+02 -0.40983933149E+02  0.20570303503E+03  0.21170834336E+03  0.47000000000E+01 0. -1.
        -11    1    4    4    0    0 -0.88421982465E+01 -0.12731962367E+02 -0.23183773852E+02  0.27888612471E+02  0.00000000000E+00 0. -1.
         11    1    4    4    0    0  0.97573870907E+01  0.76411769161E+01  0.71536319160E+02  0.72601922471E+02  0.00000000000E+00 0.  1.
<mgrwt>
<rscale>  0 0.11459142E+03</rscale>
<asrwt>0</asrwt>
<pdfrwt beam="2">  1        1 0.61922402E-02 0.12508992E+03</pdfrwt>
<pdfrwt beam="1">  1       -1 0.53889702E-01 0.12508992E+03</pdfrwt>
<totfact> 0.42045369E+03</totfact>
</mgrwt>
</event>
<event>
 7    1  0.1033707E-005  0.2563063E+03  0.7546771E-02  0.1109383E+00
          1   -1    0    0  501    0  0.00000000000E+00  0.00000000000E+00  0.56080837472E+03  0.56080837472E+03  0.00000000000E+00 0. -1.
         -1   -1    0    0    0  501 -0.00000000000E+00 -0.00000000000E+00 -0.29284923022E+02  0.29284923022E+02  0.00000000000E+00 0.  1.
         23    2    1    2    0    0 -0.20109700654E+01 -0.95183693375E+01  0.26480547169E+03  0.29298692630E+03  0.12499903116E+03 0.  0.
          5    1    3    3  502    0  0.20244361130E+02 -0.19280546199E+02  0.13604168693E+01  0.28381584757E+02  0.47000000000E+01 0.  1.
         -5    1    3    3    0  502 -0.22255331195E+02  0.97621768615E+01  0.26344505482E+03  0.26460534154E+03  0.47000000000E+01 0.  1.
        -11    1    1    2    0    0  0.60406153542E+02 -0.11134929837E+02  0.83198808972E+02  0.10341630366E+03  0.00000000000E+00 0.  1.
         11    1    1    2    0    0 -0.58395183476E+02  0.20653299174E+02  0.18351917104E+03  0.19369006779E+03  0.00000000000E+00 0. -1.
<mgrwt>
<rscale>  0 0.25630630E+03</rscale>
<asrwt>0</asrwt>
<pdfrwt beam="1">  1        1 0.86278203E-01 0.25630630E+03</pdfrwt>
<pdfrwt beam="2">  1       -1 0.45053732E-02 0.25630630E+03</pdfrwt>
<totfact> 0.78913240E+03</totfact>
</mgrwt>
</event>
<event>
 8    1  0.1033707E-005  0.1306176E+03  0.7546771E-02  0.1241858E+00
         -2   -1    0    0    0  501 -0.00000000000E+00  0.00000000000E+00  0.19152274239E+02  0.19152274239E+02  0.00000000000E+00 0.  1.
          2   -1    0    0  501    0  0.00000000000E+00 -0.00000000000E+00 -0.66833515909E+03  0.66833515909E+03  0.00000000000E+00 0. -1.
         23    2    1    2    0    0  0.31972940618E+02 -0.20343521900E+02 -0.35921576473E+03  0.38222626244E+03  0.12499928901E+03 0.  0.
         23    2    1    2    0    0 -0.31972940618E+02  0.20343521900E+02 -0.28996712012E+03  0.30526117089E+03  0.87563256485E+02 0.  0.
          5    1    3    3  502    0  0.16311991011E+02 -0.29492373169E+02 -0.36172533654E+03  0.36332243286E+03  0.47000000000E+01 0.  1.
         -5    1    3    3    0  502  0.15660949607E+02  0.91488512689E+01  0.25095718076E+01  0.18903829580E+02  0.47000000000E+01 0.  1.
        -11    1    4    4    0    0  0.66609252345E+01  0.34746195725E+02 -0.47037392202E+02  0.58857304624E+02  0.00000000000E+00 0.  1.
         11    1    4    4    0    0 -0.38633865852E+02 -0.14402673825E+02 -0.24292972792E+03  0.24640386626E+03  0.00000000000E+00 0. -1.
<mgrwt>
<rscale>  0 0.12075412E+03</rscale>
<asrwt>0</asrwt>
<pdfrwt beam="2">  1        2 0.10282078E+00 0.13061757E+03</pdfrwt>
<pdfrwt beam="1">  1       -2 0.29465042E-02 0.13061757E+03</pdfrwt>
<totfact> 0.18224462E+04</totfact>
</mgrwt>
</event>
<event>
 8    1  0.1033707E-005  0.3325757E+03  0.7546771E-02  0.1071314E+00
         -4   -1    0    0    0  501 -0.00000000000E+00  0.00000000000E+00  0.17111984805E+04  0.17111984805E+04  0.00000000000E+00 0.  1.
          4   -1    0    0  501    0  0.00000000000E+00 -0.00000000000E+00 -0.68677204140E+02  0.68677204140E+02  0.00000000000E+00 0. -1.
         23    2    1    2    0    0  0.40738993328E+02  0.30548643589E+03  0.11042283112E+04  0.11532245095E+04  0.12499991227E+03 0.  0.
         23    2    1    2    0    0 -0.40738993328E+02 -0.30548643589E+03  0.53829296516E+03  0.62665117509E+03  0.89166982765E+02 0.  0.
          5    1    3    3  502    0  0.17587832818E+02  0.24044780100E+03  0.99593901045E+03  0.10247151211E+04  0.47000000000E+01 0.  1.
         -5    1    3    3    0  502  0.23151160511E+02  0.65038634897E+02  0.10828930074E+03  0.12850938844E+03  0.47000000000E+01 0.  1.
        -11    1    4    4    0    0 -0.31399095083E+02 -0.26690193978E+02  0.56548201061E+02  0.69971198859E+02  0.00000000000E+00 0. -1.
         11    1    4    4    0    0 -0.93398982459E+01 -0.27879624191E+03  0.48174476410E+03  0.55667997623E+03  0.00000000000E+00 0.  1.
<mgrwt>
<rscale>  0 0.32959977E+03</rscale>
<asrwt>0</asrwt>
<pdfrwt beam="2">  1        4 0.10565725E-01 0.33257571E+03</pdfrwt>
<pdfrwt beam="1">  1       -4 0.26326127E+00 0.33257571E+03</pdfrwt>
<totfact> 0.75880285E+00</totfact>
</mgrwt>
</event>
<event>
 8    1  0.1033707E-005  0.1297509E+03  0.7546771E-02  0.1242364E+00
         -4   -1    0    0    0  501 -0.00000000000E+00  0.00000000000E+00  0.52352173850E+02  0.52352173850E+02  0.00000000000E+00 0.  1.
          4   -1    0    0  501    0  0.00000000000E+00 -0.00000000000E+00 -0.25092583059E+03  0.25092583059E+03  0.00000000000E+00 0. -1.
         23    2    1    2    0    0  0.32163841255E+02 -0.13231958176E+02 -0.88839117475E+02  0.15725042330E+03  0.12500283770E+03 0.  0.
         23    2    1    2    0    0 -0.32163841255E+02  0.13231958176E+02 -0.10973453927E+03  0.14602758114E+03  0.89848694723E+02 0.  0.
          5    1    3    3  502    0  0.80235052590E+02 -0.10793526336E+02 -0.60726388400E+02  0.10131114511E+03  0.47000000000E+01 0.  1.
         -5    1    3    3    0  502 -0.48071211335E+02 -0.24384318400E+01 -0.28112729074E+02  0.55939278196E+02  0.47000000000E+01 0.  1.
        -11    1    4    4    0    0  0.82986299907E+00 -0.22165181669E+02  0.38982713708E+01  0.22520667634E+02  0.00000000000E+00 0.  1.
         11    1    4    4    0    0 -0.32993704255E+02  0.35397139845E+02 -0.11363281064E+03  0.12350691351E+03  0.00000000000E+00 0. -1.
<mgrwt>
<rscale>  0 0.12044543E+03</rscale>
<asrwt>0</asrwt>
<pdfrwt beam="2">  1        4 0.38603973E-01 0.12975094E+03</pdfrwt>
<pdfrwt beam="1">  1       -4 0.80541807E-02 0.12975094E+03</pdfrwt>
<totfact> 0.11640459E+03</totfact>
</mgrwt>
</event>
<event>
 8    1  0.1033707E-005  0.1261868E+03  0.7546771E-02  0.1249058E+00
          4   -1    0    0  501    0  0.00000000000E+00  0.00000000000E+00  0.90970124318E+02  0.90970124318E+02  0.00000000000E+00 0. -1.
         -4   -1    0    0    0  501 -0.00000000000E+00 -0.00000000000E+00 -0.19136531494E+03  0.19136531494E+03  0.00000000000E+00 0.  1.
         23    2    1    2    0    0 -0.13537847606E+02 -0.10709159063E+02 -0.13470194224E+03  0.18457441882E+03  0.12500057373E+03 0.  0.
         23    2    1    2    0    0  0.13537847606E+02  0.10709159063E+02  0.34306751619E+02  0.97761020440E+02  0.89901637945E+02 0.  0.
          5    1    3    3  502    0 -0.96276214856E+01  0.17409596178E+02  0.19176334153E+02  0.28028680420E+02  0.47000000000E+01 0. -1.
         -5    1    3    3    0  502 -0.39102261203E+01 -0.28118755240E+02 -0.15387827639E+03  0.15654573840E+03  0.47000000000E+01 0. -1.
        -11    1    4    4    0    0 -0.30880208652E+02  0.40500699891E+01  0.41902020475E+02  0.52208904156E+02  0.00000000000E+00 0. -1.
         11    1    4    4    0    0  0.44418056258E+02  0.66590890738E+01 -0.75952688554E+01  0.45552116284E+02  0.00000000000E+00 0.  1.
<mgrwt>
<rscale>  0 0.11645754E+03</rscale>
<asrwt>0</asrwt>
<pdfrwt beam="1">  1        4 0.13995404E-01 0.12618678E+03</pdfrwt>
<pdfrwt beam="2">  1       -4 0.29440817E-01 0.12618678E+03</pdfrwt>
<totfact> 0.76396733E+02</totfact>
</mgrwt>
</event>
<event>
 8    1  0.1033707E-005  0.1498314E+03  0.7546771E-02  0.1209765E+00
         -1   -1    0    0    0  501 -0.00000000000E+00  0.00000000000E+00  0.41133416063E+02  0.41133416063E+02  0.00000000000E+00 0.  1.
          1   -1    0    0  501    0  0.00000000000E+00 -0.00000000000E+00 -0.45403937718E+03  0.45403937718E+03  0.00000000000E+00 0. -1.
         23    2    1    2    0    0 -0.69491347404E+02 -0.44661383542E+02 -0.23755380040E+03  0.28085809192E+03  0.12500309262E+03 0.  0.
         23    2    1    2    0    0  0.69491347404E+02  0.44661383542E+02 -0.17535216071E+03  0.21431470133E+03  0.91426059709E+02 0.  0.
          5    1    3    3  502    0  0.20617196207E+02  0.17126629008E+02 -0.10772386694E+03  0.11110765819E+03  0.47000000000E+01 0. -1.
         -5    1    3    3    0  502 -0.90108543610E+02 -0.61788012550E+02 -0.12982993346E+03  0.16975043372E+03  0.47000000000E+01 0. -1.
        -11    1    4    4    0    0  0.50463187407E+01  0.21832687982E+02 -0.13081173472E+03  0.13271714862E+03  0.00000000000E+00 0. -1.
         11    1    4    4    0    0  0.64445028663E+02  0.22828695560E+02 -0.44540425998E+02  0.81597552711E+02  0.00000000000E+00 0.  1.
<mgrwt>
<rscale>  0 0.14268220E+03</rscale>
<asrwt>0</asrwt>
<pdfrwt beam="2">  1        1 0.69852213E-01 0.14983144E+03</pdfrwt>
<pdfrwt beam="1">  1       -1 0.63282178E-02 0.14983144E+03</pdfrwt>
<totfact> 0.61043478E+03</totfact>
</mgrwt>
</event>
<event>
 7    1  0.1033707E-005  0.2358953E+03  0.7546771E-02  0.1151703E+00
          1   -1    0    0  501    0  0.00000000000E+00  0.00000000000E+00  0.52394212220E+03  0.52394212220E+03  0.00000000000E+00 0. -1.
         -1   -1    0    0    0  501 -0.00000000000E+00 -0.00000000000E+00 -0.81265842783E+02  0.81265842783E+02  0.00000000000E+00 0.  1.
         23    2    1    2    0    0 -0.44465365639E+02  0.56331145432E+02  0.31751969288E+03  0.33816720711E+03  0.91585686158E+02 0.  0.
          5    1    1    2  502    0  0.16269645417E+02  0.63480557053E+02 -0.27211008315E+02  0.71112667361E+02  0.47000000000E+01 0. -1.
         -5    1    1    2    0  502  0.28195720222E+02 -0.11981170248E+03  0.15236759485E+03  0.19592809051E+03  0.47000000000E+01 0.  1.
        -11    1    3    3    0    0 -0.21232532025E+02  0.80064950413E+02  0.21513766037E+03  0.23053292522E+03  0.00000000000E+00 0.  1.
         11    1    3    3    0    0 -0.23232833614E+02 -0.23733804981E+02  0.10238203251E+03  0.10763428189E+03  0.00000000000E+00 0. -1.
<mgrwt>
<rscale>  0 0.19769014E+03</rscale>
<asrwt>0</asrwt>
<pdfrwt beam="1">  1        1 0.80606478E-01 0.23589531E+03</pdfrwt>
<pdfrwt beam="2">  1       -1 0.12502438E-01 0.23589531E+03</pdfrwt>
<totfact> 0.18140754E+03</totfact>
</mgrwt>
</event>
<event>
 8    1  0.1033707E-005  0.1584822E+03  0.7546771E-02  0.1198506E+00
         -1   -1    0    0    0  501 -0.00000000000E+00  0.00000000000E+00  0.52922033283E+03  0.52922033283E+03  0.00000000000E+00 0.  1.
          1   -1    0    0  501    0  0.00000000000E+00 -0.00000000000E+00 -0.74255180472E+02  0.74255180472E+02  0.00000000000E+00 0. -1.
         23    2    1    2    0    0  0.92177682975E+01  0.96980542500E+02  0.44265397054E+03  0.47016926863E+03  0.12500564248E+03 0.  0.
         23    2    1    2    0    0 -0.92177682975E+01 -0.96980542500E+02  0.12311181815E+02  0.13330624467E+03  0.90159840253E+02 0.  0.
          5    1    3    3  502    0  0.23772883147E+02  0.11344241639E+03  0.24314859234E+03  0.26940241232E+03  0.47000000000E+01 0. -1.
         -5    1    3    3    0  502 -0.14555114850E+02 -0.16461873886E+02  0.19950537820E+03  0.20076685631E+03  0.47000000000E+01 0. -1.
        -11    1    4    4    0    0 -0.33832647606E+02 -0.52083669308E+02  0.41186979934E+02  0.74523311579E+02  0.00000000000E+00 0.  1.
         11    1    4    4    0    0  0.24614879309E+02 -0.44896873192E+02 -0.28875798119E+02  0.58782933091E+02  0.00000000000E+00 0. -1.
<mgrwt>
<rscale>  0 0.15161179E+03</rscale>
<asrwt>0</asrwt>
<pdfrwt beam="2">  1        1 0.11423874E-01 0.15848219E+03</pdfrwt>
<pdfrwt beam="1">  1       -1 0.81418510E-01 0.15848219E+03</pdfrwt>
<totfact> 0.83646368E+02</totfact>
</mgrwt>
</event>
<event>
 8    1  0.1033707E-005  0.1379304E+03  0.7546771E-02  0.1229177E+00
          3   -1    0    0  501    0  0.00000000000E+00  0.00000000000E+00  0.48867472307E+03  0.48867472307E+03  0.00000000000E+00 0. -1.
         -3   -1    0    0    0  501 -0.00000000000E+00 -0.00000000000E+00 -0.30480831864E+02  0.30480831864E+02  0.00000000000E+00 0.  1.
         23    2    1    2    0    0  0.48946935991E+02 -0.31646911255E+02  0.23509098446E+03  0.27256663534E+03  0.12500988038E+03 0.  0.
         23    2    1    2    0    0 -0.48946935991E+02  0.31646911255E+02  0.22310290675E+03  0.24658891959E+03  0.87371956202E+02 0.  0.
          5    1    3    3  502    0 -0.34544296183E+01 -0.60879983203E+02  0.18306187823E+03  0.19300789284E+03  0.47000000000E+01 0.  1.
         -5    1    3    3    0  502  0.52401365609E+02  0.29233071948E+02  0.52029106229E+02  0.79558742500E+02  0.47000000000E+01 0.  1.
        -11    1    4    4    0    0 -0.57103655319E+02  0.51818857131E+02  0.13153415862E+03  0.15247050957E+03  0.00000000000E+00 0.  1.
         11    1    4    4    0    0  0.81567193282E+01 -0.20171945876E+02  0.91568748136E+02  0.94118410026E+02  0.00000000000E+00 0. -1.
<mgrwt>
<rscale>  0 0.12884656E+03</rscale>
<asrwt>0</asrwt>
<pdfrwt beam="1">  1        3 0.75180721E-01 0.13793042E+03</pdfrwt>
<pdfrwt beam="2">  1       -3 0.46893591E-02 0.13793042E+03</pdfrwt>
<totfact> 0.99792096E+02</totfact>
</mgrwt>
</event>
<event>
 8    1  0.1033707E-005  0.2144135E+03  0.7546771E-02  0.1141721E+00
          1   -1    0    0  501    0  0.00000000000E+00  0.00000000000E+00  0.11054889994E+04  0.11054889994E+04  0.00000000000E+00 0. -1.
         -1   -1    0    0    0  501 -0.00000000000E+00 -0.00000000000E+00 -0.38966343523E+02  0.38966343523E+02  0.00000000000E+00 0.  1.
         23    2    1    2    0    0  0.16860288221E+03  0.43830929600E+02  0.47560540191E+03  0.52170264426E+03  0.12500027371E+03 0.  0.
         23    2    1    2    0    0 -0.16860288221E+03 -0.43830929600E+02  0.59091725399E+03  0.62275269868E+03  0.91047462198E+02 0.  0.
          5    1    3    3  502    0  0.10365186045E+03 -0.34921307360E+02  0.28737875755E+03  0.30752535858E+03  0.47000000000E+01 0. -1.
         -5    1    3    3    0  502  0.64951021762E+02  0.78752236960E+02  0.18822664436E+03  0.21417728568E+03  0.47000000000E+01 0. -1.
        -11    1    4    4    0    0 -0.12372170475E+03 -0.11694282039E+02  0.27136019156E+03  0.29846301282E+03  0.00000000000E+00 0.  1.
         11    1    4    4    0    0 -0.44881177459E+02 -0.32136647560E+02  0.31955706243E+03  0.32428968586E+03  0.00000000000E+00 0. -1.
<mgrwt>
<rscale>  0 0.20980486E+03</rscale>
<asrwt>0</asrwt>
<pdfrwt beam="1">  1        1 0.17007521E+00 0.21441350E+03</pdfrwt>
<pdfrwt beam="2">  1       -1 0.59948229E-02 0.21441350E+03</pdfrwt>
<totfact> 0.17871804E+03</totfact>
</mgrwt>
</event>
<event>
 8    1  0.1033707E-005  0.1325654E+03  0.7546771E-02  0.1236976E+00
          3   -1    0    0  501    0  0.00000000000E+00  0.00000000000E+00  0.12518470710E+03  0.12518470710E+03  0.00000000000E+00 0. -1.
         -3   -1    0    0    0  501 -0.00000000000E+00 -0.00000000000E+00 -0.11579782334E+03  0.11579782334E+03  0.00000000000E+00 0.  1.
         23    2    1    2    0    0  0.41719897876E+02  0.14468599322E+02 -0.24173863374E+02  0.13475148719E+03  0.12499478943E+03 0.  0.
         23    2    1    2    0    0 -0.41719897876E+02 -0.14468599322E+02  0.33560747138E+02  0.10623104325E+03  0.90602541664E+02 0.  0.
          5    1    3    3  502    0  0.23982473056E+02 -0.36616059846E+02  0.33673897971E+02  0.55424870384E+02  0.47000000000E+01 0. -1.
         -5    1    3    3    0  502  0.17737424820E+02  0.51084659168E+02 -0.57847761345E+02  0.79326616808E+02  0.47000000000E+01 0. -1.
        -11    1    4    4    0    0  0.15257239194E+02 -0.20951047987E+00 -0.21071689873E+02  0.26016213340E+02  0.00000000000E+00 0.  1.
         11    1    4    4    0    0 -0.56977137071E+02 -0.14259088842E+02  0.54632437010E+02  0.80214829907E+02  0.00000000000E+00 0. -1.
<mgrwt>
<rscale>  0 0.12378770E+03</rscale>
<asrwt>0</asrwt>
<pdfrwt beam="1">  1        3 0.19259186E-01 0.13256541E+03</pdfrwt>
<pdfrwt beam="2">  1       -3 0.17815050E-01 0.13256541E+03</pdfrwt>
<totfact> 0.15116278E+03</totfact>
</mgrwt>
</event>
<event>
 8    1  0.1033707E-005  0.1488914E+03  0.7546771E-02  0.1211927E+00
          2   -1    0    0  501    0  0.00000000000E+00  0.00000000000E+00  0.15032080788E+03  0.15032080788E+03  0.00000000000E+00 0. -1.
         -2   -1    0    0    0  501 -0.00000000000E+00 -0.00000000000E+00 -0.17711376318E+03  0.17711376318E+03  0.00000000000E+00 0.  1.
         23    2    1    2    0    0 -0.70901505077E+02 -0.38923195681E+02 -0.10684521616E+03  0.18326088918E+03  0.12500645864E+03 0.  0.
         23    2    1    2    0    0  0.70901505077E+02  0.38923195681E+02  0.80052260857E+02  0.14417368188E+03  0.88519192806E+02 0.  0.
          5    1    3    3  502    0  0.34791934875E+02 -0.22177751046E+02 -0.25160412397E+02  0.48553761191E+02  0.47000000000E+01 0.  1.
         -5    1    3    3    0  502 -0.10569343995E+03 -0.16745444635E+02 -0.81684803760E+02  0.13470712799E+03  0.47000000000E+01 0.  1.
        -11    1    4    4    0    0 -0.53108675107E+01  0.43246822161E+02  0.28916307899E+02  0.52293840968E+02  0.00000000000E+00 0. -1.
         11    1    4    4    0    0  0.76212372588E+02 -0.43236264799E+01  0.51135952959E+02  0.91879840914E+02  0.00000000000E+00 0.  1.
<mgrwt>
<rscale>  0 0.14104684E+03</rscale>
<asrwt>0</asrwt>
<pdfrwt beam="1">  1        2 0.23126278E-01 0.14889141E+03</pdfrwt>
<pdfrwt beam="2">  1       -2 0.27248271E-01 0.14889141E+03</pdfrwt>
<totfact> 0.27778448E+03</totfact>
</mgrwt>
</event>
<event>
 8    1  0.1033707E-005  0.1840772E+03  0.7546771E-02  0.1169227E+00
          4   -1    0    0  501    0  0.00000000000E+00  0.00000000000E+00  0.37129128585E+03  0.37129128585E+03  0.00000000000E+00 0. -1.
         -4   -1    0    0    0  501 -0.00000000000E+00 -0.00000000000E+00 -0.86546364132E+02  0.86546364132E+02  0.00000000000E+00 0.  1.
         23    2    1    2    0    0  0.11413951052E+03 -0.72330509837E+02  0.92985366886E+02  0.20622972105E+03  0.12499955550E+03 0.  0.
         23    2    1    2    0    0 -0.11413951052E+03  0.72330509837E+02  0.19175955483E+03  0.25160792893E+03  0.90968634792E+02 0.  0.
          5    1    3    3  502    0  0.84617101997E+02  0.13679762461E+02  0.73725214053E+02  0.11315779707E+03  0.47000000000E+01 0. -1.
         -5    1    3    3    0  502  0.29522408522E+02 -0.86010272298E+02  0.19260152833E+02  0.93071923977E+02  0.47000000000E+01 0. -1.
        -11    1    4    4    0    0 -0.35548661247E+02  0.67214410897E+02  0.13353365976E+03  0.15366431804E+03  0.00000000000E+00 0. -1.
         11    1    4    4    0    0 -0.78590849273E+02  0.51160989398E+01  0.58225895070E+02  0.97943610892E+02  0.00000000000E+00 0.  1.
<mgrwt>
<rscale>  0 0.17853651E+03</rscale>
<asrwt>0</asrwt>
<pdfrwt beam="1">  1        4 0.57121736E-01 0.18407721E+03</pdfrwt>
<pdfrwt beam="2">  1       -4 0.13314825E-01 0.18407721E+03</pdfrwt>
<totfact> 0.23983952E+02</totfact>
</mgrwt>
</event>
<event>
 8    1  0.1033707E-005  0.3197345E+03  0.7546771E-02  0.1077031E+00
          1   -1    0    0  501    0  0.00000000000E+00  0.00000000000E+00  0.32554139316E+03  0.32554139316E+03  0.00000000000E+00 0. -1.
         -1   -1    0    0    0  501 -0.00000000000E+00 -0.00000000000E+00 -0.30629188555E+03  0.30629188555E+03  0.00000000000E+00 0.  1.
         23    2    1    2    0    0 -0.17009440948E+03  0.24015445447E+03  0.39521160380E+02  0.32216777003E+03  0.12499551909E+03 0.  0.
         23    2    1    2    0    0  0.17009440948E+03 -0.24015445447E+03 -0.20271652764E+02  0.30966550868E+03  0.94209963498E+02 0.  0.
          5    1    3    3  502    0 -0.11154350028E+03  0.16407740788E+03  0.84929335941E+02  0.21586669576E+03  0.47000000000E+01 0. -1.
         -5    1    3    3    0  502 -0.58550909197E+02  0.76077046584E+02 -0.45408175561E+02  0.10630107428E+03  0.47000000000E+01 0. -1.
        -11    1    4    4    0    0  0.97691971312E+01 -0.85946558642E+02 -0.31577092613E+01  0.86557606729E+02  0.00000000000E+00 0. -1.
         11    1    4    4    0    0  0.16032521235E+03 -0.15420789582E+03 -0.17113943502E+02  0.22310790195E+03  0.00000000000E+00 0.  1.
<mgrwt>
<rscale>  0 0.31701674E+03</rscale>
<asrwt>0</asrwt>
<pdfrwt beam="1">  1        1 0.50083291E-01 0.31973450E+03</pdfrwt>
<pdfrwt beam="2">  1       -1 0.47121828E-01 0.31973450E+03</pdfrwt>
<totfact> 0.36332109E+02</totfact>
</mgrwt>
</event>
<event>
 8    1  0.1033707E-005  0.1354763E+03  0.7546771E-02  0.1233448E+00
          4   -1    0    0  501    0  0.00000000000E+00  0.00000000000E+00  0.18707549811E+03  0.18707549811E+03  0.00000000000E+00 0. -1.
         -4   -1    0    0    0  501 -0.00000000000E+00 -0.00000000000E+00 -0.83804041351E+02  0.83804041351E+02  0.00000000000E+00 0.  1.
         23    2    1    2    0    0 -0.48982884453E+02 -0.18192447556E+02  0.14894067885E+02  0.13629255116E+03  0.12499415237E+03 0.  0.
         23    2    1    2    0    0  0.48982884453E+02  0.18192447556E+02  0.88377388879E+02  0.13458698830E+03  0.87021873330E+02 0.  0.
          5    1    3    3  502    0 -0.20481496226E+02  0.41006749023E+02  0.44515055852E+02  0.64068130538E+02  0.47000000000E+01 0. -1.
         -5    1    3    3    0  502 -0.28501388227E+02 -0.59199196580E+02 -0.29620987966E+02  0.72224420625E+02  0.47000000000E+01 0. -1.
        -11    1    4    4    0    0  0.44368945893E+02 -0.28752068656E+02  0.58000345522E+02  0.78481366529E+02  0.00000000000E+00 0. -1.
         11    1    4    4    0    0  0.46139385603E+01  0.46944516212E+02  0.30377043357E+02  0.56105621773E+02  0.00000000000E+00 0.  1.
<mgrwt>
<rscale>  0 0.12604292E+03</rscale>
<asrwt>0</asrwt>
<pdfrwt beam="1">  1        4 0.28780846E-01 0.13547629E+03</pdfrwt>
<pdfrwt beam="2">  1       -4 0.12892929E-01 0.13547629E+03</pdfrwt>
<totfact> 0.93242540E+02</totfact>
</mgrwt>
</event>
<event>
 8    1  0.1033707E-005  0.1522025E+03  0.7546771E-02  0.1203159E+00
         -3   -1    0    0    0  501 -0.00000000000E+00  0.00000000000E+00  0.48634112095E+02  0.48634112095E+02  0.00000000000E+00 0.  1.
          3   -1    0    0  501    0  0.00000000000E+00 -0.00000000000E+00 -0.42540339482E+03  0.42540339482E+03  0.00000000000E+00 0. -1.
         23    2    1    2    0    0  0.92094958918E+02  0.44877528416E+02 -0.19825518087E+03  0.24994145256E+03  0.11256171174E+03 0.  0.
         23    2    1    2    0    0 -0.92094958918E+02 -0.44877528416E+02 -0.17851410186E+03  0.22409605436E+03  0.88635675677E+02 0.  0.
          5    1    3    3  502    0  0.89773517639E+02  0.74961592406E+02 -0.17889228490E+03  0.21378275048E+03  0.47000000000E+01 0.  1.
         -5    1    3    3    0  502  0.23214412792E+01 -0.30084063990E+02 -0.19362895968E+02  0.36158702079E+02  0.47000000000E+01 0.  1.
        -11    1    4    4    0    0 -0.97553407328E+02 -0.78368892180E+01 -0.13390100066E+03  0.16585403852E+03  0.00000000000E+00 0.  1.
         11    1    4    4    0    0  0.54584484095E+01 -0.37040639198E+02 -0.44613101199E+02  0.58242015847E+02  0.00000000000E+00 0. -1.
<mgrwt>
<rscale>  0 0.14783461E+03</rscale>
<asrwt>0</asrwt>
<pdfrwt beam="2">  1        3 0.65446673E-01 0.15220254E+03</pdfrwt>
<pdfrwt beam="1">  1       -3 0.74821715E-02 0.15220254E+03</pdfrwt>
<totfact> 0.64354413E+02</totfact>
</mgrwt>
</event>
<event>
 8    1  0.1033707E-005  0.1415982E+03  0.7546771E-02  0.1220814E+00
         -3   -1    0    0    0  501 -0.00000000000E+00  0.00000000000E+00  0.17800055245E+03  0.17800055245E+03  0.00000000000E+00 0.  1.
          3   -1    0    0  501    0  0.00000000000E+00 -0.00000000000E+00 -0.94249391975E+02  0.94249391975E+02  0.00000000000E+00 0. -1.
         23    2    1    2    0    0 -0.28338967191E+02  0.60131637100E+02  0.62452598236E+02  0.15475905914E+03  0.12502451167E+03 0.  0.
         23    2    1    2    0    0  0.28338967191E+02 -0.60131637100E+02  0.21298562237E+02  0.11749088528E+03  0.94506976088E+02 0.  0.
          5    1    3    3  502    0  0.52982707468E+01  0.77578990831E+02  0.80937486551E+02  0.11233671804E+03  0.47000000000E+01 0.  1.
         -5    1    3    3    0  502 -0.33637237938E+02 -0.17447353731E+02 -0.18484888315E+02  0.42422341099E+02  0.47000000000E+01 0.  1.
        -11    1    4    4    0    0  0.14767364853E+02 -0.73033657261E+02 -0.15586777044E+02  0.76124488676E+02  0.00000000000E+00 0. -1.
         11    1    4    4    0    0  0.13571602338E+02  0.12902020161E+02  0.36885339281E+02  0.41366396606E+02  0.00000000000E+00 0.  1.
<mgrwt>
<rscale>  0 0.13457994E+03</rscale>
<asrwt>0</asrwt>
<pdfrwt beam="2">  1        3 0.14499906E-01 0.14159816E+03</pdfrwt>
<pdfrwt beam="1">  1       -3 0.27384700E-01 0.14159816E+03</pdfrwt>
<totfact> 0.11599953E+03</totfact>
</mgrwt>
</event>
<event>
 8    1  0.1033707E-005  0.1469904E+03  0.7546771E-02  0.1214142E+00
          2   -1    0    0  501    0  0.00000000000E+00  0.00000000000E+00  0.41771239438E+03  0.41771239438E+03  0.00000000000E+00 0. -1.
         -2   -1    0    0    0  501 -0.00000000000E+00 -0.00000000000E+00 -0.54119758627E+02  0.54119758627E+02  0.00000000000E+00 0.  1.
         23    2    1    2    0    0  0.10797093630E+02 -0.76574163795E+02  0.87092671303E+02  0.17085466074E+03  0.12500400758E+03 0.  0.
         23    2    1    2    0    0 -0.10797093630E+02  0.76574163795E+02  0.27649996445E+03  0.30097749227E+03  0.90305264065E+02 0.  0.
          5    1    3    3  502    0 -0.45313347088E+02 -0.53356089195E+02  0.84587885629E+02  0.10989709766E+03  0.47000000000E+01 0.  1.
         -5    1    3    3    0  502  0.56110440718E+02 -0.23218074600E+02  0.25047856732E+01  0.60957563082E+02  0.47000000000E+01 0.  1.
        -11    1    4    4    0    0 -0.24875522526E+02  0.50925301867E+02  0.26248752463E+03  0.26853654980E+03  0.00000000000E+00 0.  1.
         11    1    4    4    0    0  0.14078428896E+02  0.25648861928E+02  0.14012439819E+02  0.32440942466E+02  0.00000000000E+00 0. -1.
<mgrwt>
<rscale>  0 0.13939737E+03</rscale>
<asrwt>0</asrwt>
<pdfrwt beam="1">  1        2 0.64263443E-01 0.14699041E+03</pdfrwt>
<pdfrwt beam="2">  1       -2 0.83261170E-02 0.14699041E+03</pdfrwt>
<totfact> 0.64998728E+03</totfact>
</mgrwt>
</event>
<event>
 8    1  0.1033707E-005  0.1999581E+03  0.7546771E-02  0.1153263E+00
         -2   -1    0    0    0  501 -0.00000000000E+00  0.00000000000E+00  0.41379016982E+02  0.41379016982E+02  0.00000000000E+00 0.  1.
          2   -1    0    0  501    0  0.00000000000E+00 -0.00000000000E+00 -0.89139135425E+03  0.89139135425E+03  0.00000000000E+00 0. -1.
         23    2    1    2    0    0 -0.15134549424E+03 -0.38155273588E+02 -0.44696242404E+03  0.48965154300E+03  0.12498776552E+03 0.  0.
         23    2    1    2    0    0  0.15134549424E+03  0.38155273588E+02 -0.40304991323E+03  0.44311882823E+03  0.97692271181E+02 0.  0.
          5    1    3    3  502    0 -0.64600042042E+01  0.35793419986E+02 -0.97066515492E+02  0.10376366897E+03  0.47000000000E+01 0.  1.
         -5    1    3    3    0  502 -0.14488549004E+03 -0.73948693574E+02 -0.34989590855E+03  0.38588787403E+03  0.47000000000E+01 0.  1.
        -11    1    4    4    0    0  0.43489602398E+01  0.27391400665E+02 -0.24945208613E+02  0.37302355399E+02  0.00000000000E+00 0.  1.
         11    1    4    4    0    0  0.14699653400E+03  0.10763872923E+02 -0.37810470462E+03  0.40581647283E+03  0.00000000000E+00 0. -1.
<mgrwt>
<rscale>  0 0.19587872E+03</rscale>
<asrwt>0</asrwt>
<pdfrwt beam="2">  1        2 0.13713714E+00 0.19995806E+03</pdfrwt>
<pdfrwt beam="1">  1       -2 0.63660023E-02 0.19995806E+03</pdfrwt>
<totfact> 0.41128872E+03</totfact>
</mgrwt>
</event>
<event>
 8    1  0.3492393E-005  0.3123265E+03  0.7546771E-02  0.1080732E+00
         -2   -1    0    0    0  501 -0.00000000000E+00  0.00000000000E+00  0.10605349693E+03  0.10605349693E+03  0.00000000000E+00 0.  1.
          2   -1    0    0  501    0  0.00000000000E+00 -0.00000000000E+00 -0.88456568905E+03  0.88456568905E+03  0.00000000000E+00 0. -1.
         23    2    1    2    0    0 -0.16536925499E+03 -0.23361521618E+03 -0.38285834231E+03  0.49409348202E+03  0.12499919590E+03 0.  0.
         23    2    1    2    0    0  0.16536925499E+03  0.23361521618E+03 -0.39565384981E+03  0.49652570396E+03  0.89848461830E+02 0.  0.
          5    1    3    3  502    0 -0.21105318909E+01 -0.10224674417E+03 -0.11483752160E+03  0.15384601849E+03  0.47000000000E+01 0. -1.
         -5    1    3    3    0  502 -0.16325872310E+03 -0.13136847201E+03 -0.26802082071E+03  0.34024746353E+03  0.47000000000E+01 0. -1.
        -11    1    4    4    0    0  0.71337053362E+02  0.87035069467E+02 -0.23056731452E+03  0.25656454358E+03  0.00000000000E+00 0. -1.
         11    1    4    4    0    0  0.94032201626E+02  0.14658014672E+03 -0.16508653529E+03  0.23996116038E+03  0.00000000000E+00 0.  1.
<mgrwt>
<rscale>  0 0.30919641E+03</rscale>
<asrwt>0</asrwt>
<pdfrwt beam="2">  1        2 0.13608703E+00 0.31232653E+03</pdfrwt>
<pdfrwt beam="1">  1       -2 0.16315923E-01 0.31232653E+03</pdfrwt>
<totfact> 0.92556181E+02</totfact>
</mgrwt>
</event>
<event>
 8    1  0.1033707E-005  0.1287091E+03  0.7546771E-02  0.1242739E+00
          2   -1    0    0  501    0  0.00000000000E+00  0.00000000000E+00  0.32519085286E+02  0.32519085286E+02  0.00000000000E+00 0. -1.
         -2   -1    0    0    0  501 -0.00000000000E+00 -0.00000000000E+00 -0.40728038104E+03  0.40728038104E+03  0.00000000000E+00 0.  1.
         23    2    1    2    0    0  0.21413972997E+02 -0.21984088936E+02 -0.24990677632E+03  0.28110395618E+03  0.12499671564E+03 0.  0.
         23    2    1    2    0    0 -0.21413972997E+02  0.21984088936E+02 -0.12485451943E+03  0.15869551015E+03  0.93025563760E+02 0.  0.
          5    1    3    3  502    0  0.55102247290E+02 -0.42798735569E+01 -0.23244090352E+03  0.23896744256E+03  0.47000000000E+01 0.  1.
         -5    1    3    3    0  502 -0.33688274292E+02 -0.17704215379E+02 -0.17465872799E+02  0.42136513615E+02  0.47000000000E+01 0.  1.
        -11    1    4    4    0    0  0.12743310970E+02  0.49795128661E+02 -0.49196334965E+02  0.71149323165E+02  0.00000000000E+00 0. -1.
         11    1    4    4    0    0 -0.34157283968E+02 -0.27811039724E+02 -0.75658184466E+02  0.87546186983E+02  0.00000000000E+00 0.  1.
<mgrwt>
<rscale>  0 0.12021705E+03</rscale>
<asrwt>0</asrwt>
<pdfrwt beam="1">  1        2 0.50029361E-02 0.12870912E+03</pdfrwt>
<pdfrwt beam="2">  1       -2 0.62658521E-01 0.12870912E+03</pdfrwt>
<totfact> 0.36012886E+03</totfact>
</mgrwt>
</event>
<event>
 8    1  0.1033707E-005  0.1260969E+03  0.7546771E-02  0.1248081E+00
         -2   -1    0    0    0  501 -0.00000000000E+00  0.00000000000E+00  0.11004255772E+03  0.11004255772E+03  0.00000000000E+00 0.  1.
          2   -1    0    0  501    0  0.00000000000E+00 -0.00000000000E+00 -0.11096094905E+03  0.11096094905E+03  0.00000000000E+00 0. -1.
         23    2    1    2    0    0  0.16229437895E+02  0.35197265117E+01  0.11544869848E+02  0.12662430298E+03  0.12499858782E+03 0.  0.
         23    2    1    2    0    0 -0.16229437895E+02 -0.35197265117E+01 -0.12463261178E+02  0.94379203785E+02  0.92066921850E+02 0.  0.
          5    1    3    3  502    0 -0.42727084762E+02  0.36759681660E+02  0.15561574677E+02  0.58661150470E+02  0.47000000000E+01 0. -1.
         -5    1    3    3    0  502  0.58956522656E+02 -0.33239955149E+02 -0.40167048287E+01  0.67963152514E+02  0.47000000000E+01 0. -1.
        -11    1    4    4    0    0 -0.31836976217E+02 -0.49922414907E+01  0.33098684664E+02  0.46195654084E+02  0.00000000000E+00 0.  1.
         11    1    4    4    0    0  0.15607538323E+02  0.14725149791E+01 -0.45561945842E+02  0.48183549701E+02  0.00000000000E+00 0. -1.
<mgrwt>
<rscale>  0 0.11702870E+03</rscale>
<asrwt>0</asrwt>
<pdfrwt beam="2">  1        2 0.17070915E-01 0.12609691E+03</pdfrwt>
<pdfrwt beam="1">  1       -2 0.16929624E-01 0.12609691E+03</pdfrwt>
<totfact> 0.87473916E+03</totfact>
</mgrwt>
</event>
<event>
 8    1  0.1033707E-005  0.1825355E+03  0.7546771E-02  0.1168448E+00
          1   -1    0    0  501    0  0.00000000000E+00  0.00000000000E+00  0.31689996406E+03  0.31689996406E+03  0.00000000000E+00 0. -1.
         -1   -1    0    0    0  501 -0.00000000000E+00 -0.00000000000E+00 -0.10848799703E+03  0.10848799703E+03  0.00000000000E+00 0.  1.
         23    2    1    2    0    0  0.42667763128E+02 -0.13603222897E+03  0.41701372669E+02  0.18723836132E+03  0.11399076340E+03 0.  0.
         23    2    1    2    0    0 -0.42667763128E+02  0.13603222897E+03  0.16671059436E+03  0.23814959976E+03  0.92722727894E+02 0.  0.
          5    1    3    3  502    0 -0.25703286345E+02 -0.24112036797E+01 -0.10485727922E+02  0.28257978027E+02  0.47000000000E+01 0. -1.
         -5    1    3    3    0  502  0.68371049473E+02 -0.13362102529E+03  0.52187100591E+02  0.15898038330E+03  0.47000000000E+01 0.  1.
        -11    1    4    4    0    0 -0.13162406407E+02 -0.12786985500E+02  0.17867807108E+02  0.25612779456E+02  0.00000000000E+00 0.  1.
         11    1    4    4    0    0 -0.29505356721E+02  0.14881921447E+03  0.14884278725E+03  0.21253682031E+03  0.00000000000E+00 0. -1.
<mgrwt>
<rscale>  0 0.17933519E+03</rscale>
<asrwt>0</asrwt>
<pdfrwt beam="1">  1        1 0.48753840E-01 0.18253547E+03</pdfrwt>
<pdfrwt beam="2">  1       -1 0.16690461E-01 0.18253547E+03</pdfrwt>
<totfact> 0.21816772E+03</totfact>
</mgrwt>
</event>
<event>
 8    1  0.1033707E-005  0.1398428E+03  0.7546771E-02  0.1225546E+00
          1   -1    0    0  501    0  0.00000000000E+00  0.00000000000E+00  0.21162934416E+03  0.21162934416E+03  0.00000000000E+00 0. -1.
         -1   -1    0    0    0  501 -0.00000000000E+00 -0.00000000000E+00 -0.81031337762E+02  0.81031337762E+02  0.00000000000E+00 0.  1.
         23    2    1    2    0    0 -0.55079925429E+01 -0.62480481509E+02  0.26795734695E+02  0.14238684677E+03  0.12498741610E+03 0.  0.
         23    2    1    2    0    0  0.55079925429E+01  0.62480481509E+02  0.10380227171E+03  0.15027383515E+03  0.88730859169E+02 0.  0.
          5    1    3    3  502    0 -0.37907687845E+02 -0.79860471681E+02  0.46940020517E+02  0.10020051527E+03  0.47000000000E+01 0.  1.
         -5    1    3    3    0  502  0.32399695303E+02  0.17379990171E+02 -0.20144285822E+02  0.42186331499E+02  0.47000000000E+01 0.  1.
        -11    1    4    4    0    0 -0.36171996040E+02  0.20725575138E+02  0.72134055851E+02  0.83314373165E+02  0.00000000000E+00 0. -1.
         11    1    4    4    0    0  0.41679988583E+02  0.41754906372E+02  0.31668215856E+02  0.66959461990E+02  0.00000000000E+00 0.  1.
<mgrwt>
<rscale>  0 0.13129522E+03</rscale>
<asrwt>0</asrwt>
<pdfrwt beam="1">  1        1 0.32558361E-01 0.13984278E+03</pdfrwt>
<pdfrwt beam="2">  1       -1 0.12466360E-01 0.13984278E+03</pdfrwt>
<totfact> 0.56284996E+03</totfact>
</mgrwt>
</event>
<event>
 8    1  0.1033707E-005  0.1289679E+03  0.7546771E-02  0.1243001E+00
         -1   -1    0    0    0  501 -0.00000000000E+00  0.00000000000E+00  0.18904734840E+03  0.18904734840E+03  0.00000000000E+00 0.  1.
          1   -1    0    0  501    0  0.00000000000E+00 -0.00000000000E+00 -0.67596173313E+02  0.67596173313E+02  0.00000000000E+00 0. -1.
         23    2    1    2    0    0  0.28518382986E+01  0.31816366377E+02  0.63190206948E+02  0.14361660428E+03  0.12494924018E+03 0.  0.
         23    2    1    2    0    0 -0.28518382986E+01 -0.31816366377E+02  0.58260968144E+02  0.11302691743E+03  0.91434837477E+02 0.  0.
          5    1    3    3  502    0  0.24843349173E+02  0.66046622919E+02  0.29629456999E+01  0.70782889489E+02  0.47000000000E+01 0. -1.
         -5    1    3    3    0  502 -0.21991510874E+02 -0.34230256543E+02  0.60227261248E+02  0.72833714796E+02  0.47000000000E+01 0. -1.
        -11    1    4    4    0    0 -0.28931519302E+02  0.15678342614E+02  0.47499802014E+02  0.57784724865E+02  0.00000000000E+00 0.  1.
         11    1    4    4    0    0  0.26079681004E+02 -0.47494708991E+02  0.10761166129E+02  0.55242192569E+02  0.00000000000E+00 0. -1.
<mgrwt>
<rscale>  0 0.12005796E+03</rscale>
<asrwt>0</asrwt>
<pdfrwt beam="2">  1        1 0.10399411E-01 0.12896793E+03</pdfrwt>
<pdfrwt beam="1">  1       -1 0.29084207E-01 0.12896793E+03</pdfrwt>
<totfact> 0.62014566E+03</totfact>
</mgrwt>
</event>
<event>
 8    1  0.1033707E-005  0.1434797E+03  0.7546771E-02  0.1219073E+00
         -4   -1    0    0    0  501 -0.00000000000E+00  0.00000000000E+00  0.30812660227E+02  0.30812660227E+02  0.00000000000E+00 0.  1.
          4   -1    0    0  501    0  0.00000000000E+00 -0.00000000000E+00 -0.56335150719E+03  0.56335150719E+03  0.00000000000E+00 0. -1.
         23    2    1    2    0    0  0.68251220752E+02  0.17333113772E+02 -0.23803426473E+03  0.27793295860E+03  0.12501100880E+03 0.  0.
         23    2    1    2    0    0 -0.68251220752E+02 -0.17333113772E+02 -0.29450458223E+03  0.31623120882E+03  0.91162286664E+02 0.  0.
          5    1    3    3  502    0  0.75745694834E+02  0.55338257937E+02 -0.20950266183E+03  0.22959352864E+03  0.47000000000E+01 0.  1.
         -5    1    3    3    0  502 -0.74944740818E+01 -0.38005144165E+02 -0.28531602900E+02  0.48339429959E+02  0.47000000000E+01 0.  1.
        -11    1    4    4    0    0 -0.22972977002E+02 -0.48644402803E+02 -0.93985421666E+02  0.10829263633E+03  0.00000000000E+00 0.  1.
         11    1    4    4    0    0 -0.45278243749E+02  0.31311289031E+02 -0.20051916056E+03  0.20793857249E+03  0.00000000000E+00 0. -1.
<mgrwt>
<rscale>  0 0.13581524E+03</rscale>
<asrwt>0</asrwt>
<pdfrwt beam="2">  1        4 0.86669457E-01 0.14347968E+03</pdfrwt>
<pdfrwt beam="1">  1       -4 0.47404096E-02 0.14347968E+03</pdfrwt>
<totfact> 0.51896211E+02</totfact>
</mgrwt>
</event>
<event>
 8    1  0.1033707E-005  0.2356951E+03  0.7546771E-02  0.1125730E+00
         -1   -1    0    0    0  501 -0.00000000000E+00  0.00000000000E+00  0.35170157315E+03  0.35170157315E+03  0.00000000000E+00 0.  1.
          1   -1    0    0  501    0  0.00000000000E+00 -0.00000000000E+00 -0.19276356969E+03  0.19276356969E+03  0.00000000000E+00 0. -1.
         23    2    1    2    0    0 -0.19169507318E+03  0.56384090515E+02  0.21475496599E+03  0.31886026094E+03  0.12500401532E+03 0.  0.
         23    2    1    2    0    0  0.19169507318E+03 -0.56384090515E+02 -0.55816962537E+02  0.22560488190E+03  0.88633304605E+02 0.  0.
          5    1    3    3  502    0 -0.11906606280E+03 -0.29858973243E+02  0.11112050731E+03  0.16564462786E+03  0.47000000000E+01 0. -1.
         -5    1    3    3    0  502 -0.72629010383E+02  0.86243063758E+02  0.10363445868E+03  0.15321563308E+03  0.47000000000E+01 0. -1.
        -11    1    4    4    0    0  0.54085898374E+02 -0.27417984158E+02  0.22457176892E+02  0.64663398087E+02  0.00000000000E+00 0.  1.
         11    1    4    4    0    0  0.13760917481E+03 -0.28966106358E+02 -0.78274139430E+02  0.16094148381E+03  0.00000000000E+00 0. -1.
<mgrwt>
<rscale>  0 0.23129751E+03</rscale>
<asrwt>0</asrwt>
<pdfrwt beam="2">  1        1 0.29655934E-01 0.23569508E+03</pdfrwt>
<pdfrwt beam="1">  1       -1 0.54107934E-01 0.23569508E+03</pdfrwt>
<totfact> 0.54659420E+02</totfact>
</mgrwt>
</event>
<event>
 8    1  0.1033707E-005  0.2324948E+03  0.7546771E-02  0.1127665E+00
          1   -1    0    0  501    0  0.00000000000E+00  0.00000000000E+00  0.84060626087E+02  0.84060626087E+02  0.00000000000E+00 0. -1.
         -1   -1    0    0    0  501 -0.00000000000E+00 -0.00000000000E+00 -0.74043080520E+03  0.74043080520E+03  0.00000000000E+00 0.  1.
         23    2    1    2    0    0  0.19426692759E+03  0.26251086289E+02 -0.51599587894E+03  0.56595545920E+03  0.12500030412E+03 0.  0.
         23    2    1    2    0    0 -0.19426692759E+03 -0.26251086289E+02 -0.14037430018E+03  0.25853597209E+03  0.93312089384E+02 0.  0.
          5    1    3    3  502    0  0.18133916614E+03 -0.15085771264E+02 -0.46206723838E+03  0.49662832828E+03  0.47000000000E+01 0. -1.
         -5    1    3    3    0  502  0.12927761451E+02  0.41336857553E+02 -0.53928640560E+02  0.69327130917E+02  0.47000000000E+01 0. -1.
        -11    1    4    4    0    0 -0.12371160997E+03 -0.24965490934E+02 -0.33689953409E+02  0.13062484886E+03  0.00000000000E+00 0. -1.
         11    1    4    4    0    0 -0.70555317628E+02 -0.12855953545E+01 -0.10668434677E+03  0.12791112323E+03  0.00000000000E+00 0.  1.
<mgrwt>
<rscale>  0 0.22854879E+03</rscale>
<asrwt>0</asrwt>
<pdfrwt beam="1">  1        1 0.12932404E-01 0.23249481E+03</pdfrwt>
<pdfrwt beam="2">  1       -1 0.11391243E+00 0.23249481E+03</pdfrwt>
<totfact> 0.34065814E+02</totfact>
</mgrwt>
</event>
<event>
 8    1  0.1033707E-005  0.1433625E+03  0.7546771E-02  0.1219399E+00
         -1   -1    0    0    0  501 -0.00000000000E+00  0.00000000000E+00  0.51560824451E+02  0.51560824451E+02  0.00000000000E+00 0.  1.
          1   -1    0    0  501    0  0.00000000000E+00 -0.00000000000E+00 -0.39529139629E+03  0.39529139629E+03  0.00000000000E+00 0. -1.
         23    2    1    2    0    0  0.35661781280E+02  0.60458651603E+02 -0.92313984717E+02  0.17051297960E+03  0.12500317292E+03 0.  0.
         23    2    1    2    0    0 -0.35661781280E+02 -0.60458651603E+02 -0.25141658712E+03  0.27633924114E+03  0.90697655516E+02 0.  0.
          5    1    3    3  502    0  0.54437182889E+02  0.73368470578E+02 -0.10868932386E+03  0.14206265687E+03  0.47000000000E+01 0. -1.
         -5    1    3    3    0  502 -0.18775401609E+02 -0.12909818975E+02  0.16375339140E+02  0.28450322732E+02  0.47000000000E+01 0. -1.
        -11    1    4    4    0    0 -0.15800339974E+02  0.23128149805E+02 -0.48929585789E+02  0.56379663197E+02  0.00000000000E+00 0.  1.
         11    1    4    4    0    0 -0.19861441306E+02 -0.83586801407E+02 -0.20248700133E+03  0.21995957794E+03  0.00000000000E+00 0. -1.
<mgrwt>
<rscale>  0 0.13558295E+03</rscale>
<asrwt>0</asrwt>
<pdfrwt beam="2">  1        1 0.60814059E-01 0.14336249E+03</pdfrwt>
<pdfrwt beam="1">  1       -1 0.79324348E-02 0.14336249E+03</pdfrwt>
<totfact> 0.51724502E+03</totfact>
</mgrwt>
</event>
<event>
 8    1  0.1033707E-005  0.1392592E+03  0.7546771E-02  0.1225428E+00
          2   -1    0    0  501    0  0.00000000000E+00  0.00000000000E+00  0.74252210051E+02  0.74252210051E+02  0.00000000000E+00 0. -1.
         -2   -1    0    0    0  501 -0.00000000000E+00 -0.00000000000E+00 -0.23409214673E+03  0.23409214673E+03  0.00000000000E+00 0.  1.
         23    2    1    2    0    0  0.61377987239E+02  0.76102509595E+00 -0.13769300053E+03  0.19583793386E+03  0.12500118986E+03 0.  0.
         23    2    1    2    0    0 -0.61377987239E+02 -0.76102509595E+00 -0.22146936153E+02  0.11250642292E+03  0.91648087494E+02 0.  0.
          5    1    3    3  502    0  0.72669244604E+02  0.48840618677E+02 -0.71634400407E+02  0.11322456653E+03  0.47000000000E+01 0.  1.
         -5    1    3    3    0  502 -0.11291257366E+02 -0.48079593581E+02 -0.66058600119E+02  0.82613367329E+02  0.47000000000E+01 0.  1.
        -11    1    4    4    0    0 -0.33990499926E+02 -0.87798928245E+00 -0.58095116725E+02  0.67313947572E+02  0.00000000000E+00 0.  1.
         11    1    4    4    0    0 -0.27387487313E+02  0.11696418650E+00  0.35948180572E+02  0.45192475351E+02  0.00000000000E+00 0. -1.
<mgrwt>
<rscale>  0 0.13137625E+03</rscale>
<asrwt>0</asrwt>
<pdfrwt beam="1">  1        2 0.11423417E-01 0.13925923E+03</pdfrwt>
<pdfrwt beam="2">  1       -2 0.36014176E-01 0.13925923E+03</pdfrwt>
<totfact> 0.37861133E+03</totfact>
</mgrwt>
</event>
<event>
 8    1  0.1033707E-005  0.3427420E+03  0.7546771E-02  0.1066762E+00
         -1   -1    0    0    0  501 -0.00000000000E+00  0.00000000000E+00  0.30419718950E+03  0.30419718950E+03  0.00000000000E+00 0.  1.
          1   -1    0    0  501    0  0.00000000000E+00 -0.00000000000E+00 -0.47379839165E+03  0.47379839165E+03  0.00000000000E+00 0. -1.
         23    2    1    2    0    0 -0.21026748247E+03 -0.24007213116E+03  0.92305287061E+02  0.35495396868E+03  0.12500004607E+03 0.  0.
         23    2    1    2    0    0  0.21026748247E+03  0.24007213116E+03 -0.26190648921E+03  0.42304161248E+03  0.92315515763E+02 0.  0.
          5    1    3    3  502    0 -0.19726490937E+02 -0.10612819833E+03  0.46035031369E+02  0.11744634110E+03  0.47000000000E+01 0. -1.
         -5    1    3    3    0  502 -0.19054099153E+03 -0.13394393284E+03  0.46270255692E+02  0.23750762758E+03  0.47000000000E+01 0. -1.
        -11    1    4    4    0    0  0.72873917111E+02  0.13363905918E+03 -0.81999384705E+02  0.17289853968E+03  0.00000000000E+00 0.  1.
         11    1    4    4    0    0  0.13739356536E+03  0.10643307199E+03 -0.17990710451E+03  0.25014307279E+03  0.00000000000E+00 0. -1.
<mgrwt>
<rscale>  0 0.34008028E+03</rscale>
<asrwt>0</asrwt>
<pdfrwt beam="2">  1        1 0.72892060E-01 0.34274196E+03</pdfrwt>
<pdfrwt beam="1">  1       -1 0.46799568E-01 0.34274196E+03</pdfrwt>
<totfact> 0.22574815E+02</totfact>
</mgrwt>
</event>
<event>
 7    1  0.1033707E-005  0.1356351E+03  0.7546771E-02  0.1235313E+00
          1   -1    0    0  501    0  0.00000000000E+00  0.00000000000E+00  0.27946747839E+03  0.27946747839E+03  0.00000000000E+00 0. -1.
         -1   -1    0    0    0  501 -0.00000000000E+00 -0.00000000000E+00 -0.85234298167E+02  0.85234298167E+02  0.00000000000E+00 0.  1.
         23    2    1    2    0    0  0.26764942751E+02 -0.13191313202E+02  0.20671551592E+03  0.22849347719E+03  0.92669259711E+02 0.  0.
          5    1    1    2  502    0 -0.29920563127E+01 -0.29246873246E+02  0.49203622336E+02  0.57510159508E+02  0.47000000000E+01 0. -1.
         -5    1    1    2    0  502 -0.23772886439E+02  0.42438186448E+02 -0.61685958029E+02  0.78698139855E+02  0.47000000000E+01 0.  1.
        -11    1    3    3    0    0  0.48335178359E+02 -0.36724150075E+02  0.98830161162E+02  0.11598428092E+03  0.00000000000E+00 0. -1.
         11    1    3    3    0    0 -0.21570235608E+02  0.23532836873E+02  0.10788535475E+03  0.11250919627E+03  0.00000000000E+00 0.  1.
<mgrwt>
<rscale>  0 0.12484425E+03</rscale>
<asrwt>0</asrwt>
<pdfrwt beam="1">  1        1 0.42994996E-01 0.13563514E+03</pdfrwt>
<pdfrwt beam="2">  1       -1 0.13112969E-01 0.13563514E+03</pdfrwt>
<totfact> 0.36826020E+03</totfact>
</mgrwt>
</event>
<event>
 8    1  0.1033707E-005  0.1312902E+03  0.7546771E-02  0.1239173E+00
         -2   -1    0    0    0  501 -0.00000000000E+00  0.00000000000E+00  0.62288836737E+02  0.62288836737E+02  0.00000000000E+00 0.  1.
          2   -1    0    0  501    0  0.00000000000E+00 -0.00000000000E+00 -0.21337825332E+03  0.21337825332E+03  0.00000000000E+00 0. -1.
         23    2    1    2    0    0  0.11743228784E+02  0.38398011263E+02 -0.82706999487E+02  0.15516944285E+03  0.12499919015E+03 0.  0.
         23    2    1    2    0    0 -0.11743228784E+02 -0.38398011263E+02 -0.68382417098E+02  0.12049764721E+03  0.90726056476E+02 0.  0.
          5    1    3    3  502    0 -0.42460497706E+02  0.59196723470E+02 -0.44061425024E+02  0.85268077909E+02  0.47000000000E+01 0. -1.
         -5    1    3    3    0  502  0.54203726490E+02 -0.20798712208E+02 -0.38645574463E+02  0.69901364940E+02  0.47000000000E+01 0. -1.
        -11    1    4    4    0    0 -0.32391830584E+02 -0.80322113955E+01 -0.75991201981E+02  0.82996445026E+02  0.00000000000E+00 0. -1.
         11    1    4    4    0    0  0.20648601800E+02 -0.30365799867E+02  0.76087848826E+01  0.37501202184E+02  0.00000000000E+00 0.  1.
<mgrwt>
<rscale>  0 0.12241031E+03</rscale>
<asrwt>0</asrwt>
<pdfrwt beam="2">  1        2 0.32827424E-01 0.13129017E+03</pdfrwt>
<pdfrwt beam="1">  1       -2 0.95828978E-02 0.13129017E+03</pdfrwt>
<totfact> 0.10597956E+04</totfact>
</mgrwt>
</event>
<event>
 8    1  0.1033707E-005  0.1536647E+03  0.7546771E-02  0.1204843E+00
          2   -1    0    0  501    0  0.00000000000E+00  0.00000000000E+00  0.10787330529E+04  0.10787330529E+04  0.00000000000E+00 0. -1.
         -2   -1    0    0    0  501 -0.00000000000E+00 -0.00000000000E+00 -0.18249120648E+02  0.18249120648E+02  0.00000000000E+00 0.  1.
         23    2    1    2    0    0 -0.35809248233E+02  0.81886580078E+02  0.57711621587E+03  0.59722354264E+03  0.12500047601E+03 0.  0.
         23    2    1    2    0    0  0.35809248233E+02 -0.81886580078E+02  0.48336771642E+03  0.49975863095E+03  0.90147799056E+02 0.  0.
          5    1    3    3  502    0 -0.66335427487E+01  0.49460732374E+02  0.53177373814E+03  0.53413085149E+03  0.47000000000E+01 0. -1.
         -5    1    3    3    0  502 -0.29175705484E+02  0.32425847704E+02  0.45342477736E+02  0.63092691154E+02  0.47000000000E+01 0. -1.
        -11    1    4    4    0    0 -0.17778296180E+02 -0.65100536933E+02  0.31909502825E+03  0.32615300823E+03  0.00000000000E+00 0.  1.
         11    1    4    4    0    0  0.53587544413E+02 -0.16786043146E+02  0.16427268817E+03  0.17360562272E+03  0.00000000000E+00 0. -1.
<mgrwt>
<rscale>  0 0.14649814E+03</rscale>
<asrwt>0</asrwt>
<pdfrwt beam="1">  1        2 0.16595888E+00 0.15366468E+03</pdfrwt>
<pdfrwt beam="2">  1       -2 0.28075579E-02 0.15366468E+03</pdfrwt>
<totfact> 0.10686512E+04</totfact>
</mgrwt>
</event>
<event>
 8    1  0.1033707E-005  0.1262279E+03  0.7546771E-02  0.1245057E+00
          2   -1    0    0  501    0  0.00000000000E+00  0.00000000000E+00  0.35142154941E+03  0.35142154941E+03  0.00000000000E+00 0. -1.
         -2   -1    0    0    0  501 -0.00000000000E+00 -0.00000000000E+00 -0.36729714718E+02  0.36729714718E+02  0.00000000000E+00 0.  1.
         23    2    1    2    0    0 -0.11087528438E+00  0.17575327826E+02  0.15115177200E+03  0.19692726449E+03  0.12499833950E+03 0.  0.
         23    2    1    2    0    0  0.11087528438E+00 -0.17575327826E+02  0.16354006269E+03  0.19122399964E+03  0.97531335954E+02 0.  0.
          5    1    3    3  502    0 -0.11619501293E+00 -0.13523484723E+02  0.16276967184E+03  0.16339814629E+03  0.47000000000E+01 0.  1.
         -5    1    3    3    0  502  0.53197285464E-02  0.31098812548E+02 -0.11617899838E+02  0.33529118194E+02  0.47000000000E+01 0.  1.
        -11    1    4    4    0    0 -0.28344838456E+02 -0.48229401369E+02  0.77782141799E+02  0.95810054829E+02  0.00000000000E+00 0. -1.
         11    1    4    4    0    0  0.28455713741E+02  0.30654073543E+02  0.85757920891E+02  0.95413944813E+02  0.00000000000E+00 0.  1.
<mgrwt>
<rscale>  0 0.11881944E+03</rscale>
<asrwt>0</asrwt>
<pdfrwt beam="1">  1        2 0.54064851E-01 0.12622793E+03</pdfrwt>
<pdfrwt beam="2">  1       -2 0.56507256E-02 0.12622793E+03</pdfrwt>
<totfact> 0.13985565E+04</totfact>
</mgrwt>
</event>
<event>
 8    1  0.1073114E-005  0.4090605E+03  0.7546771E-02  0.1041474E+00
          1   -1    0    0  501    0  0.00000000000E+00  0.00000000000E+00  0.30308216973E+03  0.30308216973E+03  0.00000000000E+00 0. -1.
         -1   -1    0    0    0  501 -0.00000000000E+00 -0.00000000000E+00 -0.79061832138E+03  0.79061832138E+03  0.00000000000E+00 0.  1.
         23    2    1    2    0    0 -0.38916001667E+03  0.16098267667E+02 -0.55373339024E+03  0.68844111439E+03  0.12500331082E+03 0.  0.
         23    2    1    2    0    0  0.38916001667E+03 -0.16098267667E+02  0.66197238592E+02  0.40525937671E+03  0.90268572712E+02 0.  0.
          5    1    3    3  502    0 -0.48791625591E+02  0.41697506536E+02 -0.12323435797E+03  0.13902554356E+03  0.47000000000E+01 0.  1.
         -5    1    3    3    0  502 -0.34036839108E+03 -0.25599238869E+02 -0.43049903227E+03  0.54941557082E+03  0.47000000000E+01 0.  1.
        -11    1    4    4    0    0  0.26042053158E+03 -0.53170649191E+02  0.47103112423E+02  0.26993457430E+03  0.00000000000E+00 0.  1.
         11    1    4    4    0    0  0.12873948510E+03  0.37072381525E+02  0.19094126169E+02  0.13532480242E+03  0.00000000000E+00 0. -1.
<mgrwt>
<rscale>  0 0.40672961E+03</rscale>
<asrwt>0</asrwt>
<pdfrwt beam="1">  1        1 0.46628026E-01 0.40906051E+03</pdfrwt>
<pdfrwt beam="2">  1       -1 0.12163359E+00 0.40906051E+03</pdfrwt>
<totfact> 0.54696388E+01</totfact>
</mgrwt>
</event>
<event>
 8    1  0.1033707E-005  0.1543612E+03  0.7546771E-02  0.1204036E+00
         -2   -1    0    0    0  501 -0.00000000000E+00  0.00000000000E+00  0.60767912490E+02  0.60767912490E+02  0.00000000000E+00 0.  1.
          2   -1    0    0  501    0  0.00000000000E+00 -0.00000000000E+00 -0.33848518065E+03  0.33848518065E+03  0.00000000000E+00 0. -1.
         23    2    1    2    0    0  0.45689068629E+02 -0.78194114066E+02 -0.18878264802E+03  0.24385709070E+03  0.12500232807E+03 0.  0.
         23    2    1    2    0    0 -0.45689068629E+02  0.78194114066E+02 -0.88934620135E+02  0.15539600244E+03  0.89647869184E+02 0.  0.
          5    1    3    3  502    0  0.45732074991E+02 -0.37341121718E+02 -0.95804698921E+01  0.59997145411E+02  0.47000000000E+01 0.  1.
         -5    1    3    3    0  502 -0.43006362319E-01 -0.40852992349E+02 -0.17920217813E+03  0.18385994529E+03  0.47000000000E+01 0.  1.
        -11    1    4    4    0    0  0.16086079632E+01  0.16992207945E+02 -0.74855679260E+02  0.76776920151E+02  0.00000000000E+00 0. -1.
         11    1    4    4    0    0 -0.47297676592E+02  0.61201906122E+02 -0.14078940875E+02  0.78619082290E+02  0.00000000000E+00 0.  1.
<mgrwt>
<rscale>  0 0.14713707E+03</rscale>
<asrwt>0</asrwt>
<pdfrwt beam="2">  1        2 0.52074644E-01 0.15436124E+03</pdfrwt>
<pdfrwt beam="1">  1       -2 0.93489095E-02 0.15436124E+03</pdfrwt>
<totfact> 0.68140508E+03</totfact>
</mgrwt>
</event>
<event>
 8    1  0.1033707E-005  0.1545450E+03  0.7546771E-02  0.1203849E+00
         -2   -1    0    0    0  501 -0.00000000000E+00  0.00000000000E+00  0.18520988721E+03  0.18520988721E+03  0.00000000000E+00 0.  1.
          2   -1    0    0  501    0  0.00000000000E+00 -0.00000000000E+00 -0.10777377166E+03  0.10777377166E+03  0.00000000000E+00 0. -1.
         23    2    1    2    0    0  0.87615499731E+00 -0.90871509564E+02  0.51353366421E+02  0.16285371377E+03  0.12500305976E+03 0.  0.
         23    2    1    2    0    0 -0.87615499731E+00  0.90871509564E+02  0.26082749138E+02  0.13012994510E+03  0.89415289022E+02 0.  0.
          5    1    3    3  502    0 -0.25622833266E+02 -0.27629688545E+02 -0.35576598523E+02  0.52035695788E+02  0.47000000000E+01 0. -1.
         -5    1    3    3    0  502  0.26498988263E+02 -0.63241821018E+02  0.86929964944E+02  0.11081801798E+03  0.47000000000E+01 0. -1.
        -11    1    4    4    0    0 -0.24424311291E+02  0.16569688376E+02 -0.23521078703E+02  0.37740464998E+02  0.00000000000E+00 0. -1.
         11    1    4    4    0    0  0.23548156294E+02  0.74301821188E+02  0.49603827841E+02  0.92389480100E+02  0.00000000000E+00 0.  1.
<mgrwt>
<rscale>  0 0.14728537E+03</rscale>
<asrwt>0</asrwt>
<pdfrwt beam="2">  1        2 0.16580580E-01 0.15454502E+03</pdfrwt>
<pdfrwt beam="1">  1       -2 0.28493829E-01 0.15454502E+03</pdfrwt>
<totfact> 0.37529559E+03</totfact>
</mgrwt>
</event>
<event>
 8    1  0.1033707E-005  0.1350392E+03  0.7546771E-02  0.1232519E+00
         -2   -1    0    0    0  501 -0.00000000000E+00  0.00000000000E+00  0.33807705153E+03  0.33807705153E+03  0.00000000000E+00 0.  1.
          2   -1    0    0  501    0  0.00000000000E+00 -0.00000000000E+00 -0.47400693401E+02  0.47400693401E+02  0.00000000000E+00 0. -1.
         23    2    1    2    0    0 -0.42782255645E+02 -0.28076938409E+02  0.22396550850E+03  0.26152654080E+03  0.12496778255E+03 0.  0.
         23    2    1    2    0    0  0.42782255645E+02  0.28076938409E+02  0.66710849625E+02  0.12395120413E+03  0.91076493555E+02 0.  0.
          5    1    3    3  502    0 -0.65144044084E+02 -0.44728389313E+02  0.72173247566E+02  0.10712349394E+03  0.47000000000E+01 0. -1.
         -5    1    3    3    0  502  0.22361788439E+02  0.16651450903E+02  0.15179226093E+03  0.15440304686E+03  0.47000000000E+01 0. -1.
        -11    1    4    4    0    0 -0.22040220439E+02  0.84713785497E+01 -0.62285379078E+01  0.24419874201E+02  0.00000000000E+00 0. -1.
         11    1    4    4    0    0  0.64822476084E+02  0.19605559860E+02  0.72939387532E+02  0.99531329925E+02  0.00000000000E+00 0.  1.
<mgrwt>
<rscale>  0 0.12664577E+03</rscale>
<asrwt>0</asrwt>
<pdfrwt beam="2">  1        2 0.72924146E-02 0.13503919E+03</pdfrwt>
<pdfrwt beam="1">  1       -2 0.52011853E-01 0.13503919E+03</pdfrwt>
<totfact> 0.32499092E+03</totfact>
</mgrwt>
</event>
<event>
 8    1  0.1033707E-005  0.1334677E+03  0.7546771E-02  0.1234797E+00
         -4   -1    0    0    0  501 -0.00000000000E+00  0.00000000000E+00  0.48651915695E+03  0.48651915695E+03  0.00000000000E+00 0.  1.
          4   -1    0    0  501    0  0.00000000000E+00 -0.00000000000E+00 -0.29025630004E+02  0.29025630004E+02  0.00000000000E+00 0. -1.
         23    2    1    2    0    0 -0.18440546815E+02  0.43000148943E+02  0.28041897665E+03  0.31056148576E+03  0.12499826957E+03 0.  0.
         23    2    1    2    0    0  0.18440546815E+02 -0.43000148943E+02  0.17707455029E+03  0.20498330119E+03  0.92052652485E+02 0.  0.
          5    1    3    3  502    0 -0.33708271119E+02  0.54137087427E+01  0.26448834417E+03  0.26672407088E+03  0.47000000000E+01 0. -1.
         -5    1    3    3    0  502  0.15267724304E+02  0.37586440200E+02  0.15930632481E+02  0.43837414883E+02  0.47000000000E+01 0. -1.
        -11    1    4    4    0    0  0.19621805166E+02 -0.65774734801E+02  0.80677506950E+02  0.10592540349E+03  0.00000000000E+00 0. -1.
         11    1    4    4    0    0 -0.11812583508E+01  0.22774585858E+02  0.96397043338E+02  0.99057897700E+02  0.00000000000E+00 0.  1.
<mgrwt>
<rscale>  0 0.12517451E+03</rscale>
<asrwt>0</asrwt>
<pdfrwt beam="2">  1        4 0.44654819E-02 0.13346773E+03</pdfrwt>
<pdfrwt beam="1">  1       -4 0.74849095E-01 0.13346773E+03</pdfrwt>
<totfact> 0.77905269E+02</totfact>
</mgrwt>
</event>
<event>
 8    1  0.1033707E-005  0.1860240E+03  0.7546771E-02  0.1167197E+00
          2   -1    0    0  501    0  0.00000000000E+00  0.00000000000E+00  0.46795611313E+03  0.46795611313E+03  0.00000000000E+00 0. -1.
         -2   -1    0    0    0  501 -0.00000000000E+00 -0.00000000000E+00 -0.73700872726E+02  0.73700872726E+02  0.00000000000E+00 0.  1.
         23    2    1    2    0    0  0.11274311019E+03  0.79176888972E+02  0.11988579797E+03  0.22130870189E+03  0.12499979335E+03 0.  0.
         23    2    1    2    0    0 -0.11274311019E+03 -0.79176888972E+02  0.27436944243E+03  0.32034828396E+03  0.91457331317E+02 0.  0.
          5    1    3    3  502    0  0.50721705335E+02  0.58392925004E+01 -0.17003990369E+02  0.54018648794E+02  0.47000000000E+01 0.  1.
         -5    1    3    3    0  502  0.62021404852E+02  0.73337596471E+02  0.13688978833E+03  0.16729005310E+03  0.47000000000E+01 0.  1.
        -11    1    4    4    0    0  0.26391736832E+01 -0.18479692997E+02  0.24984193910E+01  0.18833650482E+02  0.00000000000E+00 0.  1.
         11    1    4    4    0    0 -0.11538228387E+03 -0.60697195974E+02  0.27187102304E+03  0.30151463348E+03  0.00000000000E+00 0. -1.
<mgrwt>
<rscale>  0 0.18062813E+03</rscale>
<asrwt>0</asrwt>
<pdfrwt beam="1">  1        2 0.71993246E-01 0.18602402E+03</pdfrwt>
<pdfrwt beam="2">  1       -2 0.11338596E-01 0.18602402E+03</pdfrwt>
<totfact> 0.35722184E+03</totfact>
</mgrwt>
</event>
<event>
 8    1  0.1033707E-005  0.1457497E+03  0.7546771E-02  0.1214991E+00
         -4   -1    0    0    0  501 -0.00000000000E+00  0.00000000000E+00  0.30963194336E+03  0.30963194336E+03  0.00000000000E+00 0.  1.
          4   -1    0    0  501    0  0.00000000000E+00 -0.00000000000E+00 -0.88117393083E+02  0.88117393083E+02  0.00000000000E+00 0. -1.
         23    2    1    2    0    0  0.72605535337E+02  0.18624576320E+02  0.23570868156E+03  0.27713094872E+03  0.12499816626E+03 0.  0.
         23    2    1    2    0    0 -0.72605535337E+02 -0.18624576320E+02 -0.14194131283E+02  0.12061838773E+03  0.93428493994E+02 0.  0.
          5    1    3    3  502    0 -0.14977071250E+02  0.42413577305E+02  0.36303266365E+02  0.57993459561E+02  0.47000000000E+01 0. -1.
         -5    1    3    3    0  502  0.87582606588E+02 -0.23789000986E+02  0.19940541519E+03  0.21913748916E+03  0.47000000000E+01 0. -1.
        -11    1    4    4    0    0 -0.26610532944E+02  0.41954903904E+01 -0.50840713269E+02  0.57536950987E+02  0.00000000000E+00 0. -1.
         11    1    4    4    0    0 -0.45995002394E+02 -0.22820066710E+02  0.36646581986E+02  0.63081436739E+02  0.00000000000E+00 0.  1.
<mgrwt>
<rscale>  0 0.13877210E+03</rscale>
<asrwt>0</asrwt>
<pdfrwt beam="2">  1        4 0.13556522E-01 0.14574972E+03</pdfrwt>
<pdfrwt beam="1">  1       -4 0.47635683E-01 0.14574972E+03</pdfrwt>
<totfact> 0.32482740E+02</totfact>
</mgrwt>
</event>
<event>
 8    1  0.1033707E-005  0.1575705E+03  0.7546771E-02  0.1199488E+00
         -2   -1    0    0    0  501 -0.00000000000E+00  0.00000000000E+00  0.21505287364E+03  0.21505287364E+03  0.00000000000E+00 0.  1.
          2   -1    0    0  501    0  0.00000000000E+00 -0.00000000000E+00 -0.31925675313E+03  0.31925675313E+03  0.00000000000E+00 0. -1.
         23    2    1    2    0    0  0.15781188874E+02 -0.94625150239E+02  0.16884037589E+03  0.23094486387E+03  0.12500197054E+03 0.  0.
         23    2    1    2    0    0 -0.15781188874E+02  0.94625150239E+02 -0.27304425539E+03  0.30336476289E+03  0.90961799589E+02 0.  0.
          5    1    3    3  502    0 -0.30938371733E+02 -0.89577258596E+02  0.59906878356E+02  0.11221493741E+03  0.47000000000E+01 0.  1.
         -5    1    3    3    0  502  0.46719560607E+02 -0.50478916432E+01  0.10893349754E+03  0.11872992647E+03  0.47000000000E+01 0.  1.
        -11    1    4    4    0    0  0.37314704838E+02  0.42763041601E+02 -0.98233824486E+02  0.11345020581E+03  0.00000000000E+00 0.  1.
         11    1    4    4    0    0 -0.53095893712E+02  0.51862108638E+02 -0.17481043090E+03  0.18991455709E+03  0.00000000000E+00 0. -1.
<mgrwt>
<rscale>  0 0.15080459E+03</rscale>
<asrwt>0</asrwt>
<pdfrwt beam="2">  1        2 0.49116423E-01 0.15757048E+03</pdfrwt>
<pdfrwt beam="1">  1       -2 0.33085058E-01 0.15757048E+03</pdfrwt>
<totfact> 0.86831984E+02</totfact>
</mgrwt>
</event>
<event>
 8    1  0.1033707E-005  0.1497704E+03  0.7546771E-02  0.1209745E+00
         -1   -1    0    0    0  501 -0.00000000000E+00  0.00000000000E+00  0.26097177537E+02  0.26097177537E+02  0.00000000000E+00 0.  1.
          1   -1    0    0  501    0  0.00000000000E+00 -0.00000000000E+00 -0.73290816858E+03  0.73290816858E+03  0.00000000000E+00 0. -1.
         23    2    1    2    0    0  0.40133349324E+01  0.82405023736E+02 -0.32752170044E+03  0.36014113045E+03  0.12499789915E+03 0.  0.
         23    2    1    2    0    0 -0.40133349324E+01 -0.82405023736E+02 -0.37928929060E+03  0.39886421566E+03  0.91791076784E+02 0.  0.
          5    1    3    3  502    0  0.21506452270E+02  0.74698177736E+02 -0.79312713533E+02  0.11115278572E+03  0.47000000000E+01 0.  1.
         -5    1    3    3    0  502 -0.17493117337E+02  0.77068459991E+01 -0.24820898691E+03  0.24898834473E+03  0.47000000000E+01 0.  1.
        -11    1    4    4    0    0 -0.49439192165E+01  0.15453510307E+02 -0.16633853603E+02  0.23236574698E+02  0.00000000000E+00 0.  1.
         11    1    4    4    0    0  0.93058428414E+00 -0.97858534042E+02 -0.36265543700E+03  0.37562764097E+03  0.00000000000E+00 0. -1.
<mgrwt>
<rscale>  0 0.14269710E+03</rscale>
<asrwt>0</asrwt>
<pdfrwt beam="2">  1        1 0.11275510E+00 0.14977039E+03</pdfrwt>
<pdfrwt beam="1">  1       -1 0.40149505E-02 0.14977039E+03</pdfrwt>
<totfact> 0.62553043E+03</totfact>
</mgrwt>
</event>
<event>
 8    1  0.1033707E-005  0.1880830E+03  0.7546771E-02  0.1165985E+00
         -1   -1    0    0    0  501 -0.00000000000E+00  0.00000000000E+00  0.42749574403E+02  0.42749574403E+02  0.00000000000E+00 0.  1.
          1   -1    0    0  501    0  0.00000000000E+00 -0.00000000000E+00 -0.72716686784E+03  0.72716686784E+03  0.00000000000E+00 0. -1.
         23    2    1    2    0    0 -0.26226479599E+02 -0.13806679823E+03 -0.36992960337E+03  0.41499776276E+03  0.12499985056E+03 0.  0.
         23    2    1    2    0    0  0.26226479599E+02  0.13806679823E+03 -0.31448769007E+03  0.35491867948E+03  0.85524808303E+02 0.  0.
          5    1    3    3  502    0 -0.45155189781E+02 -0.15456819122E+03 -0.29949488472E+03  0.34007292288E+03  0.47000000000E+01 0. -1.
         -5    1    3    3    0  502  0.18928710181E+02  0.16501392992E+02 -0.70434718651E+02  0.74924839882E+02  0.47000000000E+01 0. -1.
        -11    1    4    4    0    0  0.66205259756E+01  0.64161787168E+02 -0.56200191275E+02  0.85551316741E+02  0.00000000000E+00 0.  1.
         11    1    4    4    0    0  0.19605953624E+02  0.73905011064E+02 -0.25828749879E+03  0.26936736274E+03  0.00000000000E+00 0. -1.
<mgrwt>
<rscale>  0 0.18189165E+03</rscale>
<asrwt>0</asrwt>
<pdfrwt beam="2">  1        1 0.11187183E+00 0.18808304E+03</pdfrwt>
<pdfrwt beam="1">  1       -1 0.65768575E-02 0.18808304E+03</pdfrwt>
<totfact> 0.30611754E+03</totfact>
</mgrwt>
</event>
<event>
 8    1  0.1488964E-005  0.2133055E+03  0.7546771E-02  0.1142932E+00
          2   -1    0    0  501    0  0.00000000000E+00  0.00000000000E+00  0.98715081044E+03  0.98715081044E+03  0.00000000000E+00 0. -1.
         -2   -1    0    0    0  501 -0.00000000000E+00 -0.00000000000E+00 -0.43050893237E+02  0.43050893237E+02  0.00000000000E+00 0.  1.
         23    2    1    2    0    0  0.76749647552E+01 -0.17267152090E+03  0.41347165806E+03  0.46525050246E+03  0.12499943522E+03 0.  0.
         23    2    1    2    0    0 -0.76749647552E+01  0.17267152090E+03  0.53062825914E+03  0.56495120122E+03  0.87915590994E+02 0.  0.
          5    1    3    3  502    0 -0.27715638790E+02  0.14982046774E+01  0.10989204983E+03  0.11344053009E+03  0.47000000000E+01 0.  1.
         -5    1    3    3    0  502  0.35390603545E+02 -0.17416972558E+03  0.30357960823E+03  0.35180997238E+03  0.47000000000E+01 0.  1.
        -11    1    4    4    0    0 -0.38078025553E+02  0.79446957203E+02  0.17323932128E+03  0.19435436058E+03  0.00000000000E+00 0.  1.
         11    1    4    4    0    0  0.30403060798E+02  0.93224563701E+02  0.35738893787E+03  0.37059684064E+03  0.00000000000E+00 0. -1.
<mgrwt>
<rscale>  0 0.20828358E+03</rscale>
<asrwt>0</asrwt>
<pdfrwt beam="1">  1        2 0.15186934E+00 0.21330546E+03</pdfrwt>
<pdfrwt beam="2">  1       -2 0.66232151E-02 0.21330546E+03</pdfrwt>
<totfact> 0.33746844E+03</totfact>
</mgrwt>
</event>
<event>
 8    1  0.1033707E-005  0.1693887E+03  0.7546771E-02  0.1185658E+00
          2   -1    0    0  501    0  0.00000000000E+00  0.00000000000E+00  0.14722116079E+03  0.14722116079E+03  0.00000000000E+00 0. -1.
         -2   -1    0    0    0  501 -0.00000000000E+00 -0.00000000000E+00 -0.18313182022E+03  0.18313182022E+03  0.00000000000E+00 0.  1.
         23    2    1    2    0    0 -0.10975508452E+03  0.31952490116E+02  0.29542202092E+02  0.17194557643E+03  0.12500159738E+03 0.  0.
         23    2    1    2    0    0  0.10975508452E+03 -0.31952490116E+02 -0.65452861518E+02  0.15840740458E+03  0.87986865731E+02 0.  0.
          5    1    3    3  502    0 -0.24739331998E+01 -0.29494245007E+02 -0.22751324617E+02  0.37626368491E+02  0.47000000000E+01 0. -1.
         -5    1    3    3    0  502 -0.10728115132E+03  0.61446735122E+02  0.52293526708E+02  0.13431920794E+03  0.47000000000E+01 0. -1.
        -11    1    4    4    0    0  0.98161362599E+02  0.11851991248E+02 -0.47090133301E+02  0.10951531152E+03  0.00000000000E+00 0.  1.
         11    1    4    4    0    0  0.11593721922E+02 -0.43804481364E+02 -0.18362728218E+02  0.48892093054E+02  0.00000000000E+00 0. -1.
<mgrwt>
<rscale>  0 0.16272127E+03</rscale>
<asrwt>0</asrwt>
<pdfrwt beam="1">  1        2 0.22649410E-01 0.16938872E+03</pdfrwt>
<pdfrwt beam="2">  1       -2 0.28174126E-01 0.16938872E+03</pdfrwt>
<totfact> 0.26952225E+03</totfact>
</mgrwt>
</event>
<event>
 8    1  0.1033707E-005  0.1479818E+03  0.7546771E-02  0.1212375E+00
         -1   -1    0    0    0  501 -0.00000000000E+00  0.00000000000E+00  0.32649637880E+02  0.32649637880E+02  0.00000000000E+00 0.  1.
          1   -1    0    0  501    0  0.00000000000E+00 -0.00000000000E+00 -0.58529731983E+03  0.58529731983E+03  0.00000000000E+00 0. -1.
         23    2    1    2    0    0  0.10007703285E+02  0.78568066736E+02 -0.23134950702E+03  0.27462922571E+03  0.12500208789E+03 0.  0.
         23    2    1    2    0    0 -0.10007703285E+02 -0.78568066736E+02 -0.32129817492E+03  0.34331773200E+03  0.91440979121E+02 0.  0.
          5    1    3    3  502    0 -0.29428848251E+01  0.86221580016E+02 -0.66500501616E+02  0.10902856574E+03  0.47000000000E+01 0.  1.
         -5    1    3    3    0  502  0.12950588110E+02 -0.76535132804E+01 -0.16484900541E+03  0.16560065997E+03  0.47000000000E+01 0.  1.
        -11    1    4    4    0    0  0.19422330264E+02 -0.79015829852E+02 -0.16159048094E+03  0.18092045714E+03  0.00000000000E+00 0.  1.
         11    1    4    4    0    0 -0.29430033549E+02  0.44776311614E+00 -0.15970769398E+03  0.16239727486E+03  0.00000000000E+00 0. -1.
<mgrwt>
<rscale>  0 0.14071120E+03</rscale>
<asrwt>0</asrwt>
<pdfrwt beam="2">  1        1 0.90045735E-01 0.14798181E+03</pdfrwt>
<pdfrwt beam="1">  1       -1 0.50230216E-02 0.14798181E+03</pdfrwt>
<totfact> 0.61573481E+03</totfact>
</mgrwt>
</event>
<event>
 8    1  0.1033707E-005  0.2293240E+03  0.7546771E-02  0.1130312E+00
         -2   -1    0    0    0  501 -0.00000000000E+00  0.00000000000E+00  0.12333923880E+03  0.12333923880E+03  0.00000000000E+00 0.  1.
          2   -1    0    0  501    0  0.00000000000E+00 -0.00000000000E+00 -0.39499591242E+03  0.39499591242E+03  0.00000000000E+00 0. -1.
         23    2    1    2    0    0 -0.18580786801E+03 -0.49400934312E+02 -0.13457025289E+03  0.26589219130E+03  0.12499795320E+03 0.  0.
         23    2    1    2    0    0  0.18580786801E+03  0.49400934312E+02 -0.13708642073E+03  0.25244295992E+03  0.89273429096E+02 0.  0.
          5    1    3    3  502    0 -0.19931608984E+03 -0.49967945275E+02 -0.10020089668E+03  0.22866134112E+03  0.47000000000E+01 0. -1.
         -5    1    3    3    0  502  0.13508221838E+02  0.56701096261E+00 -0.34369356214E+02  0.37230850181E+02  0.47000000000E+01 0. -1.
        -11    1    4    4    0    0  0.13708530608E+03  0.43417210832E+02 -0.14324518215E+03  0.20296949906E+03  0.00000000000E+00 0.  1.
         11    1    4    4    0    0  0.48722561922E+02  0.59837234809E+01  0.61587614257E+01  0.49473460857E+02  0.00000000000E+00 0. -1.
<mgrwt>
<rscale>  0 0.22485884E+03</rscale>
<asrwt>0</asrwt>
<pdfrwt beam="2">  1        2 0.60768603E-01 0.22932402E+03</pdfrwt>
<pdfrwt beam="1">  1       -2 0.18975267E-01 0.22932402E+03</pdfrwt>
<totfact> 0.18527615E+03</totfact>
</mgrwt>
</event>
<event>
 8    1  0.1033707E-005  0.2244102E+03  0.7546771E-02  0.1134277E+00
         -3   -1    0    0    0  501 -0.00000000000E+00  0.00000000000E+00  0.14203476925E+03  0.14203476925E+03  0.00000000000E+00 0.  1.
          3   -1    0    0  501    0  0.00000000000E+00 -0.00000000000E+00 -0.45022925513E+03  0.45022925513E+03  0.00000000000E+00 0. -1.
         23    2    1    2    0    0 -0.84859071756E+02 -0.16592920438E+03 -0.29839019451E+01  0.22443007391E+03  0.12500556580E+03 0.  0.
         23    2    1    2    0    0  0.84859071756E+02  0.16592920438E+03 -0.30521058393E+03  0.36783395047E+03  0.86108952214E+02 0.  0.
          5    1    3    3  502    0 -0.87202301714E+02 -0.13490763339E+03 -0.49603215736E+02  0.16818703869E+03  0.47000000000E+01 0. -1.
         -5    1    3    3    0  502  0.23432299584E+01 -0.31021570985E+02  0.46619313791E+02  0.56243035225E+02  0.47000000000E+01 0. -1.
        -11    1    4    4    0    0  0.23579784405E+02  0.93081428473E+02 -0.22012514821E+03  0.24015669766E+03  0.00000000000E+00 0. -1.
         11    1    4    4    0    0  0.61279287351E+02  0.72847775905E+02 -0.85085435725E+02  0.12767725281E+03  0.00000000000E+00 0.  1.
<mgrwt>
<rscale>  0 0.21947220E+03</rscale>
<asrwt>0</asrwt>
<pdfrwt beam="2">  1        3 0.69266038E-01 0.22441024E+03</pdfrwt>
<pdfrwt beam="1">  1       -3 0.21851503E-01 0.22441024E+03</pdfrwt>
<totfact> 0.96276977E+01</totfact>
</mgrwt>
</event>
<event>
 8    1  0.1033707E-005  0.1303004E+03  0.7546771E-02  0.1238089E+00
          3   -1    0    0  501    0  0.00000000000E+00  0.00000000000E+00  0.39468896228E+02  0.39468896228E+02  0.00000000000E+00 0. -1.
         -3   -1    0    0    0  501 -0.00000000000E+00 -0.00000000000E+00 -0.34744749605E+03  0.34744749605E+03  0.00000000000E+00 0.  1.
         23    2    1    2    0    0 -0.52663574686E+00 -0.36794983069E+02 -0.17832709722E+03  0.22085909136E+03  0.12499614598E+03 0.  0.
         23    2    1    2    0    0  0.52663574686E+00  0.36794983069E+02 -0.12965150260E+03  0.16605730091E+03  0.97012199934E+02 0.  0.
          5    1    3    3  502    0  0.59826566984E+02 -0.20636594928E+02 -0.61934559085E+02  0.88673935158E+02  0.47000000000E+01 0. -1.
         -5    1    3    3    0  502 -0.60353202731E+02 -0.16158388141E+02 -0.11639253814E+03  0.13218515621E+03  0.47000000000E+01 0. -1.
        -11    1    4    4    0    0 -0.54682567330E+01 -0.30093963730E+02 -0.17233990473E+02  0.35107818393E+02  0.00000000000E+00 0. -1.
         11    1    4    4    0    0  0.59948924798E+01  0.66888946799E+02 -0.11241751212E+03  0.13094948252E+03  0.00000000000E+00 0.  1.
<mgrwt>
<rscale>  0 0.12308739E+03</rscale>
<asrwt>0</asrwt>
<pdfrwt beam="1">  1        3 0.60721376E-02 0.13030036E+03</pdfrwt>
<pdfrwt beam="2">  1       -3 0.53453463E-01 0.13030036E+03</pdfrwt>
<totfact> 0.13320782E+03</totfact>
</mgrwt>
</event>
<event>
 8    1  0.1033707E-005  0.1422525E+03  0.7546771E-02  0.1215279E+00
         -3   -1    0    0    0  501 -0.00000000000E+00  0.00000000000E+00  0.13111315983E+03  0.13111315983E+03  0.00000000000E+00 0.  1.
          3   -1    0    0  501    0  0.00000000000E+00 -0.00000000000E+00 -0.31684352112E+03  0.31684352112E+03  0.00000000000E+00 0. -1.
         23    2    1    2    0    0  0.51781642193E+02  0.73123127696E+02  0.72543912321E+02  0.15968214609E+03  0.11048727661E+03 0.  0.
         23    2    1    2    0    0 -0.51781642193E+02 -0.73123127696E+02 -0.25827427360E+03  0.28827453486E+03  0.91478285793E+02 0.  0.
          5    1    3    3  502    0 -0.94398122710E+01 -0.17774534849E+02  0.40395220418E+02  0.45375191211E+02  0.47000000000E+01 0. -1.
         -5    1    3    3    0  502  0.61221454464E+02  0.90897662545E+02  0.32148691902E+02  0.11430695488E+03  0.47000000000E+01 0.  1.
        -11    1    4    4    0    0 -0.59918123252E+02 -0.89489378937E+02 -0.23635498748E+03  0.25973488511E+03  0.00000000000E+00 0. -1.
         11    1    4    4    0    0  0.81364810597E+01  0.16366251241E+02 -0.21919286123E+02  0.28539649750E+02  0.00000000000E+00 0.  1.
<mgrwt>
<rscale>  0 0.13856040E+03</rscale>
<asrwt>0</asrwt>
<pdfrwt beam="2">  1        3 0.48745157E-01 0.14225248E+03</pdfrwt>
<pdfrwt beam="1">  1       -3 0.20171255E-01 0.14225248E+03</pdfrwt>
<totfact> 0.21842683E+02</totfact>
</mgrwt>
</event>
<event>
 8    1  0.1033707E-005  0.1772032E+03  0.7546771E-02  0.1176324E+00
          1   -1    0    0  501    0  0.00000000000E+00  0.00000000000E+00  0.38745058861E+03  0.38745058861E+03  0.00000000000E+00 0. -1.
         -1   -1    0    0    0  501 -0.00000000000E+00 -0.00000000000E+00 -0.78765870913E+02  0.78765870913E+02  0.00000000000E+00 0.  1.
         23    2    1    2    0    0  0.32506298421E+02  0.12132408386E+03  0.92195797611E+02  0.19975243266E+03  0.12499910597E+03 0.  0.
         23    2    1    2    0    0 -0.32506298421E+02 -0.12132408386E+03  0.21648892009E+03  0.26646402687E+03  0.91429931271E+02 0.  0.
          5    1    3    3  502    0 -0.62855330859E+00  0.11689779800E+03  0.18175118352E+02  0.11839727693E+03  0.47000000000E+01 0.  1.
         -5    1    3    3    0  502  0.33134851730E+02  0.44262858636E+01  0.74020679259E+02  0.81355155729E+02  0.47000000000E+01 0.  1.
        -11    1    4    4    0    0 -0.62211485774E+02 -0.64389720818E+02  0.10685557444E+03  0.13940738466E+03  0.00000000000E+00 0.  1.
         11    1    4    4    0    0  0.29705187353E+02 -0.56934363045E+02  0.10963334565E+03  0.12705664221E+03  0.00000000000E+00 0. -1.
<mgrwt>
<rscale>  0 0.17146914E+03</rscale>
<asrwt>0</asrwt>
<pdfrwt beam="1">  1        1 0.59607782E-01 0.17720319E+03</pdfrwt>
<pdfrwt beam="2">  1       -1 0.12117827E-01 0.17720319E+03</pdfrwt>
<totfact> 0.27993357E+03</totfact>
</mgrwt>
</event>
<event>
 8    1  0.1033707E-005  0.1631587E+03  0.7546771E-02  0.1192487E+00
          1   -1    0    0  501    0  0.00000000000E+00  0.00000000000E+00  0.24487275188E+03  0.24487275188E+03  0.00000000000E+00 0. -1.
         -1   -1    0    0    0  501 -0.00000000000E+00 -0.00000000000E+00 -0.95356949129E+02  0.95356949129E+02  0.00000000000E+00 0.  1.
         23    2    1    2    0    0 -0.11036719102E+02 -0.10429143049E+03  0.54416827409E+02  0.17199408813E+03  0.12498905394E+03 0.  0.
         23    2    1    2    0    0  0.11036719102E+02  0.10429143049E+03  0.95098975345E+02  0.16823561288E+03  0.90889464106E+02 0.  0.
          5    1    3    3  502    0  0.16573844367E+02 -0.43915850674E+02  0.86180841579E+02  0.98247247864E+02  0.47000000000E+01 0. -1.
         -5    1    3    3    0  502 -0.27610563469E+02 -0.60375579821E+02 -0.31764014170E+02  0.73746840271E+02  0.47000000000E+01 0. -1.
        -11    1    4    4    0    0  0.17553264110E+02  0.25092773769E+02 -0.13665489934E+02  0.33533714251E+02  0.00000000000E+00 0.  1.
         11    1    4    4    0    0 -0.65165450083E+01  0.79198656726E+02  0.10876446528E+03  0.13470189863E+03  0.00000000000E+00 0. -1.
<mgrwt>
<rscale>  0 0.15668886E+03</rscale>
<asrwt>0</asrwt>
<pdfrwt beam="1">  1        1 0.37672731E-01 0.16315874E+03</pdfrwt>
<pdfrwt beam="2">  1       -1 0.14670300E-01 0.16315874E+03</pdfrwt>
<totfact> 0.36734049E+03</totfact>
</mgrwt>
</event>
<event>
 8    1  0.1033707E-005  0.1264621E+03  0.7546771E-02  0.1247534E+00
          2   -1    0    0  501    0  0.00000000000E+00  0.00000000000E+00  0.65259729179E+02  0.65259729179E+02  0.00000000000E+00 0. -1.
         -2   -1    0    0    0  501 -0.00000000000E+00 -0.00000000000E+00 -0.18610846964E+03  0.18610846964E+03  0.00000000000E+00 0.  1.
         23    2    1    2    0    0  0.18564728737E+02 -0.48317656720E+01 -0.64304339906E+02  0.14187215067E+03  0.12499865557E+03 0.  0.
         23    2    1    2    0    0 -0.18564728737E+02  0.48317656720E+01 -0.56544400553E+02  0.10949604814E+03  0.91783006122E+02 0.  0.
          5    1    3    3  502    0  0.28199609109E+01 -0.64414049739E+02 -0.32036791884E+02  0.72149622435E+02  0.47000000000E+01 0. -1.
         -5    1    3    3    0  502  0.15744767826E+02  0.59582284067E+02 -0.32267548023E+02  0.69722528238E+02  0.47000000000E+01 0. -1.
        -11    1    4    4    0    0 -0.11486817401E+01 -0.13454769247E+02  0.22651606029E+02  0.26371301464E+02  0.00000000000E+00 0. -1.
         11    1    4    4    0    0 -0.17416046997E+02  0.18286534919E+02 -0.79196006581E+02  0.83124746681E+02  0.00000000000E+00 0.  1.
<mgrwt>
<rscale>  0 0.11734968E+03</rscale>
<asrwt>0</asrwt>
<pdfrwt beam="1">  1        2 0.10039958E-01 0.12646209E+03</pdfrwt>
<pdfrwt beam="2">  1       -2 0.28632072E-01 0.12646209E+03</pdfrwt>
<totfact> 0.66775808E+03</totfact>
</mgrwt>
</event>
<event>
 8    1  0.1033707E-005  0.1393472E+03  0.7546771E-02  0.1225677E+00
         -1   -1    0    0    0  501 -0.00000000000E+00  0.00000000000E+00  0.19733553105E+03  0.19733553105E+03  0.00000000000E+00 0.  1.
          1   -1    0    0  501    0  0.00000000000E+00 -0.00000000000E+00 -0.80891113238E+02  0.80891113238E+02  0.00000000000E+00 0. -1.
         23    2    1    2    0    0  0.34522909385E+02  0.50997514142E+02  0.88893708798E+02  0.16528685139E+03  0.12500029622E+03 0.  0.
         23    2    1    2    0    0 -0.34522909385E+02 -0.50997514142E+02  0.27550709015E+02  0.11293979290E+03  0.90574706915E+02 0.  0.
          5    1    3    3  502    0 -0.41103590689E+02  0.19832912536E+02  0.65704291992E+02  0.80137341941E+02  0.47000000000E+01 0. -1.
         -5    1    3    3    0  502  0.75626500074E+02  0.31164601606E+02  0.23189416806E+02  0.85149509444E+02  0.47000000000E+01 0. -1.
        -11    1    4    4    0    0  0.30828723959E+02 -0.21366296244E+02  0.57610178985E+01  0.37948888829E+02  0.00000000000E+00 0.  1.
         11    1    4    4    0    0 -0.65351633345E+02 -0.29631217898E+02  0.21789691117E+02  0.74990904074E+02  0.00000000000E+00 0. -1.
<mgrwt>
<rscale>  0 0.13120637E+03</rscale>
<asrwt>0</asrwt>
<pdfrwt beam="2">  1        1 0.12444787E-01 0.13934723E+03</pdfrwt>
<pdfrwt beam="1">  1       -1 0.30359312E-01 0.13934723E+03</pdfrwt>
<totfact> 0.45802262E+03</totfact>
</mgrwt>
</event>
<event>
 8    1  0.1033707E-005  0.1409793E+03  0.7546771E-02  0.1222636E+00
         -1   -1    0    0    0  501 -0.00000000000E+00  0.00000000000E+00  0.16538700275E+03  0.16538700275E+03  0.00000000000E+00 0.  1.
          1   -1    0    0  501    0  0.00000000000E+00 -0.00000000000E+00 -0.98268985426E+02  0.98268985426E+02  0.00000000000E+00 0. -1.
         23    2    1    2    0    0  0.29659815170E+02 -0.58049156117E+02  0.50478847156E+02  0.14974406815E+03  0.12500305106E+03 0.  0.
         23    2    1    2    0    0 -0.29659815170E+02  0.58049156117E+02  0.16639170169E+02  0.11391192002E+03  0.91922001597E+02 0.  0.
          5    1    3    3  502    0  0.29343049219E+02 -0.40990499515E+02  0.91775930005E+02  0.10481482203E+03  0.47000000000E+01 0.  1.
         -5    1    3    3    0  502  0.31676595102E+00 -0.17058656602E+02 -0.41297082850E+02  0.44929246128E+02  0.47000000000E+01 0.  1.
        -11    1    4    4    0    0 -0.47916761194E+02  0.44328258786E+02 -0.22121875076E+02  0.68923057732E+02  0.00000000000E+00 0. -1.
         11    1    4    4    0    0  0.18256946024E+02  0.13720897331E+02  0.38761045245E+02  0.44988862290E+02  0.00000000000E+00 0.  1.
<mgrwt>
<rscale>  0 0.13330242E+03</rscale>
<asrwt>0</asrwt>
<pdfrwt beam="2">  1        1 0.15118305E-01 0.14097933E+03</pdfrwt>
<pdfrwt beam="1">  1       -1 0.25444154E-01 0.14097933E+03</pdfrwt>
<totfact> 0.47732760E+03</totfact>
</mgrwt>
</event>
<event>
 8    1  0.1033707E-005  0.1254270E+03  0.7546771E-02  0.1250497E+00
         -2   -1    0    0    0  501 -0.00000000000E+00  0.00000000000E+00  0.22380822611E+03  0.22380822611E+03  0.00000000000E+00 0.  1.
          2   -1    0    0  501    0  0.00000000000E+00 -0.00000000000E+00 -0.52452205746E+02  0.52452205746E+02  0.00000000000E+00 0. -1.
         23    2    1    2    0    0 -0.58884737631E+01 -0.84960725296E+01  0.88515390497E+02  0.15351513804E+03  0.12500026352E+03 0.  0.
         23    2    1    2    0    0  0.58884737631E+01  0.84960725296E+01  0.82840629870E+02  0.12274529382E+03  0.89983219688E+02 0.  0.
          5    1    3    3  502    0  0.16809471446E+02 -0.31523192351E+02  0.10910131080E+03  0.11489758920E+03  0.47000000000E+01 0. -1.
         -5    1    3    3    0  502 -0.22697945209E+02  0.23027119822E+02 -0.20585920299E+02  0.38617548842E+02  0.47000000000E+01 0. -1.
        -11    1    4    4    0    0  0.27228011677E+02  0.82920695975E+01  0.94314569861E+02  0.98515791253E+02  0.00000000000E+00 0.  1.
         11    1    4    4    0    0 -0.21339537914E+02  0.20400293217E+00 -0.11473939992E+02  0.24229502564E+02  0.00000000000E+00 0. -1.
<mgrwt>
<rscale>  0 0.11562329E+03</rscale>
<asrwt>0</asrwt>
<pdfrwt beam="2">  1        2 0.80695702E-02 0.12542696E+03</pdfrwt>
<pdfrwt beam="1">  1       -2 0.34432034E-01 0.12542696E+03</pdfrwt>
<totfact> 0.62635908E+03</totfact>
</mgrwt>
</event>
<event>
 8    1  0.1033707E-005  0.1638135E+03  0.7546771E-02  0.1191268E+00
         -2   -1    0    0    0  501 -0.00000000000E+00  0.00000000000E+00  0.26141824152E+03  0.26141824152E+03  0.00000000000E+00 0.  1.
          2   -1    0    0  501    0  0.00000000000E+00 -0.00000000000E+00 -0.98214250447E+02  0.98214250447E+02  0.00000000000E+00 0. -1.
         23    2    1    2    0    0  0.10132469266E+02 -0.10539207690E+03  0.14279147005E+03  0.21731141476E+03  0.12499876103E+03 0.  0.
         23    2    1    2    0    0 -0.10132469266E+02  0.10539207690E+03  0.20412521018E+02  0.14232107720E+03  0.92889510689E+02 0.  0.
          5    1    3    3  502    0 -0.29035490096E+02 -0.63728148714E+01  0.96537386485E+02  0.10111987660E+03  0.47000000000E+01 0.  1.
         -5    1    3    3    0  502  0.39167959362E+02 -0.99019262026E+02  0.46254083565E+02  0.11619153816E+03  0.47000000000E+01 0.  1.
        -11    1    4    4    0    0 -0.19218645095E+02  0.21960421700E+02 -0.32051909135E+02  0.43346756739E+02  0.00000000000E+00 0. -1.
         11    1    4    4    0    0  0.90861758297E+01  0.83431655198E+02  0.52464430154E+02  0.98974320466E+02  0.00000000000E+00 0.  1.
<mgrwt>
<rscale>  0 0.15774336E+03</rscale>
<asrwt>0</asrwt>
<pdfrwt beam="2">  1        2 0.15109885E-01 0.16381345E+03</pdfrwt>
<pdfrwt beam="1">  1       -2 0.40218191E-01 0.16381345E+03</pdfrwt>
<totfact> 0.22233932E+03</totfact>
</mgrwt>
</event>
<event>
 8    1  0.1033707E-005  0.1547241E+03  0.7546771E-02  0.1202745E+00
         -2   -1    0    0    0  501 -0.00000000000E+00  0.00000000000E+00  0.12796457050E+03  0.12796457050E+03  0.00000000000E+00 0. -1.
          2   -1    0    0  501    0  0.00000000000E+00 -0.00000000000E+00 -0.16724532671E+03  0.16724532671E+03  0.00000000000E+00 0.  1.
         23    2    1    2    0    0  0.63428013656E+01  0.90678939741E+02  0.12377375434E+02  0.15521837864E+03  0.12520640719E+03 0.  0.
         23    2    1    2    0    0 -0.63428013656E+01 -0.90678939741E+02 -0.51658131646E+02  0.13999151857E+03  0.93092220210E+02 0.  0.
          5    1    3    3  502    0  0.28231986966E+02  0.85008687505E+02  0.56082209177E+02  0.10578670155E+03  0.47000000000E+01 0.  1.
         -5    1    3    3    0  502 -0.21889185600E+02  0.56702522361E+01 -0.43704833744E+02  0.49431677083E+02  0.47000000000E+01 0.  1.
        -11    1    4    4    0    0 -0.11399983219E+01  0.11253511034E+02  0.14477605136E+02  0.18372320410E+02  0.00000000000E+00 0. -1.
         11    1    4    4    0    0 -0.52028030437E+01 -0.10193245078E+03 -0.66135736782E+02  0.12161919816E+03  0.00000000000E+00 0.  1.
<mgrwt>
<rscale>  0 0.14816567E+03</rscale>
<asrwt>0</asrwt>
<pdfrwt beam="2">  1        2 0.25730050E-01 0.15472410E+03</pdfrwt>
<pdfrwt beam="1">  1       -2 0.19686857E-01 0.15472410E+03</pdfrwt>
<totfact> 0.43415542E+03</totfact>
</mgrwt>
</event>
<event>
 8    1  0.1033707E-005  0.1784136E+03  0.7546771E-02  0.1173314E+00
          2   -1    0    0  501    0  0.00000000000E+00  0.00000000000E+00  0.27684752859E+03  0.27684752859E+03  0.00000000000E+00 0. -1.
         -2   -1    0    0    0  501 -0.00000000000E+00 -0.00000000000E+00 -0.10619028198E+03  0.10619028198E+03  0.00000000000E+00 0.  1.
         23    2    1    2    0    0 -0.37523202013E+02  0.12990593777E+03  0.71068457491E+02  0.19204725278E+03  0.11639535339E+03 0.  0.
         23    2    1    2    0    0  0.37523202013E+02 -0.12990593777E+03  0.99588789118E+02  0.19099055779E+03  0.90972099505E+02 0.  0.
          5    1    3    3  502    0 -0.31775095165E+02  0.10090273384E+03  0.10338665862E+03  0.14799293750E+03  0.47000000000E+01 0. -1.
         -5    1    3    3    0  502 -0.57481068481E+01  0.29003203935E+02 -0.32318201127E+02  0.44054315281E+02  0.47000000000E+01 0.  1.
        -11    1    4    4    0    0 -0.29238314304E+02 -0.57272119387E+02  0.40440460161E+02  0.75963185165E+02  0.00000000000E+00 0.  1.
         11    1    4    4    0    0  0.66761516316E+02 -0.72633818386E+02  0.59148328957E+02  0.11502737262E+03  0.00000000000E+00 0. -1.
<mgrwt>
<rscale>  0 0.17442086E+03</rscale>
<asrwt>0</asrwt>
<pdfrwt beam="1">  1        2 0.42591927E-01 0.17841363E+03</pdfrwt>
<pdfrwt beam="2">  1       -2 0.16336967E-01 0.17841363E+03</pdfrwt>
<totfact> 0.34625618E+03</totfact>
</mgrwt>
</event>
<event>
 8    1  0.1033707E-005  0.1769066E+03  0.7546771E-02  0.1175490E+00
          1   -1    0    0  501    0  0.00000000000E+00  0.00000000000E+00  0.74511890746E+02  0.74511890746E+02  0.00000000000E+00 0.  1.
         -1   -1    0    0    0  501 -0.00000000000E+00 -0.00000000000E+00 -0.41583466395E+03  0.41583466395E+03  0.00000000000E+00 0. -1.
         23    2    1    2    0    0 -0.11737568332E+03  0.43522869658E+02 -0.25193182215E+03  0.30784022473E+03  0.12499867893E+03 0.  0.
         23    2    1    2    0    0  0.11737568332E+03 -0.43522869658E+02 -0.89390951054E+02  0.18250632996E+03  0.98216735472E+02 0.  0.
          5    1    3    3  502    0 -0.12691682398E+03 -0.48304073318E+00 -0.21366288144E+03  0.24855991318E+03  0.47000000000E+01 0. -1.
         -5    1    3    3    0  502  0.95411406595E+01  0.44005910391E+02 -0.38268940710E+02  0.59280311550E+02  0.47000000000E+01 0. -1.
        -11    1    4    4    0    0  0.11024018172E+03 -0.56938096317E+02 -0.39284358997E+02  0.13014647647E+03  0.00000000000E+00 0.  1.
         11    1    4    4    0    0  0.71355016047E+01  0.13415226658E+02 -0.50106592057E+02  0.52359853486E+02  0.00000000000E+00 0. -1.
<mgrwt>
<rscale>  0 0.17228061E+03</rscale>
<asrwt>0</asrwt>
<pdfrwt beam="1">  1        1 0.11463368E-01 0.17690664E+03</pdfrwt>
<pdfrwt beam="2">  1       -1 0.63974565E-01 0.17690664E+03</pdfrwt>
<totfact> 0.13520513E+03</totfact>
</mgrwt>
</event>
<event>
 8    1  0.1033707E-005  0.1323926E+03  0.7546771E-02  0.1237487E+00
          1   -1    0    0  501    0  0.00000000000E+00  0.00000000000E+00  0.10752316589E+04  0.10752316589E+04  0.00000000000E+00 0. -1.
         -1   -1    0    0    0  501 -0.00000000000E+00 -0.00000000000E+00 -0.12590182236E+02  0.12590182236E+02  0.00000000000E+00 0.  1.
         23    2    1    2    0    0  0.15897947011E+02 -0.40622744818E+02  0.58430988867E+03  0.59912088980E+03  0.12499936995E+03 0.  0.
         23    2    1    2    0    0 -0.15897947011E+02  0.40622744818E+02  0.47833158796E+03  0.48870095130E+03  0.90136339188E+02 0.  0.
          5    1    3    3  502    0  0.23269803438E+02  0.37854901997E+02  0.32492935884E+03  0.32798727962E+03  0.47000000000E+01 0. -1.
         -5    1    3    3    0  502 -0.73718564267E+01 -0.78477646814E+02  0.25938052983E+03  0.27113361018E+03  0.47000000000E+01 0. -1.
        -11    1    4    4    0    0  0.28227164970E+02 -0.12115494259E+02  0.17474599664E+03  0.17742525577E+03  0.00000000000E+00 0. -1.
         11    1    4    4    0    0 -0.44125111982E+02  0.52738239077E+02  0.30358559132E+03  0.31127569553E+03  0.00000000000E+00 0.  1.
<mgrwt>
<rscale>  0 0.12346586E+03</rscale>
<asrwt>0</asrwt>
<pdfrwt beam="1">  1        1 0.16542018E+00 0.13239258E+03</pdfrwt>
<pdfrwt beam="2">  1       -1 0.19369520E-02 0.13239258E+03</pdfrwt>
<totfact> 0.97530059E+03</totfact>
</mgrwt>
</event>
<event>
 8    1  0.1033707E-005  0.1779751E+03  0.7546771E-02  0.1175585E+00
          2   -1    0    0  501    0  0.00000000000E+00  0.00000000000E+00  0.41266350934E+02  0.41266350934E+02  0.00000000000E+00 0. -1.
         -2   -1    0    0    0  501 -0.00000000000E+00 -0.00000000000E+00 -0.67716884624E+03  0.67716884624E+03  0.00000000000E+00 0.  1.
         23    2    1    2    0    0  0.22630652326E+02 -0.12465580544E+03 -0.35694655194E+03  0.39885583575E+03  0.12499568199E+03 0.  0.
         23    2    1    2    0    0 -0.22630652326E+02  0.12465580544E+03 -0.27895594336E+03  0.31957936142E+03  0.90902880347E+02 0.  0.
          5    1    3    3  502    0 -0.47628000700E+02 -0.22030716286E+02 -0.89244411232E+02  0.10363606441E+03  0.47000000000E+01 0.  1.
         -5    1    3    3    0  502  0.70258653025E+02 -0.10262508915E+03 -0.26770214071E+03  0.29521977134E+03  0.47000000000E+01 0.  1.
        -11    1    4    4    0    0 -0.47413761409E+02  0.56716838011E+02 -0.19626891758E+03  0.20972923615E+03  0.00000000000E+00 0.  1.
         11    1    4    4    0    0  0.24783109083E+02  0.67938967428E+02 -0.82687025778E+02  0.10985012528E+03  0.00000000000E+00 0. -1.
<mgrwt>
<rscale>  0 0.17218793E+03</rscale>
<asrwt>0</asrwt>
<pdfrwt beam="1">  1        2 0.63486699E-02 0.17797510E+03</pdfrwt>
<pdfrwt beam="2">  1       -2 0.10417981E+00 0.17797510E+03</pdfrwt>
<totfact> 0.88006499E+02</totfact>
</mgrwt>
</event>
<event>
 8    1  0.1033707E-005  0.1189094E+03  0.7546771E-02  0.1257201E+00
          2   -1    0    0  501    0  0.00000000000E+00  0.00000000000E+00  0.36481160326E+03  0.36481160326E+03  0.00000000000E+00 0.  1.
         -2   -1    0    0    0  501 -0.00000000000E+00 -0.00000000000E+00 -0.23823916182E+03  0.23823916182E+03  0.00000000000E+00 0. -1.
         23    2    1    2    0    0  0.16798449249E+02  0.15364277144E+02 -0.21681340183E+03  0.24728019172E+03  0.11670986717E+03 0.  0.
         23    2    1    2    0    0 -0.16798449249E+02 -0.15364277144E+02  0.34338584327E+03  0.35577057337E+03  0.90225354587E+02 0.  0.
          5    1    3    3  502    0 -0.23576371899E+02  0.55592210202E+02 -0.94284555711E+02  0.11206251199E+03  0.47000000000E+01 0.  1.
         -5    1    3    3    0  502  0.40374821148E+02 -0.40227933058E+02 -0.12252884612E+03  0.13521767973E+03  0.47000000000E+01 0. -1.
        -11    1    4    4    0    0 -0.40517602376E+01 -0.48779607175E+02  0.26670770876E+03  0.27116207100E+03  0.00000000000E+00 0.  1.
         11    1    4    4    0    0 -0.12746689011E+02  0.33415330031E+02  0.76678134512E+02  0.84608502374E+02  0.00000000000E+00 0. -1.
<mgrwt>
<rscale>  0 0.11183937E+03</rscale>
<asrwt>0</asrwt>
<pdfrwt beam="1">  1        2 0.56124862E-01 0.11890939E+03</pdfrwt>
<pdfrwt beam="2">  1       -2 0.36652179E-01 0.11890939E+03</pdfrwt>
<totfact> 0.62169417E+02</totfact>
</mgrwt>
</event>
<event>
 7    1  0.1033707E-005  0.2180118E+03  0.7546771E-02  0.1170792E+00
          2   -1    0    0  501    0  0.00000000000E+00  0.00000000000E+00  0.23974401955E+02  0.23974401955E+02  0.00000000000E+00 0. -1.
         -2   -1    0    0    0  501 -0.00000000000E+00 -0.00000000000E+00 -0.11619379827E+04  0.11619379827E+04  0.00000000000E+00 0.  1.
         23    2    1    2    0    0 -0.21011051369E+02 -0.18255021623E+02 -0.17882176218E+03  0.20230566906E+03  0.90419306634E+02 0.  0.
          5    1    1    2  502    0  0.70457601563E+02  0.14709684459E+02 -0.10149191575E+03  0.12451243872E+03  0.47000000000E+01 0. -1.
         -5    1    1    2    0  502 -0.49446550194E+02  0.35453371637E+01 -0.85764990287E+03  0.85909427692E+03  0.47000000000E+01 0.  1.
        -11    1    3    3    0    0  0.19371843833E+02  0.12677998254E+02 -0.12914668555E+03  0.13120543572E+03  0.00000000000E+00 0.  1.
         11    1    3    3    0    0 -0.40382895202E+02 -0.30933019877E+02 -0.49675076626E+02  0.71100233343E+02  0.00000000000E+00 0. -1.
<mgrwt>
<rscale>  0 0.17694572E+03</rscale>
<asrwt>0</asrwt>
<pdfrwt beam="1">  1        2 0.36883698E-02 0.21801180E+03</pdfrwt>
<pdfrwt beam="2">  1       -2 0.17875968E+00 0.21801180E+03</pdfrwt>
<totfact> 0.46635455E+02</totfact>
</mgrwt>
</event>
<event>
 8    1  0.1033707E-005  0.1295465E+03  0.7546771E-02  0.1234526E+00
          1   -1    0    0  501    0  0.00000000000E+00  0.00000000000E+00  0.12781525656E+03  0.12781525656E+03  0.00000000000E+00 0. -1.
         -1   -1    0    0    0  501 -0.00000000000E+00 -0.00000000000E+00 -0.11775265715E+03  0.11775265715E+03  0.00000000000E+00 0.  1.
         23    2    1    2    0    0  0.29993607487E+02  0.16053447776E+02 -0.11242677508E+02  0.13003345438E+03  0.12499988714E+03 0.  0.
         23    2    1    2    0    0 -0.29993607487E+02 -0.16053447776E+02  0.21305276919E+02  0.11553445933E+03  0.10833728256E+03 0.  0.
          5    1    3    3  502    0  0.46360827953E+02  0.41522094128E+02  0.37241743040E+02  0.72680451938E+02  0.47000000000E+01 0.  1.
         -5    1    3    3    0  502 -0.16367220466E+02 -0.25468646352E+02 -0.48484420548E+02  0.57353002438E+02  0.47000000000E+01 0.  1.
        -11    1    4    4    0    0 -0.53560016238E+02 -0.28069827930E+02 -0.22368240168E+02  0.64474248717E+02  0.00000000000E+00 0.  1.
         11    1    4    4    0    0  0.23566408751E+02  0.12016380153E+02  0.43673517087E+02  0.51060210616E+02  0.00000000000E+00 0. -1.
<mgrwt>
<rscale>  0 0.12534847E+03</rscale>
<asrwt>0</asrwt>
<pdfrwt beam="1">  1        1 0.19663886E-01 0.12954652E+03</pdfrwt>
<pdfrwt beam="2">  1       -1 0.18115793E-01 0.12954652E+03</pdfrwt>
<totfact> 0.58688011E+03</totfact>
</mgrwt>
</event>
<event>
 8    1  0.1033707E-005  0.1303840E+03  0.7546771E-02  0.1240365E+00
          1   -1    0    0  501    0  0.00000000000E+00  0.00000000000E+00  0.39766578401E+03  0.39766578401E+03  0.00000000000E+00 0. -1.
         -1   -1    0    0    0  501 -0.00000000000E+00 -0.00000000000E+00 -0.35068195217E+02  0.35068195217E+02  0.00000000000E+00 0.  1.
         23    2    1    2    0    0 -0.35026029461E+02  0.12154116809E+02  0.15323452708E+03  0.20119842139E+03  0.12500175673E+03 0.  0.
         23    2    1    2    0    0  0.35026029461E+02 -0.12154116809E+02  0.20936306171E+03  0.23153555783E+03  0.91658483712E+02 0.  0.
          5    1    3    3  502    0  0.17856712189E+02 -0.45333856841E+02  0.81338423896E+02  0.94931817364E+02  0.47000000000E+01 0. -1.
         -5    1    3    3    0  502 -0.52882741650E+02  0.57487973650E+02  0.71896103187E+02  0.10626660403E+03  0.47000000000E+01 0. -1.
        -11    1    4    4    0    0  0.59043076338E+02  0.59567271758E+01  0.85524678419E+02  0.10409629235E+03  0.00000000000E+00 0. -1.
         11    1    4    4    0    0 -0.24017046877E+02 -0.18110843985E+02  0.12383838329E+03  0.12743926548E+03  0.00000000000E+00 0.  1.
<mgrwt>
<rscale>  0 0.12167108E+03</rscale>
<asrwt>0</asrwt>
<pdfrwt beam="1">  1        1 0.61179348E-01 0.13038399E+03</pdfrwt>
<pdfrwt beam="2">  1       -1 0.53951072E-02 0.13038399E+03</pdfrwt>
<totfact> 0.90822971E+03</totfact>
</mgrwt>
</event>
<event>
 8    1  0.1033707E-005  0.2670738E+03  0.7546771E-02  0.1105094E+00
         -1   -1    0    0    0  501 -0.00000000000E+00  0.00000000000E+00  0.10771359021E+04  0.10771359021E+04  0.00000000000E+00 0.  1.
          1   -1    0    0  501    0  0.00000000000E+00 -0.00000000000E+00 -0.62774693133E+02  0.62774693133E+02  0.00000000000E+00 0. -1.
         23    2    1    2    0    0  0.16209023712E+03  0.17155072986E+03  0.50699072586E+03  0.57303405423E+03  0.12500213325E+03 0.  0.
         23    2    1    2    0    0 -0.16209023712E+03 -0.17155072986E+03  0.50737048309E+03  0.56687654099E+03  0.90671427260E+02 0.  0.
          5    1    3    3  502    0  0.46980397396E+02  0.10337250933E+03  0.34303013343E+03  0.36136518352E+03  0.47000000000E+01 0.  1.
         -5    1    3    3    0  502  0.11510983972E+03  0.68178220532E+02  0.16396059243E+03  0.21166887071E+03  0.47000000000E+01 0.  1.
        -11    1    4    4    0    0 -0.52980747663E+02 -0.56039083427E+01  0.12853534789E+03  0.13913913565E+03  0.00000000000E+00 0.  1.
         11    1    4    4    0    0 -0.10910948946E+03 -0.16594682152E+03  0.37883513520E+03  0.42773740534E+03  0.00000000000E+00 0. -1.
<mgrwt>
<rscale>  0 0.26343997E+03</rscale>
<asrwt>0</asrwt>
<pdfrwt beam="2">  1        1 0.96576459E-02 0.26707383E+03</pdfrwt>
<pdfrwt beam="1">  1       -1 0.16571320E+00 0.26707383E+03</pdfrwt>
<totfact> 0.19471432E+02</totfact>
</mgrwt>
</event>
<event>
 8    1  0.1033707E-005  0.1320625E+03  0.7546771E-02  0.1236986E+00
          2   -1    0    0  501    0  0.00000000000E+00  0.00000000000E+00  0.14430698694E+03  0.14430698694E+03  0.00000000000E+00 0.  1.
         -2   -1    0    0    0  501 -0.00000000000E+00 -0.00000000000E+00 -0.15081901451E+03  0.15081901451E+03  0.00000000000E+00 0. -1.
         23    2    1    2    0    0  0.29552672968E+02 -0.30579699362E+02 -0.92942060658E+02  0.16148906261E+03  0.12502804570E+03 0.  0.
         23    2    1    2    0    0 -0.29552672968E+02  0.30579699362E+02  0.86430033094E+02  0.13363693884E+03  0.92629381457E+02 0.  0.
          5    1    3    3  502    0  0.28556061779E+02 -0.67619071562E+02 -0.15008130659E+02  0.75067446268E+02  0.47000000000E+01 0. -1.
         -5    1    3    3    0  502  0.99661118851E+00  0.37039372200E+02 -0.77933929998E+02  0.86421616346E+02  0.47000000000E+01 0. -1.
        -11    1    4    4    0    0 -0.17953929238E+02  0.40918713331E+02  0.10217343740E+03  0.11151724524E+03  0.00000000000E+00 0.  1.
         11    1    4    4    0    0 -0.11598743730E+02 -0.10339013970E+02 -0.15743404303E+02  0.22119693602E+02  0.00000000000E+00 0. -1.
<mgrwt>
<rscale>  0 0.12378116E+03</rscale>
<asrwt>0</asrwt>
<pdfrwt beam="1">  1        2 0.22201075E-01 0.13206245E+03</pdfrwt>
<pdfrwt beam="2">  1       -2 0.23202925E-01 0.13206245E+03</pdfrwt>
<totfact> 0.38269182E+03</totfact>
</mgrwt>
</event>
<event>
 8    1  0.1033707E-005  0.1315186E+03  0.7546771E-02  0.1238294E+00
         -3   -1    0    0    0  501 -0.00000000000E+00  0.00000000000E+00  0.75493511208E+02  0.75493511208E+02  0.00000000000E+00 0.  1.
          3   -1    0    0  501    0  0.00000000000E+00 -0.00000000000E+00 -0.22417173011E+03  0.22417173011E+03  0.00000000000E+00 0. -1.
         23    2    1    2    0    0 -0.40883313214E+02  0.71813664503E+00 -0.14906901830E+02  0.13236068797E+03  0.12500069991E+03 0.  0.
         23    2    1    2    0    0  0.40883313214E+02 -0.71813664503E+00 -0.13377131707E+03  0.16730455335E+03  0.91782826724E+02 0.  0.
          5    1    3    3  502    0  0.43866255558E+02  0.11734318605E+02 -0.92752679162E+01  0.46583937197E+02  0.47000000000E+01 0. -1.
         -5    1    3    3    0  502 -0.84749568772E+02 -0.11016181960E+02 -0.56316339138E+01  0.85776750769E+02  0.47000000000E+01 0. -1.
        -11    1    4    4    0    0  0.36271195764E+02  0.31860709155E+02 -0.12386687986E+03  0.13294250019E+03  0.00000000000E+00 0. -1.
         11    1    4    4    0    0  0.46121174498E+01 -0.32578845800E+02 -0.99044372099E+01  0.34362053162E+02  0.00000000000E+00 0.  1.
<mgrwt>
<rscale>  0 0.12295870E+03</rscale>
<asrwt>0</asrwt>
<pdfrwt beam="2">  1        3 0.34487958E-01 0.13151858E+03</pdfrwt>
<pdfrwt beam="1">  1       -3 0.11614386E-01 0.13151858E+03</pdfrwt>
<totfact> 0.10871643E+03</totfact>
</mgrwt>
</event>
<event>
 8    1  0.1033707E-005  0.1381288E+03  0.7546771E-02  0.1227224E+00
          2   -1    0    0  501    0  0.00000000000E+00  0.00000000000E+00  0.13782251586E+03  0.13782251586E+03  0.00000000000E+00 0. -1.
         -2   -1    0    0    0  501 -0.00000000000E+00 -0.00000000000E+00 -0.11548801914E+03  0.11548801914E+03  0.00000000000E+00 0.  1.
         23    2    1    2    0    0 -0.53972035512E+02  0.23284049182E+02 -0.13217009208E+02  0.13875969896E+03  0.12499774862E+03 0.  0.
         23    2    1    2    0    0  0.53972035512E+02 -0.23284049182E+02  0.35551505931E+02  0.11455083604E+03  0.91667098237E+02 0.  0.
          5    1    3    3  502    0 -0.14061023154E+02 -0.31555856838E+02  0.39530649345E+02  0.52709076169E+02  0.47000000000E+01 0. -1.
         -5    1    3    3    0  502 -0.39911012357E+02  0.54839906019E+02 -0.52747658554E+02  0.86050622790E+02  0.47000000000E+01 0. -1.
        -11    1    4    4    0    0  0.31226234537E+02 -0.14330967418E+02  0.66656403004E+02  0.74990202107E+02  0.00000000000E+00 0. -1.
         11    1    4    4    0    0  0.22745800974E+02 -0.89530817639E+01 -0.31104897073E+02  0.39560633930E+02  0.00000000000E+00 0.  1.
<mgrwt>
<rscale>  0 0.13015610E+03</rscale>
<asrwt>0</asrwt>
<pdfrwt beam="1">  1        2 0.21203464E-01 0.13812880E+03</pdfrwt>
<pdfrwt beam="2">  1       -2 0.17767387E-01 0.13812880E+03</pdfrwt>
<totfact> 0.63532849E+03</totfact>
</mgrwt>
</event>
<event>
 8    1  0.1033707E-005  0.1395693E+03  0.7546771E-02  0.1225230E+00
          2   -1    0    0  501    0  0.00000000000E+00  0.00000000000E+00  0.66422289626E+03  0.66422289626E+03  0.00000000000E+00 0. -1.
         -2   -1    0    0    0  501 -0.00000000000E+00 -0.00000000000E+00 -0.23490655217E+02  0.23490655217E+02  0.00000000000E+00 0.  1.
         23    2    1    2    0    0  0.58458471837E+02  0.20859354490E+02  0.34354053169E+03  0.37080951117E+03  0.12500836397E+03 0.  0.
         23    2    1    2    0    0 -0.58458471837E+02 -0.20859354490E+02  0.29719170935E+03  0.31690404031E+03  0.90844664429E+02 0.  0.
          5    1    3    3  502    0  0.59985286896E+02 -0.40275952193E+02  0.13196771384E+03  0.15052559405E+03  0.47000000000E+01 0. -1.
         -5    1    3    3    0  502 -0.15268150595E+01  0.61135306683E+02  0.21157281785E+03  0.22028391712E+03  0.47000000000E+01 0. -1.
        -11    1    4    4    0    0 -0.57317606232E+02 -0.45224652105E+02  0.27282929342E+03  0.28242946109E+03  0.00000000000E+00 0. -1.
         11    1    4    4    0    0 -0.11408656047E+01  0.24365297615E+02  0.24362415933E+02  0.34474579218E+02  0.00000000000E+00 0.  1.
<mgrwt>
<rscale>  0 0.13151166E+03</rscale>
<asrwt>0</asrwt>
<pdfrwt beam="1">  1        2 0.10218812E+00 0.13956933E+03</pdfrwt>
<pdfrwt beam="2">  1       -2 0.36139475E-02 0.13956933E+03</pdfrwt>
<totfact> 0.13653754E+04</totfact>
</mgrwt>
</event>
<event>
 8    1  0.1033707E-005  0.1302700E+03  0.7546771E-02  0.1239924E+00
          1   -1    0    0  501    0  0.00000000000E+00  0.00000000000E+00  0.20667304762E+03  0.20667304762E+03  0.00000000000E+00 0. -1.
         -1   -1    0    0    0  501 -0.00000000000E+00 -0.00000000000E+00 -0.80850715876E+02  0.80850715876E+02  0.00000000000E+00 0.  1.
         23    2    1    2    0    0  0.96611216819E+01  0.35414584539E+02  0.45852119910E+01  0.13035069850E+03  0.12499100111E+03 0.  0.
         23    2    1    2    0    0 -0.96611216819E+01 -0.35414584539E+02  0.12123711975E+03  0.15717306500E+03  0.93045166907E+02 0.  0.
          5    1    3    3  502    0 -0.32632406708E+01 -0.45065675632E+02  0.15452850981E+02  0.47983793756E+02  0.47000000000E+01 0.  1.
         -5    1    3    3    0  502  0.12924362353E+02  0.80480260170E+02 -0.10867638990E+02  0.82366904741E+02  0.47000000000E+01 0.  1.
        -11    1    4    4    0    0 -0.25999881890E+02  0.16358074919E+02  0.82291082294E+01  0.31800922873E+02  0.00000000000E+00 0.  1.
         11    1    4    4    0    0  0.16338760208E+02 -0.51772659458E+02  0.11300801152E+03  0.12537214212E+03  0.00000000000E+00 0. -1.
<mgrwt>
<rscale>  0 0.12194392E+03</rscale>
<asrwt>0</asrwt>
<pdfrwt beam="1">  1        1 0.31795853E-01 0.13027003E+03</pdfrwt>
<pdfrwt beam="2">  1       -1 0.12438572E-01 0.13027003E+03</pdfrwt>
<totfact> 0.57905810E+03</totfact>
</mgrwt>
</event>
<event>
 8    1  0.1033707E-005  0.1943194E+03  0.7546771E-02  0.1159436E+00
         -2   -1    0    0    0  501 -0.00000000000E+00  0.00000000000E+00  0.12116498672E+04  0.12116498672E+04  0.00000000000E+00 0.  1.
          2   -1    0    0  501    0  0.00000000000E+00 -0.00000000000E+00 -0.28844746840E+02  0.28844746840E+02  0.00000000000E+00 0. -1.
         23    2    1    2    0    0  0.53768395833E+00  0.14877885836E+03  0.73376391267E+03  0.75905829590E+03  0.12499831694E+03 0.  0.
         23    2    1    2    0    0 -0.53768395833E+00 -0.14877885836E+03  0.44904120765E+03  0.48143631810E+03  0.89484548481E+02 0.  0.
          5    1    3    3  502    0 -0.44089335831E+02  0.69632392628E+01  0.14445598807E+03  0.15126790382E+03  0.47000000000E+01 0. -1.
         -5    1    3    3    0  502  0.44627019789E+02  0.14181561910E+03  0.58930792460E+03  0.60779039208E+03  0.47000000000E+01 0. -1.
        -11    1    4    4    0    0  0.76370275851E+01 -0.50152748237E+02  0.53605547751E+02  0.73804993704E+02  0.00000000000E+00 0. -1.
         11    1    4    4    0    0 -0.81747115434E+01 -0.98626110128E+02  0.39543565990E+03  0.40763132440E+03  0.00000000000E+00 0.  1.
<mgrwt>
<rscale>  0 0.18892318E+03</rscale>
<asrwt>0</asrwt>
<pdfrwt beam="2">  1        2 0.44376543E-02 0.19431937E+03</pdfrwt>
<pdfrwt beam="1">  1       -2 0.18640763E+00 0.19431937E+03</pdfrwt>
<totfact> 0.32332853E+02</totfact>
</mgrwt>
</event>
<event>
 8    1  0.1033707E-005  0.1547461E+03  0.7546771E-02  0.1203297E+00
         -1   -1    0    0    0  501 -0.00000000000E+00  0.00000000000E+00  0.33700748686E+02  0.33700748686E+02  0.00000000000E+00 0.  1.
          1   -1    0    0  501    0  0.00000000000E+00 -0.00000000000E+00 -0.59745032989E+03  0.59745032989E+03  0.00000000000E+00 0. -1.
         23    2    1    2    0    0  0.58135718717E+02 -0.70287363070E+02 -0.28866864334E+03  0.32753006714E+03  0.12500513604E+03 0.  0.
         23    2    1    2    0    0 -0.58135718717E+02  0.70287363070E+02 -0.27508093786E+03  0.30362101143E+03  0.90532430703E+02 0.  0.
          5    1    3    3  502    0  0.32019994503E+02 -0.35005828414E+02 -0.14500053833E+02  0.49830007346E+02  0.47000000000E+01 0. -1.
         -5    1    3    3    0  502  0.26115724214E+02 -0.35281534656E+02 -0.27416858951E+03  0.27770005980E+03  0.47000000000E+01 0. -1.
        -11    1    4    4    0    0 -0.37669484468E+02  0.90256417776E+02 -0.18725245884E+03  0.21125504574E+03  0.00000000000E+00 0.  1.
         11    1    4    4    0    0 -0.20466234249E+02 -0.19969054706E+02 -0.87828479022E+02  0.92365965688E+02  0.00000000000E+00 0. -1.
<mgrwt>
<rscale>  0 0.14772485E+03</rscale>
<asrwt>0</asrwt>
<pdfrwt beam="2">  1        1 0.91915435E-01 0.15474611E+03</pdfrwt>
<pdfrwt beam="1">  1       -1 0.51847306E-02 0.15474611E+03</pdfrwt>
<totfact> 0.57256694E+03</totfact>
</mgrwt>
</event>
<event>
 8    1  0.1324614E-005  0.3862007E+03  0.7546771E-02  0.1049562E+00
         -2   -1    0    0    0  501 -0.00000000000E+00  0.00000000000E+00  0.12614304178E+03  0.12614304178E+03  0.00000000000E+00 0.  1.
          2   -1    0    0  501    0  0.00000000000E+00 -0.00000000000E+00 -0.12903213433E+04  0.12903213433E+04  0.00000000000E+00 0. -1.
         23    2    1    2    0    0  0.43325787092E+02  0.36283600599E+03 -0.35745454564E+03  0.52623639547E+03  0.12499560252E+03 0.  0.
         23    2    1    2    0    0 -0.43325787092E+02 -0.36283600599E+03 -0.80672375586E+03  0.89022798959E+03  0.90418826119E+02 0.  0.
          5    1    3    3  502    0 -0.29433902802E+02  0.64850711239E+02 -0.11443092667E+03  0.13486473357E+03  0.47000000000E+01 0. -1.
         -5    1    3    3    0  502  0.72759689894E+02  0.29798529475E+03 -0.24302361896E+03  0.39137166190E+03  0.47000000000E+01 0. -1.
        -11    1    4    4    0    0 -0.45266440037E+02 -0.16806195069E+03 -0.29274452160E+03  0.34057778082E+03  0.00000000000E+00 0.  1.
         11    1    4    4    0    0  0.19406529453E+01 -0.19477405530E+03 -0.51397923425E+03  0.54965020876E+03  0.00000000000E+00 0. -1.
<mgrwt>
<rscale>  0 0.38373557E+03</rscale>
<asrwt>0</asrwt>
<pdfrwt beam="2">  1        2 0.19851097E+00 0.38620071E+03</pdfrwt>
<pdfrwt beam="1">  1       -2 0.19406623E-01 0.38620071E+03</pdfrwt>
<totfact> 0.39052285E+02</totfact>
</mgrwt>
</event>
<event>
 8    1  0.1033707E-005  0.1265335E+03  0.7546771E-02  0.1247283E+00
         -2   -1    0    0    0  501 -0.00000000000E+00  0.00000000000E+00  0.66835510384E+02  0.66835510384E+02  0.00000000000E+00 0.  1.
          2   -1    0    0  501    0  0.00000000000E+00 -0.00000000000E+00 -0.18593124913E+03  0.18593124913E+03  0.00000000000E+00 0. -1.
         23    2    1    2    0    0  0.33635429181E+01  0.19347116121E+02 -0.50069109519E+02  0.13607957561E+03  0.12500044339E+03 0.  0.
         23    2    1    2    0    0 -0.33635429181E+01 -0.19347116121E+02 -0.69026629227E+02  0.11668718390E+03  0.92008689926E+02 0.  0.
          5    1    3    3  502    0  0.15418450171E+01  0.69363423822E+02 -0.50274409788E+02  0.85809487412E+02  0.47000000000E+01 0. -1.
         -5    1    3    3    0  502  0.18216979009E+01 -0.50016307701E+02  0.20530026913E+00  0.50270088199E+02  0.47000000000E+01 0. -1.
        -11    1    4    4    0    0  0.14728631818E+01 -0.38869738423E+02 -0.83360646104E+02  0.91989255948E+02  0.00000000000E+00 0. -1.
         11    1    4    4    0    0 -0.48364060998E+01  0.19522622302E+02  0.14334016876E+02  0.24697927956E+02  0.00000000000E+00 0.  1.
<mgrwt>
<rscale>  0 0.11749777E+03</rscale>
<asrwt>0</asrwt>
<pdfrwt beam="2">  1        2 0.28604807E-01 0.12653353E+03</pdfrwt>
<pdfrwt beam="1">  1       -2 0.10282386E-01 0.12653353E+03</pdfrwt>
<totfact> 0.10976665E+04</totfact>
</mgrwt>
</event>
<event>
 8    1  0.1033707E-005  0.1514390E+03  0.7546771E-02  0.1207259E+00
         -2   -1    0    0    0  501 -0.00000000000E+00  0.00000000000E+00  0.89958336565E+02  0.89958336565E+02  0.00000000000E+00 0.  1.
          2   -1    0    0  501    0  0.00000000000E+00 -0.00000000000E+00 -0.34434884036E+03  0.34434884036E+03  0.00000000000E+00 0. -1.
         23    2    1    2    0    0 -0.22542371542E+02  0.82466555668E+02 -0.10952629333E+01  0.15144294973E+03  0.12499950441E+03 0.  0.
         23    2    1    2    0    0  0.22542371542E+02 -0.82466555668E+02 -0.25329524086E+03  0.28286422720E+03  0.92438090994E+02 0.  0.
          5    1    3    3  502    0 -0.46435950068E+02  0.73787313316E+02  0.45277162546E+02  0.98351291366E+02  0.47000000000E+01 0.  1.
         -5    1    3    3    0  502  0.23893578526E+02  0.86792423518E+01 -0.46372425479E+02  0.53091658360E+02  0.47000000000E+01 0.  1.
        -11    1    4    4    0    0 -0.26431570103E+02 -0.20219910697E+02 -0.26202952989E+02  0.42356433184E+02  0.00000000000E+00 0.  1.
         11    1    4    4    0    0  0.48973941645E+02 -0.62246644971E+02 -0.22709228787E+03  0.24050779401E+03  0.00000000000E+00 0. -1.
<mgrwt>
<rscale>  0 0.14460875E+03</rscale>
<asrwt>0</asrwt>
<pdfrwt beam="2">  1        2 0.52976744E-01 0.15143899E+03</pdfrwt>
<pdfrwt beam="1">  1       -2 0.13839744E-01 0.15143899E+03</pdfrwt>
<totfact> 0.35760764E+03</totfact>
</mgrwt>
</event>
<event>
 8    1  0.1033707E-005  0.1293911E+03  0.7546771E-02  0.1241841E+00
         -2   -1    0    0    0  501 -0.00000000000E+00  0.00000000000E+00  0.37323239865E+02  0.37323239865E+02  0.00000000000E+00 0.  1.
          2   -1    0    0  501    0  0.00000000000E+00 -0.00000000000E+00 -0.36422418603E+03  0.36422418603E+03  0.00000000000E+00 0. -1.
         23    2    1    2    0    0 -0.23892759267E+02 -0.23370360886E+02 -0.14141528584E+03  0.19167767489E+03  0.12500004107E+03 0.  0.
         23    2    1    2    0    0  0.23892759267E+02  0.23370360886E+02 -0.18548566033E+03  0.20986975101E+03  0.92321961022E+02 0.  0.
          5    1    3    3  502    0 -0.52216749626E+02 -0.58045594833E+02 -0.59757797129E+02  0.98432536992E+02  0.47000000000E+01 0. -1.
         -5    1    3    3    0  502  0.28323990359E+02  0.34675233946E+02 -0.81657488707E+02  0.93245137895E+02  0.47000000000E+01 0. -1.
        -11    1    4    4    0    0 -0.21389503788E+02  0.41634216560E+02 -0.67123419971E+02  0.81831976448E+02  0.00000000000E+00 0.  1.
         11    1    4    4    0    0  0.45282263055E+02 -0.18263855674E+02 -0.11836224036E+03  0.12803777456E+03  0.00000000000E+00 0. -1.
<mgrwt>
<rscale>  0 0.12076470E+03</rscale>
<asrwt>0</asrwt>
<pdfrwt beam="2">  1        2 0.56034491E-01 0.12939107E+03</pdfrwt>
<pdfrwt beam="1">  1       -2 0.57420368E-02 0.12939107E+03</pdfrwt>
<totfact> 0.13169701E+04</totfact>
</mgrwt>
</event>
<event>
 8    1  0.1033707E-005  0.1884839E+03  0.7546771E-02  0.1165315E+00
          1   -1    0    0  501    0  0.00000000000E+00  0.00000000000E+00  0.18894277307E+03  0.18894277307E+03  0.00000000000E+00 0. -1.
         -1   -1    0    0    0  501 -0.00000000000E+00 -0.00000000000E+00 -0.16741448013E+03  0.16741448013E+03  0.00000000000E+00 0.  1.
         23    2    1    2    0    0 -0.10174894877E+02  0.14070822997E+03  0.26111939922E+02  0.19028402903E+03  0.12499537523E+03 0.  0.
         23    2    1    2    0    0  0.10174894877E+02 -0.14070822997E+03 -0.45836469853E+01  0.16607322417E+03  0.87504122755E+02 0.  0.
          5    1    3    3  502    0  0.57313257656E+02  0.62830571028E+02  0.80134787020E+01  0.85549962009E+02  0.47000000000E+01 0. -1.
         -5    1    3    3    0  502 -0.67488152534E+02  0.77877658946E+02  0.18098461220E+02  0.10473406702E+03  0.47000000000E+01 0. -1.
        -11    1    4    4    0    0 -0.64469857553E+01 -0.13502422683E+03  0.19168894961E+02  0.13653040683E+03  0.00000000000E+00 0. -1.
         11    1    4    4    0    0  0.16621880632E+02 -0.56840031472E+01 -0.23752541946E+02  0.29542817341E+02  0.00000000000E+00 0.  1.
<mgrwt>
<rscale>  0 0.18259514E+03</rscale>
<asrwt>0</asrwt>
<pdfrwt beam="1">  1        1 0.29068119E-01 0.18848389E+03</pdfrwt>
<pdfrwt beam="2">  1       -1 0.25756074E-01 0.18848389E+03</pdfrwt>
<totfact> 0.20604426E+03</totfact>
</mgrwt>
</event>
<event>
 8    1  0.1033707E-005  0.1297103E+03  0.7546771E-02  0.1241543E+00
          1   -1    0    0  501    0  0.00000000000E+00  0.00000000000E+00  0.73981434891E+02  0.73981434891E+02  0.00000000000E+00 0. -1.
         -1   -1    0    0    0  501 -0.00000000000E+00 -0.00000000000E+00 -0.17567040748E+03  0.17567040748E+03  0.00000000000E+00 0.  1.
         23    2    1    2    0    0 -0.20753964754E+02  0.27728740811E+02 -0.63572144717E+02  0.14445134559E+03  0.12500065415E+03 0.  0.
         23    2    1    2    0    0  0.20753964754E+02 -0.27728740811E+02 -0.38116827875E+02  0.10520049679E+03  0.91731356891E+02 0.  0.
          5    1    3    3  502    0 -0.43064970421E+02 -0.21571058143E+02 -0.74700062375E+02  0.89006132067E+02  0.47000000000E+01 0. -1.
         -5    1    3    3    0  502  0.22311005667E+02  0.49299798955E+02  0.11127917657E+02  0.55445213520E+02  0.47000000000E+01 0. -1.
        -11    1    4    4    0    0  0.32996208503E+02 -0.42948399417E+02 -0.56579469109E+02  0.78323375263E+02  0.00000000000E+00 0.  1.
         11    1    4    4    0    0 -0.12242243748E+02  0.15219658605E+02  0.18462641235E+02  0.26877121524E+02  0.00000000000E+00 0. -1.
<mgrwt>
<rscale>  0 0.12094708E+03</rscale>
<asrwt>0</asrwt>
<pdfrwt beam="1">  1        1 0.11381759E-01 0.12971035E+03</pdfrwt>
<pdfrwt beam="2">  1       -1 0.27026216E-01 0.12971035E+03</pdfrwt>
<totfact> 0.62235628E+03</totfact>
</mgrwt>
</event>
<event>
 8    1  0.1033707E-005  0.1272436E+03  0.7546771E-02  0.1246004E+00
          4   -1    0    0  501    0  0.00000000000E+00  0.00000000000E+00  0.24919230006E+02  0.24919230006E+02  0.00000000000E+00 0.  1.
         -4   -1    0    0    0  501 -0.00000000000E+00 -0.00000000000E+00 -0.49930874949E+03  0.49930874949E+03  0.00000000000E+00 0. -1.
         23    2    1    2    0    0 -0.15221397983E+02  0.18470517118E+02 -0.24781926407E+03  0.27857731309E+03  0.12497232001E+03 0.  0.
         23    2    1    2    0    0  0.15221397983E+02 -0.18470517118E+02 -0.22657025542E+03  0.24565066640E+03  0.91854876328E+02 0.  0.
          5    1    3    3  502    0 -0.39917420545E+02  0.16609907444E+02 -0.24954875732E+03  0.25331001119E+03  0.47000000000E+01 0.  1.
         -5    1    3    3    0  502  0.24696022562E+02  0.18606096739E+01  0.17294932503E+01  0.25267301907E+02  0.47000000000E+01 0.  1.
        -11    1    4    4    0    0  0.26664934662E+02  0.20314594838E+02 -0.30068829387E+02  0.45031500138E+02  0.00000000000E+00 0.  1.
         11    1    4    4    0    0 -0.11443536679E+02 -0.38785111956E+02 -0.19650142603E+03  0.20061916627E+03  0.00000000000E+00 0. -1.
<mgrwt>
<rscale>  0 0.11825474E+03</rscale>
<asrwt>0</asrwt>
<pdfrwt beam="1">  1        4 0.38337281E-02 0.12724359E+03</pdfrwt>
<pdfrwt beam="2">  1       -4 0.76816722E-01 0.12724359E+03</pdfrwt>
<totfact> 0.92863879E+02</totfact>
</mgrwt>
</event>
<event>
 8    1  0.1033707E-005  0.1260624E+03  0.7546771E-02  0.1247222E+00
          1   -1    0    0  501    0  0.00000000000E+00  0.00000000000E+00  0.26407027172E+03  0.26407027172E+03  0.00000000000E+00 0. -1.
         -1   -1    0    0    0  501 -0.00000000000E+00 -0.00000000000E+00 -0.46374720575E+02  0.46374720575E+02  0.00000000000E+00 0.  1.
         23    2    1    2    0    0  0.22467978555E+01 -0.16211307682E+02  0.12285943033E+03  0.17602885342E+03  0.12499545199E+03 0.  0.
         23    2    1    2    0    0 -0.22467978555E+01  0.16211307682E+02  0.94836120819E+02  0.13441613887E+03  0.93840044654E+02 0.  0.
          5    1    3    3  502    0 -0.16586840032E+01 -0.79086282145E+01  0.14829197959E+03  0.14858633464E+03  0.47000000000E+01 0.  1.
         -5    1    3    3    0  502  0.39054818587E+01 -0.83026794680E+01 -0.25432549261E+02  0.27442518776E+02  0.47000000000E+01 0.  1.
        -11    1    4    4    0    0  0.32931602162E+02  0.20825232009E+02  0.90676427492E+02  0.98693440572E+02  0.00000000000E+00 0. -1.
         11    1    4    4    0    0 -0.35178400017E+02 -0.46139243270E+01  0.41596933265E+01  0.35722698303E+02  0.00000000000E+00 0.  1.
<mgrwt>
<rscale>  0 0.11753380E+03</rscale>
<asrwt>0</asrwt>
<pdfrwt beam="1">  1        1 0.40626195E-01 0.12606236E+03</pdfrwt>
<pdfrwt beam="2">  1       -1 0.71345725E-02 0.12606236E+03</pdfrwt>
<totfact> 0.99312694E+03</totfact>
</mgrwt>
</event>
<event>
 7    1  0.1033707E-005  0.2037140E+03  0.7546771E-02  0.1155706E+00
         -1   -1    0    0    0  501 -0.00000000000E+00  0.00000000000E+00  0.48411670036E+03  0.48411670036E+03  0.00000000000E+00 0.  1.
          1   -1    0    0  501    0  0.00000000000E+00 -0.00000000000E+00 -0.14078677754E+03  0.14078677754E+03  0.00000000000E+00 0. -1.
         23    2    1    2    0    0 -0.13145276290E+03  0.42653682102E+02 -0.58394385952E+02  0.17447944929E+03  0.89073051154E+02 0.  0.
          5    1    1    2  502    0  0.49505605897E+02 -0.24308210014E+02  0.18930411757E+02  0.58499098956E+02  0.47000000000E+01 0. -1.
         -5    1    1    2    0  502  0.81947157005E+02 -0.18345472088E+02  0.38279389702E+03  0.39192492965E+03  0.47000000000E+01 0.  1.
        -11    1    3    3    0    0  0.24257674402E+01 -0.16217813112E+02 -0.14213915421E+02  0.21701087562E+02  0.00000000000E+00 0.  1.
         11    1    3    3    0    0 -0.13387853034E+03  0.58871495213E+02 -0.44180470531E+02  0.15277836173E+03  0.00000000000E+00 0. -1.
<mgrwt>
<rscale>  0 0.19308687E+03</rscale>
<asrwt>0</asrwt>
<pdfrwt beam="2">  1        1 0.21659504E-01 0.20371398E+03</pdfrwt>
<pdfrwt beam="1">  1       -1 0.74479492E-01 0.20371398E+03</pdfrwt>
<totfact> 0.43740940E+02</totfact>
</mgrwt>
</event>
<event>
 8    1  0.1033707E-005  0.1267642E+03  0.7546771E-02  0.1238136E+00
         -1   -1    0    0    0  501 -0.00000000000E+00  0.00000000000E+00  0.18363560871E+03  0.18363560871E+03  0.00000000000E+00 0.  1.
          1   -1    0    0  501    0  0.00000000000E+00 -0.00000000000E+00 -0.77997177271E+02  0.77997177271E+02  0.00000000000E+00 0. -1.
         23    2    1    2    0    0  0.30531531193E+01  0.20854225199E+02  0.54408887821E+02  0.13794738521E+03  0.12499973424E+03 0.  0.
         23    2    1    2    0    0 -0.30531531193E+01 -0.20854225199E+02  0.51229543615E+02  0.12368540077E+03  0.11058658043E+03 0.  0.
          5    1    3    3  502    0 -0.36097090203E+02 -0.39311614962E+02  0.32869127580E+02  0.62855966622E+02  0.47000000000E+01 0. -1.
         -5    1    3    3    0  502  0.39150243323E+02  0.60165840161E+02  0.21539760240E+02  0.75091418589E+02  0.47000000000E+01 0. -1.
        -11    1    4    4    0    0 -0.55138381396E+02 -0.19854133331E-01  0.34916176223E+02  0.65263932299E+02  0.00000000000E+00 0. -1.
         11    1    4    4    0    0  0.52085228276E+02 -0.20834371065E+02  0.16313367392E+02  0.58421468468E+02  0.00000000000E+00 0.  1.
<mgrwt>
<rscale>  0 0.12305802E+03</rscale>
<asrwt>0</asrwt>
<pdfrwt beam="2">  1        1 0.11999566E-01 0.12676417E+03</pdfrwt>
<pdfrwt beam="1">  1       -1 0.28251632E-01 0.12676417E+03</pdfrwt>
<totfact> 0.53856269E+03</totfact>
</mgrwt>
</event>
<event>
 8    1  0.1033707E-005  0.1845995E+03  0.7546771E-02  0.1168810E+00
          1   -1    0    0  501    0  0.00000000000E+00  0.00000000000E+00  0.49681890823E+03  0.49681890823E+03  0.00000000000E+00 0. -1.
         -1   -1    0    0    0  501 -0.00000000000E+00 -0.00000000000E+00 -0.61667137567E+02  0.61667137567E+02  0.00000000000E+00 0.  1.
         23    2    1    2    0    0  0.33822660600E+02  0.13156866295E+03  0.26347825329E+03  0.32171066318E+03  0.12499070128E+03 0.  0.
         23    2    1    2    0    0 -0.33822660600E+02 -0.13156866295E+03  0.17167351737E+03  0.23677538262E+03  0.90202548780E+02 0.  0.
          5    1    3    3  502    0 -0.26310001281E+02  0.11266771856E+03  0.20580991140E+03  0.23614834449E+03  0.47000000000E+01 0. -1.
         -5    1    3    3    0  502  0.60132661881E+02  0.18900944389E+02  0.57668341889E+02  0.85562318692E+02  0.47000000000E+01 0. -1.
        -11    1    4    4    0    0  0.17231986598E+02 -0.85924715963E+02  0.12944174462E+03  0.15631750838E+03  0.00000000000E+00 0.  1.
         11    1    4    4    0    0 -0.51054647198E+02 -0.45643946987E+02  0.42231772746E+02  0.80457874234E+02  0.00000000000E+00 0. -1.
<mgrwt>
<rscale>  0 0.17896340E+03</rscale>
<asrwt>0</asrwt>
<pdfrwt beam="1">  1        1 0.76433675E-01 0.18459946E+03</pdfrwt>
<pdfrwt beam="2">  1       -1 0.94872523E-02 0.18459946E+03</pdfrwt>
<totfact> 0.29681363E+03</totfact>
</mgrwt>
</event>
<event>
 8    1  0.1033707E-005  0.1429091E+03  0.7546771E-02  0.1220342E+00
         -1   -1    0    0    0  501 -0.00000000000E+00  0.00000000000E+00  0.35310688542E+02  0.35310688542E+02  0.00000000000E+00 0.  1.
          1   -1    0    0  501    0  0.00000000000E+00 -0.00000000000E+00 -0.46556274051E+03  0.46556274051E+03  0.00000000000E+00 0. -1.
         23    2    1    2    0    0  0.22735205372E+02  0.65438828563E+02 -0.23738550787E+03  0.27708281391E+03  0.12499550620E+03 0.  0.
         23    2    1    2    0    0 -0.22735205372E+02 -0.65438828563E+02 -0.19286654410E+03  0.22379061515E+03  0.89919996367E+02 0.  0.
          5    1    3    3  502    0  0.49873202588E+02 -0.49149721364E+01 -0.35697638789E+02  0.61708222325E+02  0.47000000000E+01 0. -1.
         -5    1    3    3    0  502 -0.27137997215E+02  0.70353800699E+02 -0.20168786908E+03  0.21537459158E+03  0.47000000000E+01 0. -1.
        -11    1    4    4    0    0  0.94868905374E+00 -0.78407861498E+02 -0.99996789588E+02  0.12707498056E+03  0.00000000000E+00 0.  1.
         11    1    4    4    0    0 -0.23683894426E+02  0.12969032935E+02 -0.92869754515E+02  0.96715634590E+02  0.00000000000E+00 0. -1.
<mgrwt>
<rscale>  0 0.13491316E+03</rscale>
<asrwt>0</asrwt>
<pdfrwt beam="2">  1        1 0.71625036E-01 0.14290908E+03</pdfrwt>
<pdfrwt beam="1">  1       -1 0.54324137E-02 0.14290908E+03</pdfrwt>
<totfact> 0.74002550E+03</totfact>
</mgrwt>
</event>
<event>
 8    1  0.1033707E-005  0.1277695E+03  0.7546771E-02  0.1245345E+00
         -1   -1    0    0    0  501 -0.00000000000E+00  0.00000000000E+00  0.78286093413E+02  0.78286093413E+02  0.00000000000E+00 0.  1.
          1   -1    0    0  501    0  0.00000000000E+00 -0.00000000000E+00 -0.16647469594E+03  0.16647469594E+03  0.00000000000E+00 0. -1.
         23    2    1    2    0    0 -0.95333145198E+01  0.24663662423E+02 -0.23737556106E+02  0.12995579275E+03  0.12500342463E+03 0.  0.
         23    2    1    2    0    0  0.95333145198E+01 -0.24663662423E+02 -0.64451046417E+02  0.11480499660E+03  0.91252778204E+02 0.  0.
          5    1    3    3  502    0 -0.54198569536E+02  0.43936785426E+02 -0.37275052982E+02  0.79242953177E+02  0.47000000000E+01 0.  1.
         -5    1    3    3    0  502  0.44665255016E+02 -0.19273123003E+02  0.13537496876E+02  0.50712839574E+02  0.47000000000E+01 0.  1.
        -11    1    4    4    0    0  0.44203109055E+02 -0.88798244248E+01 -0.66411233534E+01  0.45572696336E+02  0.00000000000E+00 0.  1.
         11    1    4    4    0    0 -0.34669794535E+02 -0.15783837998E+02 -0.57809923064E+02  0.69232300263E+02  0.00000000000E+00 0. -1.
<mgrwt>
<rscale>  0 0.11864754E+03</rscale>
<asrwt>0</asrwt>
<pdfrwt beam="2">  1        1 0.25611492E-01 0.12776947E+03</pdfrwt>
<pdfrwt beam="1">  1       -1 0.12044014E-01 0.12776947E+03</pdfrwt>
<totfact> 0.79552921E+03</totfact>
</mgrwt>
</event>
<event>
 8    1  0.1033707E-005  0.1721212E+03  0.7546771E-02  0.1181892E+00
          1   -1    0    0  501    0  0.00000000000E+00  0.00000000000E+00  0.17305789819E+03  0.17305789819E+03  0.00000000000E+00 0. -1.
         -1   -1    0    0    0  501 -0.00000000000E+00 -0.00000000000E+00 -0.17253420781E+03  0.17253420781E+03  0.00000000000E+00 0.  1.
         23    2    1    2    0    0 -0.11453724947E+03 -0.29682424107E+02 -0.62748651016E+02  0.18320232099E+03  0.12500347752E+03 0.  0.
         23    2    1    2    0    0  0.11453724947E+03  0.29682424107E+02  0.63272341403E+02  0.16238978502E+03  0.91472538353E+02 0.  0.
          5    1    3    3  502    0 -0.80426463675E+01  0.41662149201E+02 -0.25092104225E+02  0.49518910843E+02  0.47000000000E+01 0. -1.
         -5    1    3    3    0  502 -0.10649460311E+03 -0.71344573308E+02 -0.37656546792E+02  0.13368341014E+03  0.47000000000E+01 0. -1.
        -11    1    4    4    0    0  0.40262027167E+02 -0.32973595564E+02  0.16879078129E+02  0.54710073245E+02  0.00000000000E+00 0.  1.
         11    1    4    4    0    0  0.74275222307E+02  0.62656019671E+02  0.46393263274E+02  0.10767971177E+03  0.00000000000E+00 0. -1.
<mgrwt>
<rscale>  0 0.16617926E+03</rscale>
<asrwt>0</asrwt>
<pdfrwt beam="1">  1        1 0.26624292E-01 0.17212117E+03</pdfrwt>
<pdfrwt beam="2">  1       -1 0.26543724E-01 0.17212117E+03</pdfrwt>
<totfact> 0.21819946E+03</totfact>
</mgrwt>
</event>
<event>
 8    1  0.1033707E-005  0.1366596E+03  0.7546771E-02  0.1229629E+00
         -2   -1    0    0    0  501 -0.00000000000E+00  0.00000000000E+00  0.23168850780E+03  0.23168850780E+03  0.00000000000E+00 0. -1.
          2   -1    0    0  501    0  0.00000000000E+00 -0.00000000000E+00 -0.11012621057E+03  0.11012621057E+03  0.00000000000E+00 0.  1.
         23    2    1    2    0    0  0.50664632899E+02  0.21944545832E+02  0.17515360106E+03  0.22215902720E+03  0.12500952477E+03 0.  0.
         23    2    1    2    0    0 -0.50664632899E+02 -0.21944545832E+02 -0.53591303826E+02  0.11965569117E+03  0.91635083153E+02 0.  0.
          5    1    3    3  502    0  0.83484068029E+02 -0.64700234710E+01  0.14976960399E+03  0.17165219223E+03  0.47000000000E+01 0. -1.
         -5    1    3    3    0  502 -0.32819435130E+02  0.28414569302E+02  0.25383997066E+02  0.50506834962E+02  0.47000000000E+01 0. -1.
        -11    1    4    4    0    0 -0.92194159973E+01 -0.52960380895E+02 -0.37139108673E+02  0.65338449392E+02  0.00000000000E+00 0.  1.
         11    1    4    4    0    0 -0.41445216901E+02  0.31015835064E+02 -0.16452195152E+02  0.54317241775E+02  0.00000000000E+00 0. -1.
<mgrwt>
<rscale>  0 0.12854621E+03</rscale>
<asrwt>0</asrwt>
<pdfrwt beam="2">  1        2 0.16942494E-01 0.13665961E+03</pdfrwt>
<pdfrwt beam="1">  1       -2 0.35644386E-01 0.13665961E+03</pdfrwt>
<totfact> 0.24196371E+03</totfact>
</mgrwt>
</event>
<event>
 8    1  0.1033707E-005  0.1499816E+03  0.7546771E-02  0.1209766E+00
         -2   -1    0    0    0  501 -0.00000000000E+00  0.00000000000E+00  0.23853543123E+03  0.23853543123E+03  0.00000000000E+00 0.  1.
          2   -1    0    0  501    0  0.00000000000E+00 -0.00000000000E+00 -0.82303239196E+02  0.82303239196E+02  0.00000000000E+00 0. -1.
         23    2    1    2    0    0 -0.62493153438E+02  0.54486671631E+02  0.12194419643E+03  0.19329992516E+03  0.12498112823E+03 0.  0.
         23    2    1    2    0    0  0.62493153438E+02 -0.54486671631E+02  0.34287995610E+02  0.12753874526E+03  0.90643661051E+02 0.  0.
          5    1    3    3  502    0 -0.51625261291E+01  0.65214691856E+02  0.11756369308E+03  0.13462139370E+03  0.47000000000E+01 0.  1.
         -5    1    3    3    0  502 -0.57330627308E+02 -0.10728020225E+02  0.43805033449E+01  0.58678531467E+02  0.47000000000E+01 0.  1.
        -11    1    4    4    0    0  0.27296022296E+02  0.14673756478E+02 -0.16189901943E+02  0.34964337364E+02  0.00000000000E+00 0. -1.
         11    1    4    4    0    0  0.35197131141E+02 -0.69160428109E+02  0.50477897553E+02  0.92574407901E+02  0.00000000000E+00 0.  1.
<mgrwt>
<rscale>  0 0.14268104E+03</rscale>
<asrwt>0</asrwt>
<pdfrwt beam="2">  1        2 0.12662037E-01 0.14998158E+03</pdfrwt>
<pdfrwt beam="1">  1       -2 0.36697758E-01 0.14998158E+03</pdfrwt>
<totfact> 0.32439820E+03</totfact>
</mgrwt>
</event>
<event>
 8    1  0.1033707E-005  0.1486779E+03  0.7546771E-02  0.1212829E+00
         -1   -1    0    0    0  501 -0.00000000000E+00  0.00000000000E+00  0.58699891310E+03  0.58699891310E+03  0.00000000000E+00 0.  1.
          1   -1    0    0  501    0  0.00000000000E+00 -0.00000000000E+00 -0.30340523524E+02  0.30340523524E+02  0.00000000000E+00 0. -1.
         23    2    1    2    0    0 -0.25540920663E+02  0.76341053780E+02  0.30211833450E+03  0.33672034882E+03  0.12499924059E+03 0.  0.
         23    2    1    2    0    0  0.25540920663E+02 -0.76341053780E+02  0.25454005507E+03  0.28061908780E+03  0.86464661465E+02 0.  0.
          5    1    3    3  502    0 -0.51903428176E+02 -0.51695393599E+00  0.19699309233E+03  0.20377095359E+03  0.47000000000E+01 0.  1.
         -5    1    3    3    0  502  0.26362507512E+02  0.76858007716E+02  0.10512524217E+03  0.13294939523E+03  0.47000000000E+01 0.  1.
        -11    1    4    4    0    0  0.28620663788E+02 -0.94216472655E+02  0.22919627524E+03  0.24945303907E+03  0.00000000000E+00 0.  1.
         11    1    4    4    0    0 -0.30797431250E+01  0.17875418875E+02  0.25343779832E+02  0.31166048737E+02  0.00000000000E+00 0. -1.
<mgrwt>
<rscale>  0 0.14037233E+03</rscale>
<asrwt>0</asrwt>
<pdfrwt beam="2">  1        1 0.46677733E-02 0.14867786E+03</pdfrwt>
<pdfrwt beam="1">  1       -1 0.90307517E-01 0.14867786E+03</pdfrwt>
<totfact> 0.22489738E+03</totfact>
</mgrwt>
</event>
<event>
 8    1  0.1033707E-005  0.1387597E+03  0.7546771E-02  0.1228147E+00
          2   -1    0    0  501    0  0.00000000000E+00  0.00000000000E+00  0.65175502507E+02  0.65175502507E+02  0.00000000000E+00 0. -1.
         -2   -1    0    0    0  501 -0.00000000000E+00 -0.00000000000E+00 -0.22864244061E+03  0.22864244061E+03  0.00000000000E+00 0.  1.
         23    2    1    2    0    0 -0.51271982678E+02  0.31606082290E+02 -0.91827013601E+02  0.16639248917E+03  0.12500599738E+03 0.  0.
         23    2    1    2    0    0  0.51271982678E+02 -0.31606082290E+02 -0.71639924499E+02  0.12742545394E+03  0.86470844126E+02 0.  0.
          5    1    3    3  502    0 -0.80760593143E+02 -0.89531988338E+01 -0.30226205009E+02  0.86822500789E+02  0.47000000000E+01 0. -1.
         -5    1    3    3    0  502  0.29488610465E+02  0.40559281124E+02 -0.61600808592E+02  0.79569988385E+02  0.47000000000E+01 0. -1.
        -11    1    4    4    0    0  0.70694175013E+02 -0.11574885467E+02 -0.68896197663E+02  0.99389790254E+02  0.00000000000E+00 0.  1.
         11    1    4    4    0    0 -0.19422192335E+02 -0.20031196823E+02 -0.27437268358E+01  0.28035663684E+02  0.00000000000E+00 0. -1.
<mgrwt>
<rscale>  0 0.12953503E+03</rscale>
<asrwt>0</asrwt>
<pdfrwt beam="1">  1        2 0.10027001E-01 0.13875972E+03</pdfrwt>
<pdfrwt beam="2">  1       -2 0.35175760E-01 0.13875972E+03</pdfrwt>
<totfact> 0.46349793E+03</totfact>
</mgrwt>
</event>
<event>
 8    1  0.1033707E-005  0.1442051E+03  0.7546771E-02  0.1218235E+00
         -1   -1    0    0    0  501 -0.00000000000E+00  0.00000000000E+00  0.19288656543E+02  0.19288656543E+02  0.00000000000E+00 0.  1.
          1   -1    0    0  501    0  0.00000000000E+00 -0.00000000000E+00 -0.92688219698E+03  0.92688219698E+03  0.00000000000E+00 0. -1.
         23    2    1    2    0    0 -0.37341039368E+02 -0.61450035628E+02 -0.61341555315E+03  0.63013788899E+03  0.12499863276E+03 0.  0.
         23    2    1    2    0    0  0.37341039368E+02  0.61450035628E+02 -0.29417798728E+03  0.31603296453E+03  0.90364187427E+02 0.  0.
          5    1    3    3  502    0 -0.62232110658E+01 -0.96663190849E+02 -0.41141682440E+03  0.42269184309E+03  0.47000000000E+01 0. -1.
         -5    1    3    3    0  502 -0.31117828303E+02  0.35213155221E+02 -0.20199872875E+03  0.20744604589E+03  0.47000000000E+01 0. -1.
        -11    1    4    4    0    0  0.50705522328E+02  0.64727592598E+02 -0.29032414687E+03  0.30174297257E+03  0.00000000000E+00 0. -1.
         11    1    4    4    0    0 -0.13364482959E+02 -0.32775569703E+01 -0.38538404148E+01  0.14289991966E+02  0.00000000000E+00 0.  1.
<mgrwt>
<rscale>  0 0.13641569E+03</rscale>
<asrwt>0</asrwt>
<pdfrwt beam="2">  1        1 0.14259722E+00 0.14420513E+03</pdfrwt>
<pdfrwt beam="1">  1       -1 0.29674864E-02 0.14420513E+03</pdfrwt>
<totfact> 0.67815847E+03</totfact>
</mgrwt>
</event>
<event>
 7    1  0.1033707E-005  0.3091810E+03  0.7546771E-02  0.1118678E+00
          1   -1    0    0  501    0  0.00000000000E+00  0.00000000000E+00  0.67948317463E+03  0.67948317463E+03  0.00000000000E+00 0. -1.
         -1   -1    0    0    0  501 -0.00000000000E+00 -0.00000000000E+00 -0.70606104477E+02  0.70606104477E+02  0.00000000000E+00 0.  1.
         23    2    1    2    0    0 -0.58431135014E+02 -0.30783307677E+02  0.25664397508E+03  0.28140920299E+03  0.94674178170E+02 0.  0.
          5    1    1    2  502    0  0.65083576693E+02  0.90308473783E+02  0.38461611968E+03  0.40042869766E+03  0.47000000000E+01 0. -1.
         -5    1    1    2    0  502 -0.66524416793E+01 -0.59525166105E+02 -0.32383024598E+02  0.68251378464E+02  0.47000000000E+01 0.  1.
        -11    1    3    3    0    0 -0.52335052988E+02 -0.61339137910E+02  0.21327451445E+03  0.22800760102E+03  0.00000000000E+00 0. -1.
         11    1    3    3    0    0 -0.60960820261E+01  0.30555830232E+02  0.43369460629E+02  0.53401601966E+02  0.00000000000E+00 0.  1.
<mgrwt>
<rscale>  0 0.24168127E+03</rscale>
<asrwt>0</asrwt>
<pdfrwt beam="1">  1        1 0.10453587E+00 0.30918095E+03</pdfrwt>
<pdfrwt beam="2">  1       -1 0.10862478E-01 0.30918095E+03</pdfrwt>
<totfact> 0.15782245E+03</totfact>
</mgrwt>
</event>
<event>
 8    1  0.1033707E-005  0.1387702E+03  0.7546771E-02  0.1226536E+00
          2   -1    0    0  501    0  0.00000000000E+00  0.00000000000E+00  0.32716817729E+03  0.32716817729E+03  0.00000000000E+00 0. -1.
         -2   -1    0    0    0  501 -0.00000000000E+00 -0.00000000000E+00 -0.58396291777E+02  0.58396291777E+02  0.00000000000E+00 0.  1.
         23    2    1    2    0    0  0.59374134135E+02 -0.10417427886E+02  0.62292261333E+02  0.15211015305E+03  0.12499344875E+03 0.  0.
         23    2    1    2    0    0 -0.59374134135E+02  0.10417427886E+02  0.20647962418E+03  0.23345431601E+03  0.90737378501E+02 0.  0.
          5    1    3    3  502    0  0.51016055772E+02 -0.58796300853E+02  0.66665820709E+02  0.10259661101E+03  0.47000000000E+01 0. -1.
         -5    1    3    3    0  502  0.83580783625E+01  0.48378872967E+02 -0.43735593764E+01  0.49513542038E+02  0.47000000000E+01 0. -1.
        -11    1    4    4    0    0  0.18335000958E+02 -0.14120512656E+02  0.77555503769E+02  0.80934648345E+02  0.00000000000E+00 0. -1.
         11    1    4    4    0    0 -0.77709135093E+02  0.24537940541E+02  0.12892412041E+03  0.15251966767E+03  0.00000000000E+00 0.  1.
<mgrwt>
<rscale>  0 0.13062166E+03</rscale>
<asrwt>0</asrwt>
<pdfrwt beam="1">  1        2 0.50333565E-01 0.13877022E+03</pdfrwt>
<pdfrwt beam="2">  1       -2 0.89840450E-02 0.13877022E+03</pdfrwt>
<totfact> 0.74679507E+03</totfact>
</mgrwt>
</event>
<event>
 8    1  0.1033707E-005  0.1518434E+03  0.7546771E-02  0.1207171E+00
         -1   -1    0    0    0  501 -0.00000000000E+00  0.00000000000E+00  0.50434305684E+02  0.50434305684E+02  0.00000000000E+00 0.  1.
          1   -1    0    0  501    0  0.00000000000E+00 -0.00000000000E+00 -0.38312417358E+03  0.38312417358E+03  0.00000000000E+00 0. -1.
         23    2    1    2    0    0  0.25341998987E+02  0.82380236143E+02 -0.16376021797E+03  0.22332448892E+03  0.12501079210E+03 0.  0.
         23    2    1    2    0    0 -0.25341998987E+02 -0.82380236143E+02 -0.16892964992E+03  0.21023399034E+03  0.90732485096E+02 0.  0.
          5    1    3    3  502    0 -0.18852534361E+02 -0.12096864643E+02 -0.96382999428E+02  0.99063236191E+02  0.47000000000E+01 0. -1.
         -5    1    3    3    0  502  0.44194533349E+02  0.94477100786E+02 -0.67377218541E+02  0.12426125273E+03  0.47000000000E+01 0. -1.
        -11    1    4    4    0    0 -0.39715306512E+02 -0.24733646229E+02 -0.13255933101E+03  0.14057394874E+03  0.00000000000E+00 0. -1.
         11    1    4    4    0    0  0.14373307524E+02 -0.57646589914E+02 -0.36370318917E+02  0.69660041602E+02  0.00000000000E+00 0.  1.
<mgrwt>
<rscale>  0 0.14467708E+03</rscale>
<asrwt>0</asrwt>
<pdfrwt beam="2">  1        1 0.58942182E-01 0.15184340E+03</pdfrwt>
<pdfrwt beam="1">  1       -1 0.77591237E-02 0.15184340E+03</pdfrwt>
<totfact> 0.55805798E+03</totfact>
</mgrwt>
</event>
<event>
 8    1  0.1033707E-005  0.1283603E+03  0.7546771E-02  0.1244857E+00
         -2   -1    0    0    0  501 -0.00000000000E+00  0.00000000000E+00  0.34458432921E+02  0.34458432921E+02  0.00000000000E+00 0.  1.
          2   -1    0    0  501    0  0.00000000000E+00 -0.00000000000E+00 -0.39803421113E+03  0.39803421113E+03  0.00000000000E+00 0. -1.
         23    2    1    2    0    0  0.51098815741E+01 -0.28723181380E+02 -0.14121625257E+03  0.19083602840E+03  0.12500091082E+03 0.  0.
         23    2    1    2    0    0 -0.51098815741E+01  0.28723181380E+02 -0.22235952564E+03  0.24165661566E+03  0.90016827375E+02 0.  0.
          5    1    3    3  502    0 -0.26865599577E+02 -0.67305264303E+02 -0.10934439083E+03  0.13126326542E+03  0.47000000000E+01 0.  1.
         -5    1    3    3    0  502  0.31975481151E+02  0.38582082923E+02 -0.31871861748E+02  0.59572762977E+02  0.47000000000E+01 0.  1.
        -11    1    4    4    0    0 -0.27302771632E+02  0.31176138336E+02 -0.21374349332E+03  0.21772384775E+03  0.00000000000E+00 0. -1.
         11    1    4    4    0    0  0.22192890058E+02 -0.24529569559E+01 -0.86160323145E+01  0.23932767909E+02  0.00000000000E+00 0.  1.
<mgrwt>
<rscale>  0 0.11893949E+03</rscale>
<asrwt>0</asrwt>
<pdfrwt beam="2">  1        2 0.61236031E-01 0.12836027E+03</pdfrwt>
<pdfrwt beam="1">  1       -2 0.53012975E-02 0.12836027E+03</pdfrwt>
<totfact> 0.13507022E+04</totfact>
</mgrwt>
</event>
<event>
 8    1  0.1033707E-005  0.1588038E+03  0.7546771E-02  0.1197822E+00
          1   -1    0    0  501    0  0.00000000000E+00  0.00000000000E+00  0.59577012990E+02  0.59577012990E+02  0.00000000000E+00 0. -1.
         -1   -1    0    0    0  501 -0.00000000000E+00 -0.00000000000E+00 -0.42883835127E+03  0.42883835127E+03  0.00000000000E+00 0.  1.
         23    2    1    2    0    0 -0.95728495897E+02  0.20664596497E+02 -0.29566070108E+03  0.33560972820E+03  0.12501067563E+03 0.  0.
         23    2    1    2    0    0  0.95728495897E+02 -0.20664596497E+02 -0.73600637194E+02  0.15280563606E+03  0.91332021441E+02 0.  0.
          5    1    3    3  502    0  0.17000994250E+02  0.42783049368E+01  0.60872103287E+00  0.18160348012E+02  0.47000000000E+01 0.  1.
         -5    1    3    3    0  502 -0.11272949015E+03  0.16386291560E+02 -0.29626942211E+03  0.31744938019E+03  0.47000000000E+01 0.  1.
        -11    1    4    4    0    0  0.46835289822E+02 -0.51998699379E+02 -0.62193137541E+02  0.93623690736E+02  0.00000000000E+00 0.  1.
         11    1    4    4    0    0  0.48893206075E+02  0.31334102882E+02 -0.11407499653E+02  0.59181945322E+02  0.00000000000E+00 0. -1.
<mgrwt>
<rscale>  0 0.15217761E+03</rscale>
<asrwt>0</asrwt>
<pdfrwt beam="1">  1        1 0.91656942E-02 0.15880378E+03</pdfrwt>
<pdfrwt beam="2">  1       -1 0.65975132E-01 0.15880378E+03</pdfrwt>
<totfact> 0.17095501E+03</totfact>
</mgrwt>
</event>
<event>
 8    1  0.1033707E-005  0.1409481E+03  0.7546771E-02  0.1223493E+00
         -2   -1    0    0    0  501 -0.00000000000E+00  0.00000000000E+00  0.11804656710E+03  0.11804656710E+03  0.00000000000E+00 0.  1.
          2   -1    0    0  501    0  0.00000000000E+00 -0.00000000000E+00 -0.13678372788E+03  0.13678372788E+03  0.00000000000E+00 0. -1.
         23    2    1    2    0    0  0.53641264450E+02 -0.37016834796E+02  0.69722517732E+01  0.14112044441E+03  0.12497494239E+03 0.  0.
         23    2    1    2    0    0 -0.53641264450E+02  0.37016834796E+02 -0.25709412547E+02  0.11370985057E+03  0.89561849653E+02 0.  0.
          5    1    3    3  502    0  0.37053157681E+02 -0.77591726289E+02 -0.21350346738E+02  0.88720571394E+02  0.47000000000E+01 0. -1.
         -5    1    3    3    0  502  0.16588106769E+02  0.40574891492E+02  0.28322598511E+02  0.52399873017E+02  0.47000000000E+01 0. -1.
        -11    1    4    4    0    0 -0.66276258734E+02  0.38798575785E+02  0.84346562365E+01  0.77259403186E+02  0.00000000000E+00 0.  1.
         11    1    4    4    0    0  0.12634994284E+02 -0.17817409892E+01 -0.34144068783E+02  0.36450447385E+02  0.00000000000E+00 0. -1.
<mgrwt>
<rscale>  0 0.13270747E+03</rscale>
<asrwt>0</asrwt>
<pdfrwt beam="2">  1        2 0.21043650E-01 0.14094810E+03</pdfrwt>
<pdfrwt beam="1">  1       -2 0.18161010E-01 0.14094810E+03</pdfrwt>
<totfact> 0.61858273E+03</totfact>
</mgrwt>
</event>
<event>
 8    1  0.1033707E-005  0.1416029E+03  0.7546771E-02  0.1221934E+00
          2   -1    0    0  501    0  0.00000000000E+00  0.00000000000E+00  0.33191027469E+03  0.33191027469E+03  0.00000000000E+00 0. -1.
         -2   -1    0    0    0  501 -0.00000000000E+00 -0.00000000000E+00 -0.49885238083E+02  0.49885238083E+02  0.00000000000E+00 0.  1.
         23    2    1    2    0    0  0.47875111964E+01 -0.66356493354E+02  0.12821748328E+03  0.19102645200E+03  0.12500111149E+03 0.  0.
         23    2    1    2    0    0 -0.47875111964E+01  0.66356493354E+02  0.15380755333E+03  0.19076906077E+03  0.91159018271E+02 0.  0.
          5    1    3    3  502    0 -0.74387047138E+01 -0.94716377901E+02  0.51450730299E+02  0.10814709529E+03  0.47000000000E+01 0.  1.
         -5    1    3    3    0  502  0.12226215910E+02  0.28359884547E+02  0.76766752976E+02  0.82879356715E+02  0.47000000000E+01 0.  1.
        -11    1    4    4    0    0 -0.28346271508E+02  0.80519934804E+02  0.11586237812E+03  0.14391338253E+03  0.00000000000E+00 0.  1.
         11    1    4    4    0    0  0.23558760312E+02 -0.14163441450E+02  0.37945175217E+02  0.46855678240E+02  0.00000000000E+00 0. -1.
<mgrwt>
<rscale>  0 0.13379305E+03</rscale>
<asrwt>0</asrwt>
<pdfrwt beam="1">  1        2 0.51063118E-01 0.14160290E+03</pdfrwt>
<pdfrwt beam="2">  1       -2 0.76746522E-02 0.14160290E+03</pdfrwt>
<totfact> 0.94011547E+03</totfact>
</mgrwt>
</event>
<event>
 8    1  0.1033707E-005  0.1256455E+03  0.7546771E-02  0.1249789E+00
          1   -1    0    0  501    0  0.00000000000E+00  0.00000000000E+00  0.33496837191E+03  0.33496837191E+03  0.00000000000E+00 0. -1.
         -1   -1    0    0    0  501 -0.00000000000E+00 -0.00000000000E+00 -0.35526823876E+02  0.35526823876E+02  0.00000000000E+00 0.  1.
         23    2    1    2    0    0 -0.56713815973E+01  0.11398039192E+02  0.19183337707E+03  0.22931817843E+03  0.12499881014E+03 0.  0.
         23    2    1    2    0    0  0.56713815973E+01 -0.11398039192E+02  0.10760817096E+03  0.14117701735E+03  0.90495038002E+02 0.  0.
          5    1    3    3  502    0 -0.12042656835E+02  0.64856770455E+02  0.71433866976E+02  0.97346358990E+02  0.47000000000E+01 0. -1.
         -5    1    3    3    0  502  0.63712752376E+01 -0.53458731264E+02  0.12039951009E+03  0.13197181944E+03  0.47000000000E+01 0. -1.
        -11    1    4    4    0    0 -0.30317971996E+02  0.19776650606E+02  0.19722833646E+02  0.41222390787E+02  0.00000000000E+00 0. -1.
         11    1    4    4    0    0  0.35989353593E+02 -0.31174689798E+02  0.87885337316E+02  0.99954626562E+02  0.00000000000E+00 0.  1.
<mgrwt>
<rscale>  0 0.11603265E+03</rscale>
<asrwt>0</asrwt>
<pdfrwt beam="1">  1        1 0.51533593E-01 0.12564546E+03</pdfrwt>
<pdfrwt beam="2">  1       -1 0.54656654E-02 0.12564546E+03</pdfrwt>
<totfact> 0.11006677E+04</totfact>
</mgrwt>
</event>
<event>
 8    1  0.1033707E-005  0.1343387E+03  0.7546771E-02  0.1233884E+00
         -1   -1    0    0    0  501 -0.00000000000E+00  0.00000000000E+00  0.82229280877E+02  0.82229280877E+02  0.00000000000E+00 0.  1.
          1   -1    0    0  501    0  0.00000000000E+00 -0.00000000000E+00 -0.17151716655E+03  0.17151716655E+03  0.00000000000E+00 0. -1.
         23    2    1    2    0    0  0.44563774696E+02  0.20951288241E+02 -0.50916036302E+02  0.14366391440E+03  0.12498796363E+03 0.  0.
         23    2    1    2    0    0 -0.44563774696E+02 -0.20951288241E+02 -0.38371849368E+02  0.11008253303E+03  0.90669061756E+02 0.  0.
          5    1    3    3  502    0  0.64444844164E+02 -0.30089694037E+02 -0.52720102836E+02  0.88656792575E+02  0.47000000000E+01 0.  1.
         -5    1    3    3    0  502 -0.19881069469E+02  0.51040982278E+02  0.18040665343E+01  0.55007121822E+02  0.47000000000E+01 0.  1.
        -11    1    4    4    0    0 -0.26491643936E+02 -0.54738912795E+01 -0.67354607340E+02  0.72583839896E+02  0.00000000000E+00 0. -1.
         11    1    4    4    0    0 -0.18072130759E+02 -0.15477396961E+02  0.28982757972E+02  0.37498693131E+02  0.00000000000E+00 0.  1.
<mgrwt>
<rscale>  0 0.12576155E+03</rscale>
<asrwt>0</asrwt>
<pdfrwt beam="2">  1        1 0.26387256E-01 0.13433867E+03</pdfrwt>
<pdfrwt beam="1">  1       -1 0.12650659E-01 0.13433867E+03</pdfrwt>
<totfact> 0.71298458E+03</totfact>
</mgrwt>
</event>
<event>
 7    1  0.1033707E-005  0.3002426E+03  0.7546771E-02  0.1085119E+00
          1   -1    0    0  501    0  0.00000000000E+00  0.00000000000E+00  0.60669568231E+03  0.60669568231E+03  0.00000000000E+00 0. -1.
         -1   -1    0    0    0  501 -0.00000000000E+00 -0.00000000000E+00 -0.37146147928E+02  0.37146147928E+02  0.00000000000E+00 0.  1.
         23    2    1    2    0    0 -0.38088761944E+02 -0.37333295342E+02  0.20053505004E+03  0.22685390364E+03  0.91672561739E+02 0.  0.
          5    1    1    2  502    0 -0.35095692998E+00 -0.70917253548E+02  0.20273736724E+03  0.21483461103E+03  0.47000000000E+01 0. -1.
         -5    1    1    2    0  502  0.38439718874E+02  0.10825054889E+03  0.16627711711E+03  0.20215331557E+03  0.47000000000E+01 0.  1.
        -11    1    3    3    0    0  0.13788540744E+02  0.21603711454E+02  0.69759288552E+02  0.74318251754E+02  0.00000000000E+00 0.  1.
         11    1    3    3    0    0 -0.51877302688E+02 -0.58937006796E+02  0.13077576149E+03  0.15253565189E+03  0.00000000000E+00 0. -1.
<mgrwt>
<rscale>  0 0.30024262E+03</rscale>
<asrwt>0</asrwt>
<pdfrwt beam="1">  1        1 0.93337790E-01 0.30024262E+03</pdfrwt>
<pdfrwt beam="2">  1       -1 0.57147924E-02 0.30024262E+03</pdfrwt>
<totfact> 0.49789698E+03</totfact>
</mgrwt>
</event>
<event>
 8    1  0.1033707E-005  0.1371932E+03  0.7546771E-02  0.1230721E+00
          1   -1    0    0  501    0  0.00000000000E+00  0.00000000000E+00  0.90959783087E+02  0.90959783087E+02  0.00000000000E+00 0. -1.
         -1   -1    0    0    0  501 -0.00000000000E+00 -0.00000000000E+00 -0.15960021750E+03  0.15960021750E+03  0.00000000000E+00 0.  1.
         23    2    1    2    0    0  0.42208497032E+02  0.37633137242E+02 -0.31997953411E+02  0.14087523915E+03  0.12499661493E+03 0.  0.
         23    2    1    2    0    0 -0.42208497032E+02 -0.37633137242E+02 -0.36642481006E+02  0.10968476144E+03  0.86546318450E+02 0.  0.
          5    1    3    3  502    0 -0.20886966757E+02 -0.58205319225E+01  0.33359652609E+02  0.40063704202E+02  0.47000000000E+01 0. -1.
         -5    1    3    3    0  502  0.63095463789E+02  0.43453669164E+02 -0.65357606020E+02  0.10081153495E+03  0.47000000000E+01 0. -1.
        -11    1    4    4    0    0  0.22625494563E+02 -0.13269310354E+02 -0.30387663820E+02  0.40142218597E+02  0.00000000000E+00 0.  1.
         11    1    4    4    0    0 -0.64833991595E+02 -0.24363826887E+02 -0.62548171864E+01  0.69542542841E+02  0.00000000000E+00 0. -1.
<mgrwt>
<rscale>  0 0.12782382E+03</rscale>
<asrwt>0</asrwt>
<pdfrwt beam="1">  1        1 0.13993813E-01 0.13719316E+03</pdfrwt>
<pdfrwt beam="2">  1       -1 0.24553879E-01 0.13719316E+03</pdfrwt>
<totfact> 0.55853709E+03</totfact>
</mgrwt>
</event>
<event>
 8    1  0.1033707E-005  0.1454166E+03  0.7546771E-02  0.1216076E+00
         -2   -1    0    0    0  501 -0.00000000000E+00  0.00000000000E+00  0.17313483188E+03  0.17313483188E+03  0.00000000000E+00 0. -1.
          2   -1    0    0  501    0  0.00000000000E+00 -0.00000000000E+00 -0.10116876877E+03  0.10116876877E+03  0.00000000000E+00 0.  1.
         23    2    1    2    0    0 -0.88707175887E+01 -0.73775002218E+02  0.25652417016E+02  0.14766192627E+03  0.12499822954E+03 0.  0.
         23    2    1    2    0    0  0.88707175887E+01  0.73775002218E+02  0.46313646087E+02  0.12664167438E+03  0.91497099918E+02 0.  0.
          5    1    3    3  502    0 -0.11174876842E+02 -0.15576026396E+01 -0.44919276177E+02  0.46552501229E+02  0.47000000000E+01 0.  1.
         -5    1    3    3    0  502  0.23041592538E+01 -0.72217399578E+02  0.70571693192E+02  0.10110942504E+03  0.47000000000E+01 0.  1.
        -11    1    4    4    0    0  0.42304429586E+02  0.19153557265E+02  0.41735096143E+02  0.62436702095E+02  0.00000000000E+00 0. -1.
         11    1    4    4    0    0 -0.33433711998E+02  0.54621444953E+02  0.45785499447E+01  0.64204972286E+02  0.00000000000E+00 0.  1.
<mgrwt>
<rscale>  0 0.13797827E+03</rscale>
<asrwt>0</asrwt>
<pdfrwt beam="2">  1        2 0.15564426E-01 0.14541664E+03</pdfrwt>
<pdfrwt beam="1">  1       -2 0.26636128E-01 0.14541664E+03</pdfrwt>
<totfact> 0.45373251E+03</totfact>
</mgrwt>
</event>
<event>
 8    1  0.1033707E-005  0.1254064E+03  0.7546771E-02  0.1247286E+00
          2   -1    0    0  501    0  0.00000000000E+00  0.00000000000E+00  0.10881594370E+03  0.10881594370E+03  0.00000000000E+00 0. -1.
         -2   -1    0    0    0  501 -0.00000000000E+00 -0.00000000000E+00 -0.11514047113E+03  0.11514047113E+03  0.00000000000E+00 0.  1.
         23    2    1    2    0    0 -0.94361533116E+01  0.43974241109E+01 -0.17722072452E+02  0.12665239070E+03  0.12497350875E+03 0.  0.
         23    2    1    2    0    0  0.94361533116E+01 -0.43974241109E+01  0.11397545017E+02  0.97304024132E+02  0.96071799982E+02 0.  0.
          5    1    3    3  502    0  0.38897662905E+02 -0.31247050807E+02 -0.38214822202E+02  0.63022765724E+02  0.47000000000E+01 0. -1.
         -5    1    3    3    0  502 -0.48333816216E+02  0.35644474917E+02  0.20492749750E+02  0.63629624975E+02  0.47000000000E+01 0. -1.
        -11    1    4    4    0    0 -0.16114377212E+02  0.41221245224E+02  0.73003903538E+01  0.44857105459E+02  0.00000000000E+00 0.  1.
         11    1    4    4    0    0  0.25550530524E+02 -0.45618669335E+02  0.40971546634E+01  0.52446918673E+02  0.00000000000E+00 0. -1.
<mgrwt>
<rscale>  0 0.11749582E+03</rscale>
<asrwt>0</asrwt>
<pdfrwt beam="1">  1        2 0.16740914E-01 0.12540636E+03</pdfrwt>
<pdfrwt beam="2">  1       -2 0.17713919E-01 0.12540636E+03</pdfrwt>
<totfact> 0.82954323E+03</totfact>
</mgrwt>
</event>
<event>
 8    1  0.1033707E-005  0.2243352E+03  0.7546771E-02  0.1133833E+00
         -2   -1    0    0    0  501 -0.00000000000E+00  0.00000000000E+00  0.86114758003E+02  0.86114758003E+02  0.00000000000E+00 0.  1.
          2   -1    0    0  501    0  0.00000000000E+00 -0.00000000000E+00 -0.57353504382E+03  0.57353504382E+03  0.00000000000E+00 0. -1.
         23    2    1    2    0    0 -0.89862574952E+02 -0.16317492696E+03 -0.17525579049E+03  0.28467681944E+03  0.12499984104E+03 0.  0.
         23    2    1    2    0    0  0.89862574952E+02  0.16317492696E+03 -0.31216449533E+03  0.37497298239E+03  0.91960460026E+02 0.  0.
          5    1    3    3  502    0 -0.39150926927E+02 -0.16499591542E+03 -0.11127624649E+03  0.20288159161E+03  0.47000000000E+01 0. -1.
         -5    1    3    3    0  502 -0.50711648025E+02  0.18209884522E+01 -0.63979543999E+02  0.81795227824E+02  0.47000000000E+01 0. -1.
        -11    1    4    4    0    0  0.29337025806E+02  0.13711303707E+03 -0.18958735438E+03  0.23580502743E+03  0.00000000000E+00 0.  1.
         11    1    4    4    0    0  0.60525549146E+02  0.26061889889E+02 -0.12257714095E+03  0.13916795496E+03  0.00000000000E+00 0. -1.
<mgrwt>
<rscale>  0 0.22006748E+03</rscale>
<asrwt>0</asrwt>
<pdfrwt beam="2">  1        2 0.88236162E-01 0.22433524E+03</pdfrwt>
<pdfrwt beam="1">  1       -2 0.13248424E-01 0.22433524E+03</pdfrwt>
<totfact> 0.22233934E+03</totfact>
</mgrwt>
</event>
<event>
 8    1  0.1033707E-005  0.2421942E+03  0.7546771E-02  0.1120863E+00
          2   -1    0    0  501    0  0.00000000000E+00  0.00000000000E+00  0.32008250780E+03  0.32008250780E+03  0.00000000000E+00 0.  1.
         -2   -1    0    0    0  501 -0.00000000000E+00 -0.00000000000E+00 -0.17777052655E+03  0.17777052655E+03  0.00000000000E+00 0. -1.
         23    2    1    2    0    0 -0.88194496669E+02  0.18776970840E+03  0.29347785890E+02  0.24396586133E+03  0.12498926483E+03 0.  0.
         23    2    1    2    0    0  0.88194496669E+02 -0.18776970840E+03  0.11296419536E+03  0.25388717302E+03  0.93070159312E+02 0.  0.
          5    1    3    3  502    0 -0.90454090272E+02  0.11002118417E+03 -0.30471045930E+02  0.14572981182E+03  0.47000000000E+01 0.  1.
         -5    1    3    3    0  502  0.22595936027E+01  0.77748524227E+02  0.59818831820E+02  0.98236049509E+02  0.47000000000E+01 0.  1.
        -11    1    4    4    0    0  0.68677836116E+01 -0.17237808389E+02 -0.16519122184E+02  0.24843306695E+02  0.00000000000E+00 0. -1.
         11    1    4    4    0    0  0.81326713058E+02 -0.17053190001E+03  0.12948331755E+03  0.22904386632E+03  0.00000000000E+00 0.  1.
<mgrwt>
<rscale>  0 0.23840033E+03</rscale>
<asrwt>0</asrwt>
<pdfrwt beam="1">  1        2 0.49243463E-01 0.24219424E+03</pdfrwt>
<pdfrwt beam="2">  1       -2 0.27349312E-01 0.24219424E+03</pdfrwt>
<totfact> 0.12309725E+03</totfact>
</mgrwt>
</event>
<event>
 8    1  0.1033707E-005  0.2053435E+03  0.7546771E-02  0.1149177E+00
         -2   -1    0    0    0  501 -0.00000000000E+00  0.00000000000E+00  0.30399251108E+03  0.30399251108E+03  0.00000000000E+00 0.  1.
          2   -1    0    0  501    0  0.00000000000E+00 -0.00000000000E+00 -0.12680616085E+03  0.12680616085E+03  0.00000000000E+00 0. -1.
         23    2    1    2    0    0 -0.73417655580E+02  0.14543492339E+03  0.96462794572E+02  0.22687222067E+03  0.12499785872E+03 0.  0.
         23    2    1    2    0    0  0.73417655580E+02 -0.14543492339E+03  0.80723555664E+02  0.20392645126E+03  0.92348448768E+02 0.  0.
          5    1    3    3  502    0 -0.71726353411E+02  0.10841470363E+03  0.73960685387E+01  0.13028894645E+03  0.47000000000E+01 0.  1.
         -5    1    3    3    0  502 -0.16913021689E+01  0.37020219765E+02  0.89066726033E+02  0.96583274229E+02  0.47000000000E+01 0.  1.
        -11    1    4    4    0    0 -0.11121712425E+02 -0.57428218449E+02  0.52662695038E+02  0.78708653972E+02  0.00000000000E+00 0.  1.
         11    1    4    4    0    0  0.84539368004E+02 -0.88006704943E+02  0.28060860627E+02  0.12521779728E+03  0.00000000000E+00 0. -1.
<mgrwt>
<rscale>  0 0.20066756E+03</rscale>
<asrwt>0</asrwt>
<pdfrwt beam="2">  1        2 0.19508640E-01 0.20534345E+03</pdfrwt>
<pdfrwt beam="1">  1       -2 0.46768079E-01 0.20534345E+03</pdfrwt>
<totfact> 0.12444889E+03</totfact>
</mgrwt>
</event>
<event>
 8    1  0.1033707E-005  0.1472292E+03  0.7546771E-02  0.1213928E+00
         -1   -1    0    0    0  501 -0.00000000000E+00  0.00000000000E+00  0.62734894110E+02  0.62734894110E+02  0.00000000000E+00 0.  1.
          1   -1    0    0  501    0  0.00000000000E+00 -0.00000000000E+00 -0.30632887217E+03  0.30632887217E+03  0.00000000000E+00 0. -1.
         23    2    1    2    0    0  0.58385426083E+02  0.51411895063E+02 -0.82177203538E+02  0.16861055921E+03  0.12499754783E+03 0.  0.
         23    2    1    2    0    0 -0.58385426083E+02 -0.51411895063E+02 -0.16141677452E+03  0.20045320707E+03  0.89855841188E+02 0.  0.
          5    1    3    3  502    0  0.25180298429E+02  0.63845129727E+02 -0.10547451995E+03  0.12592542387E+03  0.47000000000E+01 0. -1.
         -5    1    3    3    0  502  0.33205127654E+02 -0.12433234663E+02  0.23297316411E+02  0.42685135336E+02  0.47000000000E+01 0. -1.
        -11    1    4    4    0    0 -0.43526860420E+02 -0.50609131599E+02 -0.17044371119E+03  0.18304898378E+03  0.00000000000E+00 0. -1.
         11    1    4    4    0    0 -0.14858565663E+02 -0.80276346450E+00  0.90269366679E+01  0.17404223291E+02  0.00000000000E+00 0.  1.
<mgrwt>
<rscale>  0 0.13955591E+03</rscale>
<asrwt>0</asrwt>
<pdfrwt beam="2">  1        1 0.47127519E-01 0.14722917E+03</pdfrwt>
<pdfrwt beam="1">  1       -1 0.96515221E-02 0.14722917E+03</pdfrwt>
<totfact> 0.52900722E+03</totfact>
</mgrwt>
</event>
<event>
 8    1  0.1033707E-005  0.1401272E+03  0.7546771E-02  0.1224331E+00
         -2   -1    0    0    0  501 -0.00000000000E+00  0.00000000000E+00  0.86074056276E+02  0.86074056276E+02  0.00000000000E+00 0. -1.
          2   -1    0    0  501    0  0.00000000000E+00 -0.00000000000E+00 -0.20352098586E+03  0.20352098586E+03  0.00000000000E+00 0.  1.
         23    2    1    2    0    0  0.34190999232E+02  0.53297087112E+02 -0.19017245111E+02  0.14141173001E+03  0.12500407133E+03 0.  0.
         23    2    1    2    0    0 -0.34190999232E+02 -0.53297087112E+02 -0.98429684469E+02  0.14818331212E+03  0.90886122615E+02 0.  0.
          5    1    3    3  502    0 -0.30779326044E+02  0.20161128692E+02 -0.49811187487E+02  0.62105413779E+02  0.47000000000E+01 0.  1.
         -5    1    3    3    0  502  0.64970325276E+02  0.33135958420E+02  0.30793942375E+02  0.79306316230E+02  0.47000000000E+01 0.  1.
        -11    1    4    4    0    0 -0.52477518130E+01 -0.92350313632E+01  0.17703031346E+02  0.20645145245E+02  0.00000000000E+00 0. -1.
         11    1    4    4    0    0 -0.28943247419E+02 -0.44062055749E+02 -0.11613271581E+03  0.12753816688E+03  0.00000000000E+00 0.  1.
<mgrwt>
<rscale>  0 0.13212860E+03</rscale>
<asrwt>0</asrwt>
<pdfrwt beam="2">  1        2 0.31310921E-01 0.14012716E+03</pdfrwt>
<pdfrwt beam="1">  1       -2 0.13242163E-01 0.14012716E+03</pdfrwt>
<totfact> 0.67043660E+03</totfact>
</mgrwt>
</event>
<event>
 8    1  0.1033707E-005  0.1960224E+03  0.7546771E-02  0.1158417E+00
         -4   -1    0    0    0  501 -0.00000000000E+00  0.00000000000E+00  0.83153123432E+02  0.83153123432E+02  0.00000000000E+00 0.  1.
          4   -1    0    0  501    0  0.00000000000E+00 -0.00000000000E+00 -0.55565608929E+03  0.55565608929E+03  0.00000000000E+00 0. -1.
         23    2    1    2    0    0  0.56791108618E+02  0.13990626694E+03 -0.83643056376E+02  0.21312189999E+03  0.12500315926E+03 0.  0.
         23    2    1    2    0    0 -0.56791108618E+02 -0.13990626694E+03 -0.38885990948E+03  0.42568731273E+03  0.84844949597E+02 0.  0.
          5    1    3    3  502    0 -0.27436067043E+02  0.29266765755E+02  0.14439634638E+02  0.42893757133E+02  0.47000000000E+01 0.  1.
         -5    1    3    3    0  502  0.84227175661E+02  0.11063950119E+03 -0.98082691014E+02  0.17022814285E+03  0.47000000000E+01 0.  1.
        -11    1    4    4    0    0 -0.47369808461E+02 -0.50194109659E+02 -0.89430052799E+02  0.11296495803E+03  0.00000000000E+00 0.  1.
         11    1    4    4    0    0 -0.94213001574E+01 -0.89712157286E+02 -0.29942985668E+03  0.31272235471E+03  0.00000000000E+00 0. -1.
<mgrwt>
<rscale>  0 0.19004883E+03</rscale>
<asrwt>0</asrwt>
<pdfrwt beam="2">  1        4 0.85485554E-01 0.19602241E+03</pdfrwt>
<pdfrwt beam="1">  1       -4 0.12792788E-01 0.19602241E+03</pdfrwt>
<totfact> 0.10803152E+02</totfact>
</mgrwt>
</event>
<event>
 8    1  0.1033707E-005  0.2184839E+03  0.7546771E-02  0.1138337E+00
         -2   -1    0    0    0  501 -0.00000000000E+00  0.00000000000E+00  0.27016854216E+02  0.27016854216E+02  0.00000000000E+00 0. -1.
          2   -1    0    0  501    0  0.00000000000E+00 -0.00000000000E+00 -0.16797052482E+04  0.16797052482E+04  0.00000000000E+00 0.  1.
         23    2    1    2    0    0 -0.83039313332E+01  0.17899539758E+03 -0.71620612076E+03  0.74878998012E+03  0.12500767690E+03 0.  0.
         23    2    1    2    0    0  0.83039313332E+01 -0.17899539758E+03 -0.93648227326E+03  0.95793212233E+03  0.92339564816E+02 0.  0.
          5    1    3    3  502    0  0.40075590011E+02  0.10523032171E+03 -0.54051757015E+03  0.55214201721E+03  0.47000000000E+01 0. -1.
         -5    1    3    3    0  502 -0.48379521344E+02  0.73765075872E+02 -0.17568855061E+03  0.19664796291E+03  0.47000000000E+01 0. -1.
        -11    1    4    4    0    0  0.41087197688E+02 -0.45396586908E+02 -0.21989172395E+03  0.22825726314E+03  0.00000000000E+00 0.  1.
         11    1    4    4    0    0 -0.32783266354E+02 -0.13359881068E+03 -0.71659054931E+03  0.72967485918E+03  0.00000000000E+00 0. -1.
<mgrwt>
<rscale>  0 0.21412976E+03</rscale>
<asrwt>0</asrwt>
<pdfrwt beam="2">  1        2 0.25841623E+00 0.21848393E+03</pdfrwt>
<pdfrwt beam="1">  1       -2 0.41564385E-02 0.21848393E+03</pdfrwt>
<totfact> 0.28397731E+03</totfact>
</mgrwt>
</event>
<event>
 8    1  0.1033707E-005  0.1404884E+03  0.7546771E-02  0.1223541E+00
          1   -1    0    0  501    0  0.00000000000E+00  0.00000000000E+00  0.69609840833E+03  0.69609840833E+03  0.00000000000E+00 0. -1.
         -1   -1    0    0    0  501 -0.00000000000E+00 -0.00000000000E+00 -0.23024901971E+02  0.23024901971E+02  0.00000000000E+00 0.  1.
         23    2    1    2    0    0 -0.64102485619E+02  0.49246523716E+00  0.40579626966E+03  0.42942707236E+03  0.12501050684E+03 0.  0.
         23    2    1    2    0    0  0.64102485619E+02 -0.49246523716E+00  0.26727723670E+03  0.28969623794E+03  0.91528235179E+02 0.  0.
          5    1    3    3  502    0  0.12069278801E+02  0.44941939864E+02  0.20152091456E+03  0.20687729323E+03  0.47000000000E+01 0. -1.
         -5    1    3    3    0  502 -0.76171764419E+02 -0.44449474626E+02  0.20427535510E+03  0.22254977913E+03  0.47000000000E+01 0. -1.
        -11    1    4    4    0    0  0.49771893947E+02 -0.27928580956E+02  0.24500065070E+03  0.25156026297E+03  0.00000000000E+00 0. -1.
         11    1    4    4    0    0  0.14330591671E+02  0.27436115719E+02  0.22276586003E+02  0.38135974976E+02  0.00000000000E+00 0.  1.
<mgrwt>
<rscale>  0 0.13267429E+03</rscale>
<asrwt>0</asrwt>
<pdfrwt beam="1">  1        1 0.10709205E+00 0.14048843E+03</pdfrwt>
<pdfrwt beam="2">  1       -1 0.35422931E-02 0.14048843E+03</pdfrwt>
<totfact> 0.80705562E+03</totfact>
</mgrwt>
</event>
<event>
 8    1  0.1033707E-005  0.1263825E+03  0.7546771E-02  0.1248330E+00
          4   -1    0    0  501    0  0.00000000000E+00  0.00000000000E+00  0.11659291706E+03  0.11659291706E+03  0.00000000000E+00 0. -1.
         -4   -1    0    0    0  501 -0.00000000000E+00 -0.00000000000E+00 -0.11343308207E+03  0.11343308207E+03  0.00000000000E+00 0.  1.
         23    2    1    2    0    0  0.15837609457E+02  0.97910698465E+01 -0.33210039642E+02  0.13067305259E+03  0.12500338003E+03 0.  0.
         23    2    1    2    0    0 -0.15837609457E+02 -0.97910698465E+01  0.36369874638E+02  0.99352946544E+02  0.90562383381E+02 0.  0.
          5    1    3    3  502    0 -0.23588608010E+02 -0.46368376469E+02  0.41556956679E+01  0.52400463459E+02  0.47000000000E+01 0. -1.
         -5    1    3    3    0  502  0.39426217466E+02  0.56159446316E+02 -0.37365735310E+02  0.78272589132E+02  0.47000000000E+01 0. -1.
        -11    1    4    4    0    0  0.91423416519E+00 -0.31537901629E+02  0.56908143487E+02  0.65069285061E+02  0.00000000000E+00 0. -1.
         11    1    4    4    0    0 -0.16751843622E+02  0.21746831783E+02 -0.20538268849E+02  0.34283661482E+02  0.00000000000E+00 0.  1.
<mgrwt>
<rscale>  0 0.11688259E+03</rscale>
<asrwt>0</asrwt>
<pdfrwt beam="1">  1        4 0.17937372E-01 0.12638251E+03</pdfrwt>
<pdfrwt beam="2">  1       -4 0.17451243E-01 0.12638251E+03</pdfrwt>
<totfact> 0.12835748E+03</totfact>
</mgrwt>
</event>
<event>
 8    1  0.1033707E-005  0.1393017E+03  0.7546771E-02  0.1224600E+00
          1   -1    0    0  501    0  0.00000000000E+00  0.00000000000E+00  0.83613882893E+02  0.83613882893E+02  0.00000000000E+00 0. -1.
         -1   -1    0    0    0  501 -0.00000000000E+00 -0.00000000000E+00 -0.29256919289E+03  0.29256919289E+03  0.00000000000E+00 0.  1.
         23    2    1    2    0    0  0.30930905287E+02 -0.53145970747E+02 -0.22325976019E+03  0.26315374535E+03  0.12499503217E+03 0.  0.
         23    2    1    2    0    0 -0.30930905287E+02  0.53145970747E+02  0.14304450193E+02  0.11302933043E+03  0.93753917960E+02 0.  0.
          5    1    3    3  502    0  0.12466305915E+00  0.12330334000E+01  0.15531495139E+02  0.16274312689E+02  0.47000000000E+01 0.  1.
         -5    1    3    3    0  502  0.30806242228E+02 -0.54379004147E+02 -0.23879125533E+03  0.24687943267E+03  0.47000000000E+01 0.  1.
        -11    1    4    4    0    0 -0.11890402043E+02  0.47981886534E+02 -0.34570986182E+02  0.60322435144E+02  0.00000000000E+00 0.  1.
         11    1    4    4    0    0 -0.19040503244E+02  0.51640842135E+01  0.48875436375E+02  0.52706895283E+02  0.00000000000E+00 0. -1.
<mgrwt>
<rscale>  0 0.13194370E+03</rscale>
<asrwt>0</asrwt>
<pdfrwt beam="1">  1        1 0.12863675E-01 0.13930173E+03</pdfrwt>
<pdfrwt beam="2">  1       -1 0.45010644E-01 0.13930173E+03</pdfrwt>
<totfact> 0.22161996E+03</totfact>
</mgrwt>
</event>
<event>
 8    1  0.1033707E-005  0.1307972E+03  0.7546771E-02  0.1239899E+00
         -1   -1    0    0    0  501 -0.00000000000E+00  0.00000000000E+00  0.26754367597E+03  0.26754367597E+03  0.00000000000E+00 0.  1.
          1   -1    0    0  501    0  0.00000000000E+00 -0.00000000000E+00 -0.81477304346E+02  0.81477304346E+02  0.00000000000E+00 0. -1.
         23    2    1    2    0    0 -0.38416096009E+02 -0.25781404166E+01  0.20990065205E+03  0.24731799799E+03  0.12500186061E+03 0.  0.
         23    2    1    2    0    0  0.38416096009E+02  0.25781404166E+01 -0.23834280429E+02  0.10170298233E+03  0.91065802860E+02 0.  0.
          5    1    3    3  502    0  0.14407591935E+02 -0.37637003571E+02  0.16390048012E+03  0.16884780166E+03  0.47000000000E+01 0.  1.
         -5    1    3    3    0  502 -0.52823687944E+02  0.35058863154E+02  0.46000171938E+02  0.78470196330E+02  0.47000000000E+01 0.  1.
        -11    1    4    4    0    0  0.51431322420E+02 -0.26583655775E+02  0.57381562150E+01  0.58179017841E+02  0.00000000000E+00 0.  1.
         11    1    4    4    0    0 -0.13015226412E+02  0.29161796191E+02 -0.29572436644E+02  0.43523964487E+02  0.00000000000E+00 0. -1.
<mgrwt>
<rscale>  0 0.12195954E+03</rscale>
<asrwt>0</asrwt>
<pdfrwt beam="2">  1        1 0.12534970E-01 0.13079720E+03</pdfrwt>
<pdfrwt beam="1">  1       -1 0.41160565E-01 0.13079720E+03</pdfrwt>
<totfact> 0.26790682E+03</totfact>
</mgrwt>
</event>
<event>
 8    1  0.1033707E-005  0.1549250E+03  0.7546771E-02  0.1200844E+00
          1   -1    0    0  501    0  0.00000000000E+00  0.00000000000E+00  0.41269128057E+03  0.41269128057E+03  0.00000000000E+00 0. -1.
         -1   -1    0    0    0  501 -0.00000000000E+00 -0.00000000000E+00 -0.52373257554E+02  0.52373257554E+02  0.00000000000E+00 0.  1.
         23    2    1    2    0    0 -0.60698922463E+02 -0.68500453227E+02  0.15376557674E+03  0.21827872492E+03  0.12500031152E+03 0.  0.
         23    2    1    2    0    0  0.60698922463E+02  0.68500453227E+02  0.20655244627E+03  0.24678581321E+03  0.99310891939E+02 0.  0.
          5    1    3    3  502    0 -0.42240667865E+02 -0.63169112090E+02  0.14361844576E+02  0.77478792734E+02  0.47000000000E+01 0.  1.
         -5    1    3    3    0  502 -0.18458254599E+02 -0.53313411364E+01  0.13940373217E+03  0.14079993219E+03  0.47000000000E+01 0.  1.
        -11    1    4    4    0    0  0.45525046494E+01  0.75956905289E+02  0.14043501590E+03  0.15972529684E+03  0.00000000000E+00 0. -1.
         11    1    4    4    0    0  0.56146417814E+02 -0.74564520627E+01  0.66117430369E+02  0.87060516362E+02  0.00000000000E+00 0.  1.
<mgrwt>
<rscale>  0 0.14969841E+03</rscale>
<asrwt>0</asrwt>
<pdfrwt beam="1">  1        1 0.63490964E-01 0.15492498E+03</pdfrwt>
<pdfrwt beam="2">  1       -1 0.80574245E-02 0.15492498E+03</pdfrwt>
<totfact> 0.48030997E+03</totfact>
</mgrwt>
</event>
<event>
 8    1  0.1033707E-005  0.1313332E+03  0.7546771E-02  0.1238049E+00
         -2   -1    0    0    0  501 -0.00000000000E+00  0.00000000000E+00  0.43418542917E+02  0.43418542917E+02  0.00000000000E+00 0.  1.
          2   -1    0    0  501    0  0.00000000000E+00 -0.00000000000E+00 -0.34860374397E+03  0.34860374397E+03  0.00000000000E+00 0. -1.
         23    2    1    2    0    0 -0.40271663285E+02 -0.97785887030E+00 -0.10702089906E+03  0.16941633364E+03  0.12500263277E+03 0.  0.
         23    2    1    2    0    0  0.40271663285E+02  0.97785887030E+00 -0.19816430200E+03  0.22260595324E+03  0.93067484982E+02 0.  0.
          5    1    3    3  502    0  0.32877588855E+02 -0.28923158446E+02 -0.69931701733E+02  0.82643922044E+02  0.47000000000E+01 0.  1.
         -5    1    3    3    0  502 -0.73149252140E+02  0.27945299576E+02 -0.37089197322E+02  0.86772411601E+02  0.47000000000E+01 0.  1.
        -11    1    4    4    0    0  0.14963829160E+01  0.40264199973E+02 -0.12243437410E+03  0.12889383586E+03  0.00000000000E+00 0. -1.
         11    1    4    4    0    0  0.38775280369E+02 -0.39286341103E+02 -0.75729927899E+02  0.93712117384E+02  0.00000000000E+00 0.  1.
<mgrwt>
<rscale>  0 0.12311273E+03</rscale>
<asrwt>0</asrwt>
<pdfrwt beam="2">  1        2 0.53631344E-01 0.13133325E+03</pdfrwt>
<pdfrwt beam="1">  1       -2 0.66797759E-02 0.13133325E+03</pdfrwt>
<totfact> 0.10980215E+04</totfact>
</mgrwt>
</event>
<event>
 8    1  0.1033707E-005  0.1313495E+03  0.7546771E-02  0.1240275E+00
         -2   -1    0    0    0  501 -0.00000000000E+00  0.00000000000E+00  0.29582949761E+02  0.29582949761E+02  0.00000000000E+00 0. -1.
          2   -1    0    0  501    0  0.00000000000E+00 -0.00000000000E+00 -0.44119763995E+03  0.44119763995E+03  0.00000000000E+00 0.  1.
         23    2    1    2    0    0  0.35086993942E+02 -0.20010756887E+02 -0.22581690212E+03  0.26123930282E+03  0.12498468916E+03 0.  0.
         23    2    1    2    0    0 -0.35086993942E+02  0.20010756887E+02 -0.18579778808E+03  0.20954128689E+03  0.88063643588E+02 0.  0.
          5    1    3    3  502    0  0.53758725486E+02 -0.48736487129E+02 -0.67585457912E+02  0.99273006728E+02  0.47000000000E+01 0. -1.
         -5    1    3    3    0  502 -0.18671731544E+02  0.28725730243E+02 -0.15823144420E+03  0.16196629610E+03  0.47000000000E+01 0. -1.
        -11    1    4    4    0    0 -0.55062154034E+02 -0.51475928115E+01 -0.15679484492E+03  0.16626172714E+03  0.00000000000E+00 0.  1.
         11    1    4    4    0    0  0.19975160092E+02  0.25158349698E+02 -0.29002943158E+02  0.43279559749E+02  0.00000000000E+00 0. -1.
<mgrwt>
<rscale>  0 0.12172666E+03</rscale>
<asrwt>0</asrwt>
<pdfrwt beam="2">  1        2 0.67876549E-01 0.13134953E+03</pdfrwt>
<pdfrwt beam="1">  1       -2 0.45512238E-02 0.13134953E+03</pdfrwt>
<totfact> 0.15231865E+04</totfact>
</mgrwt>
</event>
<event>
 8    1  0.1033707E-005  0.1425033E+03  0.7546771E-02  0.1220514E+00
         -1   -1    0    0    0  501 -0.00000000000E+00  0.00000000000E+00  0.34228277161E+02  0.34228277161E+02  0.00000000000E+00 0.  1.
          1   -1    0    0  501    0  0.00000000000E+00 -0.00000000000E+00 -0.64102747355E+03  0.64102747355E+03  0.00000000000E+00 0. -1.
         23    2    1    2    0    0  0.21737734091E+02 -0.64880234936E+02 -0.16060938701E+03  0.21471509280E+03  0.12500088764E+03 0.  0.
         23    2    1    2    0    0 -0.21737734091E+02  0.64880234936E+02 -0.44618980937E+03  0.46054065791E+03  0.91270902416E+02 0.  0.
          5    1    3    3  502    0  0.20254612105E+02 -0.34059866990E+02  0.10110119845E+02  0.41165864186E+02  0.47000000000E+01 0. -1.
         -5    1    3    3    0  502  0.14831219864E+01 -0.30820367945E+02 -0.17071950686E+03  0.17354922861E+03  0.47000000000E+01 0. -1.
        -11    1    4    4    0    0 -0.52880528214E+02  0.24472544480E+02 -0.17081268939E+03  0.18047778410E+03  0.00000000000E+00 0.  1.
         11    1    4    4    0    0  0.31142794123E+02  0.40407690456E+02 -0.27537711999E+03  0.28006287381E+03  0.00000000000E+00 0. -1.
<mgrwt>
<rscale>  0 0.13479172E+03</rscale>
<asrwt>0</asrwt>
<pdfrwt beam="2">  1        1 0.98619605E-01 0.14250332E+03</pdfrwt>
<pdfrwt beam="1">  1       -1 0.52658891E-02 0.14250332E+03</pdfrwt>
<totfact> 0.50573392E+03</totfact>
</mgrwt>
</event>
<event>
 7    1  0.1033707E-005  0.2580271E+03  0.7546771E-02  0.1149535E+00
         -2   -1    0    0    0  501 -0.00000000000E+00  0.00000000000E+00  0.99308542254E+02  0.99308542254E+02  0.00000000000E+00 0.  1.
          2   -1    0    0  501    0  0.00000000000E+00 -0.00000000000E+00 -0.37360543007E+03  0.37360543007E+03  0.00000000000E+00 0. -1.
         23    2    1    2    0    0 -0.15142939600E+02 -0.12319789380E+02 -0.17108508510E+03  0.19500991024E+03  0.91529628638E+02 0.  0.
          5    1    1    2  502    0 -0.10332586567E+03 -0.34260926744E+02 -0.10384434612E+03  0.15051838373E+03  0.47000000000E+01 0. -1.
         -5    1    1    2    0  502  0.11846880527E+03  0.46580716124E+02  0.63254340752E+00  0.12738567835E+03  0.47000000000E+01 0.  1.
        -11    1    3    3    0    0 -0.15075861308E+02  0.37737852188E+02 -0.10113155610E+03  0.10899091119E+03  0.00000000000E+00 0.  1.
         11    1    3    3    0    0 -0.67078292072E-01 -0.50057641569E+02 -0.69953528999E+02  0.86018999054E+02  0.00000000000E+00 0. -1.
<mgrwt>
<rscale>  0 0.20024161E+03</rscale>
<asrwt>0</asrwt>
<pdfrwt beam="2">  1        2 0.57477759E-01 0.25802711E+03</pdfrwt>
<pdfrwt beam="1">  1       -2 0.15278237E-01 0.25802711E+03</pdfrwt>
<totfact> 0.28411772E+03</totfact>
</mgrwt>
</event>
<event>
 8    1  0.1033707E-005  0.1425117E+03  0.7546771E-02  0.1219120E+00
         -1   -1    0    0    0  501 -0.00000000000E+00  0.00000000000E+00  0.35218715403E+02  0.35218715403E+02  0.00000000000E+00 0.  1.
          1   -1    0    0  501    0  0.00000000000E+00 -0.00000000000E+00 -0.62257639190E+03  0.62257639190E+03  0.00000000000E+00 0. -1.
         23    2    1    2    0    0  0.49916897304E+02 -0.46833852882E+02 -0.15849731685E+03  0.21314544439E+03  0.12499789840E+03 0.  0.
         23    2    1    2    0    0 -0.49916897304E+02  0.46833852882E+02 -0.42886035964E+03  0.44464966291E+03  0.95430646225E+02 0.  0.
          5    1    3    3  502    0  0.58758283412E+02 -0.78735373469E+02 -0.76534833699E+02  0.12462530110E+03  0.47000000000E+01 0. -1.
         -5    1    3    3    0  502 -0.88413861085E+01  0.31901520587E+02 -0.81962483151E+02  0.88520143292E+02  0.47000000000E+01 0. -1.
        -11    1    4    4    0    0 -0.11552890095E+02  0.70988963906E+02 -0.27494898332E+03  0.28420036188E+03  0.00000000000E+00 0. -1.
         11    1    4    4    0    0 -0.38364007209E+02 -0.24155111024E+02 -0.15391137632E+03  0.16044930102E+03  0.00000000000E+00 0.  1.
<mgrwt>
<rscale>  0 0.13578185E+03</rscale>
<asrwt>0</asrwt>
<pdfrwt beam="2">  1        1 0.95780979E-01 0.14251169E+03</pdfrwt>
<pdfrwt beam="1">  1       -1 0.54182642E-02 0.14251169E+03</pdfrwt>
<totfact> 0.50476198E+03</totfact>
</mgrwt>
</event>
<event>
 8    1  0.1033707E-005  0.1260632E+03  0.7546771E-02  0.1246190E+00
         -3   -1    0    0    0  501 -0.00000000000E+00  0.00000000000E+00  0.23396671764E+03  0.23396671764E+03  0.00000000000E+00 0.  1.
          3   -1    0    0  501    0  0.00000000000E+00 -0.00000000000E+00 -0.63386604104E+02  0.63386604104E+02  0.00000000000E+00 0. -1.
         23    2    1    2    0    0  0.15750585992E+02 -0.42925304364E+01  0.15347320994E+03  0.19861006401E+03  0.12500169831E+03 0.  0.
         23    2    1    2    0    0 -0.15750585992E+02  0.42925304364E+01  0.17106903594E+02  0.98743257735E+02  0.95870110153E+02 0.  0.
          5    1    3    3  502    0 -0.73092411379E+01 -0.56863735671E+02  0.36229703318E+02  0.67982283302E+02  0.47000000000E+01 0. -1.
         -5    1    3    3    0  502  0.23059827130E+02  0.52571205234E+02  0.11724350662E+03  0.13062778071E+03  0.47000000000E+01 0. -1.
        -11    1    4    4    0    0 -0.35519565079E+02  0.41718042981E+02  0.12211972380E+02  0.56135255259E+02  0.00000000000E+00 0.  1.
         11    1    4    4    0    0  0.19768979087E+02 -0.37425512545E+02  0.48949312145E+01  0.42608002476E+02  0.00000000000E+00 0. -1.
<mgrwt>
<rscale>  0 0.11814458E+03</rscale>
<asrwt>0</asrwt>
<pdfrwt beam="2">  1        3 0.97517854E-02 0.12606320E+03</pdfrwt>
<pdfrwt beam="1">  1       -3 0.35994879E-01 0.12606320E+03</pdfrwt>
<totfact> 0.13302653E+03</totfact>
</mgrwt>
</event>
<event>
 8    1  0.1033707E-005  0.1242919E+03  0.7546771E-02  0.1249030E+00
          3   -1    0    0  501    0  0.00000000000E+00  0.00000000000E+00  0.13962572252E+03  0.13962572252E+03  0.00000000000E+00 0. -1.
         -3   -1    0    0    0  501 -0.00000000000E+00 -0.00000000000E+00 -0.87555096977E+02  0.87555096977E+02  0.00000000000E+00 0.  1.
         23    2    1    2    0    0  0.22700482416E+02 -0.22652319623E+02  0.18704567028E+02  0.12569147811E+03  0.12008350160E+03 0.  0.
         23    2    1    2    0    0 -0.22700482416E+02  0.22652319623E+02  0.33366058515E+02  0.10148934139E+03  0.90323601942E+02 0.  0.
          5    1    3    3  502    0 -0.13228661649E+02 -0.64262203705E+02  0.24543420868E+02  0.70207533940E+02  0.47000000000E+01 0. -1.
         -5    1    3    3    0  502  0.35929144065E+02  0.41609884082E+02 -0.58388538395E+01  0.55483944171E+02  0.47000000000E+01 0.  1.
        -11    1    4    4    0    0 -0.13819532362E+02  0.57765982790E+02  0.24134016662E+02  0.64111925589E+02  0.00000000000E+00 0.  1.
         11    1    4    4    0    0 -0.88809500541E+01 -0.35113663167E+02  0.92320418535E+01  0.37377415797E+02  0.00000000000E+00 0. -1.
<mgrwt>
<rscale>  0 0.11647366E+03</rscale>
<asrwt>0</asrwt>
<pdfrwt beam="1">  1        3 0.21480880E-01 0.12429194E+03</pdfrwt>
<pdfrwt beam="2">  1       -3 0.13470015E-01 0.12429194E+03</pdfrwt>
<totfact> 0.19907781E+03</totfact>
</mgrwt>
</event>
<event>
 8    1  0.1033707E-005  0.1297523E+03  0.7546771E-02  0.1238257E+00
          2   -1    0    0  501    0  0.00000000000E+00  0.00000000000E+00  0.54774372268E+02  0.54774372268E+02  0.00000000000E+00 0. -1.
         -2   -1    0    0    0  501 -0.00000000000E+00 -0.00000000000E+00 -0.28606810370E+03  0.28606810370E+03  0.00000000000E+00 0.  1.
         23    2    1    2    0    0  0.32400748427E+02 -0.12670437851E+02 -0.18591114132E+03  0.22671260052E+03  0.12500120908E+03 0.  0.
         23    2    1    2    0    0 -0.32400748427E+02  0.12670437851E+02 -0.45382590107E+02  0.11412987544E+03  0.98770949627E+02 0.  0.
          5    1    3    3  502    0  0.51060209791E+02  0.22695804783E+00 -0.13870551471E+02  0.53119476014E+02  0.47000000000E+01 0.  1.
         -5    1    3    3    0  502 -0.18659461364E+02 -0.12897395899E+02 -0.17204058985E+03  0.17359312451E+03  0.47000000000E+01 0.  1.
        -11    1    4    4    0    0 -0.23607705190E+02 -0.24031042606E+02  0.19606558871E+02  0.38977325509E+02  0.00000000000E+00 0. -1.
         11    1    4    4    0    0 -0.87930432375E+01  0.36701480457E+02 -0.64989148977E+02  0.75152549936E+02  0.00000000000E+00 0.  1.
<mgrwt>
<rscale>  0 0.12298227E+03</rscale>
<asrwt>0</asrwt>
<pdfrwt beam="1">  1        2 0.84268266E-02 0.12975227E+03</pdfrwt>
<pdfrwt beam="2">  1       -2 0.44010477E-01 0.12975227E+03</pdfrwt>
<totfact> 0.37491820E+03</totfact>
</mgrwt>
</event>
<event>
 8    1  0.1033707E-005  0.1379024E+03  0.7546771E-02  0.1228786E+00
          2   -1    0    0  501    0  0.00000000000E+00  0.00000000000E+00  0.19426425925E+03  0.19426425925E+03  0.00000000000E+00 0. -1.
         -2   -1    0    0    0  501 -0.00000000000E+00 -0.00000000000E+00 -0.78258066937E+02  0.78258066937E+02  0.00000000000E+00 0.  1.
         23    2    1    2    0    0 -0.58048361530E+02 -0.47150044208E+01  0.85554488805E+02  0.16228568112E+03  0.12500091279E+03 0.  0.
         23    2    1    2    0    0  0.58048361530E+02  0.47150044208E+01  0.30451703510E+02  0.11023664507E+03  0.88504057118E+02 0.  0.
          5    1    3    3  502    0 -0.11702348619E+02 -0.62169026155E+02  0.32632468801E+02  0.71336531990E+02  0.47000000000E+01 0.  1.
         -5    1    3    3    0  502 -0.46346012910E+02  0.57454021734E+02  0.52922020005E+02  0.90949149130E+02  0.47000000000E+01 0.  1.
        -11    1    4    4    0    0  0.22863941888E+02  0.24535607418E+02 -0.24863679447E+02  0.41748753582E+02  0.00000000000E+00 0.  1.
         11    1    4    4    0    0  0.35184419642E+02 -0.19820602997E+02  0.55315382956E+02  0.68487891487E+02  0.00000000000E+00 0. -1.
<mgrwt>
<rscale>  0 0.12910743E+03</rscale>
<asrwt>0</asrwt>
<pdfrwt beam="1">  1        2 0.29886809E-01 0.13790240E+03</pdfrwt>
<pdfrwt beam="2">  1       -2 0.12039703E-01 0.13790240E+03</pdfrwt>
<totfact> 0.82060342E+03</totfact>
</mgrwt>
</event>
<event>
 8    1  0.1033707E-005  0.2255196E+03  0.7546771E-02  0.1133429E+00
         -2   -1    0    0    0  501 -0.00000000000E+00  0.00000000000E+00  0.35035884624E+02  0.35035884624E+02  0.00000000000E+00 0.  1.
          2   -1    0    0  501    0  0.00000000000E+00 -0.00000000000E+00 -0.13382071453E+04  0.13382071453E+04  0.00000000000E+00 0. -1.
         23    2    1    2    0    0 -0.16838982688E+03 -0.82926595331E+02 -0.72728234676E+03  0.76144514982E+03  0.12500860074E+03 0.  0.
         23    2    1    2    0    0  0.16838982688E+03  0.82926595331E+02 -0.57588891389E+03  0.61179788009E+03  0.86119979802E+02 0.  0.
          5    1    3    3  502    0 -0.38626567667E+02 -0.48732011912E+02 -0.43921782800E+03  0.44362282533E+03  0.47000000000E+01 0.  1.
         -5    1    3    3    0  502 -0.12976325921E+03 -0.34194583419E+02 -0.28806451876E+03  0.31782232449E+03  0.47000000000E+01 0.  1.
        -11    1    4    4    0    0  0.37466873377E+02  0.14762439931E+02 -0.43294061420E+02  0.59127590747E+02  0.00000000000E+00 0.  1.
         11    1    4    4    0    0  0.13092295350E+03  0.68164155400E+02 -0.53259485247E+03  0.55267028934E+03  0.00000000000E+00 0. -1.
<mgrwt>
<rscale>  0 0.22061060E+03</rscale>
<asrwt>0</asrwt>
<pdfrwt beam="2">  1        2 0.20587801E+00 0.22551963E+03</pdfrwt>
<pdfrwt beam="1">  1       -2 0.53901364E-02 0.22551963E+03</pdfrwt>
<totfact> 0.29117825E+03</totfact>
</mgrwt>
</event>
<event>
 8    1  0.1033707E-005  0.1301602E+03  0.7546771E-02  0.1249204E+00
          1   -1    0    0  501    0  0.00000000000E+00  0.00000000000E+00  0.25735016078E+02  0.25735016078E+02  0.00000000000E+00 0. -1.
         -1   -1    0    0    0  501 -0.00000000000E+00 -0.00000000000E+00 -0.45268867511E+03  0.45268867511E+03  0.00000000000E+00 0.  1.
         23    2    1    2    0    0  0.33476962620E+02  0.14108885772E+02 -0.29511020639E+03  0.32253948043E+03  0.12498765873E+03 0.  0.
         23    2    1    2    0    0 -0.33476962620E+02 -0.14108885772E+02 -0.13184345264E+03  0.15588421076E+03  0.74815930632E+02 0.  0.
          5    1    3    3  502    0 -0.43648513302E+02  0.26847223689E+02 -0.10500772610E+03  0.11693878174E+03  0.47000000000E+01 0. -1.
         -5    1    3    3    0  502  0.77125475922E+02 -0.12738337917E+02 -0.19010248029E+03  0.20560069869E+03  0.47000000000E+01 0. -1.
        -11    1    4    4    0    0 -0.31136522719E+02 -0.14432410994E+01 -0.13809366093E+03  0.14156774061E+03  0.00000000000E+00 0.  1.
         11    1    4    4    0    0 -0.23404399014E+01 -0.12665644673E+02  0.62502082910E+01  0.14316470151E+02  0.00000000000E+00 0. -1.
<mgrwt>
<rscale>  0 0.11637238E+03</rscale>
<asrwt>0</asrwt>
<pdfrwt beam="1">  1        1 0.39592331E-02 0.13016022E+03</pdfrwt>
<pdfrwt beam="2">  1       -1 0.69644415E-01 0.13016022E+03</pdfrwt>
<totfact> 0.47594452E+03</totfact>
</mgrwt>
</event>
<event>
 8    1  0.1033707E-005  0.1365068E+03  0.7546771E-02  0.1233057E+00
          2   -1    0    0  501    0  0.00000000000E+00  0.00000000000E+00  0.11206227123E+03  0.11206227123E+03  0.00000000000E+00 0. -1.
         -2   -1    0    0    0  501 -0.00000000000E+00 -0.00000000000E+00 -0.12551314731E+03  0.12551314731E+03  0.00000000000E+00 0.  1.
         23    2    1    2    0    0 -0.26203618272E+02 -0.48180113476E+02  0.10158112657E+01  0.13651059030E+03  0.12500462570E+03 0.  0.
         23    2    1    2    0    0  0.26203618272E+02  0.48180113476E+02 -0.14466687349E+02  0.10106482825E+03  0.83647244550E+02 0.  0.
          5    1    3    3  502    0 -0.45944950991E+02  0.49463543636E+01  0.44956954511E+02  0.64642267147E+02  0.47000000000E+01 0. -1.
         -5    1    3    3    0  502  0.19741332719E+02 -0.53126467840E+02 -0.43941143245E+02  0.71868323150E+02  0.47000000000E+01 0. -1.
        -11    1    4    4    0    0  0.36458502254E+02  0.59943906852E+02 -0.32409810905E+02  0.77284475790E+02  0.00000000000E+00 0.  1.
         11    1    4    4    0    0 -0.10254883981E+02 -0.11763793376E+02  0.17943123556E+02  0.23780352458E+02  0.00000000000E+00 0. -1.
<mgrwt>
<rscale>  0 0.12629666E+03</rscale>
<asrwt>0</asrwt>
<pdfrwt beam="1">  1        2 0.17240349E-01 0.13650681E+03</pdfrwt>
<pdfrwt beam="2">  1       -2 0.19309715E-01 0.13650681E+03</pdfrwt>
<totfact> 0.69865443E+03</totfact>
</mgrwt>
</event>
<event>
 8    1  0.1033707E-005  0.1785499E+03  0.7546771E-02  0.1173455E+00
         -2   -1    0    0    0  501 -0.00000000000E+00  0.00000000000E+00  0.44509188951E+02  0.44509188951E+02  0.00000000000E+00 0.  1.
          2   -1    0    0  501    0  0.00000000000E+00 -0.00000000000E+00 -0.71088620219E+03  0.71088620219E+03  0.00000000000E+00 0. -1.
         23    2    1    2    0    0 -0.10389081868E+03 -0.73923764930E+02 -0.23909928510E+03  0.29841004068E+03  0.12498823551E+03 0.  0.
         23    2    1    2    0    0  0.10389081868E+03  0.73923764930E+02 -0.42727772814E+03  0.45698535046E+03  0.10005662570E+03 0.  0.
          5    1    3    3  502    0  0.10420087015E+02 -0.26857962537E+02  0.14732515892E-01  0.29189357343E+02  0.47000000000E+01 0. -1.
         -5    1    3    3    0  502 -0.11431090569E+03 -0.47065802393E+02 -0.23911401762E+03  0.26922068334E+03  0.47000000000E+01 0. -1.
        -11    1    4    4    0    0  0.72494958927E+02 -0.61096747697E+00 -0.27695655443E+03  0.28628801126E+03  0.00000000000E+00 0.  1.
         11    1    4    4    0    0  0.31395859751E+02  0.74534732407E+02 -0.15032117371E+03  0.17069733920E+03  0.00000000000E+00 0. -1.
<mgrwt>
<rscale>  0 0.17428137E+03</rscale>
<asrwt>0</asrwt>
<pdfrwt beam="2">  1        2 0.10936711E+00 0.17854995E+03</pdfrwt>
<pdfrwt beam="1">  1       -2 0.68475672E-02 0.17854995E+03</pdfrwt>
<totfact> 0.48712770E+03</totfact>
</mgrwt>
</event>
<event>
 8    1  0.1033707E-005  0.1338411E+03  0.7546771E-02  0.1235321E+00
          3   -1    0    0  501    0  0.00000000000E+00  0.00000000000E+00  0.25118666479E+03  0.25118666479E+03  0.00000000000E+00 0. -1.
         -3   -1    0    0    0  501 -0.00000000000E+00 -0.00000000000E+00 -0.55185375892E+02  0.55185375892E+02  0.00000000000E+00 0.  1.
         23    2    1    2    0    0 -0.46020567811E+02  0.13053622536E+02  0.10355587032E+03  0.16922543454E+03  0.12500055877E+03 0.  0.
         23    2    1    2    0    0  0.46020567811E+02 -0.13053622536E+02  0.92445418574E+02  0.13714660614E+03  0.89301435811E+02 0.  0.
          5    1    3    3  502    0 -0.12506642921E+01  0.49145830475E+02  0.99865265822E+02  0.11140932695E+03  0.47000000000E+01 0.  1.
         -5    1    3    3    0  502 -0.44769903519E+02 -0.36092207939E+02  0.36906045003E+01  0.57816107587E+02  0.47000000000E+01 0.  1.
        -11    1    4    4    0    0  0.22266998969E+02  0.38041681416E+02  0.31719229789E+02  0.54305601060E+02  0.00000000000E+00 0. -1.
         11    1    4    4    0    0  0.23753568842E+02 -0.51095303952E+02  0.60726188785E+02  0.82841005082E+02  0.00000000000E+00 0.  1.
<mgrwt>
<rscale>  0 0.12483935E+03</rscale>
<asrwt>0</asrwt>
<pdfrwt beam="1">  1        3 0.38644102E-01 0.13384106E+03</pdfrwt>
<pdfrwt beam="2">  1       -3 0.84900580E-02 0.13384106E+03</pdfrwt>
<totfact> 0.14737197E+03</totfact>
</mgrwt>
</event>
<event>
 8    1  0.1882844E-005  0.3599957E+03  0.7546771E-02  0.1059595E+00
          2   -1    0    0  501    0  0.00000000000E+00  0.00000000000E+00  0.36044135716E+03  0.36044135716E+03  0.00000000000E+00 0. -1.
         -2   -1    0    0    0  501 -0.00000000000E+00 -0.00000000000E+00 -0.35572020526E+03  0.35572020526E+03  0.00000000000E+00 0.  1.
         23    2    1    2    0    0  0.16008790037E+03 -0.29722701709E+03  0.49397026009E+02  0.36336895579E+03  0.12499958528E+03 0.  0.
         23    2    1    2    0    0 -0.16008790037E+03  0.29722701709E+03 -0.44675874102E+02  0.35279260663E+03  0.92166447458E+02 0.  0.
          5    1    3    3  502    0  0.17375678433E+03 -0.29833731015E+03  0.44883064186E+02  0.34818551116E+03  0.47000000000E+01 0.  1.
         -5    1    3    3    0  502 -0.13668883960E+02  0.11102930671E+01  0.45139618237E+01  0.15183444628E+02  0.47000000000E+01 0.  1.
        -11    1    4    4    0    0 -0.24254596537E+02  0.10507581241E+03 -0.46584819994E+02  0.11747066553E+03  0.00000000000E+00 0.  1.
         11    1    4    4    0    0 -0.13583330383E+03  0.19215120468E+03  0.19089458914E+01  0.23532194110E+03  0.00000000000E+00 0. -1.
<mgrwt>
<rscale>  0 0.35745820E+03</rscale>
<asrwt>0</asrwt>
<pdfrwt beam="1">  1        2 0.55452517E-01 0.35999574E+03</pdfrwt>
<pdfrwt beam="2">  1       -2 0.54726185E-01 0.35999574E+03</pdfrwt>
<totfact> 0.28699947E+02</totfact>
</mgrwt>
</event>
<event>
 8    1  0.1033707E-005  0.1269198E+03  0.7546771E-02  0.1246130E+00
         -2   -1    0    0    0  501 -0.00000000000E+00  0.00000000000E+00  0.16605150846E+02  0.16605150846E+02  0.00000000000E+00 0.  1.
          2   -1    0    0  501    0  0.00000000000E+00 -0.00000000000E+00 -0.77094897334E+03  0.77094897334E+03  0.00000000000E+00 0. -1.
         23    2    1    2    0    0  0.52915989944E+01  0.21315920334E+02 -0.35613062097E+03  0.37807097169E+03  0.12500508375E+03 0.  0.
         23    2    1    2    0    0 -0.52915989944E+01 -0.21315920334E+02 -0.39821320153E+03  0.40948315250E+03  0.92845725972E+02 0.  0.
          5    1    3    3  502    0  0.54602433010E+02  0.41757405657E+02 -0.24796438936E+03  0.25735876711E+03  0.47000000000E+01 0.  1.
         -5    1    3    3    0  502 -0.49310834016E+02 -0.20441485323E+02 -0.10816623160E+03  0.12071220457E+03  0.47000000000E+01 0.  1.
        -11    1    4    4    0    0  0.37302292503E+02  0.12814807073E+02 -0.13365914055E+03  0.13935726088E+03  0.00000000000E+00 0.  1.
         11    1    4    4    0    0 -0.42593891497E+02 -0.34130727407E+02 -0.26455406098E+03  0.27012589162E+03  0.00000000000E+00 0. -1.
<mgrwt>
<rscale>  0 0.11817983E+03</rscale>
<asrwt>0</asrwt>
<pdfrwt beam="2">  1        2 0.11860755E+00 0.12691982E+03</pdfrwt>
<pdfrwt beam="1">  1       -2 0.25546382E-02 0.12691982E+03</pdfrwt>
<totfact> 0.18889899E+04</totfact>
</mgrwt>
</event>
<event>
 8    1  0.1033707E-005  0.1440943E+03  0.7546771E-02  0.1218153E+00
         -2   -1    0    0    0  501 -0.00000000000E+00  0.00000000000E+00  0.15383859672E+02  0.15383859672E+02  0.00000000000E+00 0.  1.
          2   -1    0    0  501    0  0.00000000000E+00 -0.00000000000E+00 -0.10990832700E+04  0.10990832700E+04  0.00000000000E+00 0. -1.
         23    2    1    2    0    0  0.56373391730E+02 -0.44240385826E+02 -0.59391226341E+03  0.61114231663E+03  0.12501193352E+03 0.  0.
         23    2    1    2    0    0 -0.56373391730E+02  0.44240385826E+02 -0.48978714694E+03  0.50332481306E+03  0.91155071709E+02 0.  0.
          5    1    3    3  502    0  0.34777327875E+02 -0.87636437106E+02 -0.42444442324E+03  0.43481578405E+03  0.47000000000E+01 0.  1.
         -5    1    3    3    0  502  0.21596063855E+02  0.43396051280E+02 -0.16946784017E+03  0.17632653258E+03  0.47000000000E+01 0.  1.
        -11    1    4    4    0    0  0.18132787720E+01  0.51343312809E+02 -0.15091517791E+03  0.15942024550E+03  0.00000000000E+00 0.  1.
         11    1    4    4    0    0 -0.58186670502E+02 -0.71029269833E+01 -0.33887196903E+03  0.34390456756E+03  0.00000000000E+00 0. -1.
<mgrwt>
<rscale>  0 0.13647489E+03</rscale>
<asrwt>0</asrwt>
<pdfrwt beam="2">  1        2 0.16908975E+00 0.14409426E+03</pdfrwt>
<pdfrwt beam="1">  1       -2 0.23667474E-02 0.14409426E+03</pdfrwt>
<totfact> 0.13312965E+04</totfact>
</mgrwt>
</event>
<event>
 8    1  0.1033707E-005  0.1261735E+03  0.7546771E-02  0.1245957E+00
          1   -1    0    0  501    0  0.00000000000E+00  0.00000000000E+00  0.38758927761E+03  0.38758927761E+03  0.00000000000E+00 0. -1.
         -1   -1    0    0    0  501 -0.00000000000E+00 -0.00000000000E+00 -0.44905549950E+02  0.44905549950E+02  0.00000000000E+00 0.  1.
         23    2    1    2    0    0 -0.44220619637E+01 -0.16560247827E+02  0.73057223258E+02  0.14579813996E+03  0.12500377316E+03 0.  0.
         23    2    1    2    0    0  0.44220619637E+01  0.16560247827E+02  0.26962650440E+03  0.28669668760E+03  0.95930924965E+02 0.  0.
          5    1    3    3  502    0  0.35172990047E+02  0.41598280755E+02  0.22976263189E+02  0.59308977910E+02  0.47000000000E+01 0.  1.
         -5    1    3    3    0  502 -0.39595052010E+02 -0.58158528582E+02  0.50080960068E+02  0.86489162049E+02  0.47000000000E+01 0.  1.
        -11    1    4    4    0    0 -0.38906912547E+02 -0.17157542918E+02  0.12094563752E+03  0.12820287188E+03  0.00000000000E+00 0.  1.
         11    1    4    4    0    0  0.43328974511E+02  0.33717790745E+02  0.14868086689E+03  0.15849381573E+03  0.00000000000E+00 0. -1.
<mgrwt>
<rscale>  0 0.11828282E+03</rscale>
<asrwt>0</asrwt>
<pdfrwt beam="1">  1        1 0.59629118E-01 0.12617345E+03</pdfrwt>
<pdfrwt beam="2">  1       -1 0.69085464E-02 0.12617345E+03</pdfrwt>
<totfact> 0.64769484E+03</totfact>
</mgrwt>
</event>
<event>
 8    1  0.1033707E-005  0.1904702E+03  0.7546771E-02  0.1163021E+00
          3   -1    0    0  501    0  0.00000000000E+00  0.00000000000E+00  0.60573934798E+03  0.60573934798E+03  0.00000000000E+00 0. -1.
         -3   -1    0    0    0  501 -0.00000000000E+00 -0.00000000000E+00 -0.57004816020E+02  0.57004816020E+02  0.00000000000E+00 0.  1.
         23    2    1    2    0    0 -0.11350419332E+03 -0.88156447940E+02  0.20744035100E+03  0.28162102368E+03  0.12499656211E+03 0.  0.
         23    2    1    2    0    0  0.11350419332E+03  0.88156447940E+02  0.34129418096E+03  0.38112314032E+03  0.90101991772E+02 0.  0.
          5    1    3    3  502    0  0.98796161447E+01  0.22275492613E+02  0.27143004307E+02  0.36778214599E+02  0.47000000000E+01 0. -1.
         -5    1    3    3    0  502 -0.12338380946E+03 -0.11043194055E+03  0.18029734670E+03  0.24484280908E+03  0.47000000000E+01 0. -1.
        -11    1    4    4    0    0 -0.14037849461E+02  0.14442856519E+02  0.24225562802E+02  0.31504526897E+02  0.00000000000E+00 0.  1.
         11    1    4    4    0    0  0.12754204278E+03  0.73713591421E+02  0.31706861815E+03  0.34961861343E+03  0.00000000000E+00 0. -1.
<mgrwt>
<rscale>  0 0.18503066E+03</rscale>
<asrwt>0</asrwt>
<pdfrwt beam="1">  1        3 0.93190665E-01 0.19047021E+03</pdfrwt>
<pdfrwt beam="2">  1       -3 0.87699721E-02 0.19047021E+03</pdfrwt>
<totfact> 0.23713834E+02</totfact>
</mgrwt>
</event>
<event>
 8    1  0.1033707E-005  0.1434990E+03  0.7546771E-02  0.1219386E+00
         -2   -1    0    0    0  501 -0.00000000000E+00  0.00000000000E+00  0.49372216827E+02  0.49372216827E+02  0.00000000000E+00 0.  1.
          2   -1    0    0  501    0  0.00000000000E+00 -0.00000000000E+00 -0.48061351473E+03  0.48061351473E+03  0.00000000000E+00 0. -1.
         23    2    1    2    0    0  0.54706164063E+02  0.44405676001E+02 -0.88347868888E+02  0.16851497095E+03  0.12500928386E+03 0.  0.
         23    2    1    2    0    0 -0.54706164063E+02 -0.44405676001E+02 -0.34289342902E+03  0.36147076061E+03  0.90114253380E+02 0.  0.
          5    1    3    3  502    0 -0.34357017068E+02 -0.43413773507E+01 -0.47507311069E+02  0.58977002163E+02  0.47000000000E+01 0.  1.
         -5    1    3    3    0  502  0.89063181131E+02  0.48747053352E+02 -0.40840557819E+02  0.10953796879E+03  0.47000000000E+01 0.  1.
        -11    1    4    4    0    0  0.12232468334E+02  0.13383842298E+02 -0.21460168433E+02  0.28094471794E+02  0.00000000000E+00 0.  1.
         11    1    4    4    0    0 -0.66938632397E+02 -0.57789518298E+02 -0.32143326059E+03  0.33337628881E+03  0.00000000000E+00 0. -1.
<mgrwt>
<rscale>  0 0.13559202E+03</rscale>
<asrwt>0</asrwt>
<pdfrwt beam="2">  1        2 0.73940540E-01 0.14349895E+03</pdfrwt>
<pdfrwt beam="1">  1       -2 0.75957257E-02 0.14349895E+03</pdfrwt>
<totfact> 0.64255339E+03</totfact>
</mgrwt>
</event>
<event>
 8    1  0.1033707E-005  0.1261044E+03  0.7546771E-02  0.1249682E+00
         -1   -1    0    0    0  501 -0.00000000000E+00  0.00000000000E+00  0.70187177631E+02  0.70187177631E+02  0.00000000000E+00 0.  1.
          1   -1    0    0  501    0  0.00000000000E+00 -0.00000000000E+00 -0.17573118338E+03  0.17573118338E+03  0.00000000000E+00 0. -1.
         23    2    1    2    0    0 -0.96610501976E+01  0.13591868994E+02 -0.34334886237E+02  0.13069509372E+03  0.12499699323E+03 0.  0.
         23    2    1    2    0    0  0.96610501976E+01 -0.13591868994E+02 -0.71209119510E+02  0.11522326728E+03  0.89037002581E+02 0.  0.
          5    1    3    3  502    0  0.35210895608E+01 -0.10694991594E+00 -0.80413427275E+02  0.80627655280E+02  0.47000000000E+01 0. -1.
         -5    1    3    3    0  502 -0.13182139758E+02  0.13698818910E+02  0.46078541038E+02  0.50067438444E+02  0.47000000000E+01 0. -1.
        -11    1    4    4    0    0  0.40534536426E+02  0.16706099522E+02 -0.51654549233E+02  0.67752010014E+02  0.00000000000E+00 0. -1.
         11    1    4    4    0    0 -0.30873486228E+02 -0.30297968517E+02 -0.19554570277E+02  0.47471257270E+02  0.00000000000E+00 0.  1.
<mgrwt>
<rscale>  0 0.11609457E+03</rscale>
<asrwt>0</asrwt>
<pdfrwt beam="2">  1        1 0.27035567E-01 0.12610441E+03</pdfrwt>
<pdfrwt beam="1">  1       -1 0.10798027E-01 0.12610441E+03</pdfrwt>
<totfact> 0.87835179E+03</totfact>
</mgrwt>
</event>
<event>
 8    1  0.1033707E-005  0.1404555E+03  0.7546771E-02  0.1222456E+00
          2   -1    0    0  501    0  0.00000000000E+00  0.00000000000E+00  0.24102907924E+03  0.24102907924E+03  0.00000000000E+00 0. -1.
         -2   -1    0    0    0  501 -0.00000000000E+00 -0.00000000000E+00 -0.13344165979E+03  0.13344165979E+03  0.00000000000E+00 0.  1.
         23    2    1    2    0    0 -0.41796632162E+02  0.48526537062E+02 -0.74838243676E+02  0.15914935325E+03  0.12500388259E+03 0.  0.
         23    2    1    2    0    0  0.41796632162E+02 -0.48526537062E+02  0.18242566312E+03  0.21532138578E+03  0.94775489194E+02 0.  0.
          5    1    3    3  502    0  0.41065781856E+02  0.22648452540E+01 -0.41061094384E+02  0.58306358448E+02  0.47000000000E+01 0.  1.
         -5    1    3    3    0  502 -0.82862414018E+02  0.46261691808E+02 -0.33777149292E+02  0.10084299480E+03  0.47000000000E+01 0.  1.
        -11    1    4    4    0    0  0.11161055063E+02  0.31985426347E+01 -0.89921973511E+01  0.14685347742E+02  0.00000000000E+00 0.  1.
         11    1    4    4    0    0  0.30635577099E+02 -0.51725079697E+02  0.19141786047E+03  0.20063603804E+03  0.00000000000E+00 0. -1.
<mgrwt>
<rscale>  0 0.13342813E+03</rscale>
<asrwt>0</asrwt>
<pdfrwt beam="1">  1        2 0.37081397E-01 0.14045552E+03</pdfrwt>
<pdfrwt beam="2">  1       -2 0.20529486E-01 0.14045552E+03</pdfrwt>
<totfact> 0.27073429E+03</totfact>
</mgrwt>
</event>
<event>
 8    1  0.1033707E-005  0.1577948E+03  0.7546771E-02  0.1198898E+00
          1   -1    0    0  501    0  0.00000000000E+00  0.00000000000E+00  0.38853889789E+03  0.38853889789E+03  0.00000000000E+00 0. -1.
         -1   -1    0    0    0  501 -0.00000000000E+00 -0.00000000000E+00 -0.73679669605E+02  0.73679669605E+02  0.00000000000E+00 0.  1.
         23    2    1    2    0    0  0.94571748439E+02  0.18187249720E+02  0.49723904352E+02  0.16544385253E+03  0.12499844008E+03 0.  0.
         23    2    1    2    0    0 -0.94571748439E+02 -0.18187249720E+02  0.26513532393E+03  0.29677471496E+03  0.92216591724E+02 0.  0.
          5    1    3    3  502    0 -0.23352066029E+01 -0.11604474475E+02  0.61925094789E+02  0.63221233635E+02  0.47000000000E+01 0. -1.
         -5    1    3    3    0  502  0.96906955042E+02  0.29791724195E+02 -0.12201190437E+02  0.10222261890E+03  0.47000000000E+01 0. -1.
        -11    1    4    4    0    0 -0.54750025213E+02 -0.52248481764E+02  0.19541160984E+03  0.20955468586E+03  0.00000000000E+00 0. -1.
         11    1    4    4    0    0 -0.39821723226E+02  0.34061232045E+02  0.69723714095E+02  0.87220029101E+02  0.00000000000E+00 0.  1.
<mgrwt>
<rscale>  0 0.15128867E+03</rscale>
<asrwt>0</asrwt>
<pdfrwt beam="1">  1        1 0.59775214E-01 0.15779481E+03</pdfrwt>
<pdfrwt beam="2">  1       -1 0.11335334E-01 0.15779481E+03</pdfrwt>
<totfact> 0.30799681E+03</totfact>
</mgrwt>
</event>
<event>
 8    1  0.1033707E-005  0.1683993E+03  0.7546771E-02  0.1186118E+00
          2   -1    0    0  501    0  0.00000000000E+00  0.00000000000E+00  0.11580885869E+03  0.11580885869E+03  0.00000000000E+00 0. -1.
         -2   -1    0    0    0  501 -0.00000000000E+00 -0.00000000000E+00 -0.25480699322E+03  0.25480699322E+03  0.00000000000E+00 0.  1.
         23    2    1    2    0    0 -0.11215117093E+03  0.12471371260E+02 -0.14914015721E+03  0.22494689323E+03  0.12499959215E+03 0.  0.
         23    2    1    2    0    0  0.11215117093E+03 -0.12471371260E+02  0.10142022682E+02  0.14566895869E+03  0.91559623521E+02 0.  0.
          5    1    3    3  502    0 -0.21692288717E+02 -0.31507519687E+02 -0.11061318384E+03  0.11713515965E+03  0.47000000000E+01 0.  1.
         -5    1    3    3    0  502 -0.90458882213E+02  0.43978890947E+02 -0.38526973374E+02  0.10781173358E+03  0.47000000000E+01 0.  1.
        -11    1    4    4    0    0  0.10207665835E+03 -0.23903021984E+01 -0.27228603350E+02  0.10567286579E+03  0.00000000000E+00 0.  1.
         11    1    4    4    0    0  0.10074512584E+02 -0.10081069061E+02  0.37370626032E+02  0.39996092900E+02  0.00000000000E+00 0. -1.
<mgrwt>
<rscale>  0 0.16230546E+03</rscale>
<asrwt>0</asrwt>
<pdfrwt beam="1">  1        2 0.17816747E-01 0.16839928E+03</pdfrwt>
<pdfrwt beam="2">  1       -2 0.39201076E-01 0.16839928E+03</pdfrwt>
<totfact> 0.19286816E+03</totfact>
</mgrwt>
</event>
<event>
 8    1  0.1033707E-005  0.2661835E+03  0.7546771E-02  0.1105642E+00
         -2   -1    0    0    0  501 -0.00000000000E+00  0.00000000000E+00  0.14926519754E+03  0.14926519754E+03  0.00000000000E+00 0. -1.
          2   -1    0    0  501    0  0.00000000000E+00 -0.00000000000E+00 -0.57274733586E+03  0.57274733586E+03  0.00000000000E+00 0.  1.
         23    2    1    2    0    0 -0.20167980320E+03 -0.12064340160E+03 -0.48862701921E+02  0.27063112224E+03  0.12499626920E+03 0.  0.
         23    2    1    2    0    0  0.20167980320E+03  0.12064340160E+03 -0.37461943640E+03  0.45138141116E+03  0.90420588581E+02 0.  0.
          5    1    3    3  502    0 -0.10766183599E+03 -0.99416967967E+02  0.25480630613E+02  0.14881584924E+03  0.47000000000E+01 0. -1.
         -5    1    3    3    0  502 -0.94017967215E+02 -0.21226433636E+02 -0.74343332533E+02  0.12181527300E+03  0.47000000000E+01 0. -1.
        -11    1    4    4    0    0  0.15757359408E+03  0.12874430087E+03 -0.27464846190E+03  0.34181326801E+03  0.00000000000E+00 0. -1.
         11    1    4    4    0    0  0.44106209120E+02 -0.81008992675E+01 -0.99970974497E+02  0.10956814315E+03  0.00000000000E+00 0.  1.
<mgrwt>
<rscale>  0 0.26251350E+03</rscale>
<asrwt>0</asrwt>
<pdfrwt beam="2">  1        2 0.88114973E-01 0.26618347E+03</pdfrwt>
<pdfrwt beam="1">  1       -2 0.22963877E-01 0.26618347E+03</pdfrwt>
<totfact> 0.88236098E+02</totfact>
</mgrwt>
</event>
<event>
 8    1  0.1033707E-005  0.1309400E+03  0.7546771E-02  0.1239341E+00
         -2   -1    0    0    0  501 -0.00000000000E+00  0.00000000000E+00  0.17722105919E+02  0.17722105919E+02  0.00000000000E+00 0.  1.
          2   -1    0    0  501    0  0.00000000000E+00 -0.00000000000E+00 -0.75107817019E+03  0.75107817019E+03  0.00000000000E+00 0. -1.
         23    2    1    2    0    0  0.20061320197E+02 -0.33400260230E+02 -0.40342864388E+03  0.42414613632E+03  0.12500896090E+03 0.  0.
         23    2    1    2    0    0 -0.20061320197E+02  0.33400260230E+02 -0.32992742040E+03  0.34465413979E+03  0.91740609282E+02 0.  0.
          5    1    3    3  502    0 -0.10894182983E+02 -0.66289911581E+00  0.52308177491E+01  0.12983609376E+02  0.47000000000E+01 0.  1.
         -5    1    3    3    0  502  0.30955503180E+02 -0.32737361114E+02 -0.40865946163E+03  0.41116252695E+03  0.47000000000E+01 0.  1.
        -11    1    4    4    0    0 -0.24217650159E+02  0.64156503062E+02 -0.23261162069E+03  0.24250921126E+03  0.00000000000E+00 0.  1.
         11    1    4    4    0    0  0.41563299619E+01 -0.30756242833E+02 -0.97315799706E+02  0.10214492853E+03  0.00000000000E+00 0. -1.
<mgrwt>
<rscale>  0 0.12230571E+03</rscale>
<asrwt>0</asrwt>
<pdfrwt beam="2">  1        2 0.11555047E+00 0.13093996E+03</pdfrwt>
<pdfrwt beam="1">  1       -2 0.27264783E-02 0.13093996E+03</pdfrwt>
<totfact> 0.17774484E+04</totfact>
</mgrwt>
</event>
<event>
 8    1  0.1033707E-005  0.1425832E+03  0.7546771E-02  0.1220045E+00
          2   -1    0    0  501    0  0.00000000000E+00  0.00000000000E+00  0.76466582664E+02  0.76466582664E+02  0.00000000000E+00 0. -1.
         -2   -1    0    0    0  501 -0.00000000000E+00 -0.00000000000E+00 -0.22109782768E+03  0.22109782768E+03  0.00000000000E+00 0.  1.
         23    2    1    2    0    0 -0.65918103311E+02  0.18960138721E+02 -0.10022063416E+03  0.17428175760E+03  0.12500108926E+03 0.  0.
         23    2    1    2    0    0  0.65918103311E+02 -0.18960138721E+02 -0.44410610853E+02  0.12328265274E+03  0.92312658426E+02 0.  0.
          5    1    3    3  502    0  0.11456845436E+02  0.48626113416E+02 -0.69624000867E+02  0.85821615634E+02  0.47000000000E+01 0.  1.
         -5    1    3    3    0  502 -0.77374948747E+02 -0.29665974695E+02 -0.30596633292E+02  0.88460141968E+02  0.47000000000E+01 0.  1.
        -11    1    4    4    0    0  0.80780046925E+02  0.11035133227E+02 -0.31565964864E+02  0.87427686029E+02  0.00000000000E+00 0.  1.
         11    1    4    4    0    0 -0.14861943614E+02 -0.29995271948E+02 -0.12844645989E+02  0.35854966711E+02  0.00000000000E+00 0. -1.
<mgrwt>
<rscale>  0 0.13512353E+03</rscale>
<asrwt>0</asrwt>
<pdfrwt beam="1">  1        2 0.11764090E-01 0.14258315E+03</pdfrwt>
<pdfrwt beam="2">  1       -2 0.34015051E-01 0.14258315E+03</pdfrwt>
<totfact> 0.40666958E+03</totfact>
</mgrwt>
</event>
<event>
 8    1  0.1033707E-005  0.1436715E+03  0.7546771E-02  0.1218954E+00
         -2   -1    0    0    0  501 -0.00000000000E+00  0.00000000000E+00  0.15451899608E+04  0.15451899608E+04  0.00000000000E+00 0.  1.
          2   -1    0    0  501    0  0.00000000000E+00 -0.00000000000E+00 -0.12720604022E+02  0.12720604022E+02  0.00000000000E+00 0. -1.
         23    2    1    2    0    0 -0.68322063443E+02  0.18585279329E+02  0.11374109978E+04  0.11464489806E+04  0.12501268048E+03 0.  0.
         23    2    1    2    0    0  0.68322063443E+02 -0.18585279329E+02  0.39505835893E+03  0.41146158415E+03  0.90643319205E+02 0.  0.
          5    1    3    3  502    0 -0.60832965655E+02  0.88749277540E+01  0.20801582449E+03  0.21696102712E+03  0.47000000000E+01 0.  1.
         -5    1    3    3    0  502 -0.74890977880E+01  0.97103515748E+01  0.92939517334E+03  0.92948795352E+03  0.47000000000E+01 0.  1.
        -11    1    4    4    0    0  0.88561593255E+01 -0.45277205451E+02  0.11480669716E+03  0.12372968360E+03  0.00000000000E+00 0.  1.
         11    1    4    4    0    0  0.59465904117E+02  0.26691926123E+02  0.28025166177E+03  0.28773190056E+03  0.00000000000E+00 0. -1.
<mgrwt>
<rscale>  0 0.13590046E+03</rscale>
<asrwt>0</asrwt>
<pdfrwt beam="2">  1        2 0.19570172E-02 0.14367146E+03</pdfrwt>
<pdfrwt beam="1">  1       -2 0.23772138E+00 0.14367146E+03</pdfrwt>
<totfact> 0.47053391E+02</totfact>
</mgrwt>
</event>
<event>
 8    1  0.1033707E-005  0.2228270E+03  0.7546771E-02  0.1133574E+00
         -1   -1    0    0    0  501 -0.00000000000E+00  0.00000000000E+00  0.33143412720E+03  0.33143412720E+03  0.00000000000E+00 0.  1.
          1   -1    0    0  501    0  0.00000000000E+00 -0.00000000000E+00 -0.14646414072E+03  0.14646414072E+03  0.00000000000E+00 0. -1.
         23    2    1    2    0    0 -0.16993169167E+03 -0.71725589555E+02  0.12847564601E+03  0.25721170298E+03  0.12502211204E+03 0.  0.
         23    2    1    2    0    0  0.16993169167E+03  0.71725589555E+02  0.56494340473E+02  0.22068656494E+03  0.10718959560E+03 0.  0.
          5    1    3    3  502    0 -0.32962662003E+02  0.13021773275E+02  0.82082051440E+02  0.89530200682E+02  0.47000000000E+01 0.  1.
         -5    1    3    3    0  502 -0.13696902967E+03 -0.84747362829E+02  0.46393594570E+02  0.16768150230E+03  0.47000000000E+01 0.  1.
        -11    1    4    4    0    0  0.77698137006E+02  0.87436864709E+02  0.49016900485E+02  0.12682611063E+03  0.00000000000E+00 0.  1.
         11    1    4    4    0    0  0.92233554668E+02 -0.15711275154E+02  0.74774399881E+01  0.93860454305E+02  0.00000000000E+00 0. -1.
<mgrwt>
<rscale>  0 0.22041459E+03</rscale>
<asrwt>0</asrwt>
<pdfrwt beam="2">  1        1 0.22532945E-01 0.22282699E+03</pdfrwt>
<pdfrwt beam="1">  1       -1 0.50989866E-01 0.22282699E+03</pdfrwt>
<totfact> 0.86571849E+02</totfact>
</mgrwt>
</event>
<event>
 7    1  0.1033707E-005  0.2104806E+03  0.7546771E-02  0.1156845E+00
          1   -1    0    0  501    0  0.00000000000E+00  0.00000000000E+00  0.97613831700E+02  0.97613831700E+02  0.00000000000E+00 0. -1.
         -1   -1    0    0    0  501 -0.00000000000E+00 -0.00000000000E+00 -0.32803966267E+03  0.32803966267E+03  0.00000000000E+00 0.  1.
         23    2    1    2    0    0  0.14287494502E+02 -0.72362749358E+02 -0.11783507098E+03  0.18695123967E+03  0.12500064827E+03 0.  0.
          5    1    3    3  502    0  0.58187885247E+02 -0.13421227371E+02 -0.90231260893E+02  0.10830387701E+03  0.47000000000E+01 0.  1.
         -5    1    3    3    0  502 -0.43900390745E+02 -0.58941521988E+02 -0.27603810085E+02  0.78647362658E+02  0.47000000000E+01 0.  1.
        -11    1    1    2    0    0  0.32813802662E+02 -0.31568969343E+02 -0.11592488340E+03  0.12454687495E+03  0.00000000000E+00 0.  1.
         11    1    1    2    0    0 -0.47101297164E+02  0.10393171870E+03  0.33341234013E+01  0.11415537975E+03  0.00000000000E+00 0. -1.
<mgrwt>
<rscale>  0 0.19180325E+03</rscale>
<asrwt>0</asrwt>
<pdfrwt beam="1">  1        1 0.15017513E-01 0.21048061E+03</pdfrwt>
<pdfrwt beam="2">  1       -1 0.50467640E-01 0.21048061E+03</pdfrwt>
<totfact> 0.14905782E+03</totfact>
</mgrwt>
</event>
<event>
 8    1  0.1033707E-005  0.1296335E+03  0.7546771E-02  0.1241282E+00
          2   -1    0    0  501    0  0.00000000000E+00  0.00000000000E+00  0.13387545675E+03  0.13387545675E+03  0.00000000000E+00 0. -1.
         -2   -1    0    0    0  501 -0.00000000000E+00 -0.00000000000E+00 -0.10423964264E+03  0.10423964264E+03  0.00000000000E+00 0.  1.
         23    2    1    2    0    0  0.31431217590E+02 -0.13866578006E+02 -0.13543752486E+02  0.13033910765E+03  0.12499858530E+03 0.  0.
         23    2    1    2    0    0 -0.31431217590E+02  0.13866578006E+02  0.43179566602E+02  0.10777599174E+03  0.92579619786E+02 0.  0.
          5    1    3    3  502    0 -0.10752478913E+02 -0.51872496539E+02  0.27737419357E+02  0.59981881703E+02  0.47000000000E+01 0. -1.
         -5    1    3    3    0  502  0.42183696503E+02  0.38005918533E+02 -0.41281171842E+02  0.70357225946E+02  0.47000000000E+01 0. -1.
        -11    1    4    4    0    0 -0.12901266550E+02  0.45891070133E+02 -0.39786826182E+01  0.47835791119E+02  0.00000000000E+00 0. -1.
         11    1    4    4    0    0 -0.18529951040E+02 -0.32024492127E+02  0.47158249220E+02  0.59940200625E+02  0.00000000000E+00 0.  1.
<mgrwt>
<rscale>  0 0.12110726E+03</rscale>
<asrwt>0</asrwt>
<pdfrwt beam="1">  1        2 0.20596224E-01 0.12963352E+03</pdfrwt>
<pdfrwt beam="2">  1       -2 0.16036868E-01 0.12963352E+03</pdfrwt>
<totfact> 0.77424998E+03</totfact>
</mgrwt>
</event>
<event>
 7    1  0.1033707E-005  0.2060378E+03  0.7546771E-02  0.1155887E+00
          1   -1    0    0  501    0  0.00000000000E+00  0.00000000000E+00  0.48126644868E+03  0.48126644868E+03  0.00000000000E+00 0. -1.
         -1   -1    0    0    0  501 -0.00000000000E+00 -0.00000000000E+00 -0.69128334206E+02  0.69128334206E+02  0.00000000000E+00 0.  1.
         23    2    1    2    0    0 -0.12460522549E+03  0.25303198705E+02  0.19360143897E+03  0.25004525665E+03  0.94204029188E+02 0.  0.
          5    1    1    2  502    0  0.97020677597E+02 -0.27632837673E+02  0.24005609102E+02  0.10380243190E+03  0.47000000000E+01 0. -1.
         -5    1    1    2    0  502  0.27584547893E+02  0.23296389672E+01  0.19453106640E+03  0.19654709434E+03  0.47000000000E+01 0.  1.
        -11    1    3    3    0    0 -0.18567702403E+01  0.30132221232E+02  0.67784099677E+02  0.74202981889E+02  0.00000000000E+00 0. -1.
         11    1    3    3    0    0 -0.12274845525E+03 -0.48290225271E+01  0.12581733930E+03  0.17584227476E+03  0.00000000000E+00 0.  1.
<mgrwt>
<rscale>  0 0.19288205E+03</rscale>
<asrwt>0</asrwt>
<pdfrwt beam="1">  1        1 0.74040990E-01 0.20603776E+03</pdfrwt>
<pdfrwt beam="2">  1       -1 0.10635129E-01 0.20603776E+03</pdfrwt>
<totfact> 0.26043441E+03</totfact>
</mgrwt>
</event>
<event>
 8    1  0.1033707E-005  0.1344426E+03  0.7546771E-02  0.1234272E+00
          2   -1    0    0  501    0  0.00000000000E+00  0.00000000000E+00  0.47774179589E+03  0.47774179589E+03  0.00000000000E+00 0. -1.
         -2   -1    0    0    0  501 -0.00000000000E+00 -0.00000000000E+00 -0.40794273176E+02  0.40794273176E+02  0.00000000000E+00 0.  1.
         23    2    1    2    0    0  0.46946226704E+02 -0.15652572154E+02  0.10311537821E+03  0.16943312825E+03  0.12500340998E+03 0.  0.
         23    2    1    2    0    0 -0.46946226704E+02  0.15652572154E+02  0.33383214451E+03  0.34910294082E+03  0.89330909367E+02 0.  0.
          5    1    3    3  502    0  0.33998769172E+01 -0.64441662188E+02  0.72186064325E+02  0.96939181301E+02  0.47000000000E+01 0.  1.
         -5    1    3    3    0  502  0.43546349787E+02  0.48789090035E+02  0.30929313885E+02  0.72493946944E+02  0.47000000000E+01 0.  1.
        -11    1    4    4    0    0 -0.64041912014E+01  0.45712883850E+02  0.10382580627E+03  0.11362429081E+03  0.00000000000E+00 0.  1.
         11    1    4    4    0    0 -0.40542035503E+02 -0.30060311696E+02  0.23000633824E+03  0.23547865001E+03  0.00000000000E+00 0. -1.
<mgrwt>
<rscale>  0 0.12551127E+03</rscale>
<asrwt>0</asrwt>
<pdfrwt beam="1">  1        2 0.73498734E-01 0.13444257E+03</pdfrwt>
<pdfrwt beam="2">  1       -2 0.62760424E-02 0.13444257E+03</pdfrwt>
<totfact> 0.86270654E+03</totfact>
</mgrwt>
</event>
<event>
 7    1  0.1033707E-005  0.1859088E+03  0.7546771E-02  0.1176616E+00
         -2   -1    0    0    0  501 -0.00000000000E+00  0.00000000000E+00  0.33976690576E+02  0.33976690576E+02  0.00000000000E+00 0.  1.
          2   -1    0    0  501    0  0.00000000000E+00 -0.00000000000E+00 -0.89394891183E+03  0.89394891183E+03  0.00000000000E+00 0. -1.
         23    2    1    2    0    0 -0.87425171712E+02 -0.41765322190E+02 -0.55406822820E+03  0.56996003518E+03  0.92061595780E+02 0.  0.
          5    1    1    2  502    0  0.66450670623E+02 -0.45129424917E+01 -0.29913020370E+03  0.30649147956E+03  0.47000000000E+01 0. -1.
         -5    1    1    2    0  502  0.20974501089E+02  0.46278264681E+02 -0.67737893427E+01  0.51474087655E+02  0.47000000000E+01 0.  1.
        -11    1    3    3    0    0 -0.37820803409E+02  0.28587683372E+02 -0.21032136801E+03  0.21559857758E+03  0.00000000000E+00 0. -1.
         11    1    3    3    0    0 -0.49604368303E+02 -0.70353005562E+02 -0.34374686019E+03  0.35436145760E+03  0.00000000000E+00 0.  1.
<mgrwt>
<rscale>  0 0.17118623E+03</rscale>
<asrwt>0</asrwt>
<pdfrwt beam="2">  1        2 0.13753058E+00 0.18590883E+03</pdfrwt>
<pdfrwt beam="1">  1       -2 0.52271839E-02 0.18590883E+03</pdfrwt>
<totfact> 0.55218594E+03</totfact>
</mgrwt>
</event>
<event>
 7    1  0.1033707E-005  0.3803692E+03  0.7546771E-02  0.1050797E+00
         -1   -1    0    0    0  501 -0.00000000000E+00  0.00000000000E+00  0.46012352691E+02  0.46012352691E+02  0.00000000000E+00 0.  1.
          1   -1    0    0  501    0  0.00000000000E+00 -0.00000000000E+00 -0.78609739964E+03  0.78609739964E+03  0.00000000000E+00 0. -1.
         23    2    1    2    0    0 -0.27327955078E+02 -0.70645840292E+02 -0.26640698128E+03  0.29192802547E+03  0.92258552434E+02 0.  0.
          5    1    1    2  502    0 -0.37513727698E+02 -0.52257294603E+02 -0.34420121527E+03  0.35019233458E+03  0.47000000000E+01 0. -1.
         -5    1    1    2    0  502  0.64841682776E+02  0.12290313490E+03 -0.12947685040E+03  0.18998939229E+03  0.47000000000E+01 0.  1.
        -11    1    3    3    0    0  0.75596467413E+01  0.67549199095E+01  0.20698705620E+01  0.10347055909E+02  0.00000000000E+00 0.  1.
         11    1    3    3    0    0 -0.34887601819E+02 -0.77400760202E+02 -0.26847685184E+03  0.28158096956E+03  0.00000000000E+00 0. -1.
<mgrwt>
<rscale>  0 0.38036925E+03</rscale>
<asrwt>0</asrwt>
<pdfrwt beam="2">  1        1 0.12093806E+00 0.38036925E+03</pdfrwt>
<pdfrwt beam="1">  1       -1 0.70788233E-02 0.38036925E+03</pdfrwt>
<totfact> 0.24664015E+03</totfact>
</mgrwt>
</event>
<event>
 8    1  0.1033707E-005  0.1869587E+03  0.7546771E-02  0.1166676E+00
         -2   -1    0    0    0  501 -0.00000000000E+00  0.00000000000E+00  0.46797431333E+03  0.46797431333E+03  0.00000000000E+00 0.  1.
          2   -1    0    0  501    0  0.00000000000E+00 -0.00000000000E+00 -0.76759306403E+02  0.76759306403E+02  0.00000000000E+00 0. -1.
         23    2    1    2    0    0  0.13222221529E+03  0.42420894647E+02  0.30741304894E+03  0.35980040712E+03  0.12518507811E+03 0.  0.
         23    2    1    2    0    0 -0.13222221529E+03 -0.42420894647E+02  0.83801957981E+02  0.18493321261E+03  0.88855379393E+02 0.  0.
          5    1    3    3  502    0  0.35570585579E+02 -0.37897791288E+02  0.14687331326E+03  0.15586971896E+03  0.47000000000E+01 0. -1.
         -5    1    3    3    0  502  0.96651629711E+02  0.80318685935E+02  0.16053973569E+03  0.20393068815E+03  0.47000000000E+01 0. -1.
        -11    1    4    4    0    0 -0.76599413753E+02  0.14671356505E+02  0.68429500918E+02  0.10375603831E+03  0.00000000000E+00 0.  1.
         11    1    4    4    0    0 -0.55622801537E+02 -0.57092251152E+02  0.15372457063E+02  0.81177174308E+02  0.00000000000E+00 0. -1.
<mgrwt>
<rscale>  0 0.18116966E+03</rscale>
<asrwt>0</asrwt>
<pdfrwt beam="2">  1        2 0.11809124E-01 0.18695869E+03</pdfrwt>
<pdfrwt beam="1">  1       -2 0.71996047E-01 0.18695869E+03</pdfrwt>
<totfact> 0.92550576E+02</totfact>
</mgrwt>
</event>
<event>
 8    1  0.1033707E-005  0.1289850E+03  0.7546771E-02  0.1241980E+00
          3   -1    0    0  501    0  0.00000000000E+00  0.00000000000E+00  0.41207595188E+03  0.41207595188E+03  0.00000000000E+00 0. -1.
         -3   -1    0    0    0  501 -0.00000000000E+00 -0.00000000000E+00 -0.32503509534E+02  0.32503509534E+02  0.00000000000E+00 0.  1.
         23    2    1    2    0    0 -0.29291549100E+02 -0.12363087828E+02  0.17516804311E+03  0.21753382890E+03  0.12500513030E+03 0.  0.
         23    2    1    2    0    0  0.29291549100E+02  0.12363087828E+02  0.20440439924E+03  0.22704563251E+03  0.93582690840E+02 0.  0.
          5    1    3    3  502    0  0.46178454578E+02 -0.18056235977E+02  0.94490716359E+02  0.10681321455E+03  0.47000000000E+01 0. -1.
         -5    1    3    3    0  502 -0.75470003679E+02  0.56931481495E+01  0.80677326749E+02  0.11072061435E+03  0.47000000000E+01 0. -1.
        -11    1    4    4    0    0 -0.10128371224E+02 -0.34724902830E+02  0.93864206910E+02  0.10059270410E+03  0.00000000000E+00 0. -1.
         11    1    4    4    0    0  0.39419920325E+02  0.47087990657E+02  0.11054019233E+03  0.12645292841E+03  0.00000000000E+00 0.  1.
<mgrwt>
<rscale>  0 0.12067941E+03</rscale>
<asrwt>0</asrwt>
<pdfrwt beam="1">  1        3 0.63396296E-01 0.12898497E+03</pdfrwt>
<pdfrwt beam="2">  1       -3 0.50005402E-02 0.12898497E+03</pdfrwt>
<totfact> 0.12779002E+03</totfact>
</mgrwt>
</event>
<event>
 8    1  0.1033707E-005  0.1365658E+03  0.7546771E-02  0.1229758E+00
          4   -1    0    0  501    0  0.00000000000E+00  0.00000000000E+00  0.43060899158E+02  0.43060899158E+02  0.00000000000E+00 0. -1.
         -4   -1    0    0    0  501 -0.00000000000E+00 -0.00000000000E+00 -0.36180625943E+03  0.36180625943E+03  0.00000000000E+00 0.  1.
         23    2    1    2    0    0  0.17036640234E+02  0.52298360386E+02 -0.22218329796E+03  0.26079806074E+03  0.12499937994E+03 0.  0.
         23    2    1    2    0    0 -0.17036640234E+02 -0.52298360386E+02 -0.96562062310E+02  0.14406909785E+03  0.91685917496E+02 0.  0.
          5    1    3    3  502    0  0.47477997866E+02 -0.18304035625E+02 -0.47002901760E+02  0.69430258356E+02  0.47000000000E+01 0. -1.
         -5    1    3    3    0  502 -0.30441357632E+02  0.70602396011E+02 -0.17518039620E+03  0.19136780239E+03  0.47000000000E+01 0. -1.
        -11    1    4    4    0    0 -0.44562556201E+01  0.12549619183E+02 -0.72582812080E+02  0.73794415543E+02  0.00000000000E+00 0.  1.
         11    1    4    4    0    0 -0.12580384614E+02 -0.64847979569E+02 -0.23979250230E+02  0.70274682303E+02  0.00000000000E+00 0. -1.
<mgrwt>
<rscale>  0 0.12846065E+03</rscale>
<asrwt>0</asrwt>
<pdfrwt beam="1">  1        4 0.66247539E-02 0.13656577E+03</pdfrwt>
<pdfrwt beam="2">  1       -4 0.55662500E-01 0.13656577E+03</pdfrwt>
<totfact> 0.77693346E+02</totfact>
</mgrwt>
</event>
<event>
 8    1  0.1033707E-005  0.1859400E+03  0.7546771E-02  0.1167327E+00
          2   -1    0    0  501    0  0.00000000000E+00  0.00000000000E+00  0.57172089844E+03  0.57172089844E+03  0.00000000000E+00 0. -1.
         -2   -1    0    0    0  501 -0.00000000000E+00 -0.00000000000E+00 -0.59593831231E+02  0.59593831231E+02  0.00000000000E+00 0.  1.
         23    2    1    2    0    0  0.10697678293E+03 -0.86634383905E+02  0.17224897633E+03  0.25346282190E+03  0.12499657465E+03 0.  0.
         23    2    1    2    0    0 -0.10697678293E+03  0.86634383905E+02  0.33987809088E+03  0.37785190778E+03  0.91133961796E+02 0.  0.
          5    1    3    3  502    0  0.10717025584E+03 -0.11448963560E+03  0.13698964619E+03  0.20828248500E+03  0.47000000000E+01 0.  1.
         -5    1    3    3    0  502 -0.19347291267E+00  0.27855251700E+02  0.35259330148E+02  0.45180336890E+02  0.47000000000E+01 0.  1.
        -11    1    4    4    0    0 -0.24600220255E+02  0.57762319439E+02  0.69147953884E+02  0.93397515545E+02  0.00000000000E+00 0.  1.
         11    1    4    4    0    0 -0.82376562673E+02  0.28872064466E+02  0.27073013699E+03  0.28445439223E+03  0.00000000000E+00 0. -1.
<mgrwt>
<rscale>  0 0.18049299E+03</rscale>
<asrwt>0</asrwt>
<pdfrwt beam="1">  1        2 0.87957057E-01 0.18594002E+03</pdfrwt>
<pdfrwt beam="2">  1       -2 0.91682821E-02 0.18594002E+03</pdfrwt>
<totfact> 0.39995897E+03</totfact>
</mgrwt>
</event>
<event>
 8    1  0.1033707E-005  0.1361849E+03  0.7546771E-02  0.1231203E+00
          4   -1    0    0  501    0  0.00000000000E+00  0.00000000000E+00  0.50466327547E+02  0.50466327547E+02  0.00000000000E+00 0. -1.
         -4   -1    0    0    0  501 -0.00000000000E+00 -0.00000000000E+00 -0.31357228752E+03  0.31357228752E+03  0.00000000000E+00 0.  1.
         23    2    1    2    0    0  0.45679982976E+02 -0.28880510910E+02 -0.19957671521E+03  0.24161374884E+03  0.12500237445E+03 0.  0.
         23    2    1    2    0    0 -0.45679982976E+02  0.28880510910E+02 -0.63529244764E+02  0.12242486623E+03  0.89616617743E+02 0.  0.
          5    1    3    3  502    0  0.50712497736E+02  0.25079633549E+02 -0.31436429318E+02  0.64892869668E+02  0.47000000000E+01 0.  1.
         -5    1    3    3    0  502 -0.50325147598E+01 -0.53960144459E+02 -0.16814028589E+03  0.17672087917E+03  0.47000000000E+01 0.  1.
        -11    1    4    4    0    0 -0.72051166148E+01  0.40792900870E+02 -0.70286340320E+02  0.81585195363E+02  0.00000000000E+00 0.  1.
         11    1    4    4    0    0 -0.38474866361E+02 -0.11912389960E+02  0.67570955562E+01  0.40839670866E+02  0.00000000000E+00 0. -1.
<mgrwt>
<rscale>  0 0.12750667E+03</rscale>
<asrwt>0</asrwt>
<pdfrwt beam="1">  1        4 0.77640505E-02 0.13618494E+03</pdfrwt>
<pdfrwt beam="2">  1       -4 0.48241890E-01 0.13618494E+03</pdfrwt>
<totfact> 0.80194101E+02</totfact>
</mgrwt>
</event>
<event>
 8    1  0.1033707E-005  0.1274949E+03  0.7546771E-02  0.1244983E+00
          1   -1    0    0  501    0  0.00000000000E+00  0.00000000000E+00  0.11504730926E+03  0.11504730926E+03  0.00000000000E+00 0. -1.
         -1   -1    0    0    0  501 -0.00000000000E+00 -0.00000000000E+00 -0.11014712301E+03  0.11014712301E+03  0.00000000000E+00 0.  1.
         23    2    1    2    0    0  0.20448809339E+02 -0.14591650406E+02  0.14871204741E+02  0.12835928130E+03  0.12499552912E+03 0.  0.
         23    2    1    2    0    0 -0.20448809339E+02  0.14591650406E+02 -0.99710184860E+01  0.96835150972E+02  0.92986854926E+02 0.  0.
          5    1    3    3  502    0 -0.40138493125E+02 -0.41955717804E+02  0.19811787248E+02  0.61530299859E+02  0.47000000000E+01 0.  1.
         -5    1    3    3    0  502  0.60587302464E+02  0.27364067398E+02 -0.49405825069E+01  0.66828981437E+02  0.47000000000E+01 0.  1.
        -11    1    4    4    0    0 -0.57511442352E+01  0.38078051215E+02 -0.40310133442E+02  0.55748726465E+02  0.00000000000E+00 0.  1.
         11    1    4    4    0    0 -0.14697665104E+02 -0.23486400809E+02  0.30339114956E+02  0.41086424507E+02  0.00000000000E+00 0. -1.
<mgrwt>
<rscale>  0 0.11886370E+03</rscale>
<asrwt>0</asrwt>
<pdfrwt beam="1">  1        1 0.17699586E-01 0.12749491E+03</pdfrwt>
<pdfrwt beam="2">  1       -1 0.16945711E-01 0.12749491E+03</pdfrwt>
<totfact> 0.74514944E+03</totfact>
</mgrwt>
</event>
<event>
 8    1  0.1033707E-005  0.1264480E+03  0.7546771E-02  0.1247314E+00
         -1   -1    0    0    0  501 -0.00000000000E+00  0.00000000000E+00  0.49023034823E+02  0.49023034823E+02  0.00000000000E+00 0.  1.
          1   -1    0    0  501    0  0.00000000000E+00 -0.00000000000E+00 -0.26264656058E+03  0.26264656058E+03  0.00000000000E+00 0. -1.
         23    2    1    2    0    0 -0.17664299743E+02  0.72255221376E+01 -0.85521965563E+02  0.15265350932E+03  0.12499940663E+03 0.  0.
         23    2    1    2    0    0  0.17664299743E+02 -0.72255221376E+01 -0.12810156020E+03  0.15901608609E+03  0.92259797608E+02 0.  0.
          5    1    3    3  502    0  0.25315805397E+02  0.42234920488E+02  0.13629796395E+01  0.49483595515E+02  0.47000000000E+01 0.  1.
         -5    1    3    3    0  502 -0.42980105141E+02 -0.35009398351E+02 -0.86884945202E+02  0.10316991380E+03  0.47000000000E+01 0.  1.
        -11    1    4    4    0    0  0.18265968579E+02  0.29700526109E+02 -0.11444874331E+03  0.11964230733E+03  0.00000000000E+00 0.  1.
         11    1    4    4    0    0 -0.60166883522E+00 -0.36926048246E+02 -0.13652816887E+02  0.39373778755E+02  0.00000000000E+00 0. -1.
<mgrwt>
<rscale>  0 0.11747939E+03</rscale>
<asrwt>0</asrwt>
<pdfrwt beam="2">  1        1 0.40407163E-01 0.12644796E+03</pdfrwt>
<pdfrwt beam="1">  1       -1 0.75420054E-02 0.12644796E+03</pdfrwt>
<totfact> 0.92009469E+03</totfact>
</mgrwt>
</event>
<event>
 8    1  0.1033707E-005  0.2823689E+03  0.7546771E-02  0.1096225E+00
         -2   -1    0    0    0  501 -0.00000000000E+00  0.00000000000E+00  0.16373000787E+03  0.16373000787E+03  0.00000000000E+00 0.  1.
          2   -1    0    0  501    0  0.00000000000E+00 -0.00000000000E+00 -0.49287347340E+03  0.49287347340E+03  0.00000000000E+00 0. -1.
         23    2    1    2    0    0  0.12720678389E+03 -0.21891723391E+03 -0.89593943042E+02  0.29624186530E+03  0.12500338778E+03 0.  0.
         23    2    1    2    0    0 -0.12720678389E+03  0.21891723391E+03 -0.23954952249E+03  0.36036161597E+03  0.91488793681E+02 0.  0.
          5    1    3    3  502    0  0.68102414934E+02 -0.50569724658E+02 -0.81265256843E+02  0.11756431407E+03  0.47000000000E+01 0. -1.
         -5    1    3    3    0  502  0.59104368952E+02 -0.16834750926E+03 -0.83286861991E+01  0.17867755124E+03  0.47000000000E+01 0. -1.
        -11    1    4    4    0    0 -0.12229490450E+03  0.12435582157E+03 -0.16017744126E+03  0.23680630633E+03  0.00000000000E+00 0.  1.
         11    1    4    4    0    0 -0.49118793823E+01  0.94561412341E+02 -0.79372081230E+02  0.12355530965E+03  0.00000000000E+00 0. -1.
<mgrwt>
<rscale>  0 0.27902124E+03</rscale>
<asrwt>0</asrwt>
<pdfrwt beam="2">  1        2 0.75826687E-01 0.28236885E+03</pdfrwt>
<pdfrwt beam="1">  1       -2 0.25189232E-01 0.28236885E+03</pdfrwt>
<totfact> 0.88955524E+02</totfact>
</mgrwt>
</event>
<event>
 8    1  0.1033707E-005  0.1355310E+03  0.7546771E-02  0.1232453E+00
          1   -1    0    0  501    0  0.00000000000E+00  0.00000000000E+00  0.66652092347E+02  0.66652092347E+02  0.00000000000E+00 0. -1.
         -1   -1    0    0    0  501 -0.00000000000E+00 -0.00000000000E+00 -0.29094234042E+03  0.29094234042E+03  0.00000000000E+00 0.  1.
         23    2    1    2    0    0 -0.21759997981E+02 -0.47609537046E+02 -0.21440077152E+03  0.25364612363E+03  0.12501399792E+03 0.  0.
         23    2    1    2    0    0  0.21759997981E+02  0.47609537046E+02 -0.98894765529E+01  0.10394830913E+03  0.89259642032E+02 0.  0.
          5    1    3    3  502    0 -0.31719752985E+02  0.10717437422E+02 -0.18376412608E+03  0.18684846863E+03  0.47000000000E+01 0. -1.
         -5    1    3    3    0  502  0.99597550039E+01 -0.58326974468E+02 -0.30636645440E+02  0.66797655005E+02  0.47000000000E+01 0. -1.
        -11    1    4    4    0    0  0.40867386062E+02  0.63525011740E+00 -0.28610950422E+02  0.49891214360E+02  0.00000000000E+00 0.  1.
         11    1    4    4    0    0 -0.19107388081E+02  0.46974286928E+02  0.18721473869E+02  0.54057094775E+02  0.00000000000E+00 0. -1.
<mgrwt>
<rscale>  0 0.12668928E+03</rscale>
<asrwt>0</asrwt>
<pdfrwt beam="1">  1        1 0.10254168E-01 0.13553105E+03</pdfrwt>
<pdfrwt beam="2">  1       -1 0.44760360E-01 0.13553105E+03</pdfrwt>
<totfact> 0.30126720E+03</totfact>
</mgrwt>
</event>
<event>
 8    1  0.1033707E-005  0.2734510E+03  0.7546771E-02  0.1101333E+00
         -1   -1    0    0    0  501 -0.00000000000E+00  0.00000000000E+00  0.31778196034E+02  0.31778196034E+02  0.00000000000E+00 0.  1.
          1   -1    0    0  501    0  0.00000000000E+00 -0.00000000000E+00 -0.22653406210E+04  0.22653406210E+04  0.00000000000E+00 0. -1.
         23    2    1    2    0    0 -0.76974363609E+02  0.23070657320E+03 -0.12785110358E+04  0.13074272163E+04  0.12499952658E+03 0.  0.
         23    2    1    2    0    0  0.76974363609E+02 -0.23070657320E+03 -0.95505138918E+03  0.98969160077E+03  0.90640681153E+02 0.  0.
          5    1    3    3  502    0  0.12436430614E+02  0.22621102478E+02 -0.37623261647E+03  0.37714645800E+03  0.47000000000E+01 0. -1.
         -5    1    3    3    0  502 -0.89410794223E+02  0.20808547072E+03 -0.90227841930E+03  0.93028075826E+03  0.47000000000E+01 0. -1.
        -11    1    4    4    0    0  0.64767112654E+02 -0.16797243747E+03 -0.82948601371E+03  0.84879712863E+03  0.00000000000E+00 0. -1.
         11    1    4    4    0    0  0.12207250954E+02 -0.62734135723E+02 -0.12556537547E+03  0.14089447214E+03  0.00000000000E+00 0.  1.
<mgrwt>
<rscale>  0 0.26990753E+03</rscale>
<asrwt>0</asrwt>
<pdfrwt beam="2">  1        1 0.34851391E+00 0.27345101E+03</pdfrwt>
<pdfrwt beam="1">  1       -1 0.48889536E-02 0.27345101E+03</pdfrwt>
<totfact> 0.41204809E+02</totfact>
</mgrwt>
</event>
<event>
 8    1  0.1033707E-005  0.1680684E+03  0.7546771E-02  0.1186621E+00
         -3   -1    0    0    0  501 -0.00000000000E+00  0.00000000000E+00  0.11616630997E+03  0.11616630997E+03  0.00000000000E+00 0.  1.
          3   -1    0    0  501    0  0.00000000000E+00 -0.00000000000E+00 -0.21344025460E+03  0.21344025460E+03  0.00000000000E+00 0. -1.
         23    2    1    2    0    0 -0.62749243124E+02 -0.93175553001E+02 -0.32380903035E+02  0.17115934686E+03  0.12501139127E+03 0.  0.
         23    2    1    2    0    0  0.62749243124E+02  0.93175553001E+02 -0.64893041589E+02  0.15844721771E+03  0.90968471268E+02 0.  0.
          5    1    3    3  502    0  0.31543495057E+02 -0.30512990747E+02 -0.37230370096E+02  0.57742749694E+02  0.47000000000E+01 0.  1.
         -5    1    3    3    0  502 -0.94292738181E+02 -0.62662562254E+02  0.48494670613E+01  0.11341659717E+03  0.47000000000E+01 0.  1.
        -11    1    4    4    0    0  0.74135120712E+02  0.29906114745E+02 -0.30687912940E+02  0.85627914973E+02  0.00000000000E+00 0.  1.
         11    1    4    4    0    0 -0.11385877588E+02  0.63269438256E+02 -0.34205128650E+02  0.72819302740E+02  0.00000000000E+00 0. -1.
<mgrwt>
<rscale>  0 0.16185212E+03</rscale>
<asrwt>0</asrwt>
<pdfrwt beam="2">  1        3 0.32836962E-01 0.16806844E+03</pdfrwt>
<pdfrwt beam="1">  1       -3 0.17871740E-01 0.16806844E+03</pdfrwt>
<totfact> 0.59209875E+02</totfact>
</mgrwt>
</event>
<event>
 6    1  0.1033707E-005  0.2826045E+03  0.7546771E-02  0.1098620E+00
          2   -1    0    0  501    0  0.00000000000E+00  0.00000000000E+00  0.49082649907E+02  0.49082649907E+02  0.00000000000E+00 0. -1.
         -2   -1    0    0    0  501 -0.00000000000E+00 -0.00000000000E+00 -0.15922240231E+04  0.15922240231E+04  0.00000000000E+00 0.  1.
          5    1    1    2  502    0 -0.76014050373E+02 -0.59983417640E+02 -0.18124180213E+03  0.20554032959E+03  0.47000000000E+01 0. -1.
         -5    1    1    2    0  502 -0.12340191051E+03 -0.87292915110E+02 -0.86892953411E+03  0.88199133204E+03  0.47000000000E+01 0.  1.
        -11    1    1    2    0    0  0.62853473332E+01  0.15236828377E+02 -0.52533226887E+02  0.55058209717E+02  0.00000000000E+00 0. -1.
         11    1    1    2    0    0  0.19313061355E+03  0.13203950437E+03 -0.44043681006E+03  0.49871680166E+03  0.00000000000E+00 0.  1.
<mgrwt>
<rscale>  0 0.27469880E+03</rscale>
<asrwt>0</asrwt>
<pdfrwt beam="1">  1        2 0.75511783E-02 0.28260446E+03</pdfrwt>
<pdfrwt beam="2">  1       -2 0.24495750E+00 0.28260446E+03</pdfrwt>
<totfact> 0.70156964E+01</totfact>
</mgrwt>
</event>
<event>
 8    1  0.1033707E-005  0.1444168E+03  0.7546771E-02  0.1217723E+00
          1   -1    0    0  501    0  0.00000000000E+00  0.00000000000E+00  0.22896211166E+03  0.22896211166E+03  0.00000000000E+00 0. -1.
         -1   -1    0    0    0  501 -0.00000000000E+00 -0.00000000000E+00 -0.82928639436E+02  0.82928639436E+02  0.00000000000E+00 0.  1.
         23    2    1    2    0    0  0.69522888644E+02 -0.19952594703E+02  0.29680069884E+02  0.14743517677E+03  0.12499874688E+03 0.  0.
         23    2    1    2    0    0 -0.69522888644E+02  0.19952594703E+02  0.11635340234E+03  0.16445557432E+03  0.90972433235E+02 0.  0.
          5    1    3    3  502    0 -0.71765721439E+01  0.40899933849E+02  0.26259578216E+02  0.49355478162E+02  0.47000000000E+01 0. -1.
         -5    1    3    3    0  502  0.76699460788E+02 -0.60852528552E+02  0.34204916681E+01  0.98079698611E+02  0.47000000000E+01 0. -1.
        -11    1    4    4    0    0 -0.12233360883E+02  0.30056211691E+02 -0.20687068674E+01  0.32516311719E+02  0.00000000000E+00 0.  1.
         11    1    4    4    0    0 -0.57289527761E+02 -0.10103616988E+02  0.11842210920E+03  0.13193926260E+03  0.00000000000E+00 0. -1.
<mgrwt>
<rscale>  0 0.13678401E+03</rscale>
<asrwt>0</asrwt>
<pdfrwt beam="1">  1        1 0.35224940E-01 0.14441684E+03</pdfrwt>
<pdfrwt beam="2">  1       -1 0.12758252E-01 0.14441684E+03</pdfrwt>
<totfact> 0.49342538E+03</totfact>
</mgrwt>
</event>
<event>
 8    1  0.1033707E-005  0.1309014E+03  0.7546771E-02  0.1231434E+00
         -4   -1    0    0    0  501 -0.00000000000E+00  0.00000000000E+00  0.17437234044E+03  0.17437234044E+03  0.00000000000E+00 0. -1.
          4   -1    0    0  501    0  0.00000000000E+00 -0.00000000000E+00 -0.15056602589E+03  0.15056602589E+03  0.00000000000E+00 0.  1.
         23    2    1    2    0    0 -0.38725399929E+02  0.32803930428E+01  0.11666624971E+03  0.17534589916E+03  0.12499901181E+03 0.  0.
         23    2    1    2    0    0  0.38725399929E+02 -0.32803930428E+01 -0.92859935154E+02  0.14959246716E+03  0.11065496417E+03 0.  0.
          5    1    3    3  502    0  0.29129609927E+02 -0.18177366384E+02 -0.42973651107E+01  0.34921457159E+02  0.47000000000E+01 0.  1.
         -5    1    3    3    0  502 -0.67855009856E+02  0.21457759427E+02  0.12096361482E+03  0.14042444200E+03  0.47000000000E+01 0.  1.
        -11    1    4    4    0    0  0.51565614224E+02  0.30157693215E+02 -0.96600673594E+02  0.11357899968E+03  0.00000000000E+00 0.  1.
         11    1    4    4    0    0 -0.12840214295E+02 -0.33438086258E+02  0.37407384397E+01  0.36013467478E+02  0.00000000000E+00 0. -1.
<mgrwt>
<rscale>  0 0.12735485E+03</rscale>
<asrwt>0</asrwt>
<pdfrwt beam="2">  1        4 0.23164004E-01 0.13090138E+03</pdfrwt>
<pdfrwt beam="1">  1       -4 0.26826514E-01 0.13090138E+03</pdfrwt>
<totfact> 0.37404711E+02</totfact>
</mgrwt>
</event>
<event>
 8    1  0.1033707E-005  0.1501580E+03  0.7546771E-02  0.1209033E+00
         -1   -1    0    0    0  501 -0.00000000000E+00  0.00000000000E+00  0.17971690938E+03  0.17971690938E+03  0.00000000000E+00 0.  1.
          1   -1    0    0  501    0  0.00000000000E+00 -0.00000000000E+00 -0.10825783714E+03  0.10825783714E+03  0.00000000000E+00 0. -1.
         23    2    1    2    0    0 -0.81466981467E+02 -0.16910641108E+02  0.64530112092E+02  0.16343669596E+03  0.12499831746E+03 0.  0.
         23    2    1    2    0    0  0.81466981467E+02  0.16910641108E+02  0.69289601481E+01  0.12453805055E+03  0.92406042523E+02 0.  0.
          5    1    3    3  502    0 -0.60447214529E+02 -0.58275338689E+02  0.34262547750E+00  0.84095708784E+02  0.47000000000E+01 0. -1.
         -5    1    3    3    0  502 -0.21019766937E+02  0.41364697580E+02  0.64187486614E+02  0.79340987175E+02  0.47000000000E+01 0. -1.
        -11    1    4    4    0    0  0.74268984975E+02 -0.12681048656E+02  0.35039554880E+02  0.83093089547E+02  0.00000000000E+00 0.  1.
         11    1    4    4    0    0  0.71979964916E+01  0.29591689765E+02 -0.28110594732E+02  0.41444961006E+02  0.00000000000E+00 0. -1.
<mgrwt>
<rscale>  0 0.14324139E+03</rscale>
<asrwt>0</asrwt>
<pdfrwt beam="2">  1        1 0.16655052E-01 0.15015798E+03</pdfrwt>
<pdfrwt beam="1">  1       -1 0.27648755E-01 0.15015798E+03</pdfrwt>
<totfact> 0.36835016E+03</totfact>
</mgrwt>
</event>
<event>
 8    1  0.1033707E-005  0.1250306E+03  0.7546771E-02  0.1250796E+00
         -1   -1    0    0    0  501 -0.00000000000E+00  0.00000000000E+00  0.20097385742E+03  0.20097385742E+03  0.00000000000E+00 0.  1.
          1   -1    0    0  501    0  0.00000000000E+00 -0.00000000000E+00 -0.68139504111E+02  0.68139504111E+02  0.00000000000E+00 0. -1.
         23    2    1    2    0    0 -0.19582648880E+01  0.20800127317E+01  0.12671099707E+03  0.17801216821E+03  0.12499797597E+03 0.  0.
         23    2    1    2    0    0  0.19582648880E+01 -0.20800127317E+01  0.61233562352E+01  0.91101193325E+02  0.90850265158E+02 0.  0.
          5    1    3    3  502    0 -0.12633014539E+02 -0.25395346649E+02 -0.15527322893E+02  0.32675747030E+02  0.47000000000E+01 0. -1.
         -5    1    3    3    0  502  0.10674749651E+02  0.27475359380E+02  0.14223831997E+03  0.14533642118E+03  0.47000000000E+01 0. -1.
        -11    1    4    4    0    0 -0.12479537522E+02  0.22495111748E+02  0.39545203318E+02  0.47176180587E+02  0.00000000000E+00 0.  1.
         11    1    4    4    0    0  0.14437802410E+02 -0.24575124479E+02 -0.33421847083E+02  0.43925012738E+02  0.00000000000E+00 0. -1.
<mgrwt>
<rscale>  0 0.11545094E+03</rscale>
<asrwt>0</asrwt>
<pdfrwt beam="2">  1        1 0.10483001E-01 0.12503062E+03</pdfrwt>
<pdfrwt beam="1">  1       -1 0.30919055E-01 0.12503062E+03</pdfrwt>
<totfact> 0.55255480E+03</totfact>
</mgrwt>
</event>
<event>
 8    1  0.1033707E-005  0.1258028E+03  0.7546771E-02  0.1248922E+00
          2   -1    0    0  501    0  0.00000000000E+00  0.00000000000E+00  0.49159063046E+02  0.49159063046E+02  0.00000000000E+00 0. -1.
         -2   -1    0    0    0  501 -0.00000000000E+00 -0.00000000000E+00 -0.26519138177E+03  0.26519138177E+03  0.00000000000E+00 0.  1.
         23    2    1    2    0    0 -0.12950791083E+02 -0.57494222838E+01 -0.16835343131E+03  0.21016477459E+03  0.12500230318E+03 0.  0.
         23    2    1    2    0    0  0.12950791083E+02  0.57494222838E+01 -0.47678887421E+02  0.10418567023E+03  0.91545610104E+02 0.  0.
          5    1    3    3  502    0 -0.11063956770E+02 -0.22781501419E+02 -0.18441931763E+03  0.18620951281E+03  0.47000000000E+01 0. -1.
         -5    1    3    3    0  502 -0.18868343136E+01  0.17032079135E+02  0.16065886325E+02  0.23955261777E+02  0.47000000000E+01 0. -1.
        -11    1    4    4    0    0  0.35208001363E+02  0.35353031216E+02 -0.91211808486E+01  0.50721160438E+02  0.00000000000E+00 0. -1.
         11    1    4    4    0    0 -0.22257210280E+02 -0.29603608932E+02 -0.38557706572E+02  0.53464509792E+02  0.00000000000E+00 0.  1.
<mgrwt>
<rscale>  0 0.11653663E+03</rscale>
<asrwt>0</asrwt>
<pdfrwt beam="1">  1        2 0.75629328E-02 0.12580284E+03</pdfrwt>
<pdfrwt beam="2">  1       -2 0.40798674E-01 0.12580284E+03</pdfrwt>
<totfact> 0.49514123E+03</totfact>
</mgrwt>
</event>
<event>
 8    1  0.1033707E-005  0.1641024E+03  0.7546771E-02  0.1191654E+00
         -2   -1    0    0    0  501 -0.00000000000E+00  0.00000000000E+00  0.76037611717E+03  0.76037611717E+03  0.00000000000E+00 0.  1.
          2   -1    0    0  501    0  0.00000000000E+00 -0.00000000000E+00 -0.32841528677E+02  0.32841528677E+02  0.00000000000E+00 0. -1.
         23    2    1    2    0    0 -0.41368555126E+02  0.97949784206E+02  0.50389347876E+03  0.52994174047E+03  0.12499637105E+03 0.  0.
         23    2    1    2    0    0  0.41368555126E+02 -0.97949784206E+02  0.22364110974E+03  0.26327590538E+03  0.89405474163E+02 0.  0.
          5    1    3    3  502    0  0.26738852107E+02  0.57687151370E+02  0.36056882255E+03  0.36616217642E+03  0.47000000000E+01 0.  1.
         -5    1    3    3    0  502 -0.68107407232E+02  0.40262632836E+02  0.14332465621E+03  0.16377956405E+03  0.47000000000E+01 0.  1.
        -11    1    4    4    0    0 -0.25806935710E+02 -0.25886999410E+02  0.35780932746E+02  0.51150853535E+02  0.00000000000E+00 0. -1.
         11    1    4    4    0    0  0.67175490835E+02 -0.72062784797E+02  0.18786017699E+03  0.21212505184E+03  0.00000000000E+00 0.  1.
<mgrwt>
<rscale>  0 0.15740833E+03</rscale>
<asrwt>0</asrwt>
<pdfrwt beam="2">  1        2 0.50525434E-02 0.16410244E+03</pdfrwt>
<pdfrwt beam="1">  1       -2 0.11698093E+00 0.16410244E+03</pdfrwt>
<totfact> 0.89795261E+02</totfact>
</mgrwt>
</event>
<event>
 8    1  0.1033707E-005  0.1688310E+03  0.7546771E-02  0.1184021E+00
         -1   -1    0    0    0  501 -0.00000000000E+00  0.00000000000E+00  0.37826648933E+02  0.37826648933E+02  0.00000000000E+00 0.  1.
          1   -1    0    0  501    0  0.00000000000E+00 -0.00000000000E+00 -0.76707709777E+03  0.76707709777E+03  0.00000000000E+00 0. -1.
         23    2    1    2    0    0  0.10146279546E+02 -0.11303079515E+03 -0.24433186452E+03  0.29698817485E+03  0.12500003335E+03 0.  0.
         23    2    1    2    0    0 -0.10146279546E+02  0.11303079515E+03 -0.48491858431E+03  0.50791557186E+03  0.99766162004E+02 0.  0.
          5    1    3    3  502    0  0.48988630511E+02 -0.82595895079E+02 -0.22334262295E+03  0.24315835381E+03  0.47000000000E+01 0. -1.
         -5    1    3    3    0  502 -0.38842350965E+02 -0.30434900068E+02 -0.20989241573E+02  0.53829821033E+02  0.47000000000E+01 0. -1.
        -11    1    4    4    0    0  0.36003247103E+02  0.19983336925E+02 -0.21070627523E+03  0.21469210973E+03  0.00000000000E+00 0. -1.
         11    1    4    4    0    0 -0.46149526649E+02  0.93047458222E+02 -0.27421230908E+03  0.29322346213E+03  0.00000000000E+00 0.  1.
<mgrwt>
<rscale>  0 0.16421305E+03</rscale>
<asrwt>0</asrwt>
<pdfrwt beam="2">  1        1 0.11801185E+00 0.16883103E+03</pdfrwt>
<pdfrwt beam="1">  1       -1 0.58194848E-02 0.16883103E+03</pdfrwt>
<totfact> 0.33882766E+03</totfact>
</mgrwt>
</event>
<event>
 8    1  0.1033707E-005  0.1340791E+03  0.7546771E-02  0.1248395E+00
          1   -1    0    0  501    0  0.00000000000E+00  0.00000000000E+00  0.21797854222E+03  0.21797854222E+03  0.00000000000E+00 0. -1.
         -1   -1    0    0    0  501 -0.00000000000E+00 -0.00000000000E+00 -0.58871677370E+02  0.58871677370E+02  0.00000000000E+00 0.  1.
         23    2    1    2    0    0  0.40545319521E+02  0.26620952706E+02  0.49959638209E+02  0.14308452868E+03  0.12499847535E+03 0.  0.
         23    2    1    2    0    0 -0.40545319521E+02 -0.26620952706E+02  0.10914722664E+03  0.13376569091E+03  0.60229103628E+02 0.  0.
          5    1    3    3  502    0  0.82717185186E+02  0.33183281300E+02  0.44727976891E+02  0.99829578782E+02  0.47000000000E+01 0.  1.
         -5    1    3    3    0  502 -0.42171865665E+02 -0.65623285942E+01  0.52316613177E+01  0.43254949895E+02  0.47000000000E+01 0.  1.
        -11    1    4    4    0    0  0.12815939773E+01  0.14502879927E+02  0.42792753636E+02  0.45201723120E+02  0.00000000000E+00 0. -1.
         11    1    4    4    0    0 -0.41826913498E+02 -0.41123832633E+02  0.66354473001E+02  0.88563967789E+02  0.00000000000E+00 0.  1.
<mgrwt>
<rscale>  0 0.11684493E+03</rscale>
<asrwt>0</asrwt>
<pdfrwt beam="1">  1        1 0.33535160E-01 0.13407914E+03</pdfrwt>
<pdfrwt beam="2">  1       -1 0.90571812E-02 0.13407914E+03</pdfrwt>
<totfact> 0.88271032E+03</totfact>
</mgrwt>
</event>
<event>
 8    1  0.1033707E-005  0.1469258E+03  0.7546771E-02  0.1215462E+00
          1   -1    0    0  501    0  0.00000000000E+00  0.00000000000E+00  0.50858448822E+02  0.50858448822E+02  0.00000000000E+00 0. -1.
         -1   -1    0    0    0  501 -0.00000000000E+00 -0.00000000000E+00 -0.48648842265E+03  0.48648842265E+03  0.00000000000E+00 0.  1.
         23    2    1    2    0    0  0.62764866438E+02  0.44950517419E+02 -0.38293061843E+03  0.41015002479E+03  0.12500882702E+03 0.  0.
         23    2    1    2    0    0 -0.62764866438E+02 -0.44950517419E+02 -0.52699355404E+02  0.12719684668E+03  0.86266089926E+02 0.  0.
          5    1    3    3  502    0  0.63285996315E+02  0.51183670487E+02 -0.10904935467E+03  0.13615703143E+03  0.47000000000E+01 0. -1.
         -5    1    3    3    0  502 -0.52112987683E+00 -0.62331530680E+01 -0.27388126375E+03  0.27399299336E+03  0.47000000000E+01 0. -1.
        -11    1    4    4    0    0 -0.60119849810E+02  0.22783473662E+01 -0.52568344603E+02  0.79893792388E+02  0.00000000000E+00 0.  1.
         11    1    4    4    0    0 -0.26450166283E+01 -0.47228864785E+02 -0.13101080114E+00  0.47303054296E+02  0.00000000000E+00 0. -1.
<mgrwt>
<rscale>  0 0.13842641E+03</rscale>
<asrwt>0</asrwt>
<pdfrwt beam="1">  1        1 0.78243764E-02 0.14692578E+03</pdfrwt>
<pdfrwt beam="2">  1       -1 0.74844376E-01 0.14692578E+03</pdfrwt>
<totfact> 0.16417301E+03</totfact>
</mgrwt>
</event>
<event>
 8    1  0.1033707E-005  0.1585208E+03  0.7546771E-02  0.1198402E+00
          2   -1    0    0  501    0  0.00000000000E+00  0.00000000000E+00  0.62080965870E+03  0.62080965870E+03  0.00000000000E+00 0. -1.
         -2   -1    0    0    0  501 -0.00000000000E+00 -0.00000000000E+00 -0.64114843035E+02  0.64114843035E+02  0.00000000000E+00 0.  1.
         23    2    1    2    0    0  0.95815513977E+02  0.18080991770E+02  0.57974731358E+02  0.16878956266E+03  0.12498524714E+03 0.  0.
         23    2    1    2    0    0 -0.95815513977E+02 -0.18080991770E+02  0.49872008430E+03  0.51613493908E+03  0.90366021626E+02 0.  0.
          5    1    3    3  502    0  0.14741562141E+02 -0.13623288237E+02 -0.35448952739E+02  0.41007632058E+02  0.47000000000E+01 0. -1.
         -5    1    3    3    0  502  0.81073951836E+02  0.31704280006E+02  0.93423684096E+02  0.12778193060E+03  0.47000000000E+01 0. -1.
        -11    1    4    4    0    0 -0.66200969641E+02  0.21540435549E+02  0.39661627467E+03  0.40267980838E+03  0.00000000000E+00 0.  1.
         11    1    4    4    0    0 -0.29614544337E+02 -0.39621427319E+02  0.10210380963E+03  0.11345513069E+03  0.00000000000E+00 0. -1.
<mgrwt>
<rscale>  0 0.15169812E+03</rscale>
<asrwt>0</asrwt>
<pdfrwt beam="1">  1        2 0.95509174E-01 0.15852081E+03</pdfrwt>
<pdfrwt beam="2">  1       -2 0.98638224E-02 0.15852081E+03</pdfrwt>
<totfact> 0.32250079E+03</totfact>
</mgrwt>
</event>
<event>
 8    1  0.1033707E-005  0.1320121E+03  0.7546771E-02  0.1237259E+00
         -4   -1    0    0    0  501 -0.00000000000E+00  0.00000000000E+00  0.14938622473E+03  0.14938622473E+03  0.00000000000E+00 0.  1.
          4   -1    0    0  501    0  0.00000000000E+00 -0.00000000000E+00 -0.91763306893E+02  0.91763306893E+02  0.00000000000E+00 0. -1.
         23    2    1    2    0    0 -0.25028880273E+02 -0.34294791737E+02  0.41630984904E+02  0.13842084587E+03  0.12499845631E+03 0.  0.
         23    2    1    2    0    0  0.25028880273E+02  0.34294791737E+02  0.15991932937E+02  0.10272868575E+03  0.92167583073E+02 0.  0.
          5    1    3    3  502    0 -0.62466359130E+02  0.52606257759E+01  0.53423938887E+02  0.82498045144E+02  0.47000000000E+01 0. -1.
         -5    1    3    3    0  502  0.37437478856E+02 -0.39555417513E+02 -0.11792953983E+02  0.55922800729E+02  0.47000000000E+01 0. -1.
        -11    1    4    4    0    0 -0.12166777124E+02 -0.28673183837E+01 -0.30235705448E+02  0.32717730121E+02  0.00000000000E+00 0. -1.
         11    1    4    4    0    0  0.37195657397E+02  0.37162110121E+02  0.46227638386E+02  0.70010955632E+02  0.00000000000E+00 0.  1.
<mgrwt>
<rscale>  0 0.12360938E+03</rscale>
<asrwt>0</asrwt>
<pdfrwt beam="2">  1        4 0.14117432E-01 0.13201209E+03</pdfrwt>
<pdfrwt beam="1">  1       -4 0.22982496E-01 0.13201209E+03</pdfrwt>
<totfact> 0.12026904E+03</totfact>
</mgrwt>
</event>
<event>
 7    1  0.1033707E-005  0.1309301E+03  0.7546771E-02  0.1249935E+00
         -1   -1    0    0    0  501 -0.00000000000E+00  0.00000000000E+00  0.16525841477E+03  0.16525841477E+03  0.00000000000E+00 0.  1.
          1   -1    0    0  501    0  0.00000000000E+00 -0.00000000000E+00 -0.75739658447E+02  0.75739658447E+02  0.00000000000E+00 0. -1.
         23    2    1    2    0    0  0.14482659925E+02 -0.37291547050E+01 -0.31571199237E+01  0.80587624548E+02  0.79124862027E+02 0.  0.
          5    1    1    2  502    0 -0.68548798973E+02  0.23057985327E+02  0.42525380965E+02  0.84030390658E+02  0.47000000000E+01 0. -1.
         -5    1    1    2    0  502  0.54066139049E+02 -0.19328830622E+02  0.50150495284E+02  0.76380058013E+02  0.47000000000E+01 0.  1.
        -11    1    3    3    0    0  0.39700599022E+01  0.37012755496E+02 -0.84719511750E+01  0.38176948565E+02  0.00000000000E+00 0. -1.
         11    1    3    3    0    0  0.10512600022E+02 -0.40741910201E+02  0.53148312513E+01  0.42410675983E+02  0.00000000000E+00 0.  1.
<mgrwt>
<rscale>  0 0.11594803E+03</rscale>
<asrwt>0</asrwt>
<pdfrwt beam="2">  1        1 0.11652255E-01 0.13093011E+03</pdfrwt>
<pdfrwt beam="1">  1       -1 0.25424371E-01 0.13093011E+03</pdfrwt>
<totfact> 0.66791184E+03</totfact>
</mgrwt>
</event>
<event>
 8    1  0.1033707E-005  0.1451579E+03  0.7546771E-02  0.1216312E+00
          2   -1    0    0  501    0  0.00000000000E+00  0.00000000000E+00  0.23692773228E+03  0.23692773228E+03  0.00000000000E+00 0. -1.
         -2   -1    0    0    0  501 -0.00000000000E+00 -0.00000000000E+00 -0.83042697244E+02  0.83042697244E+02  0.00000000000E+00 0.  1.
         23    2    1    2    0    0  0.45461421428E+02  0.58135539550E+02  0.28641452501E+02  0.14795657587E+03  0.12499733495E+03 0.  0.
         23    2    1    2    0    0 -0.45461421428E+02 -0.58135539550E+02  0.12524358253E+03  0.17201385365E+03  0.91958300792E+02 0.  0.
          5    1    3    3  502    0  0.39224294134E+02 -0.11166418772E+02 -0.34693434602E+02  0.53749033136E+02  0.47000000000E+01 0. -1.
         -5    1    3    3    0  502  0.62371272936E+01  0.69301958323E+02  0.63334887103E+02  0.94207542737E+02  0.47000000000E+01 0. -1.
        -11    1    4    4    0    0 -0.52524926678E+02  0.62215525928E+01  0.62177879989E+02  0.81631270964E+02  0.00000000000E+00 0. -1.
         11    1    4    4    0    0  0.70635052503E+01 -0.64357092143E+02  0.63065702544E+02  0.90382582685E+02  0.00000000000E+00 0.  1.
<mgrwt>
<rscale>  0 0.13780606E+03</rscale>
<asrwt>0</asrwt>
<pdfrwt beam="1">  1        2 0.36450420E-01 0.14515790E+03</pdfrwt>
<pdfrwt beam="2">  1       -2 0.12775800E-01 0.14515790E+03</pdfrwt>
<totfact> 0.60458705E+03</totfact>
</mgrwt>
</event>
<event>
 8    1  0.1033707E-005  0.1231282E+03  0.7546771E-02  0.1247570E+00
         -1   -1    0    0    0  501 -0.00000000000E+00  0.00000000000E+00  0.20079202843E+03  0.20079202843E+03  0.00000000000E+00 0.  1.
          1   -1    0    0  501    0  0.00000000000E+00 -0.00000000000E+00 -0.90920393602E+02  0.90920393602E+02  0.00000000000E+00 0. -1.
         23    2    1    2    0    0  0.36465767871E+02  0.21426393199E+02  0.13939559018E+03  0.18598839669E+03  0.11563611283E+03 0.  0.
         23    2    1    2    0    0 -0.36465767871E+02 -0.21426393199E+02 -0.29523955349E+02  0.10572402534E+03  0.92287935521E+02 0.  0.
          5    1    3    3  502    0  0.10449597599E+02 -0.16548223266E+02 -0.14810701885E+02  0.24989691347E+02  0.47000000000E+01 0. -1.
         -5    1    3    3    0  502  0.26016170271E+02  0.37974616466E+02  0.15420629206E+03  0.16099870534E+03  0.47000000000E+01 0.  1.
        -11    1    4    4    0    0  0.28830858343E+02 -0.40119044196E+00  0.44479394487E+01  0.29174706715E+02  0.00000000000E+00 0.  1.
         11    1    4    4    0    0 -0.65296626214E+02 -0.21025202757E+02 -0.33971894798E+02  0.76549318625E+02  0.00000000000E+00 0. -1.
<mgrwt>
<rscale>  0 0.11732861E+03</rscale>
<asrwt>0</asrwt>
<pdfrwt beam="2">  1        1 0.13987753E-01 0.12312820E+03</pdfrwt>
<pdfrwt beam="1">  1       -1 0.30891081E-01 0.12312820E+03</pdfrwt>
<totfact> 0.37911787E+03</totfact>
</mgrwt>
</event>
<event>
 7    1  0.1033707E-005  0.1484579E+03  0.7546771E-02  0.1222166E+00
         -1   -1    0    0    0  501 -0.00000000000E+00  0.00000000000E+00  0.51092132197E+02  0.51092132197E+02  0.00000000000E+00 0.  1.
          1   -1    0    0  501    0  0.00000000000E+00 -0.00000000000E+00 -0.29707399842E+03  0.29707399842E+03  0.00000000000E+00 0. -1.
         23    2    1    2    0    0 -0.32540513680E+02 -0.16315164173E+02 -0.86900374062E+02  0.13057322761E+03  0.90402561605E+02 0.  0.
          5    1    1    2  502    0 -0.94976112515E+01  0.64955884646E+02 -0.13234624189E+03  0.14780760912E+03  0.47000000000E+01 0. -1.
         -5    1    1    2    0  502  0.42038124931E+02 -0.48640720473E+02 -0.26735250268E+02  0.69785293886E+02  0.47000000000E+01 0.  1.
        -11    1    3    3    0    0 -0.29532533860E+02 -0.31073928073E+02 -0.50228861988E+00  0.42872040492E+02  0.00000000000E+00 0.  1.
         11    1    3    3    0    0 -0.30079798198E+01  0.14758763900E+02 -0.86398085442E+02  0.87701187122E+02  0.00000000000E+00 0. -1.
<mgrwt>
<rscale>  0 0.13363025E+03</rscale>
<asrwt>0</asrwt>
<pdfrwt beam="2">  1        1 0.45703692E-01 0.14845791E+03</pdfrwt>
<pdfrwt beam="1">  1       -1 0.78603280E-02 0.14845791E+03</pdfrwt>
<totfact> 0.75091275E+03</totfact>
</mgrwt>
</event>
<event>
 8    1  0.1033707E-005  0.1927779E+03  0.7546771E-02  0.1160338E+00
         -3   -1    0    0    0  501 -0.00000000000E+00  0.00000000000E+00  0.12038094799E+03  0.12038094799E+03  0.00000000000E+00 0.  1.
          3   -1    0    0  501    0  0.00000000000E+00 -0.00000000000E+00 -0.28179848220E+03  0.28179848220E+03  0.00000000000E+00 0. -1.
         23    2    1    2    0    0 -0.57484152756E+02  0.13503345443E+03 -0.66879378064E+02  0.20404947449E+03  0.12499950078E+03 0.  0.
         23    2    1    2    0    0  0.57484152756E+02 -0.13503345443E+03 -0.94538156146E+02  0.19812995570E+03  0.93699278251E+02 0.  0.
          5    1    3    3  502    0  0.29886330221E+02  0.68876279962E+02  0.66176583628E+00  0.75230729157E+02  0.47000000000E+01 0. -1.
         -5    1    3    3    0  502 -0.87370482978E+02  0.66157174468E+02 -0.67541143900E+02  0.12881874533E+03  0.47000000000E+01 0. -1.
        -11    1    4    4    0    0 -0.78490774864E+01 -0.16909194372E+02 -0.54089658711E+02  0.57212062113E+02  0.00000000000E+00 0. -1.
         11    1    4    4    0    0  0.65333230243E+02 -0.11812426006E+03 -0.40448497435E+02  0.14091789359E+03  0.00000000000E+00 0.  1.
<mgrwt>
<rscale>  0 0.18793411E+03</rscale>
<asrwt>0</asrwt>
<pdfrwt beam="2">  1        3 0.43353612E-01 0.19277795E+03</pdfrwt>
<pdfrwt beam="1">  1       -3 0.18520146E-01 0.19277795E+03</pdfrwt>
<totfact> 0.33185609E+02</totfact>
</mgrwt>
</event>
<event>
 8    1  0.1033707E-005  0.1372856E+03  0.7546771E-02  0.1227396E+00
         -2   -1    0    0    0  501 -0.00000000000E+00  0.00000000000E+00  0.13050869131E+03  0.13050869131E+03  0.00000000000E+00 0.  1.
          2   -1    0    0  501    0  0.00000000000E+00 -0.00000000000E+00 -0.15478911249E+03  0.15478911249E+03  0.00000000000E+00 0. -1.
         23    2    1    2    0    0 -0.81141508420E+01 -0.56175600852E+02  0.56445212436E+02  0.14843654939E+03  0.12500323841E+03 0.  0.
         23    2    1    2    0    0  0.81141508420E+01  0.56175600852E+02 -0.80725633620E+02  0.13686125441E+03  0.94830572398E+02 0.  0.
          5    1    3    3  502    0 -0.63585170796E+02 -0.10943784638E+02  0.35095458516E+02  0.73597700887E+02  0.47000000000E+01 0.  1.
         -5    1    3    3    0  502  0.55471019954E+02 -0.45231816214E+02  0.21349753919E+02  0.74838848503E+02  0.47000000000E+01 0.  1.
        -11    1    4    4    0    0  0.49628550324E+01  0.22749503338E+02 -0.96854283731E+02  0.99613865046E+02  0.00000000000E+00 0. -1.
         11    1    4    4    0    0  0.31512958096E+01  0.33426097514E+02  0.16128650111E+02  0.37247389368E+02  0.00000000000E+00 0.  1.
<mgrwt>
<rscale>  0 0.13004023E+03</rscale>
<asrwt>0</asrwt>
<pdfrwt beam="2">  1        2 0.23813710E-01 0.13728564E+03</pdfrwt>
<pdfrwt beam="1">  1       -2 0.20078260E-01 0.13728564E+03</pdfrwt>
<totfact> 0.45429051E+03</totfact>
</mgrwt>
</event>
<event>
 8    1  0.1033707E-005  0.1128424E+03  0.7546771E-02  0.1262955E+00
          3   -1    0    0  501    0  0.00000000000E+00  0.00000000000E+00  0.50376226101E+02  0.50376226101E+02  0.00000000000E+00 0. -1.
         -3   -1    0    0    0  501 -0.00000000000E+00 -0.00000000000E+00 -0.22841883677E+03  0.22841883677E+03  0.00000000000E+00 0.  1.
         23    2    1    2    0    0 -0.12534563817E+02  0.52888997224E+01 -0.12355030347E+03  0.16732631496E+03  0.11201933066E+03 0.  0.
         23    2    1    2    0    0  0.12534563817E+02 -0.52888997224E+01 -0.54492307199E+02  0.11146874791E+03  0.96284902583E+02 0.  0.
          5    1    3    3  502    0 -0.11830548984E+02 -0.51792455591E+02 -0.76197212856E+02  0.93008201748E+02  0.47000000000E+01 0. -1.
         -5    1    3    3    0  502 -0.70401483306E+00  0.57081355314E+02 -0.47353090614E+02  0.74318113216E+02  0.47000000000E+01 0.  1.
        -11    1    4    4    0    0 -0.21472141534E+02  0.36461857918E+02 -0.15829235063E+02  0.45178364596E+02  0.00000000000E+00 0.  1.
         11    1    4    4    0    0  0.34006705351E+02 -0.41750757640E+02 -0.38663072136E+02  0.66290383310E+02  0.00000000000E+00 0. -1.
<mgrwt>
<rscale>  0 0.10872191E+03</rscale>
<asrwt>0</asrwt>
<pdfrwt beam="1">  1        3 0.77501887E-02 0.11284245E+03</pdfrwt>
<pdfrwt beam="2">  1       -3 0.35141359E-01 0.11284245E+03</pdfrwt>
<totfact> 0.19853780E+03</totfact>
</mgrwt>
</event>
<event>
 8    1  0.1033707E-005  0.1336745E+03  0.7546771E-02  0.1235115E+00
         -1   -1    0    0    0  501 -0.00000000000E+00  0.00000000000E+00  0.25067178825E+03  0.25067178825E+03  0.00000000000E+00 0.  1.
          1   -1    0    0  501    0  0.00000000000E+00 -0.00000000000E+00 -0.58024144298E+02  0.58024144298E+02  0.00000000000E+00 0. -1.
         23    2    1    2    0    0 -0.18074366391E+01  0.47333900163E+02  0.14089006968E+03  0.19421347612E+03  0.12500039056E+03 0.  0.
         23    2    1    2    0    0  0.18074366391E+01 -0.47333900163E+02  0.51757574275E+02  0.11448245643E+03  0.90463370507E+02 0.  0.
          5    1    3    3  502    0 -0.85305986272E+01  0.88030700565E+02  0.11550203378E+03  0.14555062749E+03  0.47000000000E+01 0.  1.
         -5    1    3    3    0  502  0.67231619881E+01 -0.40696800402E+02  0.25388035897E+02  0.48662848630E+02  0.47000000000E+01 0.  1.
        -11    1    4    4    0    0 -0.34299142394E+02 -0.13326613033E+02  0.53405304877E+02  0.64854887039E+02  0.00000000000E+00 0.  1.
         11    1    4    4    0    0  0.36106579033E+02 -0.34007287130E+02 -0.16477306014E+01  0.49627569390E+02  0.00000000000E+00 0. -1.
<mgrwt>
<rscale>  0 0.12497072E+03</rscale>
<asrwt>0</asrwt>
<pdfrwt beam="2">  1        1 0.89267916E-02 0.13367446E+03</pdfrwt>
<pdfrwt beam="1">  1       -1 0.38564890E-01 0.13367446E+03</pdfrwt>
<totfact> 0.47068869E+03</totfact>
</mgrwt>
</event>
<event>
 8    1  0.1033707E-005  0.1976417E+03  0.7546771E-02  0.1155057E+00
         -1   -1    0    0    0  501 -0.00000000000E+00  0.00000000000E+00  0.39608377059E+03  0.39608377059E+03  0.00000000000E+00 0.  1.
          1   -1    0    0  501    0  0.00000000000E+00 -0.00000000000E+00 -0.20543562393E+03  0.20543562393E+03  0.00000000000E+00 0. -1.
         23    2    1    2    0    0 -0.13667616469E+03  0.80426608585E+02  0.32102245652E+03  0.37698498044E+03  0.11795526495E+03 0.  0.
         23    2    1    2    0    0  0.13667616469E+03 -0.80426608585E+02 -0.13037430986E+03  0.22453441407E+03  0.90936401233E+02 0.  0.
          5    1    3    3  502    0  0.13105355574E+02 -0.73805771436E+01  0.69875459060E+02  0.71630252286E+02  0.47000000000E+01 0. -1.
         -5    1    3    3    0  502 -0.14978152026E+03  0.87807185729E+02  0.25114699746E+03  0.30535472816E+03  0.47000000000E+01 0.  1.
        -11    1    4    4    0    0  0.43694172372E+02 -0.76632658436E+01  0.53037225238E+01  0.44677016633E+02  0.00000000000E+00 0.  1.
         11    1    4    4    0    0  0.92981992316E+02 -0.72763342742E+02 -0.13567803239E+03  0.17985739744E+03  0.00000000000E+00 0. -1.
<mgrwt>
<rscale>  0 0.19382373E+03</rscale>
<asrwt>0</asrwt>
<pdfrwt beam="2">  1        1 0.31605481E-01 0.19764174E+03</pdfrwt>
<pdfrwt beam="1">  1       -1 0.60935965E-01 0.19764174E+03</pdfrwt>
<totfact> 0.40278345E+02</totfact>
</mgrwt>
</event>
<event>
 8    1  0.1033707E-005  0.1382786E+03  0.7546771E-02  0.1227494E+00
          1   -1    0    0  501    0  0.00000000000E+00  0.00000000000E+00  0.83743515596E+02  0.83743515596E+02  0.00000000000E+00 0. -1.
         -1   -1    0    0    0  501 -0.00000000000E+00 -0.00000000000E+00 -0.25448663189E+03  0.25448663189E+03  0.00000000000E+00 0.  1.
         23    2    1    2    0    0  0.49667996117E+02 -0.31976539505E+02 -0.18325478801E+03  0.22957198159E+03  0.12502627119E+03 0.  0.
         23    2    1    2    0    0 -0.49667996117E+02  0.31976539505E+02  0.12511671714E+02  0.10865816589E+03  0.90336294861E+02 0.  0.
          5    1    3    3  502    0 -0.35962013622E+02  0.56952429538E+01 -0.21198724032E+02  0.42393137612E+02  0.47000000000E+01 0. -1.
         -5    1    3    3    0  502  0.85630009740E+02 -0.37671782459E+02 -0.16205606397E+03  0.18717884398E+03  0.47000000000E+01 0. -1.
        -11    1    4    4    0    0 -0.21748814284E+02 -0.30220964356E+02 -0.66896938496E+01  0.37829480742E+02  0.00000000000E+00 0.  1.
         11    1    4    4    0    0 -0.27919181834E+02  0.62197503862E+02  0.19201365563E+02  0.70828685152E+02  0.00000000000E+00 0. -1.
<mgrwt>
<rscale>  0 0.12997424E+03</rscale>
<asrwt>0</asrwt>
<pdfrwt beam="1">  1        1 0.12883617E-01 0.13827862E+03</pdfrwt>
<pdfrwt beam="2">  1       -1 0.39151790E-01 0.13827862E+03</pdfrwt>
<totfact> 0.28294325E+03</totfact>
</mgrwt>
</event>
<event>
 6    1  0.1033707E-005  0.1341606E+03  0.7546771E-02  0.1283627E+00
          4   -1    0    0  501    0  0.00000000000E+00  0.00000000000E+00  0.23706313982E+03  0.23706313982E+03  0.00000000000E+00 0. -1.
         -4   -1    0    0    0  501 -0.00000000000E+00 -0.00000000000E+00 -0.36671144325E+02  0.36671144325E+02  0.00000000000E+00 0.  1.
          5    1    1    2  502    0 -0.28863228376E+02 -0.28856468575E+02  0.12024066614E+03  0.12706568980E+03  0.47000000000E+01 0. -1.
         -5    1    1    2    0  502  0.18714405631E+02  0.34248469181E+02 -0.16392868977E+02  0.42591111428E+02  0.47000000000E+01 0.  1.
        -11    1    1    2    0    0  0.28015256787E+01 -0.17758146960E+02  0.23274666519E+02  0.29409359584E+02  0.00000000000E+00 0. -1.
         11    1    1    2    0    0  0.73472970660E+01  0.12366146354E+02  0.73269531808E+02  0.74668123327E+02  0.00000000000E+00 0.  1.
<mgrwt>
<rscale>  0 0.98432612E+02</rscale>
<asrwt>0</asrwt>
<pdfrwt beam="1">  1        4 0.36471251E-01 0.13416059E+03</pdfrwt>
<pdfrwt beam="2">  1       -4 0.56417146E-02 0.13416059E+03</pdfrwt>
<totfact> 0.23461463E+03</totfact>
</mgrwt>
</event>
<event>
 8    1  0.1033707E-005  0.1593026E+03  0.7546771E-02  0.1196827E+00
          2   -1    0    0  501    0  0.00000000000E+00  0.00000000000E+00  0.46838542760E+03  0.46838542760E+03  0.00000000000E+00 0. -1.
         -2   -1    0    0    0  501 -0.00000000000E+00 -0.00000000000E+00 -0.47440715275E+02  0.47440715275E+02  0.00000000000E+00 0.  1.
         23    2    1    2    0    0  0.44770947000E+02 -0.88019120803E+02  0.18914488658E+03  0.24729156395E+03  0.12500210461E+03 0.  0.
         23    2    1    2    0    0 -0.44770947000E+02  0.88019120803E+02  0.23179982574E+03  0.26853457893E+03  0.92886261318E+02 0.  0.
          5    1    3    3  502    0 -0.35989340675E+02 -0.85585862091E+01  0.87079228885E+02  0.94727842493E+02  0.47000000000E+01 0. -1.
         -5    1    3    3    0  502  0.80760287675E+02 -0.79460534594E+02  0.10206565769E+03  0.15256372145E+03  0.47000000000E+01 0. -1.
        -11    1    4    4    0    0 -0.11386396309E+02 -0.16445562656E+02  0.13195600436E+02  0.23963105451E+02  0.00000000000E+00 0.  1.
         11    1    4    4    0    0 -0.33384550691E+02  0.10446468346E+03  0.21860422531E+03  0.24457147348E+03  0.00000000000E+00 0. -1.
<mgrwt>
<rscale>  0 0.15300633E+03</rscale>
<asrwt>0</asrwt>
<pdfrwt beam="1">  1        2 0.72059294E-01 0.15930263E+03</pdfrwt>
<pdfrwt beam="2">  1       -2 0.72985719E-02 0.15930263E+03</pdfrwt>
<totfact> 0.70709178E+03</totfact>
</mgrwt>
</event>
<event>
 8    1  0.1033707E-005  0.1333533E+03  0.7546771E-02  0.1228855E+00
         -1   -1    0    0    0  501 -0.00000000000E+00  0.00000000000E+00  0.24931399907E+03  0.24931399907E+03  0.00000000000E+00 0.  1.
          1   -1    0    0  501    0  0.00000000000E+00 -0.00000000000E+00 -0.72398393608E+02  0.72398393608E+02  0.00000000000E+00 0. -1.
         23    2    1    2    0    0 -0.43170203613E+02 -0.17146240976E+02  0.15179005791E+03  0.20204781231E+03  0.12500174686E+03 0.  0.
         23    2    1    2    0    0  0.43170203613E+02  0.17146240976E+02  0.25125547549E+02  0.11966458037E+03  0.10738090424E+03 0.  0.
          5    1    3    3  502    0 -0.81509745319E+02 -0.15123790602E+02  0.13786294786E+03  0.16093741024E+03  0.47000000000E+01 0.  1.
         -5    1    3    3    0  502  0.38339541706E+02 -0.20224503735E+01  0.13927110058E+02  0.41110402069E+02  0.47000000000E+01 0.  1.
        -11    1    4    4    0    0  0.16574167642E+01  0.20150715324E+02  0.61282322094E+02  0.64531553210E+02  0.00000000000E+00 0.  1.
         11    1    4    4    0    0  0.41512786849E+02 -0.30044743485E+01 -0.36156774545E+02  0.55133027158E+02  0.00000000000E+00 0. -1.
<mgrwt>
<rscale>  0 0.12906145E+03</rscale>
<asrwt>0</asrwt>
<pdfrwt beam="2">  1        1 0.11138215E-01 0.13335328E+03</pdfrwt>
<pdfrwt beam="1">  1       -1 0.38356000E-01 0.13335328E+03</pdfrwt>
<totfact> 0.35431626E+03</totfact>
</mgrwt>
</event>
<event>
 8    1  0.1033707E-005  0.1496491E+03  0.7546771E-02  0.1210205E+00
          2   -1    0    0  501    0  0.00000000000E+00  0.00000000000E+00  0.43978468358E+03  0.43978468358E+03  0.00000000000E+00 0. -1.
         -2   -1    0    0    0  501 -0.00000000000E+00 -0.00000000000E+00 -0.42719697364E+02  0.42719697364E+02  0.00000000000E+00 0.  1.
         23    2    1    2    0    0 -0.22684235641E+02  0.79082323238E+02  0.18928601581E+03  0.24129661746E+03  0.12500509358E+03 0.  0.
         23    2    1    2    0    0  0.22684235641E+02 -0.79082323238E+02  0.20777897041E+03  0.24120776349E+03  0.90777178997E+02 0.  0.
          5    1    3    3  502    0 -0.12122376783E+02  0.68940052730E+02  0.20657189268E+03  0.21815984904E+03  0.47000000000E+01 0.  1.
         -5    1    3    3    0  502 -0.10561858857E+02  0.10142270508E+02 -0.17285876870E+02  0.23136768417E+02  0.47000000000E+01 0.  1.
        -11    1    4    4    0    0  0.57293776418E+01 -0.53213281725E+02  0.31222018286E+02  0.61962033100E+02  0.00000000000E+00 0.  1.
         11    1    4    4    0    0  0.16954857999E+02 -0.25869041513E+02  0.17655695212E+03  0.17924573039E+03  0.00000000000E+00 0. -1.
<mgrwt>
<rscale>  0 0.14234753E+03</rscale>
<asrwt>0</asrwt>
<pdfrwt beam="1">  1        2 0.67659179E-01 0.14964913E+03</pdfrwt>
<pdfrwt beam="2">  1       -2 0.65722614E-02 0.14964913E+03</pdfrwt>
<totfact> 0.88596086E+03</totfact>
</mgrwt>
</event>
<event>
 8    1  0.1033707E-005  0.1906980E+03  0.7546771E-02  0.1162598E+00
         -1   -1    0    0    0  501 -0.00000000000E+00  0.00000000000E+00  0.40539353883E+03  0.40539353883E+03  0.00000000000E+00 0.  1.
          1   -1    0    0  501    0  0.00000000000E+00 -0.00000000000E+00 -0.87899492474E+02  0.87899492474E+02  0.00000000000E+00 0. -1.
         23    2    1    2    0    0  0.13865103957E+03  0.38945200073E+02  0.23808585154E+03  0.30504199026E+03  0.12499961494E+03 0.  0.
         23    2    1    2    0    0 -0.13865103957E+03 -0.38945200073E+02  0.79408194818E+02  0.18825104105E+03  0.91607607049E+02 0.  0.
          5    1    3    3  502    0  0.84395879533E+02  0.30794193720E+02  0.23297464710E+03  0.24974031121E+03  0.47000000000E+01 0.  1.
         -5    1    3    3    0  502  0.54255160036E+02  0.81510063537E+01  0.51112044367E+01  0.55301679051E+02  0.47000000000E+01 0.  1.
        -11    1    4    4    0    0 -0.77579960935E+02 -0.64263312929E+02  0.28155887476E+02  0.10460008474E+03  0.00000000000E+00 0. -1.
         11    1    4    4    0    0 -0.61071078634E+02  0.25318112855E+02  0.51252307341E+02  0.83650956312E+02  0.00000000000E+00 0.  1.
<mgrwt>
<rscale>  0 0.18548442E+03</rscale>
<asrwt>0</asrwt>
<pdfrwt beam="2">  1        1 0.13522999E-01 0.19069804E+03</pdfrwt>
<pdfrwt beam="1">  1       -1 0.62368236E-01 0.19069804E+03</pdfrwt>
<totfact> 0.11440705E+03</totfact>
</mgrwt>
</event>
<event>
 7    1  0.1033707E-005  0.1876325E+03  0.7546771E-02  0.1170893E+00
         -2   -1    0    0    0  501 -0.00000000000E+00  0.00000000000E+00  0.20192768017E+02  0.20192768017E+02  0.00000000000E+00 0.  1.
          2   -1    0    0  501    0  0.00000000000E+00 -0.00000000000E+00 -0.14519408367E+04  0.14519408367E+04  0.00000000000E+00 0. -1.
         23    2    1    2    0    0  0.38632992282E+02  0.11096452248E+03 -0.49019967123E+03  0.51207145085E+03  0.90087844674E+02 0.  0.
          5    1    1    2  502    0  0.35118788345E+02  0.91550537237E+01 -0.35119507786E+03  0.35309661144E+03  0.47000000000E+01 0. -1.
         -5    1    1    2    0  502 -0.73751780627E+02 -0.12011957620E+03 -0.59035331961E+03  0.60696554244E+03  0.47000000000E+01 0.  1.
        -11    1    3    3    0    0  0.67845802547E+02  0.86528581622E+02 -0.36753282282E+03  0.38362823699E+03  0.00000000000E+00 0.  1.
         11    1    3    3    0    0 -0.29212810264E+02  0.24435940856E+02 -0.12266684840E+03  0.12844321386E+03  0.00000000000E+00 0. -1.
<mgrwt>
<rscale>  0 0.17684375E+03</rscale>
<asrwt>0</asrwt>
<pdfrwt beam="2">  1        2 0.22337556E+00 0.18763250E+03</pdfrwt>
<pdfrwt beam="1">  1       -2 0.31065791E-02 0.18763250E+03</pdfrwt>
<totfact> 0.57729013E+03</totfact>
</mgrwt>
</event>
<event>
 8    1  0.1033707E-005  0.1842539E+03  0.7546771E-02  0.1169071E+00
          1   -1    0    0  501    0  0.00000000000E+00  0.00000000000E+00  0.77783337485E+03  0.77783337485E+03  0.00000000000E+00 0. -1.
         -1   -1    0    0    0  501 -0.00000000000E+00 -0.00000000000E+00 -0.42162252926E+02  0.42162252926E+02  0.00000000000E+00 0.  1.
         23    2    1    2    0    0  0.12142835353E+03  0.59838563177E+02  0.27223493129E+03  0.32872686617E+03  0.12499598412E+03 0.  0.
         23    2    1    2    0    0 -0.12142835353E+03 -0.59838563177E+02  0.46343619063E+03  0.49126876160E+03  0.90809661675E+02 0.  0.
          5    1    3    3  502    0  0.68612228022E+02  0.97302871935E+02  0.16928307676E+03  0.20701289042E+03  0.47000000000E+01 0.  1.
         -5    1    3    3    0  502  0.52816125503E+02 -0.37464308757E+02  0.10295185452E+03  0.12171397575E+03  0.47000000000E+01 0.  1.
        -11    1    4    4    0    0 -0.13621031946E+03 -0.53817925592E+02  0.42906917387E+03  0.45337619722E+03  0.00000000000E+00 0. -1.
         11    1    4    4    0    0  0.14781965938E+02 -0.60206375854E+01  0.34367016763E+02  0.37892564378E+02  0.00000000000E+00 0.  1.
<mgrwt>
<rscale>  0 0.17869620E+03</rscale>
<asrwt>0</asrwt>
<pdfrwt beam="1">  1        1 0.11966666E+00 0.18425389E+03</pdfrwt>
<pdfrwt beam="2">  1       -1 0.64865011E-02 0.18425389E+03</pdfrwt>
<totfact> 0.28264620E+03</totfact>
</mgrwt>
</event>
<event>
 8    1  0.1033707E-005  0.1330969E+03  0.7546771E-02  0.1242553E+00
          2   -1    0    0  501    0  0.00000000000E+00  0.00000000000E+00  0.12987868897E+03  0.12987868897E+03  0.00000000000E+00 0. -1.
         -2   -1    0    0    0  501 -0.00000000000E+00 -0.00000000000E+00 -0.95939651216E+02  0.95939651216E+02  0.00000000000E+00 0.  1.
         23    2    1    2    0    0  0.27846492346E+02  0.36264952451E+02  0.86710089216E+01  0.13337903712E+03  0.12499682890E+03 0.  0.
         23    2    1    2    0    0 -0.27846492346E+02 -0.36264952451E+02  0.25268028832E+02  0.92439303064E+02  0.76262556721E+02 0.  0.
          5    1    3    3  502    0  0.66456803392E+02  0.18213313699E+02 -0.30313024981E+02  0.75426792299E+02  0.47000000000E+01 0.  1.
         -5    1    3    3    0  502 -0.38610311046E+02  0.18051638753E+02  0.38984033903E+02  0.57952244823E+02  0.47000000000E+01 0.  1.
        -11    1    4    4    0    0 -0.39254923262E+02 -0.26950092531E+02 -0.14708744356E+02  0.49835766757E+02  0.00000000000E+00 0.  1.
         11    1    4    4    0    0  0.11408430916E+02 -0.93148599202E+01  0.39976773189E+02  0.42603536307E+02  0.00000000000E+00 0. -1.
<mgrwt>
<rscale>  0 0.12033011E+03</rscale>
<asrwt>0</asrwt>
<pdfrwt beam="1">  1        2 0.19981337E-01 0.13309689E+03</pdfrwt>
<pdfrwt beam="2">  1       -2 0.14759946E-01 0.13309689E+03</pdfrwt>
<totfact> 0.91964237E+03</totfact>
</mgrwt>
</event>
<event>
 8    1  0.1033707E-005  0.1310571E+03  0.7546771E-02  0.1239849E+00
         -1   -1    0    0    0  501 -0.00000000000E+00  0.00000000000E+00  0.33172813590E+02  0.33172813590E+02  0.00000000000E+00 0.  1.
          1   -1    0    0  501    0  0.00000000000E+00 -0.00000000000E+00 -0.43439966644E+03  0.43439966644E+03  0.00000000000E+00 0. -1.
         23    2    1    2    0    0  0.39382437206E+02 -0.57708181358E+00 -0.15850297574E+03  0.20566758099E+03  0.12499860467E+03 0.  0.
         23    2    1    2    0    0 -0.39382437206E+02  0.57708181358E+00 -0.24272387711E+03  0.26190489903E+03  0.90155345015E+02 0.  0.
          5    1    3    3  502    0  0.50507789431E+02 -0.25489233545E+02 -0.13911703145E+02  0.58449664706E+02  0.47000000000E+01 0.  1.
         -5    1    3    3    0  502 -0.11125352225E+02  0.24912151731E+02 -0.14459127259E+03  0.14721791629E+03  0.47000000000E+01 0.  1.
        -11    1    4    4    0    0  0.18804031761E+02  0.22901422062E+02 -0.12758856555E+03  0.13098438381E+03  0.00000000000E+00 0. -1.
         11    1    4    4    0    0 -0.58186468967E+02 -0.22324340248E+02 -0.11513531156E+03  0.13092051522E+03  0.00000000000E+00 0.  1.
<mgrwt>
<rscale>  0 0.12199046E+03</rscale>
<asrwt>0</asrwt>
<pdfrwt beam="2">  1        1 0.66830722E-01 0.13105709E+03</pdfrwt>
<pdfrwt beam="1">  1       -1 0.51035094E-02 0.13105709E+03</pdfrwt>
<totfact> 0.88215734E+03</totfact>
</mgrwt>
</event>
<event>
 7    1  0.1033707E-005  0.2575053E+03  0.7546771E-02  0.1119725E+00
         -2   -1    0    0    0  501 -0.00000000000E+00  0.00000000000E+00  0.61810834305E+02  0.61810834305E+02  0.00000000000E+00 0.  1.
          2   -1    0    0  501    0  0.00000000000E+00 -0.00000000000E+00 -0.83308745662E+03  0.83308745662E+03  0.00000000000E+00 0. -1.
         23    2    1    2    0    0  0.42314322351E+02 -0.16812368280E+03 -0.37077173543E+03  0.41875423599E+03  0.88472344670E+02 0.  0.
          5    1    1    2  502    0  0.95190884026E+01  0.17342760852E+03 -0.38368084572E+03  0.42118977885E+03  0.47000000000E+01 0. -1.
         -5    1    1    2    0  502 -0.51833410753E+02 -0.53039257191E+01 -0.16824041166E+02  0.54954276080E+02  0.47000000000E+01 0.  1.
        -11    1    3    3    0    0 -0.48913898290E+01 -0.12931923274E+03 -0.28918004230E+03  0.31681617148E+03  0.00000000000E+00 0. -1.
         11    1    3    3    0    0  0.47205712180E+02 -0.38804450060E+02 -0.81591693132E+02  0.10193806450E+03  0.00000000000E+00 0.  1.
<mgrwt>
<rscale>  0 0.24010203E+03</rscale>
<asrwt>0</asrwt>
<pdfrwt beam="2">  1        2 0.12816730E+00 0.25750533E+03</pdfrwt>
<pdfrwt beam="1">  1       -2 0.95093592E-02 0.25750533E+03</pdfrwt>
<totfact> 0.24150660E+03</totfact>
</mgrwt>
</event>
<event>
 8    1  0.1033707E-005  0.1331770E+03  0.7546771E-02  0.1230696E+00
          4   -1    0    0  501    0  0.00000000000E+00  0.00000000000E+00  0.58230418957E+02  0.58230418957E+02  0.00000000000E+00 0. -1.
         -4   -1    0    0    0  501 -0.00000000000E+00 -0.00000000000E+00 -0.27395262565E+03  0.27395262565E+03  0.00000000000E+00 0.  1.
         23    2    1    2    0    0 -0.63586677729E+02  0.82872043739E+01 -0.15311486175E+03  0.20292921042E+03  0.11672257799E+03 0.  0.
         23    2    1    2    0    0  0.63586677729E+02 -0.82872043739E+01 -0.62607344943E+02  0.12925383418E+03  0.93139307866E+02 0.  0.
          5    1    3    3  502    0 -0.97682390675E+02  0.16041202908E+01 -0.10646717975E+03  0.14457445492E+03  0.47000000000E+01 0. -1.
         -5    1    3    3    0  502  0.34095712946E+02  0.66830840830E+01 -0.46647681992E+02  0.58354755499E+02  0.47000000000E+01 0.  1.
        -11    1    4    4    0    0  0.84756875374E+02 -0.22308291809E+02 -0.47038057261E+02  0.99468420303E+02  0.00000000000E+00 0.  1.
         11    1    4    4    0    0 -0.21170197645E+02  0.14021087436E+02 -0.15569287682E+02  0.29785413882E+02  0.00000000000E+00 0. -1.
<mgrwt>
<rscale>  0 0.12784018E+03</rscale>
<asrwt>0</asrwt>
<pdfrwt beam="1">  1        4 0.89585261E-02 0.13317696E+03</pdfrwt>
<pdfrwt beam="2">  1       -4 0.42146557E-01 0.13317696E+03</pdfrwt>
<totfact> 0.82505621E+02</totfact>
</mgrwt>
</event>
<event>
 8    1  0.1033707E-005  0.1378814E+03  0.7546771E-02  0.1227243E+00
          2   -1    0    0  501    0  0.00000000000E+00  0.00000000000E+00  0.11781675932E+03  0.11781675932E+03  0.00000000000E+00 0. -1.
         -2   -1    0    0    0  501 -0.00000000000E+00 -0.00000000000E+00 -0.13352310528E+03  0.13352310528E+03  0.00000000000E+00 0.  1.
         23    2    1    2    0    0 -0.78196266859E+00  0.58204868219E+02  0.12137305470E+02  0.13841453153E+03  0.12499140052E+03 0.  0.
         23    2    1    2    0    0  0.78196266859E+00 -0.58204868219E+02 -0.27843651436E+02  0.11292533307E+03  0.92673857017E+02 0.  0.
          5    1    3    3  502    0  0.48132940477E+02  0.27098480828E+02  0.45188830097E+02  0.71520822057E+02  0.47000000000E+01 0. -1.
         -5    1    3    3    0  502 -0.48914903146E+02  0.31106387391E+02 -0.33051524627E+02  0.66893709468E+02  0.47000000000E+01 0. -1.
        -11    1    4    4    0    0 -0.10005589428E+02 -0.82335504689E+02 -0.22778345918E+02  0.86012209569E+02  0.00000000000E+00 0.  1.
         11    1    4    4    0    0  0.10787552097E+02  0.24130636471E+02 -0.50653055184E+01  0.26913123503E+02  0.00000000000E+00 0. -1.
<mgrwt>
<rscale>  0 0.13014337E+03</rscale>
<asrwt>0</asrwt>
<pdfrwt beam="1">  1        2 0.18125655E-01 0.13788136E+03</pdfrwt>
<pdfrwt beam="2">  1       -2 0.20542016E-01 0.13788136E+03</pdfrwt>
<totfact> 0.59448239E+03</totfact>
</mgrwt>
</event>
<event>
 8    1  0.1033707E-005  0.1374750E+03  0.7546771E-02  0.1222905E+00
          2   -1    0    0  501    0  0.00000000000E+00  0.00000000000E+00  0.16708950162E+03  0.16708950162E+03  0.00000000000E+00 0. -1.
         -2   -1    0    0    0  501 -0.00000000000E+00 -0.00000000000E+00 -0.10262285892E+03  0.10262285892E+03  0.00000000000E+00 0.  1.
         23    2    1    2    0    0 -0.78814399033E+02 -0.14374631723E+01  0.12101050132E+02  0.13800659507E+03  0.11263040919E+03 0.  0.
         23    2    1    2    0    0  0.78814399033E+02  0.14374631723E+01  0.52365592569E+02  0.13170576547E+03  0.91599550092E+02 0.  0.
          5    1    3    3  502    0 -0.20518054936E+02 -0.54437843353E+02  0.86516569628E+01  0.59003479012E+02  0.47000000000E+01 0. -1.
         -5    1    3    3    0  502 -0.58296344097E+02  0.53000380181E+02  0.34493931692E+01  0.79003116063E+02  0.47000000000E+01 0.  1.
        -11    1    4    4    0    0  0.59194244548E+01  0.11125080521E+02 -0.23114523567E+02  0.26326568371E+02  0.00000000000E+00 0.  1.
         11    1    4    4    0    0  0.72894974579E+02 -0.96876173484E+01  0.75480116137E+02  0.10537919710E+03  0.00000000000E+00 0. -1.
<mgrwt>
<rscale>  0 0.13311524E+03</rscale>
<asrwt>0</asrwt>
<pdfrwt beam="1">  1        2 0.25706077E-01 0.13747503E+03</pdfrwt>
<pdfrwt beam="2">  1       -2 0.15788132E-01 0.13747503E+03</pdfrwt>
<totfact> 0.62341977E+03</totfact>
</mgrwt>
</event>
<event>
 8    1  0.1033707E-005  0.1472071E+03  0.7546771E-02  0.1211426E+00
         -4   -1    0    0    0  501 -0.00000000000E+00  0.00000000000E+00  0.30366921535E+03  0.30366921535E+03  0.00000000000E+00 0.  1.
          4   -1    0    0  501    0  0.00000000000E+00 -0.00000000000E+00 -0.61186865753E+02  0.61186865753E+02  0.00000000000E+00 0. -1.
         23    2    1    2    0    0 -0.73936155553E+02 -0.24024775360E+02  0.13271297412E+03  0.19819852725E+03  0.12500471102E+03 0.  0.
         23    2    1    2    0    0  0.73936155553E+02  0.24024775360E+02  0.10976937548E+03  0.16665755385E+03  0.98395525985E+02 0.  0.
          5    1    3    3  502    0 -0.87527835046E+02  0.21841798226E+02  0.11660602248E+03  0.14750335771E+03  0.47000000000E+01 0. -1.
         -5    1    3    3    0  502  0.13591679493E+02 -0.45866573585E+02  0.16106951644E+02  0.50695169545E+02  0.47000000000E+01 0. -1.
        -11    1    4    4    0    0 -0.18591219484E+02 -0.10936128809E+01  0.50780677841E+02  0.54087953123E+02  0.00000000000E+00 0.  1.
         11    1    4    4    0    0  0.92527375038E+02  0.25118388241E+02  0.58988697636E+02  0.11256960073E+03  0.00000000000E+00 0. -1.
<mgrwt>
<rscale>  0 0.14142357E+03</rscale>
<asrwt>0</asrwt>
<pdfrwt beam="2">  1        4 0.94133641E-02 0.14720707E+03</pdfrwt>
<pdfrwt beam="1">  1       -4 0.46718340E-01 0.14720707E+03</pdfrwt>
<totfact> 0.63037687E+02</totfact>
</mgrwt>
</event>
<event>
 8    1  0.1033707E-005  0.1262621E+03  0.7546771E-02  0.1248270E+00
          1   -1    0    0  501    0  0.00000000000E+00  0.00000000000E+00  0.72614259561E+03  0.72614259561E+03  0.00000000000E+00 0. -1.
         -1   -1    0    0    0  501 -0.00000000000E+00 -0.00000000000E+00 -0.16530904050E+02  0.16530904050E+02  0.00000000000E+00 0.  1.
         23    2    1    2    0    0  0.11106362492E+02 -0.13942101071E+02  0.40300741403E+03  0.42232345509E+03  0.12499756592E+03 0.  0.
         23    2    1    2    0    0 -0.11106362492E+02  0.13942101071E+02  0.30660427753E+03  0.32035004457E+03  0.91105623238E+02 0.  0.
          5    1    3    3  502    0  0.44089723482E+02  0.37410602171E+02  0.26616108130E+03  0.27241011008E+03  0.47000000000E+01 0. -1.
         -5    1    3    3    0  502 -0.32983360990E+02 -0.51352703242E+02  0.13684633273E+03  0.14991334501E+03  0.47000000000E+01 0. -1.
        -11    1    4    4    0    0 -0.46164044284E+02 -0.12060502284E+02  0.18828494376E+03  0.19423644031E+03  0.00000000000E+00 0.  1.
         11    1    4    4    0    0  0.35057681792E+02  0.26002603355E+02  0.11831933377E+03  0.12611360426E+03  0.00000000000E+00 0. -1.
<mgrwt>
<rscale>  0 0.11691775E+03</rscale>
<asrwt>0</asrwt>
<pdfrwt beam="1">  1        1 0.11171422E+00 0.12626213E+03</pdfrwt>
<pdfrwt beam="2">  1       -1 0.25432166E-02 0.12626213E+03</pdfrwt>
<totfact> 0.12217963E+04</totfact>
</mgrwt>
</event>
<event>
 8    1  0.1033707E-005  0.1275778E+03  0.7546771E-02  0.1245885E+00
         -3   -1    0    0    0  501 -0.00000000000E+00  0.00000000000E+00  0.71120322240E+02  0.71120322240E+02  0.00000000000E+00 0.  1.
          3   -1    0    0  501    0  0.00000000000E+00 -0.00000000000E+00 -0.17377708540E+03  0.17377708540E+03  0.00000000000E+00 0. -1.
         23    2    1    2    0    0  0.25224180532E+02  0.39116828369E+01 -0.52069528497E+02  0.13779449419E+03  0.12499810513E+03 0.  0.
         23    2    1    2    0    0 -0.25224180532E+02 -0.39116828369E+01 -0.50587234665E+02  0.10710291345E+03  0.90886771382E+02 0.  0.
          5    1    3    3  502    0  0.31618626997E+02  0.45181501955E+02  0.16163067019E+02  0.57657960660E+02  0.47000000000E+01 0. -1.
         -5    1    3    3    0  502 -0.63944464652E+01 -0.41269819118E+02 -0.68232595517E+02  0.80136533532E+02  0.47000000000E+01 0. -1.
        -11    1    4    4    0    0 -0.43575990105E+01  0.33460917435E+02 -0.54521912078E+02  0.64119112294E+02  0.00000000000E+00 0.  1.
         11    1    4    4    0    0 -0.20866581521E+02 -0.37372600272E+02  0.39346774125E+01  0.42983801156E+02  0.00000000000E+00 0. -1.
<mgrwt>
<rscale>  0 0.11832539E+03</rscale>
<asrwt>0</asrwt>
<pdfrwt beam="2">  1        3 0.26734936E-01 0.12757777E+03</pdfrwt>
<pdfrwt beam="1">  1       -3 0.10941588E-01 0.12757777E+03</pdfrwt>
<totfact> 0.19134811E+03</totfact>
</mgrwt>
</event>
<event>
 8    1  0.1033707E-005  0.1597751E+03  0.7546771E-02  0.1196079E+00
          1   -1    0    0  501    0  0.00000000000E+00  0.00000000000E+00  0.37590310020E+03  0.37590310020E+03  0.00000000000E+00 0. -1.
         -1   -1    0    0    0  501 -0.00000000000E+00 -0.00000000000E+00 -0.67019621782E+02  0.67019621782E+02  0.00000000000E+00 0.  1.
         23    2    1    2    0    0 -0.54473643708E+02 -0.83280909345E+02  0.85822501493E+02  0.18136586280E+03  0.12499994683E+03 0.  0.
         23    2    1    2    0    0  0.54473643708E+02  0.83280909345E+02  0.22306097693E+03  0.26155685918E+03  0.93555884037E+02 0.  0.
          5    1    3    3  502    0  0.19539823459E+02  0.21928232091E+02  0.25642854257E+02  0.39272102540E+02  0.47000000000E+01 0. -1.
         -5    1    3    3    0  502 -0.74013467167E+02 -0.10520914144E+03  0.60179647236E+02  0.14209376026E+03  0.47000000000E+01 0. -1.
        -11    1    4    4    0    0  0.61642753661E+02  0.97222224326E+02  0.16345474349E+03  0.19992359328E+03  0.00000000000E+00 0.  1.
         11    1    4    4    0    0 -0.71691099532E+01 -0.13941314981E+02  0.59606233438E+02  0.61633265901E+02  0.00000000000E+00 0. -1.
<mgrwt>
<rscale>  0 0.15363264E+03</rscale>
<asrwt>0</asrwt>
<pdfrwt beam="1">  1        1 0.57831245E-01 0.15977507E+03</pdfrwt>
<pdfrwt beam="2">  1       -1 0.10310711E-01 0.15977507E+03</pdfrwt>
<totfact> 0.37172703E+03</totfact>
</mgrwt>
</event>
<event>
 8    1  0.1033707E-005  0.1495818E+03  0.7546771E-02  0.1211465E+00
         -2   -1    0    0    0  501 -0.00000000000E+00  0.00000000000E+00  0.58800405509E+03  0.58800405509E+03  0.00000000000E+00 0.  1.
          2   -1    0    0  501    0  0.00000000000E+00 -0.00000000000E+00 -0.30791916085E+02  0.30791916085E+02  0.00000000000E+00 0. -1.
         23    2    1    2    0    0  0.15665282936E+02 -0.80657526240E+02  0.31857895680E+03  0.35194783572E+03  0.12499475880E+03 0.  0.
         23    2    1    2    0    0 -0.15665282936E+02  0.80657526240E+02  0.23863318220E+03  0.26684813545E+03  0.86666568612E+02 0.  0.
          5    1    3    3  502    0  0.17706791510E+01 -0.71314012214E+02  0.61564472836E+02  0.94345630308E+02  0.47000000000E+01 0.  1.
         -5    1    3    3    0  502  0.13894603785E+02 -0.93435140256E+01  0.25701448396E+03  0.25760220541E+03  0.47000000000E+01 0.  1.
        -11    1    4    4    0    0  0.14684648611E+02  0.51387539086E+02  0.48746039753E+02  0.72335983229E+02  0.00000000000E+00 0. -1.
         11    1    4    4    0    0 -0.30349931547E+02  0.29269987154E+02  0.18988714245E+03  0.19451215222E+03  0.00000000000E+00 0.  1.
<mgrwt>
<rscale>  0 0.14139440E+03</rscale>
<asrwt>0</asrwt>
<pdfrwt beam="2">  1        2 0.47372183E-02 0.14958184E+03</pdfrwt>
<pdfrwt beam="1">  1       -2 0.90462154E-01 0.14958184E+03</pdfrwt>
<totfact> 0.17672986E+03</totfact>
</mgrwt>
</event>
<event>
 8    1  0.1033707E-005  0.1349764E+03  0.7546771E-02  0.1232663E+00
          2   -1    0    0  501    0  0.00000000000E+00  0.00000000000E+00  0.49800762922E+03  0.49800762922E+03  0.00000000000E+00 0. -1.
         -2   -1    0    0    0  501 -0.00000000000E+00 -0.00000000000E+00 -0.28742989854E+02  0.28742989854E+02  0.00000000000E+00 0.  1.
         23    2    1    2    0    0  0.14258430368E+02 -0.48903760641E+02  0.26589245389E+03  0.29819026208E+03  0.12499501880E+03 0.  0.
         23    2    1    2    0    0 -0.14258430368E+02  0.48903760641E+02  0.20337218548E+03  0.22856035699E+03  0.91020384095E+02 0.  0.
          5    1    3    3  502    0 -0.29343883561E+02  0.62088742820E+01  0.87774263359E+01  0.31602956118E+02  0.47000000000E+01 0.  1.
         -5    1    3    3    0  502  0.43602313929E+02 -0.55112634923E+02  0.25711502755E+03  0.26658730597E+03  0.47000000000E+01 0.  1.
        -11    1    4    4    0    0 -0.21555920209E-01  0.15095493367E+02 -0.58181735908E+01  0.16177933385E+02  0.00000000000E+00 0.  1.
         11    1    4    4    0    0 -0.14236874447E+02  0.33808267274E+02  0.20919035907E+03  0.21238242361E+03  0.00000000000E+00 0. -1.
<mgrwt>
<rscale>  0 0.12655229E+03</rscale>
<asrwt>0</asrwt>
<pdfrwt beam="1">  1        2 0.76616552E-01 0.13497643E+03</pdfrwt>
<pdfrwt beam="2">  1       -2 0.44219988E-02 0.13497643E+03</pdfrwt>
<totfact> 0.13969768E+04</totfact>
</mgrwt>
</event>
<event>
 8    1  0.1033707E-005  0.1548172E+03  0.7546771E-02  0.1200017E+00
          2   -1    0    0  501    0  0.00000000000E+00  0.00000000000E+00  0.44249095290E+03  0.44249095290E+03  0.00000000000E+00 0. -1.
         -2   -1    0    0    0  501 -0.00000000000E+00 -0.00000000000E+00 -0.49998321873E+02  0.49998321873E+02  0.00000000000E+00 0.  1.
         23    2    1    2    0    0 -0.89349444104E+02  0.18984038825E+02  0.16296044230E+03  0.22477650468E+03  0.12499861764E+03 0.  0.
         23    2    1    2    0    0  0.89349444104E+02 -0.18984038825E+02  0.22953218873E+03  0.26771277009E+03  0.10315708756E+03 0.  0.
          5    1    3    3  502    0 -0.44270167053E+02 -0.43366269834E+02  0.25498259837E+02  0.67176873290E+02  0.47000000000E+01 0. -1.
         -5    1    3    3    0  502 -0.45079277050E+02  0.62350308659E+02  0.13746218246E+03  0.15759963139E+03  0.47000000000E+01 0. -1.
        -11    1    4    4    0    0  0.58799126213E+02  0.17043847348E+02  0.41799542957E+02  0.74128481485E+02  0.00000000000E+00 0.  1.
         11    1    4    4    0    0  0.30550317891E+02 -0.36027886174E+02  0.18773264577E+03  0.19358428860E+03  0.00000000000E+00 0. -1.
<mgrwt>
<rscale>  0 0.15037168E+03</rscale>
<asrwt>0</asrwt>
<pdfrwt beam="1">  1        2 0.68075529E-01 0.15481722E+03</pdfrwt>
<pdfrwt beam="2">  1       -2 0.76920498E-02 0.15481722E+03</pdfrwt>
<totfact> 0.69256603E+03</totfact>
</mgrwt>
</event>
<event>
 8    1  0.1033707E-005  0.2115922E+03  0.7546771E-02  0.1144024E+00
          1   -1    0    0  501    0  0.00000000000E+00  0.00000000000E+00  0.11325972120E+04  0.11325972120E+04  0.00000000000E+00 0. -1.
         -1   -1    0    0    0  501 -0.00000000000E+00 -0.00000000000E+00 -0.36240662137E+02  0.36240662137E+02  0.00000000000E+00 0.  1.
         23    2    1    2    0    0  0.16388606175E+03  0.47802984603E+02  0.56167727146E+03  0.60021048334E+03  0.12501000146E+03 0.  0.
         23    2    1    2    0    0 -0.16388606175E+03 -0.47802984603E+02  0.53467927840E+03  0.56862739079E+03  0.91166947059E+02 0.  0.
          5    1    3    3  502    0  0.17095590919E+03  0.65492513523E+02  0.54327285932E+03  0.57330853987E+03  0.47000000000E+01 0. -1.
         -5    1    3    3    0  502 -0.70698474422E+01 -0.17689528920E+02  0.18404412142E+02  0.26901943472E+02  0.47000000000E+01 0. -1.
        -11    1    4    4    0    0 -0.37330692355E+02 -0.24760027338E+02  0.49834594967E+02  0.67008405450E+02  0.00000000000E+00 0.  1.
         11    1    4    4    0    0 -0.12655536940E+03 -0.23042957265E+02  0.48484468343E+03  0.50161898534E+03  0.00000000000E+00 0. -1.
<mgrwt>
<rscale>  0 0.20692538E+03</rscale>
<asrwt>0</asrwt>
<pdfrwt beam="1">  1        1 0.17424570E+00 0.21159222E+03</pdfrwt>
<pdfrwt beam="2">  1       -1 0.55754873E-02 0.21159222E+03</pdfrwt>
<totfact> 0.19063473E+03</totfact>
</mgrwt>
</event>
<event>
 8    1  0.1033707E-005  0.1256014E+03  0.7546771E-02  0.1249663E+00
          2   -1    0    0  501    0  0.00000000000E+00  0.00000000000E+00  0.14462414494E+03  0.14462414494E+03  0.00000000000E+00 0. -1.
         -2   -1    0    0    0  501 -0.00000000000E+00 -0.00000000000E+00 -0.85572028529E+02  0.85572028529E+02  0.00000000000E+00 0.  1.
         23    2    1    2    0    0 -0.36182643942E+00  0.12275140764E+02  0.95179513130E+01  0.12596148549E+03  0.12499957773E+03 0.  0.
         23    2    1    2    0    0  0.36182643942E+00 -0.12275140764E+02  0.49534165096E+02  0.10423468797E+03  0.90886889406E+02 0.  0.
          5    1    3    3  502    0  0.15998205706E+02  0.37033110172E+02 -0.46900654645E+02  0.62041560594E+02  0.47000000000E+01 0. -1.
         -5    1    3    3    0  502 -0.16360032146E+02 -0.24757969409E+02  0.56418605958E+02  0.63919924901E+02  0.47000000000E+01 0. -1.
        -11    1    4    4    0    0 -0.12429525738E+01  0.34890188651E+02  0.44811764946E+02  0.56806377043E+02  0.00000000000E+00 0. -1.
         11    1    4    4    0    0  0.16047790132E+01 -0.47165329415E+02  0.47224001504E+01  0.47428310930E+02  0.00000000000E+00 0.  1.
<mgrwt>
<rscale>  0 0.11610563E+03</rscale>
<asrwt>0</asrwt>
<pdfrwt beam="1">  1        2 0.22249869E-01 0.12560137E+03</pdfrwt>
<pdfrwt beam="2">  1       -2 0.13164927E-01 0.12560137E+03</pdfrwt>
<totfact> 0.97631669E+03</totfact>
</mgrwt>
</event>
<event>
 8    1  0.1033707E-005  0.2980104E+03  0.7546771E-02  0.1087838E+00
          1   -1    0    0  501    0  0.00000000000E+00  0.00000000000E+00  0.76418373222E+03  0.76418373222E+03  0.00000000000E+00 0. -1.
         -1   -1    0    0    0  501 -0.00000000000E+00 -0.00000000000E+00 -0.25681537954E+03  0.25681537954E+03  0.00000000000E+00 0.  1.
         23    2    1    2    0    0  0.17654880265E+03  0.20496060140E+03 -0.12803964891E+03  0.32435223858E+03  0.12502757749E+03 0.  0.
         23    2    1    2    0    0 -0.17654880265E+03 -0.20496060140E+03  0.63540800160E+03  0.69664687317E+03  0.91625376217E+02 0.  0.
          5    1    3    3  502    0  0.16960361322E+03  0.21276342682E+03 -0.93154045913E+02  0.28763419074E+03  0.47000000000E+01 0. -1.
         -5    1    3    3    0  502  0.69451894308E+01 -0.78028254175E+01 -0.34885603002E+02  0.36718047844E+02  0.47000000000E+01 0. -1.
        -11    1    4    4    0    0 -0.12647127533E+03 -0.11901748823E+03  0.29830764168E+03  0.34517762829E+03  0.00000000000E+00 0. -1.
         11    1    4    4    0    0 -0.50077527329E+02 -0.85943113174E+02  0.33710035992E+03  0.35146924489E+03  0.00000000000E+00 0.  1.
<mgrwt>
<rscale>  0 0.29486096E+03</rscale>
<asrwt>0</asrwt>
<pdfrwt beam="1">  1        1 0.11756673E+00 0.29801044E+03</pdfrwt>
<pdfrwt beam="2">  1       -1 0.39510059E-01 0.29801044E+03</pdfrwt>
<totfact> 0.15713204E+02</totfact>
</mgrwt>
</event>
<event>
 8    1  0.1033707E-005  0.1551132E+03  0.7546771E-02  0.1202675E+00
         -2   -1    0    0    0  501 -0.00000000000E+00  0.00000000000E+00  0.31329021444E+03  0.31329021444E+03  0.00000000000E+00 0. -1.
          2   -1    0    0  501    0  0.00000000000E+00 -0.00000000000E+00 -0.65607554759E+02  0.65607554759E+02  0.00000000000E+00 0.  1.
         23    2    1    2    0    0  0.91676545336E+02 -0.54355781928E+01  0.15868612670E+03  0.22190398644E+03  0.12500383161E+03 0.  0.
         23    2    1    2    0    0 -0.91676545336E+02  0.54355781928E+01  0.88996532986E+02  0.15699378276E+03  0.91063332172E+02 0.  0.
          5    1    3    3  502    0  0.53318744072E+02 -0.35669429168E+02  0.97035276470E+01  0.65049558764E+02  0.47000000000E+01 0.  1.
         -5    1    3    3    0  502  0.38357801264E+02  0.30233850975E+02  0.14898259905E+03  0.15685442768E+03  0.47000000000E+01 0.  1.
        -11    1    4    4    0    0 -0.23997116921E+02  0.18639308284E+02  0.82280839560E+02  0.87712154190E+02  0.00000000000E+00 0. -1.
         11    1    4    4    0    0 -0.67679428415E+02 -0.13203730091E+02  0.67156934253E+01  0.69281628569E+02  0.00000000000E+00 0.  1.
<mgrwt>
<rscale>  0 0.14822199E+03</rscale>
<asrwt>0</asrwt>
<pdfrwt beam="2">  1        2 0.10093470E-01 0.15511316E+03</pdfrwt>
<pdfrwt beam="1">  1       -2 0.48198494E-01 0.15511316E+03</pdfrwt>
<totfact> 0.25389832E+03</totfact>
</mgrwt>
</event>
<event>
 8    1  0.1033707E-005  0.1513434E+03  0.7546771E-02  0.1207756E+00
         -1   -1    0    0    0  501 -0.00000000000E+00  0.00000000000E+00  0.26134191121E+03  0.26134191121E+03  0.00000000000E+00 0.  1.
          1   -1    0    0  501    0  0.00000000000E+00 -0.00000000000E+00 -0.77908174968E+02  0.77908174968E+02  0.00000000000E+00 0. -1.
         23    2    1    2    0    0  0.77571293745E+02  0.35527633323E+02  0.14256691402E+03  0.20791859179E+03  0.12500118998E+03 0.  0.
         23    2    1    2    0    0 -0.77571293745E+02 -0.35527633323E+02  0.40866822223E+02  0.13133149439E+03  0.91095257381E+02 0.  0.
          5    1    3    3  502    0 -0.21434246320E+02  0.17712982667E+02 -0.56163859586E+01  0.28754312051E+02  0.47000000000E+01 0.  1.
         -5    1    3    3    0  502  0.99005540065E+02  0.17814650656E+02  0.14818329998E+03  0.17916427974E+03  0.47000000000E+01 0.  1.
        -11    1    4    4    0    0 -0.49347494406E+02  0.19707026792E+01  0.62496017217E+02  0.79654322175E+02  0.00000000000E+00 0.  1.
         11    1    4    4    0    0 -0.28223799338E+02 -0.37498336003E+02 -0.21629194994E+02  0.51677172215E+02  0.00000000000E+00 0. -1.
<mgrwt>
<rscale>  0 0.14422350E+03</rscale>
<asrwt>0</asrwt>
<pdfrwt beam="2">  1        1 0.11985873E-01 0.15134337E+03</pdfrwt>
<pdfrwt beam="1">  1       -1 0.40206448E-01 0.15134337E+03</pdfrwt>
<totfact> 0.29822723E+03</totfact>
</mgrwt>
</event>
<event>
 8    1  0.1033707E-005  0.1317152E+03  0.7546771E-02  0.1237264E+00
          3   -1    0    0  501    0  0.00000000000E+00  0.00000000000E+00  0.19797397546E+02  0.19797397546E+02  0.00000000000E+00 0. -1.
         -3   -1    0    0    0  501 -0.00000000000E+00 -0.00000000000E+00 -0.69106938708E+03  0.69106938708E+03  0.00000000000E+00 0.  1.
         23    2    1    2    0    0 -0.18392403518E+02  0.37242175697E+02 -0.38645919108E+03  0.40828863272E+03  0.12499456421E+03 0.  0.
         23    2    1    2    0    0  0.18392403518E+02 -0.37242175697E+02 -0.28481279845E+03  0.30257815190E+03  0.93327100504E+02 0.  0.
          5    1    3    3  502    0 -0.56428031026E+02 -0.19097231381E+02 -0.13258626933E+03  0.14543051862E+03  0.47000000000E+01 0.  1.
         -5    1    3    3    0  502  0.38035627507E+02  0.56339407079E+02 -0.25387292175E+03  0.26285811410E+03  0.47000000000E+01 0.  1.
        -11    1    4    4    0    0  0.51305517493E+02 -0.65546379410E+01 -0.10271522456E+03  0.11500276849E+03  0.00000000000E+00 0. -1.
         11    1    4    4    0    0 -0.32913113975E+02 -0.30687537756E+02 -0.18209757389E+03  0.18757538341E+03  0.00000000000E+00 0.  1.
<mgrwt>
<rscale>  0 0.12360602E+03</rscale>
<asrwt>0</asrwt>
<pdfrwt beam="1">  1        3 0.30457538E-02 0.13171523E+03</pdfrwt>
<pdfrwt beam="2">  1       -3 0.10631835E+00 0.13171523E+03</pdfrwt>
<totfact> 0.89933888E+02</totfact>
</mgrwt>
</event>
<event>
 7    1  0.1033707E-005  0.2151720E+03  0.7546771E-02  0.1151662E+00
          1   -1    0    0  501    0  0.00000000000E+00  0.00000000000E+00  0.24904397054E+03  0.24904397054E+03  0.00000000000E+00 0. -1.
         -1   -1    0    0    0  501 -0.00000000000E+00 -0.00000000000E+00 -0.32177965411E+03  0.32177965411E+03  0.00000000000E+00 0.  1.
         23    2    1    2    0    0 -0.31799108227E+02 -0.11894196997E+03  0.18154740429E+03  0.23771873286E+03  0.91609827226E+02 0.  0.
          5    1    1    2  502    0  0.78861114018E+02 -0.75922525461E+01 -0.81157034607E+02  0.11351331142E+03  0.47000000000E+01 0. -1.
         -5    1    1    2    0  502 -0.47062005791E+02  0.12653422251E+03 -0.17312605325E+03  0.21959158038E+03  0.47000000000E+01 0.  1.
        -11    1    3    3    0    0  0.22593177266E+02 -0.13766118106E+02  0.80267112538E+01  0.27647527199E+02  0.00000000000E+00 0.  1.
         11    1    3    3    0    0 -0.54392285494E+02 -0.10517585186E+03  0.17352069304E+03  0.21007120566E+03  0.00000000000E+00 0. -1.
<mgrwt>
<rscale>  0 0.19773787E+03</rscale>
<asrwt>0</asrwt>
<pdfrwt beam="1">  1        1 0.38314457E-01 0.21517198E+03</pdfrwt>
<pdfrwt beam="2">  1       -1 0.49504562E-01 0.21517198E+03</pdfrwt>
<totfact> 0.46739472E+02</totfact>
</mgrwt>
</event>
<event>
 8    1  0.1033707E-005  0.1485521E+03  0.7546771E-02  0.1212334E+00
         -2   -1    0    0    0  501 -0.00000000000E+00  0.00000000000E+00  0.50357163186E+02  0.50357163186E+02  0.00000000000E+00 0. -1.
          2   -1    0    0  501    0  0.00000000000E+00 -0.00000000000E+00 -0.37991102931E+03  0.37991102931E+03  0.00000000000E+00 0.  1.
         23    2    1    2    0    0 -0.69134159909E+02  0.40822243277E+02 -0.23373667322E+03  0.27694866450E+03  0.12498697031E+03 0.  0.
         23    2    1    2    0    0  0.69134159909E+02 -0.40822243277E+02 -0.95817192907E+02  0.15331952800E+03  0.88769113978E+02 0.  0.
          5    1    3    3  502    0 -0.28269878822E+02  0.72043935041E+02 -0.67247250072E+02  0.10263428894E+03  0.47000000000E+01 0. -1.
         -5    1    3    3    0  502 -0.40864281087E+02 -0.31221691764E+02 -0.16648942315E+03  0.17431437556E+03  0.47000000000E+01 0. -1.
        -11    1    4    4    0    0  0.18978282984E+01 -0.45703290478E+02 -0.15136768121E+02  0.48182094827E+02  0.00000000000E+00 0. -1.
         11    1    4    4    0    0  0.67236331611E+02  0.48810472004E+01 -0.80680424786E+02  0.10513743317E+03  0.00000000000E+00 0.  1.
<mgrwt>
<rscale>  0 0.14074226E+03</rscale>
<asrwt>0</asrwt>
<pdfrwt beam="2">  1        2 0.58447851E-01 0.14855211E+03</pdfrwt>
<pdfrwt beam="1">  1       -2 0.77472558E-02 0.14855211E+03</pdfrwt>
<totfact> 0.80497578E+03</totfact>
</mgrwt>
</event>
<event>
 8    1  0.1033707E-005  0.1475047E+03  0.7546771E-02  0.1206064E+00
         -1   -1    0    0    0  501 -0.00000000000E+00  0.00000000000E+00  0.11669089104E+03  0.11669089104E+03  0.00000000000E+00 0.  1.
          1   -1    0    0  501    0  0.00000000000E+00 -0.00000000000E+00 -0.30829441362E+03  0.30829441362E+03  0.00000000000E+00 0. -1.
         23    2    1    2    0    0 -0.14398475314E+02  0.76977046648E+02  0.41449624750E+02  0.15321789042E+03  0.12499947500E+03 0.  0.
         23    2    1    2    0    0  0.14398475314E+02 -0.76977046648E+02 -0.23305314733E+03  0.27176741424E+03  0.11580576913E+03 0.  0.
          5    1    3    3  502    0  0.11147053312E+02  0.91380469110E+02  0.67068139611E+02  0.11399505377E+03  0.47000000000E+01 0. -1.
         -5    1    3    3    0  502 -0.25545528626E+02 -0.14403422462E+02 -0.25618514861E+02  0.39222836653E+02  0.47000000000E+01 0. -1.
        -11    1    4    4    0    0  0.64178902911E+02 -0.55528716759E+02 -0.12844148013E+03  0.15394669137E+03  0.00000000000E+00 0.  1.
         11    1    4    4    0    0 -0.49780427597E+02 -0.21448329889E+02 -0.10461166719E+03  0.11782072288E+03  0.00000000000E+00 0. -1.
<mgrwt>
<rscale>  0 0.14553938E+03</rscale>
<asrwt>0</asrwt>
<pdfrwt beam="2">  1        1 0.47429910E-01 0.14750475E+03</pdfrwt>
<pdfrwt beam="1">  1       -1 0.17952445E-01 0.14750475E+03</pdfrwt>
<totfact> 0.19970760E+03</totfact>
</mgrwt>
</event>
<event>
 8    1  0.1033707E-005  0.1453786E+03  0.7546771E-02  0.1215713E+00
         -1   -1    0    0    0  501 -0.00000000000E+00  0.00000000000E+00  0.11820837019E+03  0.11820837019E+03  0.00000000000E+00 0.  1.
          1   -1    0    0  501    0  0.00000000000E+00 -0.00000000000E+00 -0.15036860806E+03  0.15036860806E+03  0.00000000000E+00 0. -1.
         23    2    1    2    0    0 -0.48880071650E+02  0.55865878831E+02  0.21294581167E+00  0.14537875280E+03  0.12499871439E+03 0.  0.
         23    2    1    2    0    0  0.48880071650E+02 -0.55865878831E+02 -0.32373183686E+02  0.12319822545E+03  0.92841380371E+02 0.  0.
          5    1    3    3  502    0 -0.84208409768E+02  0.18210788951E+02 -0.21890934757E+02  0.89016808157E+02  0.47000000000E+01 0.  1.
         -5    1    3    3    0  502  0.35328338118E+02  0.37655089879E+02  0.22103880569E+02  0.56361944645E+02  0.47000000000E+01 0.  1.
        -11    1    4    4    0    0  0.30346396984E+02 -0.40321519659E+02  0.28315683100E+02  0.57866282643E+02  0.00000000000E+00 0.  1.
         11    1    4    4    0    0  0.18533674666E+02 -0.15544359172E+02 -0.60688866786E+02  0.65331942803E+02  0.00000000000E+00 0. -1.
<mgrwt>
<rscale>  0 0.13824272E+03</rscale>
<asrwt>0</asrwt>
<pdfrwt beam="2">  1        1 0.23133632E-01 0.14537860E+03</pdfrwt>
<pdfrwt beam="1">  1       -1 0.18185903E-01 0.14537860E+03</pdfrwt>
<totfact> 0.47823613E+03</totfact>
</mgrwt>
</event>
<event>
 8    1  0.1033707E-005  0.1271926E+03  0.7546771E-02  0.1248348E+00
          4   -1    0    0  501    0  0.00000000000E+00  0.00000000000E+00  0.46139604115E+02  0.46139604115E+02  0.00000000000E+00 0. -1.
         -4   -1    0    0    0  501 -0.00000000000E+00 -0.00000000000E+00 -0.29112509236E+03  0.29112509236E+03  0.00000000000E+00 0.  1.
         23    2    1    2    0    0  0.19912611775E+02 -0.12519627305E+02 -0.19750166224E+03  0.23491457827E+03  0.12499879727E+03 0.  0.
         23    2    1    2    0    0 -0.19912611775E+02  0.12519627305E+02 -0.47483826003E+02  0.10235011821E+03  0.87564717720E+02 0.  0.
          5    1    3    3  502    0 -0.38599824159E+00  0.49422171999E+02 -0.37926188275E+02  0.62475481886E+02  0.47000000000E+01 0. -1.
         -5    1    3    3    0  502  0.20298610017E+02 -0.61941799304E+02 -0.15957547396E+03  0.17243909638E+03  0.47000000000E+01 0. -1.
        -11    1    4    4    0    0 -0.39571828491E+02  0.36801118987E+02 -0.46175644639E+02  0.71080532685E+02  0.00000000000E+00 0.  1.
         11    1    4    4    0    0  0.19659216716E+02 -0.24281491682E+02 -0.13081813634E+01  0.31269585521E+02  0.00000000000E+00 0. -1.
<mgrwt>
<rscale>  0 0.11687209E+03</rscale>
<asrwt>0</asrwt>
<pdfrwt beam="1">  1        4 0.70984005E-02 0.12719258E+03</pdfrwt>
<pdfrwt beam="2">  1       -4 0.44788476E-01 0.12719258E+03</pdfrwt>
<totfact> 0.10639050E+03</totfact>
</mgrwt>
</event>
<event>
 8    1  0.1033707E-005  0.2277019E+03  0.7546771E-02  0.1130912E+00
          2   -1    0    0  501    0  0.00000000000E+00  0.00000000000E+00  0.87568365392E+03  0.87568365392E+03  0.00000000000E+00 0. -1.
         -2   -1    0    0    0  501 -0.00000000000E+00 -0.00000000000E+00 -0.75113869760E+02  0.75113869760E+02  0.00000000000E+00 0.  1.
         23    2    1    2    0    0  0.18534528614E+03  0.43282775182E+02  0.16732448735E+03  0.28256970814E+03  0.12498752805E+03 0.  0.
         23    2    1    2    0    0 -0.18534528614E+03 -0.43282775182E+02  0.63324529680E+03  0.66822781554E+03  0.96449643921E+02 0.  0.
          5    1    3    3  502    0  0.20192529995E+03  0.27736971320E+02  0.15619052865E+03  0.25682822582E+03  0.47000000000E+01 0. -1.
         -5    1    3    3    0  502 -0.16580013810E+02  0.15545803861E+02  0.11133958707E+02  0.25741482322E+02  0.47000000000E+01 0. -1.
        -11    1    4    4    0    0 -0.12375348608E+03 -0.73173070192E+02  0.46011556042E+03  0.48205347469E+03  0.00000000000E+00 0.  1.
         11    1    4    4    0    0 -0.61591800062E+02  0.29890295010E+02  0.17312973638E+03  0.18617434085E+03  0.00000000000E+00 0. -1.
<mgrwt>
<rscale>  0 0.22403237E+03</rscale>
<asrwt>0</asrwt>
<pdfrwt beam="1">  1        2 0.13472055E+00 0.22770190E+03</pdfrwt>
<pdfrwt beam="2">  1       -2 0.11555981E-01 0.22770190E+03</pdfrwt>
<totfact> 0.16546611E+03</totfact>
</mgrwt>
</event>
<event>
 8    1  0.1033707E-005  0.1816675E+03  0.7546771E-02  0.1171766E+00
          2   -1    0    0  501    0  0.00000000000E+00  0.00000000000E+00  0.40059357790E+03  0.40059357790E+03  0.00000000000E+00 0. -1.
         -2   -1    0    0    0  501 -0.00000000000E+00 -0.00000000000E+00 -0.80098422284E+02  0.80098422284E+02  0.00000000000E+00 0.  1.
         23    2    1    2    0    0  0.96241731671E+02 -0.90090532481E+02  0.97177268898E+02  0.20602545256E+03  0.12499716218E+03 0.  0.
         23    2    1    2    0    0 -0.96241731671E+02  0.90090532481E+02  0.22331788672E+03  0.27466654762E+03  0.90509993358E+02 0.  0.
          5    1    3    3  502    0  0.57718630227E+02 -0.10929766678E+03  0.31979990194E+02  0.12775848313E+03  0.47000000000E+01 0. -1.
         -5    1    3    3    0  502  0.38523101444E+02  0.19207134301E+02  0.65197278704E+02  0.78266969428E+02  0.47000000000E+01 0. -1.
        -11    1    4    4    0    0 -0.41012769984E+02 -0.69194463748E+00  0.11853412402E+03  0.12543071651E+03  0.00000000000E+00 0.  1.
         11    1    4    4    0    0 -0.55228961687E+02  0.90782477119E+02  0.10478376270E+03  0.14923583111E+03  0.00000000000E+00 0. -1.
<mgrwt>
<rscale>  0 0.17596487E+03</rscale>
<asrwt>0</asrwt>
<pdfrwt beam="1">  1        2 0.61629780E-01 0.18166746E+03</pdfrwt>
<pdfrwt beam="2">  1       -2 0.12322834E-01 0.18166746E+03</pdfrwt>
<totfact> 0.36980635E+03</totfact>
</mgrwt>
</event>
<event>
 7    1  0.1033707E-005  0.1343911E+03  0.7546771E-02  0.1240312E+00
          1   -1    0    0  501    0  0.00000000000E+00  0.00000000000E+00  0.31107988827E+03  0.31107988827E+03  0.00000000000E+00 0. -1.
         -1   -1    0    0    0  501 -0.00000000000E+00 -0.00000000000E+00 -0.49196152053E+02  0.49196152053E+02  0.00000000000E+00 0.  1.
         23    2    1    2    0    0  0.22807767900E+01  0.67790243561E-01  0.18386203354E+03  0.20487863151E+03  0.90359281406E+02 0.  0.
          5    1    1    2  502    0  0.34450416639E+02 -0.49231096279E+02  0.71484308032E+02  0.93502023199E+02  0.47000000000E+01 0. -1.
         -5    1    1    2    0  502 -0.36731193429E+02  0.49163306036E+02  0.65373946492E+01  0.61895385611E+02  0.47000000000E+01 0.  1.
        -11    1    3    3    0    0 -0.36213205029E+02 -0.15658839713E+02  0.44625097431E+02  0.59565046801E+02  0.00000000000E+00 0. -1.
         11    1    3    3    0    0  0.38493981819E+02  0.15726629957E+02  0.13923693611E+03  0.14531358471E+03  0.00000000000E+00 0.  1.
<mgrwt>
<rscale>  0 0.12170423E+03</rscale>
<asrwt>0</asrwt>
<pdfrwt beam="1">  1        1 0.47858443E-01 0.13439110E+03</pdfrwt>
<pdfrwt beam="2">  1       -1 0.75686390E-02 0.13439110E+03</pdfrwt>
<totfact> 0.74589615E+03</totfact>
</mgrwt>
</event>
<event>
 8    1  0.1033707E-005  0.1362690E+03  0.7546771E-02  0.1230250E+00
          1   -1    0    0  501    0  0.00000000000E+00  0.00000000000E+00  0.10899439117E+03  0.10899439117E+03  0.00000000000E+00 0. -1.
         -1   -1    0    0    0  501 -0.00000000000E+00 -0.00000000000E+00 -0.14741079342E+03  0.14741079342E+03  0.00000000000E+00 0.  1.
         23    2    1    2    0    0 -0.31655575453E+02 -0.43954434830E+02 -0.57982541401E+02  0.14809195986E+03  0.12504073604E+03 0.  0.
         23    2    1    2    0    0  0.31655575453E+02  0.43954434830E+02  0.19566139150E+02  0.10831322473E+03  0.91732508147E+02 0.  0.
          5    1    3    3  502    0 -0.69277851640E+01  0.40931994115E+02 -0.39804881314E+02  0.57705640330E+02  0.47000000000E+01 0.  1.
         -5    1    3    3    0  502 -0.24727790289E+02 -0.84886428944E+02 -0.18177660087E+02  0.90386319527E+02  0.47000000000E+01 0.  1.
        -11    1    4    4    0    0  0.50092379397E+01 -0.27227284569E+02 -0.56088749063E+01  0.28246716047E+02  0.00000000000E+00 0.  1.
         11    1    4    4    0    0  0.26646337513E+02  0.71181719398E+02  0.25175014057E+02  0.80066508679E+02  0.00000000000E+00 0. -1.
<mgrwt>
<rscale>  0 0.12813484E+03</rscale>
<asrwt>0</asrwt>
<pdfrwt beam="1">  1        1 0.16768368E-01 0.13626905E+03</pdfrwt>
<pdfrwt beam="2">  1       -1 0.22678584E-01 0.13626905E+03</pdfrwt>
<totfact> 0.50307651E+03</totfact>
</mgrwt>
</event>
<event>
 8    1  0.1033707E-005  0.2747892E+03  0.7546771E-02  0.1100670E+00
          1   -1    0    0  501    0  0.00000000000E+00  0.00000000000E+00  0.15524619690E+04  0.15524619690E+04  0.00000000000E+00 0. -1.
         -1   -1    0    0    0  501 -0.00000000000E+00 -0.00000000000E+00 -0.57010193012E+02  0.57010193012E+02  0.00000000000E+00 0.  1.
         23    2    1    2    0    0  0.20759214541E+03 -0.12957426203E+03  0.41212444411E+03  0.49533389219E+03  0.12500047641E+03 0.  0.
         23    2    1    2    0    0 -0.20759214541E+03  0.12957426203E+03  0.10833273319E+04  0.11141382699E+04  0.88442004044E+02 0.  0.
          5    1    3    3  502    0  0.22129070634E+03 -0.13501700272E+03  0.39097127100E+03  0.46912662734E+03  0.47000000000E+01 0.  1.
         -5    1    3    3    0  502 -0.13698560934E+02  0.54427406952E+01  0.21153173109E+02  0.26207264843E+02  0.47000000000E+01 0.  1.
        -11    1    4    4    0    0 -0.13250850915E+03  0.60480731773E+02  0.79633336690E+03  0.80954509149E+03  0.00000000000E+00 0. -1.
         11    1    4    4    0    0 -0.75083636252E+02  0.69093530254E+02  0.28699396500E+03  0.30459317836E+03  0.00000000000E+00 0.  1.
<mgrwt>
<rscale>  0 0.27106792E+03</rscale>
<asrwt>0</asrwt>
<pdfrwt beam="1">  1        1 0.23884027E+00 0.27478921E+03</pdfrwt>
<pdfrwt beam="2">  1       -1 0.87708001E-02 0.27478921E+03</pdfrwt>
<totfact> 0.49428052E+02</totfact>
</mgrwt>
</event>
<event>
 8    1  0.1033707E-005  0.1342319E+03  0.7546771E-02  0.1230403E+00
         -2   -1    0    0    0  501 -0.00000000000E+00  0.00000000000E+00  0.21246507603E+02  0.21246507603E+02  0.00000000000E+00 0.  1.
          2   -1    0    0  501    0  0.00000000000E+00 -0.00000000000E+00 -0.77584119778E+03  0.77584119778E+03  0.00000000000E+00 0. -1.
         23    2    1    2    0    0 -0.26113828062E+02 -0.41370887318E+02 -0.29259421053E+03  0.32191549202E+03  0.12499891854E+03 0.  0.
         23    2    1    2    0    0  0.26113828062E+02  0.41370887318E+02 -0.46200047965E+03  0.47517221336E+03  0.99753229628E+02 0.  0.
          5    1    3    3  502    0  0.24178125925E+02 -0.63929039917E+02 -0.97731264191E+02  0.11935239385E+03  0.47000000000E+01 0. -1.
         -5    1    3    3    0  502 -0.50291953988E+02  0.22558152599E+02 -0.19486294634E+03  0.20256309817E+03  0.47000000000E+01 0. -1.
        -11    1    4    4    0    0 -0.43641872929E+01 -0.31663583416E+02 -0.13442333930E+03  0.13817113589E+03  0.00000000000E+00 0.  1.
         11    1    4    4    0    0  0.30478015355E+02  0.73034470734E+02 -0.32757714035E+03  0.33700107747E+03  0.00000000000E+00 0. -1.
<mgrwt>
<rscale>  0 0.12803382E+03</rscale>
<asrwt>0</asrwt>
<pdfrwt beam="2">  1        2 0.11936016E+00 0.13423193E+03</pdfrwt>
<pdfrwt beam="1">  1       -2 0.32686942E-02 0.13423193E+03</pdfrwt>
<totfact> 0.13112816E+04</totfact>
</mgrwt>
</event>
<event>
 8    1  0.1033707E-005  0.1323891E+03  0.7546771E-02  0.1237664E+00
         -2   -1    0    0    0  501 -0.00000000000E+00  0.00000000000E+00  0.30956909925E+02  0.30956909925E+02  0.00000000000E+00 0.  1.
          2   -1    0    0  501    0  0.00000000000E+00 -0.00000000000E+00 -0.43700376562E+03  0.43700376562E+03  0.00000000000E+00 0. -1.
         23    2    1    2    0    0  0.22994484118E+02  0.37040036189E+02 -0.24580803993E+03  0.27919253483E+03  0.12500467363E+03 0.  0.
         23    2    1    2    0    0 -0.22994484118E+02 -0.37040036189E+02 -0.16023881576E+03  0.18876814071E+03  0.89756460995E+02 0.  0.
          5    1    3    3  502    0  0.27615210510E+02  0.58010656991E+02 -0.24880295089E+03  0.25700746010E+03  0.47000000000E+01 0. -1.
         -5    1    3    3    0  502 -0.46207263923E+01 -0.20970620802E+02  0.29949109567E+01  0.22185074731E+02  0.47000000000E+01 0. -1.
        -11    1    4    4    0    0  0.24413077872E+02 -0.36705354943E+02 -0.11532215728E+03  0.12346044473E+03  0.00000000000E+00 0.  1.
         11    1    4    4    0    0 -0.47407561990E+02 -0.33468124542E+00 -0.44916658472E+02  0.65307695975E+02  0.00000000000E+00 0. -1.
<mgrwt>
<rscale>  0 0.12335448E+03</rscale>
<asrwt>0</asrwt>
<pdfrwt beam="2">  1        2 0.67231342E-01 0.13238912E+03</pdfrwt>
<pdfrwt beam="1">  1       -2 0.47626020E-02 0.13238912E+03</pdfrwt>
<totfact> 0.14388849E+04</totfact>
</mgrwt>
</event>
<event>
 8    1  0.1033707E-005  0.1191104E+03  0.7546771E-02  0.1255363E+00
         -1   -1    0    0    0  501 -0.00000000000E+00  0.00000000000E+00  0.20289974113E+03  0.20289974113E+03  0.00000000000E+00 0.  1.
          1   -1    0    0  501    0  0.00000000000E+00 -0.00000000000E+00 -0.78071657762E+02  0.78071657762E+02  0.00000000000E+00 0. -1.
         23    2    1    2    0    0 -0.50881017704E+01  0.31638181315E+02  0.13995246120E+03  0.18377696306E+03  0.11471886269E+03 0.  0.
         23    2    1    2    0    0  0.50881017704E+01 -0.31638181315E+02 -0.15124377837E+02  0.97194435833E+02  0.90504962601E+02 0.  0.
          5    1    3    3  502    0 -0.40450512475E+02  0.51805632663E+01  0.45808188323E+01  0.41305642429E+02  0.47000000000E+01 0. -1.
         -5    1    3    3    0  502  0.35362410705E+02  0.26457618049E+02  0.13537164237E+03  0.14247132063E+03  0.47000000000E+01 0.  1.
        -11    1    4    4    0    0 -0.20544805285E+02 -0.44151467039E+02 -0.37072873997E+02  0.61203260144E+02  0.00000000000E+00 0.  1.
         11    1    4    4    0    0  0.25632907056E+02  0.12513285724E+02  0.21948496160E+02  0.35991175688E+02  0.00000000000E+00 0. -1.
<mgrwt>
<rscale>  0 0.11286047E+03</rscale>
<asrwt>0</asrwt>
<pdfrwt beam="2">  1        1 0.12011024E-01 0.11911037E+03</pdfrwt>
<pdfrwt beam="1">  1       -1 0.31215345E-01 0.11911037E+03</pdfrwt>
<totfact> 0.45328163E+03</totfact>
</mgrwt>
</event>
<event>
 8    1  0.1033707E-005  0.1276107E+03  0.7546771E-02  0.1251372E+00
          2   -1    0    0  501    0  0.00000000000E+00  0.00000000000E+00  0.20724471349E+03  0.20724471349E+03  0.00000000000E+00 0. -1.
         -2   -1    0    0    0  501 -0.00000000000E+00 -0.00000000000E+00 -0.54382615934E+02  0.54382615934E+02  0.00000000000E+00 0.  1.
         23    2    1    2    0    0  0.22532373826E+02  0.12346178934E+02  0.86401178153E+02  0.15410926272E+03  0.12499746104E+03 0.  0.
         23    2    1    2    0    0 -0.22532373826E+02 -0.12346178934E+02  0.66460919406E+02  0.10751806670E+03  0.80516736490E+02 0.  0.
          5    1    3    3  502    0  0.61595903011E+02 -0.69905542897E+01  0.59049732990E+01  0.62449033833E+02  0.47000000000E+01 0.  1.
         -5    1    3    3    0  502 -0.39063529185E+02  0.19336733224E+02  0.80496204854E+02  0.91660228889E+02  0.47000000000E+01 0.  1.
        -11    1    4    4    0    0 -0.38199021999E+02 -0.37560180209E+02  0.51353992521E+02  0.74210275345E+02  0.00000000000E+00 0. -1.
         11    1    4    4    0    0  0.15666648173E+02  0.25214001275E+02  0.15106926885E+02  0.33307791358E+02  0.00000000000E+00 0.  1.
<mgrwt>
<rscale>  0 0.11512009E+03</rscale>
<asrwt>0</asrwt>
<pdfrwt beam="1">  1        2 0.31883802E-01 0.12761074E+03</pdfrwt>
<pdfrwt beam="2">  1       -2 0.83665564E-02 0.12761074E+03</pdfrwt>
<totfact> 0.13473954E+04</totfact>
</mgrwt>
</event>
<event>
 7    1  0.1033707E-005  0.1343937E+03  0.7546771E-02  0.1259027E+00
          1   -1    0    0  501    0  0.00000000000E+00  0.00000000000E+00  0.16560728351E+03  0.16560728351E+03  0.00000000000E+00 0. -1.
         -1   -1    0    0    0  501 -0.00000000000E+00 -0.00000000000E+00 -0.60162697562E+02  0.60162697562E+02  0.00000000000E+00 0.  1.
         23    2    1    2    0    0  0.26840424157E+02 -0.41437967901E+02  0.53129508501E+02  0.14451438379E+03  0.12499659554E+03 0.  0.
          5    1    3    3  502    0  0.62459745530E+02 -0.30884779722E+02  0.73913077623E+02  0.10168737618E+03  0.47000000000E+01 0. -1.
         -5    1    3    3    0  502 -0.35619321373E+02 -0.10553188179E+02 -0.20783569122E+02  0.42827007615E+02  0.47000000000E+01 0. -1.
        -11    1    1    2    0    0 -0.27664607202E+02  0.82264764078E+01  0.26511090353E+02  0.39189836915E+02  0.00000000000E+00 0.  1.
         11    1    1    2    0    0  0.82418304505E+00  0.33211491494E+02  0.25803987091E+02  0.42065760361E+02  0.00000000000E+00 0. -1.
<mgrwt>
<rscale>  0 0.11083740E+03</rscale>
<asrwt>0</asrwt>
<pdfrwt beam="1">  1        1 0.25478043E-01 0.13439368E+03</pdfrwt>
<pdfrwt beam="2">  1       -1 0.92557997E-02 0.13439368E+03</pdfrwt>
<totfact> 0.12027991E+04</totfact>
</mgrwt>
</event>
<event>
 8    1  0.1033707E-005  0.1394501E+03  0.7546771E-02  0.1226020E+00
         -2   -1    0    0    0  501 -0.00000000000E+00  0.00000000000E+00  0.14114787495E+03  0.14114787495E+03  0.00000000000E+00 0.  1.
          2   -1    0    0  501    0  0.00000000000E+00 -0.00000000000E+00 -0.11137282367E+03  0.11137282367E+03  0.00000000000E+00 0. -1.
         23    2    1    2    0    0 -0.16174957802E+02 -0.59644363796E+02  0.35376849638E+02  0.14386745761E+03  0.12500897758E+03 0.  0.
         23    2    1    2    0    0  0.16174957802E+02  0.59644363796E+02 -0.56017983662E+01  0.10865324101E+03  0.89191183666E+02 0.  0.
          5    1    3    3  502    0  0.37122975812E+02 -0.74525454330E+02  0.27303301425E+02  0.87748042400E+02  0.47000000000E+01 0. -1.
         -5    1    3    3    0  502 -0.53297933614E+02  0.14881090534E+02  0.80735482131E+01  0.56119415212E+02  0.47000000000E+01 0. -1.
        -11    1    4    4    0    0 -0.32536008379E+02  0.21617092098E+01  0.33408714290E+01  0.32778441846E+02  0.00000000000E+00 0.  1.
         11    1    4    4    0    0  0.48710966181E+02  0.57482654587E+02 -0.89426697951E+01  0.75874799161E+02  0.00000000000E+00 0. -1.
<mgrwt>
<rscale>  0 0.13097254E+03</rscale>
<asrwt>0</asrwt>
<pdfrwt beam="2">  1        2 0.17134281E-01 0.13945008E+03</pdfrwt>
<pdfrwt beam="1">  1       -2 0.21715058E-01 0.13945008E+03</pdfrwt>
<totfact> 0.57730376E+03</totfact>
</mgrwt>
</event>
<event>
 8    1  0.1033707E-005  0.1731638E+03  0.7546771E-02  0.1181890E+00
         -3   -1    0    0    0  501 -0.00000000000E+00  0.00000000000E+00  0.23536404445E+03  0.23536404445E+03  0.00000000000E+00 0.  1.
          3   -1    0    0  501    0  0.00000000000E+00 -0.00000000000E+00 -0.13290115973E+03  0.13290115973E+03  0.00000000000E+00 0. -1.
         23    2    1    2    0    0 -0.10485524952E+03 -0.58020193755E+02  0.13287818310E+03  0.21827119018E+03  0.12499893872E+03 0.  0.
         23    2    1    2    0    0  0.10485524952E+03  0.58020193755E+02 -0.30415298374E+02  0.14999401400E+03  0.84924364145E+02 0.  0.
          5    1    3    3  502    0 -0.12001953703E+02 -0.42104549813E+02 -0.11776067091E+02  0.45580760895E+02  0.47000000000E+01 0. -1.
         -5    1    3    3    0  502 -0.92853295821E+02 -0.15915643942E+02  0.14465425019E+03  0.17269042928E+03  0.47000000000E+01 0. -1.
        -11    1    4    4    0    0  0.10525284235E+03  0.19337847322E+02 -0.13831220113E+02  0.10790466075E+03  0.00000000000E+00 0.  1.
         11    1    4    4    0    0 -0.39759282409E+00  0.38682346433E+02 -0.16584078261E+02  0.42089353254E+02  0.00000000000E+00 0. -1.
<mgrwt>
<rscale>  0 0.16618122E+03</rscale>
<asrwt>0</asrwt>
<pdfrwt beam="2">  1        3 0.20446332E-01 0.17316380E+03</pdfrwt>
<pdfrwt beam="1">  1       -3 0.36209853E-01 0.17316380E+03</pdfrwt>
<totfact> 0.38959724E+02</totfact>
</mgrwt>
</event>
<event>
 8    1  0.1033707E-005  0.1439714E+03  0.7546771E-02  0.1220134E+00
         -4   -1    0    0    0  501 -0.00000000000E+00  0.00000000000E+00  0.54383699923E+02  0.54383699923E+02  0.00000000000E+00 0. -1.
          4   -1    0    0  501    0  0.00000000000E+00 -0.00000000000E+00 -0.50889691950E+03  0.50889691950E+03  0.00000000000E+00 0.  1.
         23    2    1    2    0    0  0.71110314799E+02  0.67649957146E+01 -0.64713523079E+02  0.15784676567E+03  0.12500127730E+03 0.  0.
         23    2    1    2    0    0 -0.71110314799E+02 -0.67649957146E+01 -0.38979969650E+03  0.40543385375E+03  0.85617546910E+02 0.  0.
          5    1    3    3  502    0  0.86949633777E+02 -0.20432746859E+02 -0.82250937317E+02  0.12151149183E+03  0.47000000000E+01 0.  1.
         -5    1    3    3    0  502 -0.15839318978E+02  0.27197742573E+02  0.17537414238E+02  0.36335273839E+02  0.47000000000E+01 0.  1.
        -11    1    4    4    0    0 -0.38792287960E+02 -0.37371361405E+02 -0.30441520284E+03  0.30914410229E+03  0.00000000000E+00 0.  1.
         11    1    4    4    0    0 -0.32318026838E+02  0.30606365691E+02 -0.85384493650E+02  0.96289751456E+02  0.00000000000E+00 0. -1.
<mgrwt>
<rscale>  0 0.13506048E+03</rscale>
<asrwt>0</asrwt>
<pdfrwt beam="2">  1        4 0.78291834E-01 0.14397139E+03</pdfrwt>
<pdfrwt beam="1">  1       -4 0.83667230E-02 0.14397139E+03</pdfrwt>
<totfact> 0.25748617E+02</totfact>
</mgrwt>
</event>
<event>
 8    1  0.1033707E-005  0.1392937E+03  0.7546771E-02  0.1223687E+00
         -2   -1    0    0    0  501 -0.00000000000E+00  0.00000000000E+00  0.24102942953E+03  0.24102942953E+03  0.00000000000E+00 0.  1.
          2   -1    0    0  501    0  0.00000000000E+00 -0.00000000000E+00 -0.66893450029E+02  0.66893450029E+02  0.00000000000E+00 0. -1.
         23    2    1    2    0    0  0.64977080484E+01  0.61115921886E+02  0.10385790287E+03  0.17375043118E+03  0.12500148891E+03 0.  0.
         23    2    1    2    0    0 -0.64977080484E+01 -0.61115921886E+02  0.70278076630E+02  0.13417244838E+03  0.96363176219E+02 0.  0.
          5    1    3    3  502    0  0.34320963281E+02 -0.19117280706E+02  0.73447324225E+02  0.83426604737E+02  0.47000000000E+01 0.  1.
         -5    1    3    3    0  502 -0.27823255232E+02  0.80233202593E+02  0.30410578646E+02  0.90323826444E+02  0.47000000000E+01 0.  1.
        -11    1    4    4    0    0 -0.92638054700E+01  0.80556228749E+01 -0.18123924572E+02  0.21890358461E+02  0.00000000000E+00 0. -1.
         11    1    4    4    0    0  0.27660974216E+01 -0.69171544761E+02  0.88402001202E+02  0.11228208992E+03  0.00000000000E+00 0.  1.
<mgrwt>
<rscale>  0 0.13257300E+03</rscale>
<asrwt>0</asrwt>
<pdfrwt beam="2">  1        2 0.10291300E-01 0.13929375E+03</pdfrwt>
<pdfrwt beam="1">  1       -2 0.37081450E-01 0.13929375E+03</pdfrwt>
<totfact> 0.40713940E+03</totfact>
</mgrwt>
</event>
<event>
 8    1  0.1033707E-005  0.1272588E+03  0.7546771E-02  0.1246344E+00
          1   -1    0    0  501    0  0.00000000000E+00  0.00000000000E+00  0.27083720553E+03  0.27083720553E+03  0.00000000000E+00 0. -1.
         -1   -1    0    0    0  501 -0.00000000000E+00 -0.00000000000E+00 -0.53083567897E+02  0.53083567897E+02  0.00000000000E+00 0.  1.
         23    2    1    2    0    0 -0.18989743164E+02 -0.14456845692E+02  0.61246652045E+02  0.14123010670E+03  0.12500071967E+03 0.  0.
         23    2    1    2    0    0  0.18989743164E+02  0.14456845692E+02  0.15650698559E+03  0.18269066673E+03  0.91169251606E+02 0.  0.
          5    1    3    3  502    0  0.88914928163E+01  0.12965481379E+02 -0.34223454284E+02  0.37953882213E+02  0.47000000000E+01 0. -1.
         -5    1    3    3    0  502 -0.27881235980E+02 -0.27422327072E+02  0.95470106329E+02  0.10327622449E+03  0.47000000000E+01 0. -1.
        -11    1    4    4    0    0  0.30977718130E+02 -0.75040935133E+01  0.90604590226E+01  0.33136420412E+02  0.00000000000E+00 0.  1.
         11    1    4    4    0    0 -0.11987974967E+02  0.21960939206E+02  0.14744652657E+03  0.14955424632E+03  0.00000000000E+00 0. -1.
<mgrwt>
<rscale>  0 0.11805277E+03</rscale>
<asrwt>0</asrwt>
<pdfrwt beam="1">  1        1 0.41667262E-01 0.12725875E+03</pdfrwt>
<pdfrwt beam="2">  1       -1 0.81667029E-02 0.12725875E+03</pdfrwt>
<totfact> 0.78633507E+03</totfact>
</mgrwt>
</event>
<event>
 8    1  0.1033707E-005  0.1588347E+03  0.7546771E-02  0.1198041E+00
         -1   -1    0    0    0  501 -0.00000000000E+00  0.00000000000E+00  0.29474745346E+02  0.29474745346E+02  0.00000000000E+00 0.  1.
          1   -1    0    0  501    0  0.00000000000E+00 -0.00000000000E+00 -0.74889946833E+03  0.74889946833E+03  0.00000000000E+00 0. -1.
         23    2    1    2    0    0 -0.57669586312E+02 -0.79174881308E+02 -0.31859950286E+03  0.35599735247E+03  0.12503610971E+03 0.  0.
         23    2    1    2    0    0  0.57669586312E+02  0.79174881308E+02 -0.40082522013E+03  0.42237686121E+03  0.90260250244E+02 0.  0.
          5    1    3    3  502    0 -0.85403084009E+02 -0.36478904822E+02 -0.12520077042E+03  0.15595422459E+03  0.47000000000E+01 0. -1.
         -5    1    3    3    0  502  0.27733497697E+02 -0.42695976487E+02 -0.19339873244E+03  0.20004312788E+03  0.47000000000E+01 0. -1.
        -11    1    4    4    0    0  0.25872047648E+02 -0.14821302453E+02 -0.54579039973E+02  0.62192487169E+02  0.00000000000E+00 0.  1.
         11    1    4    4    0    0  0.31797538663E+02  0.93996183761E+02 -0.34624618016E+03  0.36018437404E+03  0.00000000000E+00 0. -1.
<mgrwt>
<rscale>  0 0.15199610E+03</rscale>
<asrwt>0</asrwt>
<pdfrwt beam="2">  1        1 0.11521530E+00 0.15883473E+03</pdfrwt>
<pdfrwt beam="1">  1       -1 0.45345761E-02 0.15883473E+03</pdfrwt>
<totfact> 0.50777437E+03</totfact>
</mgrwt>
</event>
<event>
 8    1  0.1033707E-005  0.1295836E+03  0.7546771E-02  0.1241672E+00
         -1   -1    0    0    0  501 -0.00000000000E+00  0.00000000000E+00  0.14194158191E+04  0.14194158191E+04  0.00000000000E+00 0.  1.
          1   -1    0    0  501    0  0.00000000000E+00 -0.00000000000E+00 -0.10759575510E+02  0.10759575510E+02  0.00000000000E+00 0. -1.
         23    2    1    2    0    0  0.30724990616E+02 -0.15443414387E+02  0.10631106384E+04  0.10709790565E+04  0.12493752715E+03 0.  0.
         23    2    1    2    0    0 -0.30724990616E+02  0.15443414387E+02  0.34554560516E+03  0.35919633817E+03  0.91857062952E+02 0.  0.
          5    1    3    3  502    0  0.47774704288E+02  0.98368890806E+01  0.15986711593E+03  0.16720876625E+03  0.47000000000E+01 0.  1.
         -5    1    3    3    0  502 -0.17049713673E+02 -0.25280303467E+02  0.90324352252E+03  0.90377029020E+03  0.47000000000E+01 0.  1.
        -11    1    4    4    0    0 -0.44945996435E+02  0.39092532554E+02  0.30067687466E+03  0.30652071978E+03  0.00000000000E+00 0. -1.
         11    1    4    4    0    0  0.14221005820E+02 -0.23649118167E+02  0.44868730501E+02  0.52675618396E+02  0.00000000000E+00 0.  1.
<mgrwt>
<rscale>  0 0.12086785E+03</rscale>
<asrwt>0</asrwt>
<pdfrwt beam="2">  1        1 0.16553204E-02 0.12958360E+03</pdfrwt>
<pdfrwt beam="1">  1       -1 0.21837152E+00 0.12958360E+03</pdfrwt>
<totfact> 0.97949539E+02</totfact>
</mgrwt>
</event>
<event>
 8    1  0.1033707E-005  0.1282112E+03  0.7546771E-02  0.1245036E+00
          1   -1    0    0  501    0  0.00000000000E+00  0.00000000000E+00  0.33061321992E+02  0.33061321992E+02  0.00000000000E+00 0. -1.
         -1   -1    0    0    0  501 -0.00000000000E+00 -0.00000000000E+00 -0.52453592536E+03  0.52453592536E+03  0.00000000000E+00 0.  1.
         23    2    1    2    0    0  0.24786056830E+02  0.14030028842E+02 -0.41968032900E+03  0.43882762181E+03  0.12500765093E+03 0.  0.
         23    2    1    2    0    0 -0.24786056830E+02 -0.14030028842E+02 -0.71794274370E+02  0.11876962554E+03  0.90225361162E+02 0.  0.
          5    1    3    3  502    0 -0.34124271613E+02 -0.20773060035E+02 -0.28362720424E+03  0.28646547247E+03  0.47000000000E+01 0.  1.
         -5    1    3    3    0  502  0.58910328443E+02  0.34803088877E+02 -0.13605312476E+03  0.15236214933E+03  0.47000000000E+01 0.  1.
        -11    1    4    4    0    0 -0.23413742438E+02  0.26138690053E+02  0.15594853983E+01  0.35126435165E+02  0.00000000000E+00 0. -1.
         11    1    4    4    0    0 -0.13723143919E+01 -0.40168718895E+02 -0.73353759768E+02  0.83643190378E+02  0.00000000000E+00 0.  1.
<mgrwt>
<rscale>  0 0.11883195E+03</rscale>
<asrwt>0</asrwt>
<pdfrwt beam="1">  1        1 0.50863577E-02 0.12821117E+03</pdfrwt>
<pdfrwt beam="2">  1       -1 0.80697828E-01 0.12821117E+03</pdfrwt>
<totfact> 0.25102877E+03</totfact>
</mgrwt>
</event>
<event>
 8    1  0.1033707E-005  0.1292516E+03  0.7546771E-02  0.1239674E+00
          2   -1    0    0  501    0  0.00000000000E+00  0.00000000000E+00  0.33135304803E+03  0.33135304803E+03  0.00000000000E+00 0. -1.
         -2   -1    0    0    0  501 -0.00000000000E+00 -0.00000000000E+00 -0.43040483734E+02  0.43040483734E+02  0.00000000000E+00 0.  1.
         23    2    1    2    0    0 -0.21636986901E+02 -0.24577895048E+02  0.11596214461E+03  0.17364672471E+03  0.12503493069E+03 0.  0.
         23    2    1    2    0    0  0.21636986901E+02  0.24577895048E+02  0.17235041969E+03  0.20074680705E+03  0.97582689287E+02 0.  0.
          5    1    3    3  502    0 -0.39895604317E+02  0.39393603226E+02  0.80211136187E+02  0.97976689000E+02  0.47000000000E+01 0.  1.
         -5    1    3    3    0  502  0.18258617416E+02 -0.63971498273E+02  0.35751008420E+02  0.75670035710E+02  0.47000000000E+01 0.  1.
        -11    1    4    4    0    0 -0.15384938307E+01  0.39970558629E+02  0.17920874372E+02  0.43831156254E+02  0.00000000000E+00 0.  1.
         11    1    4    4    0    0  0.23175480732E+02 -0.15392663581E+02  0.15442954531E+03  0.15691565080E+03  0.00000000000E+00 0. -1.
<mgrwt>
<rscale>  0 0.12209911E+03</rscale>
<asrwt>0</asrwt>
<pdfrwt beam="1">  1        2 0.50977390E-01 0.12925156E+03</pdfrwt>
<pdfrwt beam="2">  1       -2 0.66216131E-02 0.12925156E+03</pdfrwt>
<totfact> 0.11727670E+04</totfact>
</mgrwt>
</event>
<event>
 8    1  0.1033707E-005  0.1445489E+03  0.7546771E-02  0.1209411E+00
         -2   -1    0    0    0  501 -0.00000000000E+00  0.00000000000E+00  0.90634991393E+02  0.90634991393E+02  0.00000000000E+00 0.  1.
          2   -1    0    0  501    0  0.00000000000E+00 -0.00000000000E+00 -0.41058808061E+03  0.41058808061E+03  0.00000000000E+00 0. -1.
         23    2    1    2    0    0 -0.17685301284E+01  0.72567664615E+02  0.85565917272E+01  0.14480189595E+03  0.12500072064E+03 0.  0.
         23    2    1    2    0    0  0.17685301284E+01 -0.72567664615E+02 -0.32850968095E+03  0.35642117606E+03  0.11767859032E+03 0.  0.
          5    1    3    3  502    0  0.59351253836E+02  0.35051528168E+02 -0.11836419804E+02  0.70095447731E+02  0.47000000000E+01 0.  1.
         -5    1    3    3    0  502 -0.61119783964E+02  0.37516136447E+02  0.20393011531E+02  0.74706448216E+02  0.47000000000E+01 0.  1.
        -11    1    4    4    0    0 -0.52381601958E+02 -0.40132213773E+02 -0.23119526239E+03  0.24042811017E+03  0.00000000000E+00 0. -1.
         11    1    4    4    0    0  0.54150132086E+02 -0.32435450842E+02 -0.97314418555E+02  0.11599306589E+03  0.00000000000E+00 0.  1.
<mgrwt>
<rscale>  0 0.14295184E+03</rscale>
<asrwt>0</asrwt>
<pdfrwt beam="2">  1        2 0.63167397E-01 0.14454886E+03</pdfrwt>
<pdfrwt beam="1">  1       -2 0.13943845E-01 0.14454886E+03</pdfrwt>
<totfact> 0.29214213E+03</totfact>
</mgrwt>
</event>
<event>
 8    1  0.1033707E-005  0.1255384E+03  0.7546771E-02  0.1265869E+00
          2   -1    0    0  501    0  0.00000000000E+00  0.00000000000E+00  0.72863354109E+03  0.72863354109E+03  0.00000000000E+00 0. -1.
         -2   -1    0    0    0  501 -0.00000000000E+00 -0.00000000000E+00 -0.12986057813E+02  0.12986057813E+02  0.00000000000E+00 0.  1.
         23    2    1    2    0    0  0.83319776688E+01  0.80466559738E+01  0.41066070887E+03  0.42942067110E+03  0.12500289772E+03 0.  0.
         23    2    1    2    0    0 -0.83319776688E+01 -0.80466559738E+01  0.30498677441E+03  0.31219892780E+03  0.65704394299E+02 0.  0.
          5    1    3    3  502    0  0.37809388531E+02  0.38721513671E+02  0.84444177022E+02  0.10040823928E+03  0.47000000000E+01 0.  1.
         -5    1    3    3    0  502 -0.29477410862E+02 -0.30674857698E+02  0.32621653185E+03  0.32901243182E+03  0.47000000000E+01 0.  1.
        -11    1    4    4    0    0  0.27375843951E+02 -0.42781439871E+01  0.87929097066E+02  0.92191460878E+02  0.00000000000E+00 0.  1.
         11    1    4    4    0    0 -0.35707821620E+02 -0.37685119867E+01  0.21705767734E+03  0.22000746692E+03  0.00000000000E+00 0. -1.
<mgrwt>
<rscale>  0 0.10718712E+03</rscale>
<asrwt>0</asrwt>
<pdfrwt beam="1">  1        2 0.11209744E+00 0.12553842E+03</pdfrwt>
<pdfrwt beam="2">  1       -2 0.19978556E-02 0.12553842E+03</pdfrwt>
<totfact> 0.28889445E+04</totfact>
</mgrwt>
</event>
<event>
 8    1  0.1033707E-005  0.1375098E+03  0.7546771E-02  0.1228744E+00
          2   -1    0    0  501    0  0.00000000000E+00  0.00000000000E+00  0.83235437239E+02  0.83235437239E+02  0.00000000000E+00 0. -1.
         -2   -1    0    0    0  501 -0.00000000000E+00 -0.00000000000E+00 -0.18988050789E+03  0.18988050789E+03  0.00000000000E+00 0.  1.
         23    2    1    2    0    0 -0.55551625822E+02 -0.14111223418E+02 -0.91326725927E+02  0.16507424614E+03  0.12499530437E+03 0.  0.
         23    2    1    2    0    0  0.55551625822E+02  0.14111223418E+02 -0.15318344722E+02  0.10804169898E+03  0.90295333636E+02 0.  0.
          5    1    3    3  502    0  0.33869328978E+02  0.21605602680E+02 -0.19808190640E+02  0.45037627924E+02  0.47000000000E+01 0. -1.
         -5    1    3    3    0  502 -0.89420954800E+02 -0.35716826098E+02 -0.71518535287E+02  0.12003661822E+03  0.47000000000E+01 0. -1.
        -11    1    4    4    0    0  0.60769204660E+02  0.39362713867E+02  0.85480790000E+01  0.72906715277E+02  0.00000000000E+00 0. -1.
         11    1    4    4    0    0 -0.52175788381E+01 -0.25251490448E+02 -0.23866423722E+02  0.35134983706E+02  0.00000000000E+00 0.  1.
<mgrwt>
<rscale>  0 0.12913549E+03</rscale>
<asrwt>0</asrwt>
<pdfrwt beam="1">  1        2 0.12805452E-01 0.13750977E+03</pdfrwt>
<pdfrwt beam="2">  1       -2 0.29212386E-01 0.13750977E+03</pdfrwt>
<totfact> 0.48302742E+03</totfact>
</mgrwt>
</event>
<event>
 8    1  0.1033707E-005  0.1456045E+03  0.7546771E-02  0.1217383E+00
          4   -1    0    0  501    0  0.00000000000E+00  0.00000000000E+00  0.62791165744E+02  0.62791165744E+02  0.00000000000E+00 0.  1.
         -4   -1    0    0    0  501 -0.00000000000E+00 -0.00000000000E+00 -0.28782805908E+03  0.28782805908E+03  0.00000000000E+00 0. -1.
         23    2    1    2    0    0 -0.67026876934E+02 -0.32922712143E+02 -0.17000441313E+03  0.22383512281E+03  0.12499661802E+03 0.  0.
         23    2    1    2    0    0  0.67026876934E+02  0.32922712143E+02 -0.55032480204E+02  0.12678410201E+03  0.86424113751E+02 0.  0.
          5    1    3    3  502    0 -0.26840543020E+02 -0.71136765400E+02 -0.48809696728E+02  0.90472817110E+02  0.47000000000E+01 0.  1.
         -5    1    3    3    0  502 -0.40186333914E+02  0.38214053257E+02 -0.12119471640E+03  0.13336230570E+03  0.47000000000E+01 0.  1.
        -11    1    4    4    0    0  0.60571502906E+02  0.27398120733E+01 -0.69892520191E+02  0.92527714297E+02  0.00000000000E+00 0. -1.
         11    1    4    4    0    0  0.64553740280E+01  0.30182900069E+02  0.14860039986E+02  0.34256387708E+02  0.00000000000E+00 0.  1.
<mgrwt>
<rscale>  0 0.13702953E+03</rscale>
<asrwt>0</asrwt>
<pdfrwt beam="1">  1        4 0.96601792E-02 0.14560447E+03</pdfrwt>
<pdfrwt beam="2">  1       -4 0.44281240E-01 0.14560447E+03</pdfrwt>
<totfact> 0.67071901E+02</totfact>
</mgrwt>
</event>
<event>
 8    1  0.1033707E-005  0.1348551E+03  0.7546771E-02  0.1240510E+00
         -3   -1    0    0    0  501 -0.00000000000E+00  0.00000000000E+00  0.66486260341E+02  0.66486260341E+02  0.00000000000E+00 0.  1.
          3   -1    0    0  501    0  0.00000000000E+00 -0.00000000000E+00 -0.25228930066E+03  0.25228930066E+03  0.00000000000E+00 0. -1.
         23    2    1    2    0    0 -0.40859888164E+02 -0.29829185011E+02 -0.28262048194E+02  0.13778479758E+03  0.12500638518E+03 0.  0.
         23    2    1    2    0    0  0.40859888164E+02  0.29829185011E+02 -0.15754099213E+03  0.18099076343E+03  0.73342903588E+02 0.  0.
          5    1    3    3  502    0  0.33064164026E+02 -0.45469453744E+02 -0.25806469482E+02  0.62038488325E+02  0.47000000000E+01 0.  1.
         -5    1    3    3    0  502 -0.73924052190E+02  0.15640268733E+02 -0.24555787121E+01  0.75746309251E+02  0.47000000000E+01 0.  1.
        -11    1    4    4    0    0  0.30883093576E+02  0.35090336929E+00 -0.13639870605E+02  0.33762918596E+02  0.00000000000E+00 0.  1.
         11    1    4    4    0    0  0.99767945887E+01  0.29478281642E+02 -0.14390112152E+03  0.14722784483E+03  0.00000000000E+00 0. -1.
<mgrwt>
<rscale>  0 0.12158160E+03</rscale>
<asrwt>0</asrwt>
<pdfrwt beam="2">  1        3 0.38813740E-01 0.13485513E+03</pdfrwt>
<pdfrwt beam="1">  1       -3 0.10228655E-01 0.13485513E+03</pdfrwt>
<totfact> 0.10772277E+03</totfact>
</mgrwt>
</event>
<event>
 8    1  0.1438341E-005  0.2385145E+03  0.7546771E-02  0.1123550E+00
         -1   -1    0    0    0  501 -0.00000000000E+00  0.00000000000E+00  0.52192431204E+02  0.52192431204E+02  0.00000000000E+00 0.  1.
          1   -1    0    0  501    0  0.00000000000E+00 -0.00000000000E+00 -0.10418554672E+04  0.10418554672E+04  0.00000000000E+00 0. -1.
         23    2    1    2    0    0  0.18213062729E+03 -0.89961779807E+02 -0.42995159738E+03  0.49167829667E+03  0.12499793640E+03 0.  0.
         23    2    1    2    0    0 -0.18213062729E+03  0.89961779807E+02 -0.55971143857E+03  0.60236960169E+03  0.91145791711E+02 0.  0.
          5    1    3    3  502    0  0.14412586257E+03 -0.11745117277E+03 -0.29501638865E+03  0.34874604201E+03  0.47000000000E+01 0. -1.
         -5    1    3    3    0  502  0.38004764726E+02  0.27489392961E+02 -0.13493520874E+03  0.14293225467E+03  0.47000000000E+01 0. -1.
        -11    1    4    4    0    0 -0.11414306646E+03  0.10246067302E+03 -0.39546713071E+03  0.42417105112E+03  0.00000000000E+00 0.  1.
         11    1    4    4    0    0 -0.67987560833E+02 -0.12498893214E+02 -0.16424430786E+03  0.17819855056E+03  0.00000000000E+00 0. -1.
<mgrwt>
<rscale>  0 0.23444497E+03</rscale>
<asrwt>0</asrwt>
<pdfrwt beam="2">  1        1 0.16028545E+00 0.23851451E+03</pdfrwt>
<pdfrwt beam="1">  1       -1 0.80296053E-02 0.23851451E+03</pdfrwt>
<totfact> 0.12755114E+03</totfact>
</mgrwt>
</event>
<event>
 8    1  0.1033707E-005  0.2006175E+03  0.7546771E-02  0.1153211E+00
         -1   -1    0    0    0  501 -0.00000000000E+00  0.00000000000E+00  0.34544466127E+02  0.34544466127E+02  0.00000000000E+00 0.  1.
          1   -1    0    0  501    0  0.00000000000E+00 -0.00000000000E+00 -0.10748266127E+04  0.10748266127E+04  0.00000000000E+00 0. -1.
         23    2    1    2    0    0 -0.15599789498E+03 -0.16927676045E+02 -0.48507818027E+03  0.52492686618E+03  0.12500193764E+03 0.  0.
         23    2    1    2    0    0  0.15599789498E+03  0.16927676045E+02 -0.55520396631E+03  0.58444421265E+03  0.93282924699E+02 0.  0.
          5    1    3    3  502    0 -0.14014663599E+03 -0.13319718847E+02 -0.23290269686E+03  0.27218422198E+03  0.47000000000E+01 0. -1.
         -5    1    3    3    0  502 -0.15851258984E+02 -0.36079571982E+01 -0.25217548341E+03  0.25274264420E+03  0.47000000000E+01 0. -1.
        -11    1    4    4    0    0  0.85980643558E+02  0.54647155144E+02 -0.34372357934E+03  0.35850367031E+03  0.00000000000E+00 0.  1.
         11    1    4    4    0    0  0.70017251419E+02 -0.37719479099E+02 -0.21148038698E+03  0.22594054235E+03  0.00000000000E+00 0. -1.
<mgrwt>
<rscale>  0 0.19593885E+03</rscale>
<asrwt>0</asrwt>
<pdfrwt beam="2">  1        1 0.16535795E+00 0.20061748E+03</pdfrwt>
<pdfrwt beam="1">  1       -1 0.53145329E-02 0.20061748E+03</pdfrwt>
<totfact> 0.22517337E+03</totfact>
</mgrwt>
</event>
<event>
 7    1  0.1033707E-005  0.1887023E+03  0.7546771E-02  0.1180056E+00
          2   -1    0    0  501    0  0.00000000000E+00  0.00000000000E+00  0.18957742629E+03  0.18957742629E+03  0.00000000000E+00 0. -1.
         -2   -1    0    0    0  501 -0.00000000000E+00 -0.00000000000E+00 -0.14635229210E+03  0.14635229210E+03  0.00000000000E+00 0.  1.
         23    2    1    2    0    0 -0.18935411532E+02  0.69549157613E+02  0.81179633694E+02  0.14344827745E+03  0.93763746956E+02 0.  0.
          5    1    1    2  502    0  0.90216405399E+02 -0.49507179083E+02  0.10987485621E+02  0.10359910919E+03  0.47000000000E+01 0. -1.
         -5    1    1    2    0  502 -0.71280993867E+02 -0.20041978530E+02 -0.48941985126E+02  0.88882331754E+02  0.47000000000E+01 0.  1.
        -11    1    3    3    0    0  0.17994188228E+02 -0.16063927447E+02  0.98524300365E+01  0.26055919723E+02  0.00000000000E+00 0.  1.
         11    1    3    3    0    0 -0.36929599760E+02  0.85613085060E+02  0.71327203658E+02  0.11739235773E+03  0.00000000000E+00 0. -1.
<mgrwt>
<rscale>  0 0.16789956E+03</rscale>
<asrwt>0</asrwt>
<pdfrwt beam="1">  1        2 0.29165758E-01 0.18870231E+03</pdfrwt>
<pdfrwt beam="2">  1       -2 0.22515737E-01 0.18870231E+03</pdfrwt>
<totfact> 0.30352140E+03</totfact>
</mgrwt>
</event>
<event>
 8    1  0.1033707E-005  0.2493887E+03  0.7546771E-02  0.1116668E+00
          2   -1    0    0  501    0  0.00000000000E+00  0.00000000000E+00  0.15246176589E+04  0.15246176589E+04  0.00000000000E+00 0. -1.
         -2   -1    0    0    0  501 -0.00000000000E+00 -0.00000000000E+00 -0.39494079964E+02  0.39494079964E+02  0.00000000000E+00 0.  1.
         23    2    1    2    0    0  0.21342523884E+03 -0.31912474784E+02  0.92649002600E+03  0.95946781733E+03  0.12500394235E+03 0.  0.
         23    2    1    2    0    0 -0.21342523884E+03  0.31912474784E+02  0.55863355296E+03  0.60464392155E+03  0.83391167138E+02 0.  0.
          5    1    3    3  502    0  0.77809588131E+02  0.32288776000E+02  0.19087786815E+03  0.20869438806E+03  0.47000000000E+01 0. -1.
         -5    1    3    3    0  502  0.13561565071E+03 -0.64201250784E+02  0.73561215785E+03  0.75077342927E+03  0.47000000000E+01 0. -1.
        -11    1    4    4    0    0 -0.16715371644E+03  0.42877017615E+02  0.50122035602E+03  0.53009494324E+03  0.00000000000E+00 0. -1.
         11    1    4    4    0    0 -0.46271522400E+02 -0.10964542831E+02  0.57413196943E+02  0.74548978315E+02  0.00000000000E+00 0.  1.
<mgrwt>
<rscale>  0 0.24475127E+03</rscale>
<asrwt>0</asrwt>
<pdfrwt beam="1">  1        2 0.23455652E+00 0.24938870E+03</pdfrwt>
<pdfrwt beam="2">  1       -2 0.60760135E-02 0.24938870E+03</pdfrwt>
<totfact> 0.19229535E+03</totfact>
</mgrwt>
</event>
<event>
 8    1  0.1033707E-005  0.1256947E+03  0.7546771E-02  0.1249744E+00
          2   -1    0    0  501    0  0.00000000000E+00  0.00000000000E+00  0.76071609721E+02  0.76071609721E+02  0.00000000000E+00 0. -1.
         -2   -1    0    0    0  501 -0.00000000000E+00 -0.00000000000E+00 -0.16265926458E+03  0.16265926458E+03  0.00000000000E+00 0.  1.
         23    2    1    2    0    0 -0.64374047475E+01 -0.11261490310E+02 -0.75683693138E+02  0.14672144656E+03  0.12502359830E+03 0.  0.
         23    2    1    2    0    0  0.64374047475E+01  0.11261490310E+02 -0.10903961720E+02  0.92009427735E+02  0.90435485663E+02 0.  0.
          5    1    3    3  502    0 -0.43210530549E+02 -0.42178703990E+02 -0.45261086947E+01  0.60735234259E+02  0.47000000000E+01 0. -1.
         -5    1    3    3    0  502  0.36773125802E+02  0.30917213680E+02 -0.71157584443E+02  0.85986212306E+02  0.47000000000E+01 0. -1.
        -11    1    4    4    0    0  0.38455149220E+02  0.28567823891E+02 -0.23677533998E+02  0.53437296709E+02  0.00000000000E+00 0.  1.
         11    1    4    4    0    0 -0.32017744472E+02 -0.17306333581E+02  0.12773572278E+02  0.38572131026E+02  0.00000000000E+00 0. -1.
<mgrwt>
<rscale>  0 0.11605878E+03</rscale>
<asrwt>0</asrwt>
<pdfrwt beam="1">  1        2 0.11703325E-01 0.12569472E+03</pdfrwt>
<pdfrwt beam="2">  1       -2 0.25024502E-01 0.12569472E+03</pdfrwt>
<totfact> 0.70257451E+03</totfact>
</mgrwt>
</event>
<event>
 8    1  0.1033707E-005  0.1565960E+03  0.7546771E-02  0.1205153E+00
         -1   -1    0    0    0  501 -0.00000000000E+00  0.00000000000E+00  0.64350124103E+03  0.64350124103E+03  0.00000000000E+00 0.  1.
          1   -1    0    0  501    0  0.00000000000E+00 -0.00000000000E+00 -0.49091438949E+02  0.49091438949E+02  0.00000000000E+00 0. -1.
         23    2    1    2    0    0  0.18750896650E+02 -0.92454799845E+02  0.53882115086E+03  0.56111544323E+03  0.12499128720E+03 0.  0.
         23    2    1    2    0    0 -0.18750896650E+02  0.92454799845E+02  0.55588651216E+02  0.13147723675E+03  0.72778290023E+02 0.  0.
          5    1    3    3  502    0  0.11856768363E+02 -0.17437814808E+02  0.41864331858E+03  0.41920040379E+03  0.47000000000E+01 0. -1.
         -5    1    3    3    0  502  0.68941282872E+01 -0.75016985037E+02  0.12017783228E+03  0.14191503944E+03  0.47000000000E+01 0. -1.
        -11    1    4    4    0    0  0.10418873852E+02  0.30300735857E+02 -0.12861234827E+02  0.34526785067E+02  0.00000000000E+00 0. -1.
         11    1    4    4    0    0 -0.29169770502E+02  0.62154063988E+02  0.68449886042E+02  0.96950451678E+02  0.00000000000E+00 0.  1.
<mgrwt>
<rscale>  0 0.14625371E+03</rscale>
<asrwt>0</asrwt>
<pdfrwt beam="2">  1        1 0.75525295E-02 0.15659600E+03</pdfrwt>
<pdfrwt beam="1">  1       -1 0.99000185E-01 0.15659600E+03</pdfrwt>
<totfact> 0.95889085E+02</totfact>
</mgrwt>
</event>
<event>
 8    1  0.1033707E-005  0.1833764E+03  0.7546771E-02  0.1169725E+00
          4   -1    0    0  501    0  0.00000000000E+00  0.00000000000E+00  0.10797989586E+03  0.10797989586E+03  0.00000000000E+00 0.  1.
         -4   -1    0    0    0  501 -0.00000000000E+00 -0.00000000000E+00 -0.34953171614E+03  0.34953171614E+03  0.00000000000E+00 0. -1.
         23    2    1    2    0    0  0.10643076980E+03 -0.81705706191E+02 -0.23006257707E+03  0.29420351530E+03  0.12499435132E+03 0.  0.
         23    2    1    2    0    0 -0.10643076980E+03  0.81705706191E+02 -0.11489243208E+02  0.16330809670E+03  0.92380736926E+02 0.  0.
          5    1    3    3  502    0  0.10414542461E+03 -0.39731739553E+02 -0.22558946906E+03  0.25166958327E+03  0.47000000000E+01 0.  1.
         -5    1    3    3    0  502  0.22853451859E+01 -0.41973966638E+02 -0.44731080078E+01  0.42533932022E+02  0.47000000000E+01 0.  1.
        -11    1    4    4    0    0 -0.94388898718E+02  0.47936111161E+02  0.28467442391E+02  0.10962449649E+03  0.00000000000E+00 0. -1.
         11    1    4    4    0    0 -0.12041871077E+02  0.33769595030E+02 -0.39956685598E+02  0.53683600210E+02  0.00000000000E+00 0.  1.
<mgrwt>
<rscale>  0 0.17802878E+03</rscale>
<asrwt>0</asrwt>
<pdfrwt beam="1">  1        4 0.16612292E-01 0.18337644E+03</pdfrwt>
<pdfrwt beam="2">  1       -4 0.53774111E-01 0.18337644E+03</pdfrwt>
<totfact> 0.18434495E+02</totfact>
</mgrwt>
</event>
<event>
 8    1  0.1033707E-005  0.1456460E+03  0.7546771E-02  0.1218735E+00
         -1   -1    0    0    0  501 -0.00000000000E+00  0.00000000000E+00  0.15291216872E+03  0.15291216872E+03  0.00000000000E+00 0.  1.
          1   -1    0    0  501    0  0.00000000000E+00 -0.00000000000E+00 -0.10762690630E+03  0.10762690630E+03  0.00000000000E+00 0. -1.
         23    2    1    2    0    0 -0.45694913466E+02  0.59154134244E+02  0.26992868245E+02  0.14812624582E+03  0.12500213218E+03 0.  0.
         23    2    1    2    0    0  0.45694913466E+02 -0.59154134244E+02  0.18292394171E+02  0.11241282920E+03  0.81943857427E+02 0.  0.
          5    1    3    3  502    0 -0.54226266439E+02  0.24103156706E+02  0.69939407288E+02  0.91842587218E+02  0.47000000000E+01 0.  1.
         -5    1    3    3    0  502  0.85313529729E+01  0.35050977539E+02 -0.42946539043E+02  0.56283658603E+02  0.47000000000E+01 0.  1.
        -11    1    4    4    0    0  0.25718093426E+02  0.33719429121E+01  0.36051692394E+02  0.44413003197E+02  0.00000000000E+00 0.  1.
         11    1    4    4    0    0  0.19976820040E+02 -0.62526077156E+02 -0.17759298223E+02  0.67999826006E+02  0.00000000000E+00 0. -1.
<mgrwt>
<rscale>  0 0.13605707E+03</rscale>
<asrwt>0</asrwt>
<pdfrwt beam="2">  1        1 0.16557986E-01 0.14564604E+03</pdfrwt>
<pdfrwt beam="1">  1       -1 0.23524949E-01 0.14564604E+03</pdfrwt>
<totfact> 0.48364586E+03</totfact>
</mgrwt>
</event>
<event>
 8    1  0.1033707E-005  0.1612736E+03  0.7546771E-02  0.1194513E+00
         -2   -1    0    0    0  501 -0.00000000000E+00  0.00000000000E+00  0.24443215631E+03  0.24443215631E+03  0.00000000000E+00 0.  1.
          2   -1    0    0  501    0  0.00000000000E+00 -0.00000000000E+00 -0.91268062475E+02  0.91268062475E+02  0.00000000000E+00 0. -1.
         23    2    1    2    0    0 -0.99744043380E+02 -0.20866292397E+02  0.81892274169E+02  0.18087433608E+03  0.12499961814E+03 0.  0.
         23    2    1    2    0    0  0.99744043380E+02  0.20866292397E+02  0.71271819667E+02  0.15482588271E+03  0.92233970581E+02 0.  0.
          5    1    3    3  502    0 -0.46707539011E+02  0.24995426059E+02 -0.20237539418E+02  0.56903545813E+02  0.47000000000E+01 0.  1.
         -5    1    3    3    0  502 -0.53036504369E+02 -0.45861718457E+02  0.10212981359E+03  0.12397079026E+03  0.47000000000E+01 0.  1.
        -11    1    4    4    0    0  0.54632079723E+02  0.15937012792E+02  0.89385227522E+02  0.10596400998E+03  0.00000000000E+00 0.  1.
         11    1    4    4    0    0  0.45111963657E+02  0.49292796048E+01 -0.18113407855E+02  0.48861872729E+02  0.00000000000E+00 0. -1.
<mgrwt>
<rscale>  0 0.15495496E+03</rscale>
<asrwt>0</asrwt>
<pdfrwt beam="2">  1        2 0.14041240E-01 0.16127362E+03</pdfrwt>
<pdfrwt beam="1">  1       -2 0.37604947E-01 0.16127362E+03</pdfrwt>
<totfact> 0.27506395E+03</totfact>
</mgrwt>
</event>
<event>
 8    1  0.1033707E-005  0.2288395E+03  0.7546771E-02  0.1127991E+00
         -2   -1    0    0    0  501 -0.00000000000E+00  0.00000000000E+00  0.45323600167E+02  0.45323600167E+02  0.00000000000E+00 0.  1.
          2   -1    0    0  501    0  0.00000000000E+00 -0.00000000000E+00 -0.12148044855E+04  0.12148044855E+04  0.00000000000E+00 0. -1.
         23    2    1    2    0    0 -0.15030841485E+01  0.19168007967E+03 -0.43241804890E+03  0.48923705043E+03  0.12499604111E+03 0.  0.
         23    2    1    2    0    0  0.15030841485E+01 -0.19168007967E+03 -0.73706283641E+03  0.77089103522E+03  0.11944811073E+03 0.  0.
          5    1    3    3  502    0  0.28318911380E+02  0.11209064935E+03 -0.35778277240E+03  0.37602776046E+03  0.47000000000E+01 0. -1.
         -5    1    3    3    0  502 -0.29821995528E+02  0.79589430322E+02 -0.74635276503E+02  0.11320928997E+03  0.47000000000E+01 0. -1.
        -11    1    4    4    0    0  0.30854394706E+02 -0.70083941479E+02 -0.12834007780E+03  0.14944874739E+03  0.00000000000E+00 0.  1.
         11    1    4    4    0    0 -0.29351310557E+02 -0.12159613819E+03 -0.60872275861E+03  0.62144228783E+03  0.00000000000E+00 0. -1.
<mgrwt>
<rscale>  0 0.22809020E+03</rscale>
<asrwt>0</asrwt>
<pdfrwt beam="2">  1        2 0.18689298E+00 0.22883951E+03</pdfrwt>
<pdfrwt beam="1">  1       -2 0.69728624E-02 0.22883951E+03</pdfrwt>
<totfact> 0.22949786E+03</totfact>
</mgrwt>
</event>
<event>
 8    1  0.1033707E-005  0.1784853E+03  0.7546771E-02  0.1175954E+00
         -1   -1    0    0    0  501 -0.00000000000E+00  0.00000000000E+00  0.31473995248E+03  0.31473995248E+03  0.00000000000E+00 0.  1.
          1   -1    0    0  501    0  0.00000000000E+00 -0.00000000000E+00 -0.10367437266E+03  0.10367437266E+03  0.00000000000E+00 0. -1.
         23    2    1    2    0    0  0.79810721411E+02  0.99307666939E+02  0.19486002394E+03  0.26424877761E+03  0.12500089430E+03 0.  0.
         23    2    1    2    0    0 -0.79810721411E+02 -0.99307666939E+02  0.16205555890E+02  0.15416554753E+03  0.85279728177E+02 0.  0.
          5    1    3    3  502    0  0.98791457098E+02  0.92914376339E+02  0.20123173213E+03  0.24271203790E+03  0.47000000000E+01 0. -1.
         -5    1    3    3    0  502 -0.18980735687E+02  0.63932905998E+01 -0.63717081953E+01  0.21536739708E+02  0.47000000000E+01 0. -1.
        -11    1    4    4    0    0 -0.25546438025E+02 -0.34566909807E+01 -0.25621200392E+02  0.36345771664E+02  0.00000000000E+00 0. -1.
         11    1    4    4    0    0 -0.54264283386E+02 -0.95850975959E+02  0.41826756282E+02  0.11781977586E+03  0.00000000000E+00 0.  1.
<mgrwt>
<rscale>  0 0.17182858E+03</rscale>
<asrwt>0</asrwt>
<pdfrwt beam="2">  1        1 0.15949904E-01 0.17848526E+03</pdfrwt>
<pdfrwt beam="1">  1       -1 0.48421531E-01 0.17848526E+03</pdfrwt>
<totfact> 0.14802120E+03</totfact>
</mgrwt>
</event>
<event>
 8    1  0.1033707E-005  0.1267499E+03  0.7546771E-02  0.1246963E+00
          2   -1    0    0  501    0  0.00000000000E+00  0.00000000000E+00  0.52062979971E+03  0.52062979971E+03  0.00000000000E+00 0. -1.
         -2   -1    0    0    0  501 -0.00000000000E+00 -0.00000000000E+00 -0.24306176884E+02  0.24306176884E+02  0.00000000000E+00 0.  1.
         23    2    1    2    0    0  0.17271537042E+02  0.11921913638E+02  0.23260935262E+03  0.26490120577E+03  0.12500039949E+03 0.  0.
         23    2    1    2    0    0 -0.17271537042E+02 -0.11921913638E+02  0.26371427020E+03  0.28003477083E+03  0.91835823872E+02 0.  0.
          5    1    3    3  502    0 -0.36308524135E+02  0.87229975858E+01  0.14660293256E+02  0.40390763920E+02  0.47000000000E+01 0. -1.
         -5    1    3    3    0  502  0.53580061177E+02  0.31989160519E+01  0.21794905937E+03  0.22451044185E+03  0.47000000000E+01 0. -1.
        -11    1    4    4    0    0  0.35110164555E+02 -0.19644256988E+02  0.13464565275E+03  0.14052783458E+03  0.00000000000E+00 0.  1.
         11    1    4    4    0    0 -0.52381701598E+02  0.77223433507E+01  0.12906861746E+03  0.13950693625E+03  0.00000000000E+00 0. -1.
<mgrwt>
<rscale>  0 0.11768666E+03</rscale>
<asrwt>0</asrwt>
<pdfrwt beam="1">  1        2 0.80096884E-01 0.12674990E+03</pdfrwt>
<pdfrwt beam="2">  1       -2 0.37394122E-02 0.12674990E+03</pdfrwt>
<totfact> 0.16980031E+04</totfact>
</mgrwt>
</event>
<event>
 8    1  0.1033707E-005  0.1806795E+03  0.7546771E-02  0.1173260E+00
         -1   -1    0    0    0  501 -0.00000000000E+00  0.00000000000E+00  0.55006205953E+02  0.55006205953E+02  0.00000000000E+00 0.  1.
          1   -1    0    0  501    0  0.00000000000E+00 -0.00000000000E+00 -0.73198300664E+03  0.73198300664E+03  0.00000000000E+00 0. -1.
         23    2    1    2    0    0 -0.41762966434E+02 -0.12360207616E+03 -0.14312595899E+03  0.23049975463E+03  0.12499391246E+03 0.  0.
         23    2    1    2    0    0  0.41762966434E+02  0.12360207616E+03 -0.53385084169E+03  0.55648945796E+03  0.87533862279E+02 0.  0.
          5    1    3    3  502    0 -0.86136083304E+02 -0.83263101893E+02 -0.10424956597E+03  0.15887803809E+03  0.47000000000E+01 0. -1.
         -5    1    3    3    0  502  0.44373116871E+02 -0.40338974267E+02 -0.38876393027E+02  0.71621716543E+02  0.47000000000E+01 0. -1.
        -11    1    4    4    0    0  0.33804809466E+02  0.43127571244E+02 -0.90290792156E+02  0.10561808412E+03  0.00000000000E+00 0.  1.
         11    1    4    4    0    0  0.79581569683E+01  0.80474504916E+02 -0.44356004954E+03  0.45087137384E+03  0.00000000000E+00 0. -1.
<mgrwt>
<rscale>  0 0.17447501E+03</rscale>
<asrwt>0</asrwt>
<pdfrwt beam="2">  1        1 0.11261276E+00 0.18067954E+03</pdfrwt>
<pdfrwt beam="1">  1       -1 0.84624939E-02 0.18067954E+03</pdfrwt>
<totfact> 0.20671748E+03</totfact>
</mgrwt>
</event>
<event>
 8    1  0.1033707E-005  0.1372212E+03  0.7546771E-02  0.1228764E+00
         -3   -1    0    0    0  501 -0.00000000000E+00  0.00000000000E+00  0.26622848114E+02  0.26622848114E+02  0.00000000000E+00 0.  1.
          3   -1    0    0  501    0  0.00000000000E+00 -0.00000000000E+00 -0.56555147381E+03  0.56555147381E+03  0.00000000000E+00 0. -1.
         23    2    1    2    0    0  0.21914798069E+02 -0.52219357032E+02 -0.28125437025E+03  0.31294356002E+03  0.12499012501E+03 0.  0.
         23    2    1    2    0    0 -0.21914798069E+02  0.52219357032E+02 -0.25767425544E+03  0.27923076190E+03  0.91469540560E+02 0.  0.
          5    1    3    3  502    0 -0.22488058194E+02  0.28090778755E+02 -0.13847802208E+03  0.14315396331E+03  0.47000000000E+01 0.  1.
         -5    1    3    3    0  502  0.44402856263E+02 -0.80310135787E+02 -0.14277634818E+03  0.16978959672E+03  0.47000000000E+01 0.  1.
        -11    1    4    4    0    0 -0.33978078735E+01  0.49521397437E+02 -0.25563253994E+03  0.26040719917E+03  0.00000000000E+00 0. -1.
         11    1    4    4    0    0 -0.18516990196E+02  0.26979595948E+01 -0.20417155073E+01  0.18823562737E+02  0.00000000000E+00 0.  1.
<mgrwt>
<rscale>  0 0.12912203E+03</rscale>
<asrwt>0</asrwt>
<pdfrwt beam="2">  1        3 0.87007913E-01 0.13722118E+03</pdfrwt>
<pdfrwt beam="1">  1       -3 0.40958231E-02 0.13722118E+03</pdfrwt>
<totfact> 0.89793685E+02</totfact>
</mgrwt>
</event>
<event>
 8    1  0.1033707E-005  0.1484659E+03  0.7546771E-02  0.1210875E+00
          2   -1    0    0  501    0  0.00000000000E+00  0.00000000000E+00  0.62515161778E+03  0.62515161778E+03  0.00000000000E+00 0. -1.
         -2   -1    0    0    0  501 -0.00000000000E+00 -0.00000000000E+00 -0.41447759081E+02  0.41447759081E+02  0.00000000000E+00 0.  1.
         23    2    1    2    0    0  0.94724264170E+01  0.79553317818E+02  0.13331584331E+03  0.19953755838E+03  0.12499466345E+03 0.  0.
         23    2    1    2    0    0 -0.94724264170E+01 -0.79553317818E+02  0.45038801539E+03  0.46706181847E+03  0.94228024675E+02 0.  0.
          5    1    3    3  502    0  0.44065555111E+02 -0.13370750815E+02  0.24971342022E+02  0.52594753036E+02  0.47000000000E+01 0. -1.
         -5    1    3    3    0  502 -0.34593128694E+02  0.92924068633E+02  0.10834450129E+03  0.14694280535E+03  0.47000000000E+01 0. -1.
        -11    1    4    4    0    0  0.20739608306E+02  0.72320244423E+01  0.32749541973E+02  0.39433057574E+02  0.00000000000E+00 0.  1.
         11    1    4    4    0    0 -0.30212034723E+02 -0.86785342260E+02  0.41763847341E+03  0.42762876090E+03  0.00000000000E+00 0. -1.
<mgrwt>
<rscale>  0 0.14183949E+03</rscale>
<asrwt>0</asrwt>
<pdfrwt beam="1">  1        2 0.96177165E-01 0.14846590E+03</pdfrwt>
<pdfrwt beam="2">  1       -2 0.63765788E-02 0.14846590E+03</pdfrwt>
<totfact> 0.62693883E+03</totfact>
</mgrwt>
</event>
<event>
 8    1  0.1033707E-005  0.1351181E+03  0.7546771E-02  0.1232193E+00
          2   -1    0    0  501    0  0.00000000000E+00  0.00000000000E+00  0.55434594423E+03  0.55434594423E+03  0.00000000000E+00 0. -1.
         -2   -1    0    0    0  501 -0.00000000000E+00 -0.00000000000E+00 -0.28282788283E+02  0.28282788283E+02  0.00000000000E+00 0.  1.
         23    2    1    2    0    0  0.32510121158E+02 -0.39698910305E+02  0.21120494595E+03  0.25072780166E+03  0.12499595943E+03 0.  0.
         23    2    1    2    0    0 -0.32510121158E+02  0.39698910305E+02  0.31485820999E+03  0.33190093085E+03  0.91594890929E+02 0.  0.
          5    1    3    3  502    0 -0.11781334083E+02  0.40271250337E+02  0.50933092024E+02  0.66157715345E+02  0.47000000000E+01 0.  1.
         -5    1    3    3    0  502  0.44291455242E+02 -0.79970160642E+02  0.16027185393E+03  0.18457008632E+03  0.47000000000E+01 0.  1.
        -11    1    4    4    0    0 -0.23437886690E+02 -0.26401671378E+02  0.74291766626E+02  0.82253567537E+02  0.00000000000E+00 0.  1.
         11    1    4    4    0    0 -0.90722344680E+01  0.66100581683E+02  0.24056644337E+03  0.24964736332E+03  0.00000000000E+00 0. -1.
<mgrwt>
<rscale>  0 0.12685872E+03</rscale>
<asrwt>0</asrwt>
<pdfrwt beam="1">  1        2 0.85283983E-01 0.13511810E+03</pdfrwt>
<pdfrwt beam="2">  1       -2 0.43511986E-02 0.13511810E+03</pdfrwt>
<totfact> 0.12710024E+04</totfact>
</mgrwt>
</event>
<event>
 8    1  0.1033707E-005  0.1496078E+03  0.7546771E-02  0.1209865E+00
         -2   -1    0    0    0  501 -0.00000000000E+00  0.00000000000E+00  0.18403591446E+02  0.18403591446E+02  0.00000000000E+00 0. -1.
          2   -1    0    0  501    0  0.00000000000E+00 -0.00000000000E+00 -0.10167405329E+04  0.10167405329E+04  0.00000000000E+00 0.  1.
         23    2    1    2    0    0  0.60115211632E+02  0.56070405294E+02 -0.51661135953E+03  0.53783805793E+03  0.12499900298E+03 0.  0.
         23    2    1    2    0    0 -0.60115211632E+02 -0.56070405294E+02 -0.48172558197E+03  0.49730606645E+03  0.92174065727E+02 0.  0.
          5    1    3    3  502    0  0.28113760822E+02  0.58114413128E+02 -0.49423245164E+03  0.49845308186E+03  0.47000000000E+01 0. -1.
         -5    1    3    3    0  502  0.32001450810E+02 -0.20440078340E+01 -0.22378907888E+02  0.39384976072E+02  0.47000000000E+01 0. -1.
        -11    1    4    4    0    0 -0.46519806770E+02  0.13981902391E+02 -0.13937058245E+03  0.14759317488E+03  0.00000000000E+00 0. -1.
         11    1    4    4    0    0 -0.13595404862E+02 -0.70052307685E+02 -0.34235499951E+03  0.34971289158E+03  0.00000000000E+00 0.  1.
<mgrwt>
<rscale>  0 0.14260600E+03</rscale>
<asrwt>0</asrwt>
<pdfrwt beam="2">  1        2 0.15642162E+00 0.14960775E+03</pdfrwt>
<pdfrwt beam="1">  1       -2 0.28313217E-02 0.14960775E+03</pdfrwt>
<totfact> 0.11461598E+04</totfact>
</mgrwt>
</event>
<event>
 8    1  0.1033707E-005  0.1634692E+03  0.7546771E-02  0.1191480E+00
          2   -1    0    0  501    0  0.00000000000E+00  0.00000000000E+00  0.39186353293E+03  0.39186353293E+03  0.00000000000E+00 0. -1.
         -2   -1    0    0    0  501 -0.00000000000E+00 -0.00000000000E+00 -0.65734075802E+02  0.65734075802E+02  0.00000000000E+00 0.  1.
         23    2    1    2    0    0 -0.39749039938E+02 -0.97544997078E+02  0.10174525968E+03  0.19254678669E+03  0.12500861798E+03 0.  0.
         23    2    1    2    0    0  0.39749039938E+02  0.97544997078E+02  0.22438419745E+03  0.26505082204E+03  0.93854448841E+02 0.  0.
          5    1    3    3  502    0 -0.31489171807E+02  0.71107092297E+01  0.78374912044E+02  0.84893150282E+02  0.47000000000E+01 0.  1.
         -5    1    3    3    0  502 -0.82598681310E+01 -0.10465570631E+03  0.23370347635E+02  0.10765363641E+03  0.47000000000E+01 0.  1.
        -11    1    4    4    0    0  0.71245724690E+01  0.10529046534E+03  0.14942359999E+03  0.18293237510E+03  0.00000000000E+00 0.  1.
         11    1    4    4    0    0  0.32624467469E+02 -0.77454682663E+01  0.74960597458E+02  0.82118446938E+02  0.00000000000E+00 0. -1.
<mgrwt>
<rscale>  0 0.15755911E+03</rscale>
<asrwt>0</asrwt>
<pdfrwt beam="1">  1        2 0.60286696E-01 0.16346916E+03</pdfrwt>
<pdfrwt beam="2">  1       -2 0.10112935E-01 0.16346916E+03</pdfrwt>
<totfact> 0.51653416E+03</totfact>
</mgrwt>
</event>
<event>
 8    1  0.1033707E-005  0.1209446E+03  0.7546771E-02  0.1251644E+00
         -1   -1    0    0    0  501 -0.00000000000E+00  0.00000000000E+00  0.55168548493E+03  0.55168548493E+03  0.00000000000E+00 0.  1.
          1   -1    0    0  501    0  0.00000000000E+00 -0.00000000000E+00 -0.30808770197E+02  0.30808770197E+02  0.00000000000E+00 0. -1.
         23    2    1    2    0    0 -0.24176361938E+02  0.34673154456E+02  0.43543608747E+03  0.45192056206E+03  0.11331762454E+03 0.  0.
         23    2    1    2    0    0  0.24176361938E+02 -0.34673154456E+02  0.85440627266E+02  0.13057369306E+03  0.89233762760E+02 0.  0.
          5    1    3    3  502    0  0.28050207643E+02 -0.97275329596E+01  0.37325777537E+02  0.47924343658E+02  0.47000000000E+01 0. -1.
         -5    1    3    3    0  502 -0.52226569581E+02  0.44400687416E+02  0.39811030993E+03  0.40399621840E+03  0.47000000000E+01 0.  1.
        -11    1    4    4    0    0 -0.26021636676E+02  0.12010611109E+02  0.15260808262E+02  0.32469564570E+02  0.00000000000E+00 0.  1.
         11    1    4    4    0    0  0.50197998614E+02 -0.46683765565E+02  0.70179819004E+02  0.98104128494E+02  0.00000000000E+00 0. -1.
<mgrwt>
<rscale>  0 0.11496408E+03</rscale>
<asrwt>0</asrwt>
<pdfrwt beam="2">  1        1 0.47398112E-02 0.12094465E+03</pdfrwt>
<pdfrwt beam="1">  1       -1 0.84874682E-01 0.12094465E+03</pdfrwt>
<totfact> 0.24827785E+03</totfact>
</mgrwt>
</event>
<event>
 8    1  0.1033707E-005  0.1483626E+03  0.7546771E-02  0.1212180E+00
          1   -1    0    0  501    0  0.00000000000E+00  0.00000000000E+00  0.27439990629E+03  0.27439990629E+03  0.00000000000E+00 0. -1.
         -1   -1    0    0    0  501 -0.00000000000E+00 -0.00000000000E+00 -0.67930196842E+02  0.67930196842E+02  0.00000000000E+00 0.  1.
         23    2    1    2    0    0  0.47208723532E+02 -0.64459987643E+02  0.84013022856E+02  0.17049827010E+03  0.12501087358E+03 0.  0.
         23    2    1    2    0    0 -0.47208723532E+02  0.64459987643E+02  0.12245668660E+03  0.17183183304E+03  0.90259543362E+02 0.  0.
          5    1    3    3  502    0  0.44755820206E+01 -0.56723425275E+02 -0.17723079124E+02  0.59781061742E+02  0.47000000000E+01 0.  1.
         -5    1    3    3    0  502  0.42733141511E+02 -0.77365623683E+01  0.10173610198E+03  0.11071720836E+03  0.47000000000E+01 0.  1.
        -11    1    4    4    0    0 -0.49128805749E+02  0.84633240237E+02  0.86744997020E+02  0.13077124843E+03  0.00000000000E+00 0.  1.
         11    1    4    4    0    0  0.19200822177E+01 -0.20173252594E+02  0.35711689577E+02  0.41060584609E+02  0.00000000000E+00 0. -1.
<mgrwt>
<rscale>  0 0.14085706E+03</rscale>
<asrwt>0</asrwt>
<pdfrwt beam="1">  1        1 0.42215369E-01 0.14836264E+03</pdfrwt>
<pdfrwt beam="2">  1       -1 0.10450800E-01 0.14836264E+03</pdfrwt>
<totfact> 0.53712387E+03</totfact>
</mgrwt>
</event>
<event>
 8    1  0.1033707E-005  0.1462498E+03  0.7546771E-02  0.1214717E+00
         -4   -1    0    0    0  501 -0.00000000000E+00  0.00000000000E+00  0.13964035493E+03  0.13964035493E+03  0.00000000000E+00 0.  1.
          4   -1    0    0  501    0  0.00000000000E+00 -0.00000000000E+00 -0.12693510322E+03  0.12693510322E+03  0.00000000000E+00 0. -1.
         23    2    1    2    0    0 -0.70352323835E+02  0.28515672969E+02 -0.31250540043E+01  0.14628317240E+03  0.12500562984E+03 0.  0.
         23    2    1    2    0    0  0.70352323835E+02 -0.28515672969E+02  0.15830305709E+02  0.12029228575E+03  0.91962178955E+02 0.  0.
          5    1    3    3  502    0 -0.73081634013E+02  0.28959136537E+02  0.49736143793E+02  0.93141455960E+02  0.47000000000E+01 0. -1.
         -5    1    3    3    0  502  0.27293101781E+01 -0.44346356724E+00 -0.52861197797E+02  0.53141716443E+02  0.47000000000E+01 0. -1.
        -11    1    4    4    0    0  0.32499183469E+02  0.25751830366E+02  0.31766937011E+02  0.52234968942E+02  0.00000000000E+00 0.  1.
         11    1    4    4    0    0  0.37853140365E+02 -0.54267503335E+02 -0.15936631302E+02  0.68057316807E+02  0.00000000000E+00 0. -1.
<mgrwt>
<rscale>  0 0.13897366E+03</rscale>
<asrwt>0</asrwt>
<pdfrwt beam="2">  1        4 0.19528477E-01 0.14624979E+03</pdfrwt>
<pdfrwt beam="1">  1       -4 0.21483132E-01 0.14624979E+03</pdfrwt>
<totfact> 0.78329038E+02</totfact>
</mgrwt>
</event>
<event>
 8    1  0.1033707E-005  0.1639870E+03  0.7546771E-02  0.1191381E+00
          1   -1    0    0  501    0  0.00000000000E+00  0.00000000000E+00  0.44058078909E+03  0.44058078909E+03  0.00000000000E+00 0. -1.
         -1   -1    0    0    0  501 -0.00000000000E+00 -0.00000000000E+00 -0.56144588343E+02  0.56144588343E+02  0.00000000000E+00 0.  1.
         23    2    1    2    0    0 -0.10448713334E+03  0.18693929890E+02  0.14286099686E+03  0.21748790298E+03  0.12499879787E+03 0.  0.
         23    2    1    2    0    0  0.10448713334E+03 -0.18693929890E+02  0.24157520388E+03  0.27923747446E+03  0.91367193028E+02 0.  0.
          5    1    3    3  502    0 -0.10071804627E+03 -0.28274027125E+02  0.13272784876E+03  0.16906305714E+03  0.47000000000E+01 0. -1.
         -5    1    3    3    0  502 -0.37690870657E+01  0.46967957015E+02  0.10133148107E+02  0.48424845834E+02  0.47000000000E+01 0. -1.
        -11    1    4    4    0    0  0.42747458288E+02 -0.50111066885E+02  0.81307963059E+02  0.10463961521E+03  0.00000000000E+00 0.  1.
         11    1    4    4    0    0  0.61739675050E+02  0.31417136995E+02  0.16026724082E+03  0.17459785925E+03  0.00000000000E+00 0. -1.
<mgrwt>
<rscale>  0 0.15764511E+03</rscale>
<asrwt>0</asrwt>
<pdfrwt beam="1">  1        1 0.67781658E-01 0.16398696E+03</pdfrwt>
<pdfrwt beam="2">  1       -1 0.86376292E-02 0.16398696E+03</pdfrwt>
<totfact> 0.39863038E+03</totfact>
</mgrwt>
</event>
<event>
 8    1  0.1033707E-005  0.1544843E+03  0.7546771E-02  0.1202942E+00
          2   -1    0    0  501    0  0.00000000000E+00  0.00000000000E+00  0.23319780274E+03  0.23319780274E+03  0.00000000000E+00 0. -1.
         -2   -1    0    0    0  501 -0.00000000000E+00 -0.00000000000E+00 -0.20162371479E+03  0.20162371479E+03  0.00000000000E+00 0.  1.
         23    2    1    2    0    0 -0.75165560973E+02 -0.50902683006E+02 -0.14739794278E+03  0.21352174913E+03  0.12499775646E+03 0.  0.
         23    2    1    2    0    0  0.75165560973E+02  0.50902683006E+02  0.17897203073E+03  0.22129976840E+03  0.93282661919E+02 0.  0.
          5    1    3    3  502    0 -0.77764519416E+02 -0.37100750987E+02 -0.16757852749E+03  0.18848989119E+03  0.47000000000E+01 0.  1.
         -5    1    3    3    0  502  0.25989584430E+01 -0.13801932019E+02  0.20180584713E+02  0.25031857938E+02  0.47000000000E+01 0.  1.
        -11    1    4    4    0    0 -0.71368377880E+01 -0.18496896409E+02  0.13858230719E+02  0.24189257720E+02  0.00000000000E+00 0.  1.
         11    1    4    4    0    0  0.82302398761E+02  0.69399579415E+02  0.16511380001E+03  0.19711051068E+03  0.00000000000E+00 0. -1.
<mgrwt>
<rscale>  0 0.14800816E+03</rscale>
<asrwt>0</asrwt>
<pdfrwt beam="1">  1        2 0.35876585E-01 0.15448425E+03</pdfrwt>
<pdfrwt beam="2">  1       -2 0.31019033E-01 0.15448425E+03</pdfrwt>
<totfact> 0.13649354E+03</totfact>
</mgrwt>
</event>
<event>
 8    1  0.1033707E-005  0.1541018E+03  0.7546771E-02  0.1203021E+00
          2   -1    0    0  501    0  0.00000000000E+00  0.00000000000E+00  0.98115165811E+02  0.98115165811E+02  0.00000000000E+00 0. -1.
         -2   -1    0    0    0  501 -0.00000000000E+00 -0.00000000000E+00 -0.20983336485E+03  0.20983336485E+03  0.00000000000E+00 0.  1.
         23    2    1    2    0    0  0.77349512268E+02  0.46397350680E+02 -0.78224352240E+02  0.17281904170E+03  0.12494683147E+03 0.  0.
         23    2    1    2    0    0 -0.77349512268E+02 -0.46397350680E+02 -0.33493846795E+02  0.13512948895E+03  0.94881398672E+02 0.  0.
          5    1    3    3  502    0 -0.26129042801E+02  0.15949455398E+02  0.10885025116E+02  0.32828124786E+02  0.47000000000E+01 0. -1.
         -5    1    3    3    0  502  0.10347855507E+03  0.30447895282E+02 -0.89109377356E+02  0.13999091692E+03  0.47000000000E+01 0. -1.
        -11    1    4    4    0    0 -0.25030317715E+02 -0.25596849243E+02  0.32520495978E+02  0.48366291513E+02  0.00000000000E+00 0. -1.
         11    1    4    4    0    0 -0.52319194553E+02 -0.20800501438E+02 -0.66014342773E+02  0.86763197442E+02  0.00000000000E+00 0.  1.
<mgrwt>
<rscale>  0 0.14794534E+03</rscale>
<asrwt>0</asrwt>
<pdfrwt beam="1">  1        2 0.15094641E-01 0.15410182E+03</pdfrwt>
<pdfrwt beam="2">  1       -2 0.32282056E-01 0.15410182E+03</pdfrwt>
<totfact> 0.33418150E+03</totfact>
</mgrwt>
</event>
<event>
 8    1  0.1033707E-005  0.1536278E+03  0.7546771E-02  0.1205251E+00
         -1   -1    0    0    0  501 -0.00000000000E+00  0.00000000000E+00  0.25905651214E+03  0.25905651214E+03  0.00000000000E+00 0.  1.
          1   -1    0    0  501    0  0.00000000000E+00 -0.00000000000E+00 -0.18948455615E+03  0.18948455615E+03  0.00000000000E+00 0. -1.
         23    2    1    2    0    0  0.30953104113E+02  0.83773429349E+02  0.20982434382E+03  0.26005336972E+03  0.12500167088E+03 0.  0.
         23    2    1    2    0    0 -0.30953104113E+02 -0.83773429349E+02 -0.14025238783E+03  0.18848769857E+03  0.88773859341E+02 0.  0.
          5    1    3    3  502    0 -0.36582493338E+02 -0.85454375970E+01  0.38471329433E+02  0.53976258771E+02  0.47000000000E+01 0. -1.
         -5    1    3    3    0  502  0.67535597451E+02  0.92318866946E+02  0.17135301438E+03  0.20607711095E+03  0.47000000000E+01 0. -1.
        -11    1    4    4    0    0 -0.15275376370E+02 -0.23091663074E+02 -0.11919832667E+03  0.12237157802E+03  0.00000000000E+00 0. -1.
         11    1    4    4    0    0 -0.15677727743E+02 -0.60681766275E+02 -0.21054061162E+02  0.66116120552E+02  0.00000000000E+00 0.  1.
<mgrwt>
<rscale>  0 0.14617718E+03</rscale>
<asrwt>0</asrwt>
<pdfrwt beam="2">  1        1 0.29151470E-01 0.15362780E+03</pdfrwt>
<pdfrwt beam="1">  1       -1 0.39854848E-01 0.15362780E+03</pdfrwt>
<totfact> 0.97003432E+02</totfact>
</mgrwt>
</event>
<event>
 8    1  0.1033707E-005  0.1317924E+03  0.7546771E-02  0.1239225E+00
         -2   -1    0    0    0  501 -0.00000000000E+00  0.00000000000E+00  0.35851876338E+02  0.35851876338E+02  0.00000000000E+00 0. -1.
          2   -1    0    0  501    0  0.00000000000E+00 -0.00000000000E+00 -0.44097976979E+03  0.44097976979E+03  0.00000000000E+00 0.  1.
         23    2    1    2    0    0 -0.41697268831E+02  0.19681383261E+01 -0.13144005437E+03  0.18613362806E+03  0.12500681503E+03 0.  0.
         23    2    1    2    0    0  0.41697268831E+02 -0.19681383261E+01 -0.27368783907E+03  0.29069801807E+03  0.88644055948E+02 0.  0.
          5    1    3    3  502    0 -0.76284365285E+02 -0.16488904765E+02 -0.12301560657E+03  0.14576048102E+03  0.47000000000E+01 0. -1.
         -5    1    3    3    0  502  0.34587096454E+02  0.18457043091E+02 -0.84244478038E+01  0.40373147036E+02  0.47000000000E+01 0. -1.
        -11    1    4    4    0    0  0.43875237241E+02 -0.26128082703E+02 -0.25503649381E+03  0.26009868574E+03  0.00000000000E+00 0.  1.
         11    1    4    4    0    0 -0.21779684102E+01  0.24159944377E+02 -0.18651345261E+02  0.30599332325E+02  0.00000000000E+00 0. -1.
<mgrwt>
<rscale>  0 0.12237802E+03</rscale>
<asrwt>0</asrwt>
<pdfrwt beam="2">  1        2 0.67843046E-01 0.13179241E+03</pdfrwt>
<pdfrwt beam="1">  1       -2 0.55156729E-02 0.13179241E+03</pdfrwt>
<totfact> 0.11424865E+04</totfact>
</mgrwt>
</event>
<event>
 8    1  0.1033707E-005  0.1656971E+03  0.7546771E-02  0.1189332E+00
         -2   -1    0    0    0  501 -0.00000000000E+00  0.00000000000E+00  0.82316439842E+02  0.82316439842E+02  0.00000000000E+00 0.  1.
          2   -1    0    0  501    0  0.00000000000E+00 -0.00000000000E+00 -0.29085605081E+03  0.29085605081E+03  0.00000000000E+00 0. -1.
         23    2    1    2    0    0 -0.10211821464E+03 -0.37320366652E+02 -0.92599861188E+02  0.18981638355E+03  0.12503833670E+03 0.  0.
         23    2    1    2    0    0  0.10211821464E+03  0.37320366652E+02 -0.11593974978E+03  0.18335610710E+03  0.91413876984E+02 0.  0.
          5    1    3    3  502    0 -0.12414423966E+03 -0.31934797258E+02 -0.43358738420E+02  0.13540197087E+03  0.47000000000E+01 0.  1.
         -5    1    3    3    0  502  0.22026025025E+02 -0.53855693941E+01 -0.49241122769E+02  0.54414412683E+02  0.47000000000E+01 0.  1.
        -11    1    4    4    0    0  0.10583656270E+03  0.55329092351E+02 -0.82362506231E+02  0.14507332249E+03  0.00000000000E+00 0.  1.
         11    1    4    4    0    0 -0.37183480636E+01 -0.18008725699E+02 -0.33577243549E+02  0.38282784616E+02  0.00000000000E+00 0. -1.
<mgrwt>
<rscale>  0 0.15943894E+03</rscale>
<asrwt>0</asrwt>
<pdfrwt beam="2">  1        2 0.44747084E-01 0.16569709E+03</pdfrwt>
<pdfrwt beam="1">  1       -2 0.12664068E-01 0.16569709E+03</pdfrwt>
<totfact> 0.49644085E+03</totfact>
</mgrwt>
</event>
<event>
 8    1  0.1033707E-005  0.1320196E+03  0.7546771E-02  0.1237740E+00
          2   -1    0    0  501    0  0.00000000000E+00  0.00000000000E+00  0.73323492328E+03  0.73323492328E+03  0.00000000000E+00 0. -1.
         -2   -1    0    0    0  501 -0.00000000000E+00 -0.00000000000E+00 -0.18945100891E+02  0.18945100891E+02  0.00000000000E+00 0.  1.
         23    2    1    2    0    0 -0.18400682526E+02  0.38292044915E+02  0.34276981549E+03  0.36731502848E+03  0.12499727161E+03 0.  0.
         23    2    1    2    0    0  0.18400682526E+02 -0.38292044915E+02  0.37152000690E+03  0.38486499569E+03  0.91044404362E+02 0.  0.
          5    1    3    3  502    0 -0.59188690114E+02  0.42972758795E+02  0.29584171971E+03  0.30478578076E+03  0.47000000000E+01 0. -1.
         -5    1    3    3    0  502  0.40788007589E+02 -0.46807138802E+01  0.46928095785E+02  0.62529247713E+02  0.47000000000E+01 0. -1.
        -11    1    4    4    0    0  0.51096797900E+02 -0.23462011988E+02  0.29539696385E+03  0.30070037415E+03  0.00000000000E+00 0.  1.
         11    1    4    4    0    0 -0.32696115374E+02 -0.14830032927E+02  0.76123043047E+02  0.84164621546E+02  0.00000000000E+00 0. -1.
<mgrwt>
<rscale>  0 0.12330666E+03</rscale>
<asrwt>0</asrwt>
<pdfrwt beam="1">  1        2 0.11280535E+00 0.13201963E+03</pdfrwt>
<pdfrwt beam="2">  1       -2 0.29146315E-02 0.13201963E+03</pdfrwt>
<totfact> 0.16604517E+04</totfact>
</mgrwt>
</event>
<event>
 8    1  0.1033707E-005  0.1147781E+03  0.7546771E-02  0.1259475E+00
          3   -1    0    0  501    0  0.00000000000E+00  0.00000000000E+00  0.34947025703E+03  0.34947025703E+03  0.00000000000E+00 0. -1.
         -3   -1    0    0    0  501 -0.00000000000E+00 -0.00000000000E+00 -0.37135398087E+02  0.37135398087E+02  0.00000000000E+00 0.  1.
         23    2    1    2    0    0 -0.79523783638E+01 -0.21404152191E+02  0.99504591412E+02  0.15190516851E+03  0.11248394755E+03 0.  0.
         23    2    1    2    0    0  0.79523783638E+01  0.21404152191E+02  0.21283026753E+03  0.23470048661E+03  0.96261194591E+02 0.  0.
          5    1    3    3  502    0 -0.22699548692E+02 -0.60138432082E+02  0.87166150239E+02  0.10840631103E+03  0.47000000000E+01 0.  1.
         -5    1    3    3    0  502  0.14747170328E+02  0.38734279891E+02  0.12338441173E+02  0.43498857478E+02  0.47000000000E+01 0. -1.
        -11    1    4    4    0    0 -0.30378939392E+02  0.34917799581E+02  0.16768473736E+03  0.17395489022E+03  0.00000000000E+00 0. -1.
         11    1    4    4    0    0  0.38331317756E+02 -0.13513647390E+02  0.45145530171E+02  0.60745596393E+02  0.00000000000E+00 0.  1.
<mgrwt>
<rscale>  0 0.11059330E+03</rscale>
<asrwt>0</asrwt>
<pdfrwt beam="1">  1        3 0.53764653E-01 0.11477812E+03</pdfrwt>
<pdfrwt beam="2">  1       -3 0.57131384E-02 0.11477812E+03</pdfrwt>
<totfact> 0.14201328E+03</totfact>
</mgrwt>
</event>
<event>
 8    1  0.1033707E-005  0.1477560E+03  0.7546771E-02  0.1212353E+00
         -2   -1    0    0    0  501 -0.00000000000E+00  0.00000000000E+00  0.35468027171E+02  0.35468027171E+02  0.00000000000E+00 0.  1.
          2   -1    0    0  501    0  0.00000000000E+00 -0.00000000000E+00 -0.51552831046E+03  0.51552831046E+03  0.00000000000E+00 0. -1.
         23    2    1    2    0    0 -0.66262669042E+02 -0.42600894512E+02 -0.23845520139E+03  0.28052220748E+03  0.12500499310E+03 0.  0.
         23    2    1    2    0    0  0.66262669042E+02  0.42600894512E+02 -0.24160508190E+03  0.27047413014E+03  0.92615667985E+02 0.  0.
          5    1    3    3  502    0  0.16969277243E+01 -0.56874147270E+02 -0.18248639697E+03  0.19120910875E+03  0.47000000000E+01 0. -1.
         -5    1    3    3    0  502 -0.67959596767E+02  0.14273252758E+02 -0.55968804420E+02  0.89313098732E+02  0.47000000000E+01 0. -1.
        -11    1    4    4    0    0  0.16106141781E+02  0.46671554234E+02 -0.19744283184E+03  0.20352226813E+03  0.00000000000E+00 0. -1.
         11    1    4    4    0    0  0.50156527261E+02 -0.40706597213E+01 -0.44162250054E+02  0.66951862015E+02  0.00000000000E+00 0.  1.
<mgrwt>
<rscale>  0 0.14072782E+03</rscale>
<asrwt>0</asrwt>
<pdfrwt beam="2">  1        2 0.79312051E-01 0.14775597E+03</pdfrwt>
<pdfrwt beam="1">  1       -2 0.54566193E-02 0.14775597E+03</pdfrwt>
<totfact> 0.98699717E+03</totfact>
</mgrwt>
</event>
<event>
 8    1  0.1033707E-005  0.1439403E+03  0.7546771E-02  0.1218361E+00
         -1   -1    0    0    0  501 -0.00000000000E+00  0.00000000000E+00  0.22989216077E+03  0.22989216077E+03  0.00000000000E+00 0.  1.
          1   -1    0    0  501    0  0.00000000000E+00 -0.00000000000E+00 -0.73374640801E+02  0.73374640801E+02  0.00000000000E+00 0. -1.
         23    2    1    2    0    0 -0.70896519268E+02  0.40863129902E+01  0.86088948190E+02  0.16772035336E+03  0.12520301727E+03 0.  0.
         23    2    1    2    0    0  0.70896519268E+02 -0.40863129902E+01  0.70428571775E+02  0.13554644821E+03  0.91485744796E+02 0.  0.
          5    1    3    3  502    0  0.20515626204E+02 -0.26371403026E+02 -0.60980406665E+01  0.34287285049E+02  0.47000000000E+01 0. -1.
         -5    1    3    3    0  502 -0.91412145471E+02  0.30457716016E+02  0.92186988856E+02  0.13343306831E+03  0.47000000000E+01 0. -1.
        -11    1    4    4    0    0  0.70789964655E+01  0.16311585749E+02  0.66054173874E+02  0.68405656979E+02  0.00000000000E+00 0.  1.
         11    1    4    4    0    0  0.63817522802E+02 -0.20397898739E+02  0.43743979010E+01  0.67140791227E+02  0.00000000000E+00 0. -1.
<mgrwt>
<rscale>  0 0.13632520E+03</rscale>
<asrwt>0</asrwt>
<pdfrwt beam="2">  1        1 0.11288406E-01 0.14394030E+03</pdfrwt>
<pdfrwt beam="1">  1       -1 0.35368024E-01 0.14394030E+03</pdfrwt>
<totfact> 0.40229222E+03</totfact>
</mgrwt>
</event>
<event>
 8    1  0.1033707E-005  0.1499544E+03  0.7546771E-02  0.1209473E+00
          4   -1    0    0  501    0  0.00000000000E+00  0.00000000000E+00  0.21953518516E+02  0.21953518516E+02  0.00000000000E+00 0. -1.
         -4   -1    0    0    0  501 -0.00000000000E+00 -0.00000000000E+00 -0.85488565121E+03  0.85488565121E+03  0.00000000000E+00 0.  1.
         23    2    1    2    0    0 -0.47799954370E+02  0.67639899335E+02 -0.43415353637E+03  0.45932080582E+03  0.12500527145E+03 0.  0.
         23    2    1    2    0    0  0.47799954370E+02 -0.67639899335E+02 -0.39877859632E+03  0.41751836391E+03  0.91854361344E+02 0.  0.
          5    1    3    3  502    0 -0.51171550791E+02  0.76702775355E+02 -0.15828773709E+03  0.18324557585E+03  0.47000000000E+01 0. -1.
         -5    1    3    3    0  502  0.33715964202E+01 -0.90628760196E+01 -0.27586579928E+03  0.27607522996E+03  0.47000000000E+01 0. -1.
        -11    1    4    4    0    0  0.43964298733E+02 -0.90336652861E+02 -0.33321906486E+03  0.34803522178E+03  0.00000000000E+00 0. -1.
         11    1    4    4    0    0  0.38356556372E+01  0.22696753526E+02 -0.65559531464E+02  0.69483142132E+02  0.00000000000E+00 0.  1.
<mgrwt>
<rscale>  0 0.14290449E+03</rscale>
<asrwt>0</asrwt>
<pdfrwt beam="1">  1        4 0.33774640E-02 0.14995436E+03</pdfrwt>
<pdfrwt beam="2">  1       -4 0.13152089E+00 0.14995436E+03</pdfrwt>
<totfact> 0.33675691E+02</totfact>
</mgrwt>
</event>
<event>
 8    1  0.1033707E-005  0.1592820E+03  0.7546771E-02  0.1196864E+00
          4   -1    0    0  501    0  0.00000000000E+00  0.00000000000E+00  0.45359987897E+02  0.45359987897E+02  0.00000000000E+00 0. -1.
         -4   -1    0    0    0  501 -0.00000000000E+00 -0.00000000000E+00 -0.47928217944E+03  0.47928217944E+03  0.00000000000E+00 0.  1.
         23    2    1    2    0    0 -0.80655688067E+02 -0.56921457372E+02 -0.22776153018E+03  0.27793175009E+03  0.12500140300E+03 0.  0.
         23    2    1    2    0    0  0.80655688067E+02  0.56921457372E+02 -0.20616066137E+03  0.24671041725E+03  0.92835442351E+02 0.  0.
          5    1    3    3  502    0  0.86611666121E+01 -0.50884005361E+02 -0.15189235380E+03  0.16049166630E+03  0.47000000000E+01 0.  1.
         -5    1    3    3    0  502 -0.89316854679E+02 -0.60374520103E+01 -0.75869176377E+02  0.11744008379E+03  0.47000000000E+01 0.  1.
        -11    1    4    4    0    0  0.52566893193E+02 -0.53752758167E+01 -0.14739754718E+03  0.15658291338E+03  0.00000000000E+00 0.  1.
         11    1    4    4    0    0  0.28088794874E+02  0.62296733188E+02 -0.58763114190E+02  0.90127503864E+02  0.00000000000E+00 0. -1.
<mgrwt>
<rscale>  0 0.15297494E+03</rscale>
<asrwt>0</asrwt>
<pdfrwt beam="1">  1        4 0.69784594E-02 0.15928196E+03</pdfrwt>
<pdfrwt beam="2">  1       -4 0.73735723E-01 0.15928196E+03</pdfrwt>
<totfact> 0.40381643E+02</totfact>
</mgrwt>
</event>
<event>
 8    1  0.1033707E-005  0.2288256E+03  0.7546771E-02  0.1130751E+00
          1   -1    0    0  501    0  0.00000000000E+00  0.00000000000E+00  0.28079075251E+03  0.28079075251E+03  0.00000000000E+00 0. -1.
         -1   -1    0    0    0  501 -0.00000000000E+00 -0.00000000000E+00 -0.22668868352E+03  0.22668868352E+03  0.00000000000E+00 0.  1.
         23    2    1    2    0    0  0.18632835071E+03 -0.44903994549E+02 -0.96337426181E+02  0.24827817651E+03  0.12500612082E+03 0.  0.
         23    2    1    2    0    0 -0.18632835071E+03  0.44903994549E+02  0.15043949517E+03  0.25920125952E+03  0.88423007337E+02 0.  0.
          5    1    3    3  502    0  0.84203475846E+02  0.14879004075E+02  0.13571842106E+02  0.86705795683E+02  0.47000000000E+01 0.  1.
         -5    1    3    3    0  502  0.10212487486E+03 -0.59782998624E+02 -0.10990926829E+03  0.16157238083E+03  0.47000000000E+01 0.  1.
        -11    1    4    4    0    0 -0.52584513358E+02 -0.14693559370E+02  0.84667457459E+01  0.55251402838E+02  0.00000000000E+00 0.  1.
         11    1    4    4    0    0 -0.13374383735E+03  0.59597553919E+02  0.14197274942E+03  0.20394985668E+03  0.00000000000E+00 0. -1.
<mgrwt>
<rscale>  0 0.22425306E+03</rscale>
<asrwt>0</asrwt>
<pdfrwt beam="1">  1        1 0.43198577E-01 0.22882560E+03</pdfrwt>
<pdfrwt beam="2">  1       -1 0.34875182E-01 0.22882560E+03</pdfrwt>
<totfact> 0.75178136E+02</totfact>
</mgrwt>
</event>
<event>
 8    1  0.1033707E-005  0.1321049E+03  0.7546771E-02  0.1232746E+00
          3   -1    0    0  501    0  0.00000000000E+00  0.00000000000E+00  0.17292724736E+03  0.17292724736E+03  0.00000000000E+00 0. -1.
         -3   -1    0    0    0  501 -0.00000000000E+00 -0.00000000000E+00 -0.23013588935E+03  0.23013588935E+03  0.00000000000E+00 0.  1.
         23    2    1    2    0    0 -0.39922403952E+02  0.15216164121E+02 -0.18907642323E+03  0.23065469641E+03  0.12500546054E+03 0.  0.
         23    2    1    2    0    0  0.39922403952E+02 -0.15216164121E+02  0.13186778125E+03  0.17240844031E+03  0.10251940582E+03 0.  0.
          5    1    3    3  502    0 -0.25213349946E+01  0.43867822882E+02 -0.98444166265E+01  0.45274115710E+02  0.47000000000E+01 0.  1.
         -5    1    3    3    0  502 -0.37401068958E+02 -0.28651658761E+02 -0.17923200660E+03  0.18538058070E+03  0.47000000000E+01 0.  1.
        -11    1    4    4    0    0 -0.72698742775E+01  0.38471185204E+02  0.39540601980E+02  0.55644787428E+02  0.00000000000E+00 0.  1.
         11    1    4    4    0    0  0.47192278230E+02 -0.53687349325E+02  0.92327179266E+02  0.11676365288E+03  0.00000000000E+00 0. -1.
<mgrwt>
<rscale>  0 0.12649809E+03</rscale>
<asrwt>0</asrwt>
<pdfrwt beam="1">  1        3 0.26604192E-01 0.13210486E+03</pdfrwt>
<pdfrwt beam="2">  1       -3 0.35405521E-01 0.13210486E+03</pdfrwt>
<totfact> 0.24495311E+02</totfact>
</mgrwt>
</event>
<event>
 8    1  0.1046501E-005  0.1332930E+03  0.7546771E-02  0.1235318E+00
         -2   -1    0    0    0  501 -0.00000000000E+00  0.00000000000E+00  0.33892926600E+02  0.33892926600E+02  0.00000000000E+00 0.  1.
          2   -1    0    0  501    0  0.00000000000E+00 -0.00000000000E+00 -0.43728407820E+03  0.43728407820E+03  0.00000000000E+00 0. -1.
         23    2    1    2    0    0  0.44144982697E+02 -0.13896918939E+02 -0.16833164751E+03  0.21471505822E+03  0.12500043527E+03 0.  0.
         23    2    1    2    0    0 -0.44144982697E+02  0.13896918939E+02 -0.23505950409E+03  0.25646194658E+03  0.91530627272E+02 0.  0.
          5    1    3    3  502    0  0.54399140577E+02  0.30866980344E+02 -0.15415059506E+03  0.16642275364E+03  0.47000000000E+01 0.  1.
         -5    1    3    3    0  502 -0.10254157879E+02 -0.44763899283E+02 -0.14181052448E+02  0.48292304577E+02  0.47000000000E+01 0.  1.
        -11    1    4    4    0    0  0.28418114556E+02  0.86620804963E+01 -0.62985944942E+02  0.69640865401E+02  0.00000000000E+00 0.  1.
         11    1    4    4    0    0 -0.72563097253E+02  0.52348384427E+01 -0.17207355915E+03  0.18682108118E+03  0.00000000000E+00 0. -1.
<mgrwt>
<rscale>  0 0.12484068E+03</rscale>
<asrwt>0</asrwt>
<pdfrwt beam="2">  1        2 0.67274474E-01 0.13329296E+03</pdfrwt>
<pdfrwt beam="1">  1       -2 0.52142963E-02 0.13329296E+03</pdfrwt>
<totfact> 0.12557743E+04</totfact>
</mgrwt>
</event>
<event>
 8    1  0.1033707E-005  0.1553593E+03  0.7546771E-02  0.1202117E+00
          1   -1    0    0  501    0  0.00000000000E+00  0.00000000000E+00  0.32865990315E+03  0.32865990315E+03  0.00000000000E+00 0. -1.
         -1   -1    0    0    0  501 -0.00000000000E+00 -0.00000000000E+00 -0.62221794462E+02  0.62221794462E+02  0.00000000000E+00 0.  1.
         23    2    1    2    0    0 -0.71349866175E+02 -0.58495352331E+02  0.15473476074E+03  0.21927005444E+03  0.12499600371E+03 0.  0.
         23    2    1    2    0    0  0.71349866175E+02  0.58495352331E+02  0.11170334795E+03  0.17161164318E+03  0.91980478820E+02 0.  0.
          5    1    3    3  502    0 -0.15238687470E+02 -0.54115069609E+02  0.15266372858E+03  0.16275430064E+03  0.47000000000E+01 0.  1.
         -5    1    3    3    0  502 -0.56111178705E+02 -0.43802827214E+01  0.20710321616E+01  0.56515753792E+02  0.47000000000E+01 0.  1.
        -11    1    4    4    0    0 -0.21568571986E+02  0.85269215821E+01  0.10650702253E+02  0.25521542815E+02  0.00000000000E+00 0.  1.
         11    1    4    4    0    0  0.92918438162E+02  0.49968430749E+02  0.10105264570E+03  0.14609010036E+03  0.00000000000E+00 0. -1.
<mgrwt>
<rscale>  0 0.14866971E+03</rscale>
<asrwt>0</asrwt>
<pdfrwt beam="1">  1        1 0.50563061E-01 0.15535930E+03</pdfrwt>
<pdfrwt beam="2">  1       -1 0.95725840E-02 0.15535930E+03</pdfrwt>
<totfact> 0.49222741E+03</totfact>
</mgrwt>
</event>
<event>
 8    1  0.1033707E-005  0.1848940E+03  0.7546771E-02  0.1168374E+00
         -1   -1    0    0    0  501 -0.00000000000E+00  0.00000000000E+00  0.30958355505E+03  0.30958355505E+03  0.00000000000E+00 0.  1.
          1   -1    0    0  501    0  0.00000000000E+00 -0.00000000000E+00 -0.10002790372E+03  0.10002790372E+03  0.00000000000E+00 0. -1.
         23    2    1    2    0    0 -0.98712503851E+02 -0.93918533818E+02  0.83736646209E+02  0.20297199482E+03  0.12498382036E+03 0.  0.
         23    2    1    2    0    0  0.98712503851E+02  0.93918533818E+02  0.12581900512E+03  0.20663946394E+03  0.91129559404E+02 0.  0.
          5    1    3    3  502    0 -0.30271395520E+02 -0.10708884001E+03  0.70651706026E+02  0.13190197347E+03  0.47000000000E+01 0.  1.
         -5    1    3    3    0  502 -0.68441108331E+02  0.13170306193E+02  0.13084940183E+02  0.71070021348E+02  0.47000000000E+01 0.  1.
        -11    1    4    4    0    0  0.87640131756E+01 -0.14497322616E+02  0.35405843548E+02  0.39249892322E+02  0.00000000000E+00 0.  1.
         11    1    4    4    0    0  0.89948490675E+02  0.10841585643E+03  0.90413161573E+02  0.16738957162E+03  0.00000000000E+00 0. -1.
<mgrwt>
<rscale>  0 0.17941119E+03</rscale>
<asrwt>0</asrwt>
<pdfrwt beam="2">  1        1 0.15388908E-01 0.18489404E+03</pdfrwt>
<pdfrwt beam="1">  1       -1 0.47628239E-01 0.18489404E+03</pdfrwt>
<totfact> 0.15999086E+03</totfact>
</mgrwt>
</event>
<event>
 8    1  0.1033707E-005  0.1424535E+03  0.7546771E-02  0.1220591E+00
          2   -1    0    0  501    0  0.00000000000E+00  0.00000000000E+00  0.34510783295E+03  0.34510783295E+03  0.00000000000E+00 0. -1.
         -2   -1    0    0    0  501 -0.00000000000E+00 -0.00000000000E+00 -0.59130601785E+02  0.59130601785E+02  0.00000000000E+00 0.  1.
         23    2    1    2    0    0 -0.35529334019E+02  0.58361673493E+02  0.67135486760E+02  0.15748073546E+03  0.12499835979E+03 0.  0.
         23    2    1    2    0    0  0.35529334019E+02 -0.58361673493E+02  0.21884174440E+03  0.24675769927E+03  0.91264640194E+02 0.  0.
          5    1    3    3  502    0  0.19875052805E+02  0.76198176927E+02  0.59026744811E+02  0.98526273115E+02  0.47000000000E+01 0. -1.
         -5    1    3    3    0  502 -0.55404386824E+02 -0.17836503434E+02  0.81087419496E+01  0.58954462343E+02  0.47000000000E+01 0. -1.
        -11    1    4    4    0    0  0.53511865741E+02 -0.12583279334E+01  0.90613085149E+02  0.10524179001E+03  0.00000000000E+00 0.  1.
         11    1    4    4    0    0 -0.17982531723E+02 -0.57103345559E+02  0.12822865925E+03  0.14151590926E+03  0.00000000000E+00 0. -1.
<mgrwt>
<rscale>  0 0.13473736E+03</rscale>
<asrwt>0</asrwt>
<pdfrwt beam="1">  1        2 0.53093512E-01 0.14245353E+03</pdfrwt>
<pdfrwt beam="2">  1       -2 0.90970158E-02 0.14245353E+03</pdfrwt>
<totfact> 0.69315969E+03</totfact>
</mgrwt>
</event>
<event>
 8    1  0.1033707E-005  0.1411397E+03  0.7546771E-02  0.1228793E+00
         -2   -1    0    0    0  501 -0.00000000000E+00  0.00000000000E+00  0.28769737616E+02  0.28769737616E+02  0.00000000000E+00 0.  1.
          2   -1    0    0  501    0  0.00000000000E+00 -0.00000000000E+00 -0.57238106065E+03  0.57238106065E+03  0.00000000000E+00 0. -1.
         23    2    1    2    0    0  0.26531013758E+02 -0.59933091046E+02 -0.20852564684E+03  0.25180021700E+03  0.12499813519E+03 0.  0.
         23    2    1    2    0    0 -0.26531013758E+02  0.59933091046E+02 -0.33508567619E+03  0.34935058126E+03  0.73942870815E+02 0.  0.
          5    1    3    3  502    0  0.69971846899E+02 -0.59271066262E+02 -0.17145883282E+03  0.19449766067E+03  0.47000000000E+01 0. -1.
         -5    1    3    3    0  502 -0.43440833141E+02 -0.66202478455E+00 -0.37066814019E+02  0.57302556333E+02  0.47000000000E+01 0. -1.
        -11    1    4    4    0    0  0.41506614381E+01  0.57818368432E+02 -0.28289183348E+03  0.28876977191E+03  0.00000000000E+00 0.  1.
         11    1    4    4    0    0 -0.30681675196E+02  0.21147226148E+01 -0.52193842708E+02  0.60580809348E+02  0.00000000000E+00 0. -1.
<mgrwt>
<rscale>  0 0.12910321E+03</rscale>
<asrwt>0</asrwt>
<pdfrwt beam="2">  1        2 0.88058612E-01 0.14113966E+03</pdfrwt>
<pdfrwt beam="1">  1       -2 0.44261141E-02 0.14113966E+03</pdfrwt>
<totfact> 0.11989945E+04</totfact>
</mgrwt>
</event>
<event>
 8    1  0.1033707E-005  0.1384210E+03  0.7546771E-02  0.1227092E+00
          3   -1    0    0  501    0  0.00000000000E+00  0.00000000000E+00  0.50433381113E+02  0.50433381113E+02  0.00000000000E+00 0. -1.
         -3   -1    0    0    0  501 -0.00000000000E+00 -0.00000000000E+00 -0.32414249811E+03  0.32414249811E+03  0.00000000000E+00 0.  1.
         23    2    1    2    0    0 -0.12613373748E+02  0.58107667916E+02 -0.20066624203E+03  0.24377715765E+03  0.12499905452E+03 0.  0.
         23    2    1    2    0    0  0.12613373748E+02 -0.58107667916E+02 -0.73042874962E+02  0.13079872158E+03  0.90760375249E+02 0.  0.
          5    1    3    3  502    0  0.20764857411E+02 -0.24477400739E+02 -0.11723579473E+03  0.12164145681E+03  0.47000000000E+01 0. -1.
         -5    1    3    3    0  502 -0.33378231159E+02  0.82585068655E+02 -0.83430447306E+02  0.12213570083E+03  0.47000000000E+01 0. -1.
        -11    1    4    4    0    0 -0.19824124513E+02 -0.34723636178E+01 -0.63417901720E+02  0.66534829078E+02  0.00000000000E+00 0.  1.
         11    1    4    4    0    0  0.32437498260E+02 -0.54635304299E+02 -0.96249732415E+01  0.64263892499E+02  0.00000000000E+00 0. -1.
<mgrwt>
<rscale>  0 0.13024543E+03</rscale>
<asrwt>0</asrwt>
<pdfrwt beam="1">  1        3 0.77589816E-02 0.13842096E+03</pdfrwt>
<pdfrwt beam="2">  1       -3 0.49868077E-01 0.13842096E+03</pdfrwt>
<totfact> 0.10418587E+03</totfact>
</mgrwt>
</event>
<event>
 8    1  0.1033707E-005  0.1288238E+03  0.7546771E-02  0.1243137E+00
         -1   -1    0    0    0  501 -0.00000000000E+00  0.00000000000E+00  0.17236358175E+03  0.17236358175E+03  0.00000000000E+00 0.  1.
          1   -1    0    0  501    0  0.00000000000E+00 -0.00000000000E+00 -0.74132018361E+02  0.74132018361E+02  0.00000000000E+00 0. -1.
         23    2    1    2    0    0  0.14407064585E+02  0.27669511528E+02  0.49358565042E+02  0.13795593760E+03  0.12498962916E+03 0.  0.
         23    2    1    2    0    0 -0.14407064585E+02 -0.27669511528E+02  0.48872998347E+02  0.10853966251E+03  0.91755779070E+02 0.  0.
          5    1    3    3  502    0  0.59951273209E+02  0.37095031617E+02  0.95197793571E+00  0.70662527495E+02  0.47000000000E+01 0. -1.
         -5    1    3    3    0  502 -0.45544208624E+02 -0.94255200896E+01  0.48406587107E+02  0.67293410105E+02  0.47000000000E+01 0. -1.
        -11    1    4    4    0    0 -0.50914362395E+02 -0.24269756635E+02  0.14397034014E+02  0.58211407590E+02  0.00000000000E+00 0.  1.
         11    1    4    4    0    0  0.36507297811E+02 -0.33997548926E+01  0.34475964334E+02  0.50328254922E+02  0.00000000000E+00 0. -1.
<mgrwt>
<rscale>  0 0.11997576E+03</rscale>
<asrwt>0</asrwt>
<pdfrwt beam="2">  1        1 0.11404926E-01 0.12882381E+03</pdfrwt>
<pdfrwt beam="1">  1       -1 0.26517474E-01 0.12882381E+03</pdfrwt>
<totfact> 0.64018461E+03</totfact>
</mgrwt>
</event>
<event>
 8    1  0.1033707E-005  0.1341740E+03  0.7546771E-02  0.1234522E+00
         -1   -1    0    0    0  501 -0.00000000000E+00  0.00000000000E+00  0.64574521792E+02  0.64574521792E+02  0.00000000000E+00 0.  1.
          1   -1    0    0  501    0  0.00000000000E+00 -0.00000000000E+00 -0.32323166019E+03  0.32323166019E+03  0.00000000000E+00 0. -1.
         23    2    1    2    0    0  0.31842626397E+01 -0.48656174779E+02 -0.30206280094E+02  0.13753212627E+03  0.12500041410E+03 0.  0.
         23    2    1    2    0    0 -0.31842626397E+01  0.48656174779E+02 -0.22845085830E+03  0.25027405571E+03  0.89831761821E+02 0.  0.
          5    1    3    3  502    0  0.28264691343E+02 -0.69677162162E+02 -0.57408799604E+02  0.94718846992E+02  0.47000000000E+01 0.  1.
         -5    1    3    3    0  502 -0.25080428703E+02  0.21020987383E+02  0.27202519510E+02  0.42813279274E+02  0.47000000000E+01 0.  1.
        -11    1    4    4    0    0 -0.37492154478E+02  0.51398657242E+02 -0.11160362190E+03  0.12846342684E+03  0.00000000000E+00 0. -1.
         11    1    4    4    0    0  0.34307891838E+02 -0.27424824636E+01 -0.11684723640E+03  0.12181062887E+03  0.00000000000E+00 0.  1.
<mgrwt>
<rscale>  0 0.12535073E+03</rscale>
<asrwt>0</asrwt>
<pdfrwt beam="2">  1        1 0.49727948E-01 0.13417402E+03</pdfrwt>
<pdfrwt beam="1">  1       -1 0.99345418E-02 0.13417402E+03</pdfrwt>
<totfact> 0.47109955E+03</totfact>
</mgrwt>
</event>
<event>
 8    1  0.1033707E-005  0.1283460E+03  0.7546771E-02  0.1242681E+00
         -3   -1    0    0    0  501 -0.00000000000E+00  0.00000000000E+00  0.82985838374E+02  0.82985838374E+02  0.00000000000E+00 0.  1.
          3   -1    0    0  501    0  0.00000000000E+00 -0.00000000000E+00 -0.15705153940E+03  0.15705153940E+03  0.00000000000E+00 0. -1.
         23    2    1    2    0    0 -0.29075798317E+02 -0.14492008490E+01 -0.30267872947E+02  0.13186675696E+03  0.12500078091E+03 0.  0.
         23    2    1    2    0    0  0.29075798317E+02  0.14492008490E+01 -0.43797828078E+02  0.10817062081E+03  0.94525823088E+02 0.  0.
          5    1    3    3  502    0 -0.22885971317E+02  0.59701162751E+02 -0.22331525495E+01  0.64148838550E+02  0.47000000000E+01 0.  1.
         -5    1    3    3    0  502 -0.61898269994E+01 -0.61150363600E+02 -0.28034720397E+02  0.67717918415E+02  0.47000000000E+01 0.  1.
        -11    1    4    4    0    0  0.59367215831E+02 -0.17871215568E+02 -0.20287533384E+02  0.65233662110E+02  0.00000000000E+00 0.  1.
         11    1    4    4    0    0 -0.30291417514E+02  0.19320416417E+02 -0.23510294694E+02  0.42936958697E+02  0.00000000000E+00 0. -1.
<mgrwt>
<rscale>  0 0.12025240E+03</rscale>
<asrwt>0</asrwt>
<pdfrwt beam="2">  1        3 0.24161775E-01 0.12834601E+03</pdfrwt>
<pdfrwt beam="1">  1       -3 0.12767052E-01 0.12834601E+03</pdfrwt>
<totfact> 0.17769324E+03</totfact>
</mgrwt>
</event>
<event>
 8    1  0.1033707E-005  0.1353438E+03  0.7546771E-02  0.1232313E+00
         -1   -1    0    0    0  501 -0.00000000000E+00  0.00000000000E+00  0.75720508588E+02  0.75720508588E+02  0.00000000000E+00 0.  1.
          1   -1    0    0  501    0  0.00000000000E+00 -0.00000000000E+00 -0.18947058840E+03  0.18947058840E+03  0.00000000000E+00 0. -1.
         23    2    1    2    0    0 -0.49375064076E+02 -0.15966479470E+02 -0.63318615967E+02  0.14942283964E+03  0.12500044984E+03 0.  0.
         23    2    1    2    0    0  0.49375064076E+02  0.15966479470E+02 -0.50431463848E+02  0.11576825735E+03  0.90366650068E+02 0.  0.
          5    1    3    3  502    0 -0.80784942461E+02  0.20789064082E+02 -0.23999831531E+02  0.86927981843E+02  0.47000000000E+01 0.  1.
         -5    1    3    3    0  502  0.31409878384E+02 -0.36755543552E+02 -0.39318784436E+02  0.62494857800E+02  0.47000000000E+01 0.  1.
        -11    1    4    4    0    0 -0.17380960986E+02  0.29568206557E+02 -0.27246660868E+02  0.43803620539E+02  0.00000000000E+00 0.  1.
         11    1    4    4    0    0  0.66756025063E+02 -0.13601727088E+02 -0.23184802980E+02  0.71964636810E+02  0.00000000000E+00 0. -1.
<mgrwt>
<rscale>  0 0.12678043E+03</rscale>
<asrwt>0</asrwt>
<pdfrwt beam="2">  1        1 0.29149321E-01 0.13534378E+03</pdfrwt>
<pdfrwt beam="1">  1       -1 0.11649309E-01 0.13534378E+03</pdfrwt>
<totfact> 0.71554007E+03</totfact>
</mgrwt>
</event>
<event>
 8    1  0.1033707E-005  0.1360804E+03  0.7546771E-02  0.1231282E+00
         -1   -1    0    0    0  501 -0.00000000000E+00  0.00000000000E+00  0.45638733911E+03  0.45638733911E+03  0.00000000000E+00 0.  1.
          1   -1    0    0  501    0  0.00000000000E+00 -0.00000000000E+00 -0.33502257377E+02  0.33502257377E+02  0.00000000000E+00 0. -1.
         23    2    1    2    0    0  0.40566051039E+02 -0.35379881499E+02  0.29289652631E+03  0.32296477616E+03  0.12498212273E+03 0.  0.
         23    2    1    2    0    0 -0.40566051039E+02  0.35379881499E+02  0.12998855542E+03  0.16692482032E+03  0.89830566002E+02 0.  0.
          5    1    3    3  502    0  0.12974290146E+02  0.26089881837E+02  0.22593808097E+03  0.22785767613E+03  0.47000000000E+01 0.  1.
         -5    1    3    3    0  502  0.27591760893E+02 -0.61469763336E+02  0.66958445343E+02  0.95107100032E+02  0.47000000000E+01 0.  1.
        -11    1    4    4    0    0 -0.26695413454E+02  0.43889234768E+02  0.13909457613E+03  0.14827748021E+03  0.00000000000E+00 0.  1.
         11    1    4    4    0    0 -0.13870637585E+02 -0.85093532690E+01 -0.91060207130E+01  0.18647340114E+02  0.00000000000E+00 0. -1.
<mgrwt>
<rscale>  0 0.12745503E+03</rscale>
<asrwt>0</asrwt>
<pdfrwt beam="2">  1        1 0.51541938E-02 0.13608039E+03</pdfrwt>
<pdfrwt beam="1">  1       -1 0.70213432E-01 0.13608039E+03</pdfrwt>
<totfact> 0.32722906E+03</totfact>
</mgrwt>
</event>
<event>
 8    1  0.1033707E-005  0.1377541E+03  0.7546771E-02  0.1230975E+00
         -1   -1    0    0    0  501 -0.00000000000E+00  0.00000000000E+00  0.20433328606E+02  0.20433328606E+02  0.00000000000E+00 0.  1.
          1   -1    0    0  501    0  0.00000000000E+00 -0.00000000000E+00 -0.70119654660E+03  0.70119654660E+03  0.00000000000E+00 0. -1.
         23    2    1    2    0    0 -0.57727496069E+02 -0.15585404402E+01 -0.39920078967E+03  0.42230021306E+03  0.12506520949E+03 0.  0.
         23    2    1    2    0    0  0.57727496069E+02  0.15585404402E+01 -0.28156242832E+03  0.29932966214E+03  0.83582012097E+02 0.  0.
          5    1    3    3  502    0 -0.76062998813E+01 -0.17421245641E+02  0.43819072099E-01  0.19581815996E+02  0.47000000000E+01 0.  1.
         -5    1    3    3    0  502 -0.50121196188E+02  0.15862705201E+02 -0.39924460874E+03  0.40271839706E+03  0.47000000000E+01 0.  1.
        -11    1    4    4    0    0  0.86253937076E+01  0.28743468276E+02 -0.33407947313E+02  0.44907408396E+02  0.00000000000E+00 0. -1.
         11    1    4    4    0    0  0.49102102362E+02 -0.27184927836E+02 -0.24815448101E+03  0.25442225375E+03  0.00000000000E+00 0.  1.
<mgrwt>
<rscale>  0 0.12765648E+03</rscale>
<asrwt>0</asrwt>
<pdfrwt beam="2">  1        1 0.10787638E+00 0.13775413E+03</pdfrwt>
<pdfrwt beam="1">  1       -1 0.31435893E-02 0.13775413E+03</pdfrwt>
<totfact> 0.94982259E+03</totfact>
</mgrwt>
</event>
<event>
 8    1  0.1033707E-005  0.1108723E+03  0.7546771E-02  0.1269277E+00
          1   -1    0    0  501    0  0.00000000000E+00  0.00000000000E+00  0.19379881810E+03  0.19379881810E+03  0.00000000000E+00 0. -1.
         -1   -1    0    0    0  501 -0.00000000000E+00 -0.00000000000E+00 -0.65053999008E+02  0.65053999008E+02  0.00000000000E+00 0.  1.
         23    2    1    2    0    0  0.83926378682E+01 -0.79092424568E+00  0.12698811708E+02  0.11159720434E+03  0.11055141006E+03 0.  0.
         23    2    1    2    0    0 -0.83926378682E+01  0.79092424568E+00  0.11604600739E+03  0.14725561278E+03  0.90257840279E+02 0.  0.
          5    1    3    3  502    0  0.49402694866E+02  0.24546838557E+02  0.26292947383E+02  0.61290966914E+02  0.47000000000E+01 0. -1.
         -5    1    3    3    0  502 -0.41010056998E+02 -0.25337762803E+02 -0.13594135675E+02  0.50306237422E+02  0.47000000000E+01 0.  1.
        -11    1    4    4    0    0 -0.33310584458E+02 -0.14326780937E+01  0.53499477984E+01  0.33767877412E+02  0.00000000000E+00 0.  1.
         11    1    4    4    0    0  0.24917946590E+02  0.22236023393E+01  0.11069605959E+03  0.11348773536E+03  0.00000000000E+00 0. -1.
<mgrwt>
<rscale>  0 0.10542901E+03</rscale>
<asrwt>0</asrwt>
<pdfrwt beam="1">  1        1 0.29815203E-01 0.11087234E+03</pdfrwt>
<pdfrwt beam="2">  1       -1 0.10008308E-01 0.11087234E+03</pdfrwt>
<totfact> 0.86456655E+03</totfact>
</mgrwt>
</event>
<event>
 7    1  0.1033707E-005  0.3053049E+03  0.7546771E-02  0.1082618E+00
          2   -1    0    0  501    0  0.00000000000E+00  0.00000000000E+00  0.66510259188E+02  0.66510259188E+02  0.00000000000E+00 0. -1.
         -2   -1    0    0    0  501 -0.00000000000E+00 -0.00000000000E+00 -0.35036361442E+03  0.35036361442E+03  0.00000000000E+00 0.  1.
         23    2    1    2    0    0  0.21097266558E+02  0.24806449352E+02 -0.39199913535E+02  0.93354413416E+02  0.78217381044E+02 0.  0.
          5    1    1    2  502    0 -0.21432925245E+02  0.66131730664E+02 -0.82242169384E+01  0.70160557505E+02  0.47000000000E+01 0. -1.
         -5    1    1    2    0  502  0.33565868730E+00 -0.90938180016E+02 -0.23642922476E+03  0.25335890269E+03  0.47000000000E+01 0.  1.
        -11    1    3    3    0    0  0.44323495157E+02  0.11483972916E+02 -0.46848540919E+02  0.65507554092E+02  0.00000000000E+00 0. -1.
         11    1    3    3    0    0 -0.23226228599E+02  0.13322476436E+02  0.76486273840E+01  0.27846859324E+02  0.00000000000E+00 0.  1.
<mgrwt>
<rscale>  0 0.30530493E+03</rscale>
<asrwt>0</asrwt>
<pdfrwt beam="1">  1        2 0.10232348E-01 0.30530493E+03</pdfrwt>
<pdfrwt beam="2">  1       -2 0.53902095E-01 0.30530493E+03</pdfrwt>
<totfact> 0.20564160E+03</totfact>
</mgrwt>
</event>
<event>
 8    1  0.1033707E-005  0.1313575E+03  0.7546771E-02  0.1238317E+00
          1   -1    0    0  501    0  0.00000000000E+00  0.00000000000E+00  0.38421138395E+03  0.38421138395E+03  0.00000000000E+00 0. -1.
         -1   -1    0    0    0  501 -0.00000000000E+00 -0.00000000000E+00 -0.37408334971E+02  0.37408334971E+02  0.00000000000E+00 0.  1.
         23    2    1    2    0    0 -0.40243358203E+02 -0.33927299504E+01  0.14253054740E+03  0.19382919847E+03  0.12499505087E+03 0.  0.
         23    2    1    2    0    0  0.40243358203E+02  0.33927299504E+01  0.20427250157E+03  0.22779052044E+03  0.92359232396E+02 0.  0.
          5    1    3    3  502    0  0.91683855009E+01  0.54146623538E+02  0.65864386186E+02  0.85884361213E+02  0.47000000000E+01 0. -1.
         -5    1    3    3    0  502 -0.49411743704E+02 -0.57539353489E+02  0.76666161214E+02  0.10794483726E+03  0.47000000000E+01 0. -1.
        -11    1    4    4    0    0 -0.16869243481E+01 -0.18714923330E+02  0.73380586706E+00  0.18805120048E+02  0.00000000000E+00 0.  1.
         11    1    4    4    0    0  0.41930282551E+02  0.22107653280E+02  0.20353869571E+03  0.20898540040E+03  0.00000000000E+00 0. -1.
<mgrwt>
<rscale>  0 0.12294467E+03</rscale>
<asrwt>0</asrwt>
<pdfrwt beam="1">  1        1 0.59109441E-01 0.13135753E+03</pdfrwt>
<pdfrwt beam="2">  1       -1 0.57551287E-02 0.13135753E+03</pdfrwt>
<totfact> 0.86213748E+03</totfact>
</mgrwt>
</event>
<event>
 8    1  0.1033707E-005  0.1478366E+03  0.7546771E-02  0.1212871E+00
          2   -1    0    0  501    0  0.00000000000E+00  0.00000000000E+00  0.80399654432E+02  0.80399654432E+02  0.00000000000E+00 0. -1.
         -2   -1    0    0    0  501 -0.00000000000E+00 -0.00000000000E+00 -0.25288961451E+03  0.25288961451E+03  0.00000000000E+00 0.  1.
         23    2    1    2    0    0 -0.43442516051E+02  0.65911083165E+02 -0.15100431520E+03  0.21132429104E+03  0.12499651871E+03 0.  0.
         23    2    1    2    0    0  0.43442516051E+02 -0.65911083165E+02 -0.21485644877E+02  0.12196497790E+03  0.90456065660E+02 0.  0.
          5    1    3    3  502    0 -0.76375001069E+02  0.31191546885E+01 -0.83726342779E+02  0.11346832329E+03  0.47000000000E+01 0. -1.
         -5    1    3    3    0  502  0.32932485019E+02  0.62791928476E+02 -0.67277972422E+02  0.97855967751E+02  0.47000000000E+01 0. -1.
        -11    1    4    4    0    0  0.24499937756E+02  0.90931427100E+01 -0.34746853644E+02  0.43477304799E+02  0.00000000000E+00 0.  1.
         11    1    4    4    0    0  0.18942578295E+02 -0.75004225875E+02  0.13261208768E+02  0.78487673106E+02  0.00000000000E+00 0. -1.
<mgrwt>
<rscale>  0 0.14034076E+03</rscale>
<asrwt>0</asrwt>
<pdfrwt beam="1">  1        2 0.12369178E-01 0.14783657E+03</pdfrwt>
<pdfrwt beam="2">  1       -2 0.38906094E-01 0.14783657E+03</pdfrwt>
<totfact> 0.29875432E+03</totfact>
</mgrwt>
</event>
<event>
 8    1  0.1033707E-005  0.1244378E+03  0.7546771E-02  0.1245303E+00
          1   -1    0    0  501    0  0.00000000000E+00  0.00000000000E+00  0.14266305402E+02  0.14266305402E+02  0.00000000000E+00 0. -1.
         -1   -1    0    0    0  501 -0.00000000000E+00 -0.00000000000E+00 -0.91756770068E+03  0.91756770068E+03  0.00000000000E+00 0.  1.
         23    2    1    2    0    0 -0.47637377789E+02  0.47484546526E+01 -0.54609186888E+03  0.56009025035E+03  0.11486031385E+03 0.  0.
         23    2    1    2    0    0  0.47637377789E+02 -0.47484546526E+01 -0.35720952640E+03  0.37174375573E+03  0.91120286383E+02 0.  0.
          5    1    3    3  502    0 -0.59964573290E+02 -0.14162979384E+02 -0.13633620975E+03  0.14968631242E+03  0.47000000000E+01 0. -1.
         -5    1    3    3    0  502  0.12327195501E+02  0.18911434036E+02 -0.40975565913E+03  0.41040393794E+03  0.47000000000E+01 0.  1.
        -11    1    4    4    0    0  0.57663808170E+02 -0.37346619781E+02 -0.24716134948E+03  0.25653190339E+03  0.00000000000E+00 0. -1.
         11    1    4    4    0    0 -0.10026430381E+02  0.32598165128E+02 -0.11004817692E+03  0.11521185234E+03  0.00000000000E+00 0.  1.
<mgrwt>
<rscale>  0 0.11867265E+03</rscale>
<asrwt>0</asrwt>
<pdfrwt beam="1">  1        1 0.21948164E-02 0.12443777E+03</pdfrwt>
<pdfrwt beam="2">  1       -1 0.14116425E+00 0.12443777E+03</pdfrwt>
<totfact> 0.22598937E+03</totfact>
</mgrwt>
</event>
<event>
 8    1  0.1033707E-005  0.1419417E+03  0.7546771E-02  0.1220976E+00
         -3   -1    0    0    0  501 -0.00000000000E+00  0.00000000000E+00  0.40989815389E+03  0.40989815389E+03  0.00000000000E+00 0.  1.
          3   -1    0    0  501    0  0.00000000000E+00 -0.00000000000E+00 -0.40598889570E+02  0.40598889570E+02  0.00000000000E+00 0. -1.
         23    2    1    2    0    0  0.18372246807E+02 -0.64666250512E+02  0.23028065326E+03  0.27051175913E+03  0.12501267597E+03 0.  0.
         23    2    1    2    0    0 -0.18372246807E+02  0.64666250512E+02  0.13901861106E+03  0.17998528433E+03  0.92462235244E+02 0.  0.
          5    1    3    3  502    0  0.18287743781E+02  0.12060067514E+02 -0.50308516582E+01  0.22962714767E+02  0.47000000000E+01 0. -1.
         -5    1    3    3    0  502  0.84503025214E-01 -0.76726318026E+02  0.23531150492E+03  0.24754904436E+03  0.47000000000E+01 0. -1.
        -11    1    4    4    0    0 -0.53846811860E+02  0.54009056714E+02  0.81930549774E+02  0.11193333883E+03  0.00000000000E+00 0.  1.
         11    1    4    4    0    0  0.35474565054E+02  0.10657193798E+02  0.57088061288E+02  0.68051945505E+02  0.00000000000E+00 0. -1.
<mgrwt>
<rscale>  0 0.13446546E+03</rscale>
<asrwt>0</asrwt>
<pdfrwt beam="2">  1        3 0.62459833E-02 0.14194165E+03</pdfrwt>
<pdfrwt beam="1">  1       -3 0.63061252E-01 0.14194165E+03</pdfrwt>
<totfact> 0.92014513E+02</totfact>
</mgrwt>
</event>
<event>
 8    1  0.1033707E-005  0.1300915E+03  0.7546771E-02  0.1239966E+00
          2   -1    0    0  501    0  0.00000000000E+00  0.00000000000E+00  0.37445059571E+03  0.37445059571E+03  0.00000000000E+00 0. -1.
         -2   -1    0    0    0  501 -0.00000000000E+00 -0.00000000000E+00 -0.35533617729E+02  0.35533617729E+02  0.00000000000E+00 0.  1.
         23    2    1    2    0    0 -0.35551566812E+01 -0.35847244981E+02  0.18170544470E+03  0.22347408981E+03  0.12500454420E+03 0.  0.
         23    2    1    2    0    0  0.35551566812E+01  0.35847244981E+02  0.15721153329E+03  0.18651012363E+03  0.93663738489E+02 0.  0.
          5    1    3    3  502    0  0.41839874402E+02  0.28490964450E+02  0.63061006429E+02  0.81000559734E+02  0.47000000000E+01 0. -1.
         -5    1    3    3    0  502 -0.45395031083E+02 -0.64338209431E+02  0.11864443827E+03  0.14247353008E+03  0.47000000000E+01 0. -1.
        -11    1    4    4    0    0  0.29936254593E+02 -0.82881394213E+01  0.13485809902E+02  0.33863544747E+02  0.00000000000E+00 0.  1.
         11    1    4    4    0    0 -0.26381097912E+02  0.44135384402E+02  0.14372572338E+03  0.15264657889E+03  0.00000000000E+00 0. -1.
<mgrwt>
<rscale>  0 0.12191816E+03</rscale>
<asrwt>0</asrwt>
<pdfrwt beam="1">  1        2 0.57607781E-01 0.13009151E+03</pdfrwt>
<pdfrwt beam="2">  1       -2 0.54667107E-02 0.13009151E+03</pdfrwt>
<totfact> 0.13777819E+04</totfact>
</mgrwt>
</event>
<event>
 8    1  0.1231761E-005  0.1444210E+03  0.7546771E-02  0.1219164E+00
         -2   -1    0    0    0  501 -0.00000000000E+00  0.00000000000E+00  0.55090072834E+02  0.55090072834E+02  0.00000000000E+00 0.  1.
          2   -1    0    0  501    0  0.00000000000E+00 -0.00000000000E+00 -0.30487572338E+03  0.30487572338E+03  0.00000000000E+00 0. -1.
         23    2    1    2    0    0 -0.39071354523E+02  0.60876818252E+02 -0.11769095237E+03  0.18630240723E+03  0.12499947570E+03 0.  0.
         23    2    1    2    0    0  0.39071354523E+02 -0.60876818252E+02 -0.13209469818E+03  0.17366338898E+03  0.86471993394E+02 0.  0.
          5    1    3    3  502    0  0.37093277411E+02  0.55142532172E+02 -0.67157448333E+02  0.94598218535E+02  0.47000000000E+01 0.  1.
         -5    1    3    3    0  502 -0.76164631934E+02  0.57342860802E+01 -0.50533504039E+02  0.91704188699E+02  0.47000000000E+01 0.  1.
        -11    1    4    4    0    0 -0.14141692302E+02 -0.50927950832E+02 -0.37964231443E+02  0.65076312943E+02  0.00000000000E+00 0.  1.
         11    1    4    4    0    0  0.53213046825E+02 -0.99488674203E+01 -0.94130466733E+02  0.10858707604E+03  0.00000000000E+00 0. -1.
<mgrwt>
<rscale>  0 0.13575030E+03</rscale>
<asrwt>0</asrwt>
<pdfrwt beam="2">  1        2 0.46903959E-01 0.14442100E+03</pdfrwt>
<pdfrwt beam="1">  1       -2 0.84753956E-02 0.14442100E+03</pdfrwt>
<totfact> 0.88362808E+03</totfact>
</mgrwt>
</event>
<event>
 8    1  0.1033707E-005  0.1410827E+03  0.7546771E-02  0.1222786E+00
          1   -1    0    0  501    0  0.00000000000E+00  0.00000000000E+00  0.67513245682E+03  0.67513245682E+03  0.00000000000E+00 0. -1.
         -1   -1    0    0    0  501 -0.00000000000E+00 -0.00000000000E+00 -0.26203684421E+02  0.26203684421E+02  0.00000000000E+00 0.  1.
         23    2    1    2    0    0 -0.51286783524E+02  0.40606650793E+02  0.25112239840E+03  0.28803954417E+03  0.12500034311E+03 0.  0.
         23    2    1    2    0    0  0.51286783524E+02 -0.40606650793E+02  0.39780637400E+03  0.41329659706E+03  0.91021600174E+02 0.  0.
          5    1    3    3  502    0 -0.10782700157E+02  0.19782445787E+02 -0.84068174522E+01  0.24502578715E+02  0.47000000000E+01 0.  1.
         -5    1    3    3    0  502 -0.40504083367E+02  0.20824205006E+02  0.25952921585E+03  0.26353696546E+03  0.47000000000E+01 0.  1.
        -11    1    4    4    0    0  0.25114807253E+02  0.26449390243E+02  0.18743876387E+03  0.19095448146E+03  0.00000000000E+00 0. -1.
         11    1    4    4    0    0  0.26171976271E+02 -0.67056041036E+02  0.21036761013E+03  0.22234211561E+03  0.00000000000E+00 0.  1.
<mgrwt>
<rscale>  0 0.13319777E+03</rscale>
<asrwt>0</asrwt>
<pdfrwt beam="1">  1        1 0.10386652E+00 0.14108267E+03</pdfrwt>
<pdfrwt beam="2">  1       -1 0.40313366E-02 0.14108267E+03</pdfrwt>
<totfact> 0.69740494E+03</totfact>
</mgrwt>
</event>
<event>
 8    1  0.1033707E-005  0.1344347E+03  0.7546771E-02  0.1233800E+00
         -1   -1    0    0    0  501 -0.00000000000E+00  0.00000000000E+00  0.74256590121E+03  0.74256590121E+03  0.00000000000E+00 0.  1.
          1   -1    0    0  501    0  0.00000000000E+00 -0.00000000000E+00 -0.25249915461E+02  0.25249915461E+02  0.00000000000E+00 0. -1.
         23    2    1    2    0    0  0.38696752536E+02 -0.30838396377E+02  0.58394396179E+03  0.59921886737E+03  0.12499702061E+03 0.  0.
         23    2    1    2    0    0 -0.38696752536E+02  0.30838396377E+02  0.13337202397E+03  0.16859694930E+03  0.90489718693E+02 0.  0.
          5    1    3    3  502    0 -0.14401955849E+02  0.39904875743E+02  0.25546348031E+03  0.25900481697E+03  0.47000000000E+01 0. -1.
         -5    1    3    3    0  502  0.53098708385E+02 -0.70743272120E+02  0.32848048148E+03  0.34021405041E+03  0.47000000000E+01 0. -1.
        -11    1    4    4    0    0 -0.60755122160E+02  0.18795161986E+01  0.10895497639E+03  0.12476339339E+03  0.00000000000E+00 0.  1.
         11    1    4    4    0    0  0.22058369624E+02  0.28958880178E+02  0.24417047578E+02  0.43833555914E+02  0.00000000000E+00 0. -1.
<mgrwt>
<rscale>  0 0.12581580E+03</rscale>
<asrwt>0</asrwt>
<pdfrwt beam="2">  1        1 0.38846029E-02 0.13443474E+03</pdfrwt>
<pdfrwt beam="1">  1       -1 0.11424089E+00 0.13443474E+03</pdfrwt>
<totfact> 0.17124311E+03</totfact>
</mgrwt>
</event>
<event>
 8    1  0.1033707E-005  0.1485689E+03  0.7546771E-02  0.1211438E+00
         -2   -1    0    0    0  501 -0.00000000000E+00  0.00000000000E+00  0.37915326365E+02  0.37915326365E+02  0.00000000000E+00 0.  1.
          2   -1    0    0  501    0  0.00000000000E+00 -0.00000000000E+00 -0.49077994588E+03  0.49077994588E+03  0.00000000000E+00 0. -1.
         23    2    1    2    0    0 -0.49118501346E+02 -0.63381650577E+02 -0.21424879536E+03  0.26072065335E+03  0.12507138748E+03 0.  0.
         23    2    1    2    0    0  0.49118501346E+02  0.63381650577E+02 -0.23861582416E+03  0.26797461890E+03  0.91885929442E+02 0.  0.
          5    1    3    3  502    0  0.34007534921E+02 -0.51036576256E+02 -0.11639561068E+03  0.13164829179E+03  0.47000000000E+01 0. -1.
         -5    1    3    3    0  502 -0.83126036267E+02 -0.12345074321E+02 -0.97853184681E+02  0.12907236156E+03  0.47000000000E+01 0. -1.
        -11    1    4    4    0    0  0.14510322837E+02 -0.23462671318E+02 -0.41776107594E+02  0.50062856290E+02  0.00000000000E+00 0. -1.
         11    1    4    4    0    0  0.34608178509E+02  0.86844321895E+02 -0.19683971657E+03  0.21791176261E+03  0.00000000000E+00 0.  1.
<mgrwt>
<rscale>  0 0.14141494E+03</rscale>
<asrwt>0</asrwt>
<pdfrwt beam="2">  1        2 0.75504604E-01 0.14856888E+03</pdfrwt>
<pdfrwt beam="1">  1       -2 0.58331274E-02 0.14856888E+03</pdfrwt>
<totfact> 0.94223034E+03</totfact>
</mgrwt>
</event>
<event>
 8    1  0.1033707E-005  0.2027122E+03  0.7546771E-02  0.1151821E+00
         -1   -1    0    0    0  501 -0.00000000000E+00  0.00000000000E+00  0.33857890381E+03  0.33857890381E+03  0.00000000000E+00 0.  1.
          1   -1    0    0  501    0  0.00000000000E+00 -0.00000000000E+00 -0.12376141197E+03  0.12376141197E+03  0.00000000000E+00 0. -1.
         23    2    1    2    0    0 -0.93644504095E+01 -0.15931165738E+03  0.18996782474E+03  0.27781293958E+03  0.12499743139E+03 0.  0.
         23    2    1    2    0    0  0.93644504095E+01  0.15931165738E+03  0.24849667097E+02  0.18452737620E+03  0.89246565777E+02 0.  0.
          5    1    3    3  502    0  0.26990467809E+02 -0.61038770840E+02  0.15233321832E+03  0.16637823265E+03  0.47000000000E+01 0.  1.
         -5    1    3    3    0  502 -0.36354918218E+02 -0.98272886542E+02  0.37634606419E+02  0.11143470693E+03  0.47000000000E+01 0.  1.
        -11    1    4    4    0    0 -0.64732543271E+01  0.13003834681E+03  0.53353432635E+02  0.14070701275E+03  0.00000000000E+00 0.  1.
         11    1    4    4    0    0  0.15837704737E+02  0.29273310576E+02 -0.28503765539E+02  0.43820363454E+02  0.00000000000E+00 0. -1.
<mgrwt>
<rscale>  0 0.19755210E+03</rscale>
<asrwt>0</asrwt>
<pdfrwt beam="2">  1        1 0.19040217E-01 0.20271225E+03</pdfrwt>
<pdfrwt beam="1">  1       -1 0.52089062E-01 0.20271225E+03</pdfrwt>
<totfact> 0.10317645E+03</totfact>
</mgrwt>
</event>
<event>
 8    1  0.1033707E-005  0.1973732E+03  0.7546771E-02  0.1155900E+00
          2   -1    0    0  501    0  0.00000000000E+00  0.00000000000E+00  0.30054622543E+02  0.30054622543E+02  0.00000000000E+00 0. -1.
         -2   -1    0    0    0  501 -0.00000000000E+00 -0.00000000000E+00 -0.12285486575E+04  0.12285486575E+04  0.00000000000E+00 0.  1.
         23    2    1    2    0    0 -0.94660208006E+02 -0.11986129800E+03 -0.74516304288E+03  0.77085934573E+03  0.12501553780E+03 0.  0.
         23    2    1    2    0    0  0.94660208006E+02  0.11986129800E+03 -0.45333099211E+03  0.48774393434E+03  0.95172849808E+02 0.  0.
          5    1    3    3  502    0 -0.35809642783E+02  0.15993476479E+02 -0.77778611085E+02  0.87233732858E+02  0.47000000000E+01 0. -1.
         -5    1    3    3    0  502 -0.58850565222E+02 -0.13585477448E+03 -0.66738443179E+03  0.68362561287E+03  0.47000000000E+01 0. -1.
        -11    1    4    4    0    0  0.10565452719E+03  0.12453814813E+03 -0.44227517371E+03  0.47146575564E+03  0.00000000000E+00 0.  1.
         11    1    4    4    0    0 -0.10994319184E+02 -0.46768501303E+01 -0.11055818395E+02  0.16278178701E+02  0.00000000000E+00 0. -1.
<mgrwt>
<rscale>  0 0.19286763E+03</rscale>
<asrwt>0</asrwt>
<pdfrwt beam="1">  1        2 0.46237885E-02 0.19737318E+03</pdfrwt>
<pdfrwt beam="2">  1       -2 0.18900747E+00 0.19737318E+03</pdfrwt>
<totfact> 0.29456472E+02</totfact>
</mgrwt>
</event>
<event>
 8    1  0.1033707E-005  0.1251206E+03  0.7546771E-02  0.1250504E+00
          1   -1    0    0  501    0  0.00000000000E+00  0.00000000000E+00  0.10398952654E+03  0.10398952654E+03  0.00000000000E+00 0. -1.
         -1   -1    0    0    0  501 -0.00000000000E+00 -0.00000000000E+00 -0.17128559685E+03  0.17128559685E+03  0.00000000000E+00 0.  1.
         23    2    1    2    0    0  0.25668520422E+01  0.47456876379E+01 -0.11707087728E+03  0.17134980172E+03  0.12500421578E+03 0.  0.
         23    2    1    2    0    0 -0.25668520422E+01 -0.47456876379E+01  0.49774806959E+02  0.10392532167E+03  0.91070471593E+02 0.  0.
          5    1    3    3  502    0  0.30000703030E+02  0.15390006985E+02 -0.13318866370E+03  0.13747074102E+03  0.47000000000E+01 0. -1.
         -5    1    3    3    0  502 -0.27433850987E+02 -0.10644319347E+02  0.16117786429E+02  0.33879060698E+02  0.47000000000E+01 0. -1.
        -11    1    4    4    0    0 -0.27118887107E+02  0.24495010754E+02  0.54326318782E+02  0.65473571021E+02  0.00000000000E+00 0. -1.
         11    1    4    4    0    0  0.24552035064E+02 -0.29240698392E+02 -0.45515118237E+01  0.38451750651E+02  0.00000000000E+00 0.  1.
<mgrwt>
<rscale>  0 0.11561953E+03</rscale>
<asrwt>0</asrwt>
<pdfrwt beam="1">  1        1 0.15998389E-01 0.12512060E+03</pdfrwt>
<pdfrwt beam="2">  1       -1 0.26351630E-01 0.12512060E+03</pdfrwt>
<totfact> 0.41575735E+03</totfact>
</mgrwt>
</event>
<event>
 8    1  0.1033707E-005  0.1364498E+03  0.7546771E-02  0.1234014E+00
         -3   -1    0    0    0  501 -0.00000000000E+00  0.00000000000E+00  0.71728554568E+02  0.71728554568E+02  0.00000000000E+00 0.  1.
          3   -1    0    0  501    0  0.00000000000E+00 -0.00000000000E+00 -0.19558580072E+03  0.19558580072E+03  0.00000000000E+00 0. -1.
         23    2    1    2    0    0  0.28208196272E+02  0.46874940162E+02 -0.53739120561E+02  0.14665076024E+03  0.12500236017E+03 0.  0.
         23    2    1    2    0    0 -0.28208196272E+02 -0.46874940162E+02 -0.70118125594E+02  0.12066359505E+03  0.81548692699E+02 0.  0.
          5    1    3    3  502    0  0.22959287029E+02 -0.32265498697E+02  0.13975895951E+02  0.42256442523E+02  0.47000000000E+01 0. -1.
         -5    1    3    3    0  502  0.52489092426E+01  0.79140438858E+02 -0.67715016512E+02  0.10439431772E+03  0.47000000000E+01 0. -1.
        -11    1    4    4    0    0 -0.42169661268E+02 -0.39010855999E+02 -0.98292275453E+01  0.58281565965E+02  0.00000000000E+00 0.  1.
         11    1    4    4    0    0  0.13961464996E+02 -0.78640841627E+01 -0.60288898049E+02  0.62382029083E+02  0.00000000000E+00 0. -1.
<mgrwt>
<rscale>  0 0.12567737E+03</rscale>
<asrwt>0</asrwt>
<pdfrwt beam="2">  1        3 0.30090123E-01 0.13644982E+03</pdfrwt>
<pdfrwt beam="1">  1       -3 0.11035162E-01 0.13644982E+03</pdfrwt>
<totfact> 0.15364449E+03</totfact>
</mgrwt>
</event>
<event>
 8    1  0.1033707E-005  0.1512337E+03  0.7546771E-02  0.1206078E+00
         -2   -1    0    0    0  501 -0.00000000000E+00  0.00000000000E+00  0.10254626185E+04  0.10254626185E+04  0.00000000000E+00 0.  1.
          2   -1    0    0  501    0  0.00000000000E+00 -0.00000000000E+00 -0.34156897496E+02  0.34156897496E+02  0.00000000000E+00 0. -1.
         23    2    1    2    0    0 -0.80829974593E+02 -0.26704785054E+02  0.86665606443E+03  0.87975243943E+03  0.12499996133E+03 0.  0.
         23    2    1    2    0    0  0.80829974593E+02  0.26704785054E+02  0.12464965660E+03  0.17986707659E+03  0.97816143935E+02 0.  0.
          5    1    3    3  502    0 -0.57198833872E+02 -0.76664633614E+02  0.54752712250E+03  0.55583919663E+03  0.47000000000E+01 0. -1.
         -5    1    3    3    0  502 -0.23631140720E+02  0.49959848559E+02  0.31912894193E+03  0.32391324280E+03  0.47000000000E+01 0. -1.
        -11    1    4    4    0    0  0.11537883071E+02  0.48386824967E+02  0.81284562821E+02  0.95297364754E+02  0.00000000000E+00 0.  1.
         11    1    4    4    0    0  0.69292091521E+02 -0.21682039912E+02  0.43365093781E+02  0.84569711841E+02  0.00000000000E+00 0. -1.
<mgrwt>
<rscale>  0 0.14552823E+03</rscale>
<asrwt>0</asrwt>
<pdfrwt beam="2">  1        2 0.52549081E-02 0.15123366E+03</pdfrwt>
<pdfrwt beam="1">  1       -2 0.15776346E+00 0.15123366E+03</pdfrwt>
<totfact> 0.40349145E+02</totfact>
</mgrwt>
</event>
<event>
 8    1  0.1033707E-005  0.1279774E+03  0.7546771E-02  0.1244183E+00
          3   -1    0    0  501    0  0.00000000000E+00  0.00000000000E+00  0.20711919743E+03  0.20711919743E+03  0.00000000000E+00 0. -1.
         -3   -1    0    0    0  501 -0.00000000000E+00 -0.00000000000E+00 -0.63036409576E+02  0.63036409576E+02  0.00000000000E+00 0.  1.
         23    2    1    2    0    0 -0.51400826820E+01  0.26946797282E+02  0.57524490867E+02  0.14031135023E+03  0.12500263045E+03 0.  0.
         23    2    1    2    0    0  0.51400826820E+01 -0.26946797282E+02  0.86558296988E+02  0.12984425678E+03  0.92815095252E+02 0.  0.
          5    1    3    3  502    0  0.25725252875E+02 -0.26257889451E+02 -0.19301118812E+02  0.41783831577E+02  0.47000000000E+01 0. -1.
         -5    1    3    3    0  502 -0.30865335557E+02  0.53204686733E+02  0.76825609679E+02  0.98527518653E+02  0.47000000000E+01 0. -1.
        -11    1    4    4    0    0 -0.21356517533E+02 -0.27073317035E+02 -0.47140854965E+01  0.34803562152E+02  0.00000000000E+00 0.  1.
         11    1    4    4    0    0  0.26496600215E+02  0.12651975281E+00  0.91272382485E+02  0.95040694624E+02  0.00000000000E+00 0. -1.
<mgrwt>
<rscale>  0 0.11934413E+03</rscale>
<asrwt>0</asrwt>
<pdfrwt beam="1">  1        3 0.31864492E-01 0.12797737E+03</pdfrwt>
<pdfrwt beam="2">  1       -3 0.96979093E-02 0.12797737E+03</pdfrwt>
<totfact> 0.16923607E+03</totfact>
</mgrwt>
</event>
<event>
 8    1  0.1033707E-005  0.1562708E+03  0.7546771E-02  0.1201201E+00
          2   -1    0    0  501    0  0.00000000000E+00  0.00000000000E+00  0.98024550081E+03  0.98024550081E+03  0.00000000000E+00 0.  1.
         -2   -1    0    0    0  501 -0.00000000000E+00 -0.00000000000E+00 -0.21143141146E+02  0.21143141146E+02  0.00000000000E+00 0. -1.
         23    2    1    2    0    0  0.86223090853E+02  0.36903596984E+02  0.56529550152E+03  0.58649770036E+03  0.12499700644E+03 0.  0.
         23    2    1    2    0    0 -0.86223090853E+02 -0.36903596984E+02  0.39380685815E+03  0.41489094160E+03  0.90853481118E+02 0.  0.
          5    1    3    3  502    0  0.15141265299E+02  0.73791493299E+02  0.29920028680E+03  0.30857307728E+03  0.47000000000E+01 0. -1.
         -5    1    3    3    0  502  0.71081825555E+02 -0.36887896315E+02  0.26609521471E+03  0.27792462308E+03  0.47000000000E+01 0. -1.
        -11    1    4    4    0    0  0.14082481656E+02 -0.21438089228E+02  0.12404337357E+03  0.12666754315E+03  0.00000000000E+00 0.  1.
         11    1    4    4    0    0 -0.10030557251E+03 -0.15465507757E+02  0.26976348458E+03  0.28822339846E+03  0.00000000000E+00 0. -1.
<mgrwt>
<rscale>  0 0.14940871E+03</rscale>
<asrwt>0</asrwt>
<pdfrwt beam="1">  1        2 0.15080696E+00 0.15627075E+03</pdfrwt>
<pdfrwt beam="2">  1       -2 0.32527917E-02 0.15627075E+03</pdfrwt>
<totfact> 0.98474631E+03</totfact>
</mgrwt>
</event>
<event>
 7    1  0.1033707E-005  0.1657517E+03  0.7546771E-02  0.1208154E+00
         -1   -1    0    0    0  501 -0.00000000000E+00  0.00000000000E+00  0.50342843853E+03  0.50342843853E+03  0.00000000000E+00 0.  1.
          1   -1    0    0  501    0  0.00000000000E+00 -0.00000000000E+00 -0.50255955749E+02  0.50255955749E+02  0.00000000000E+00 0. -1.
         23    2    1    2    0    0 -0.12469865987E+02 -0.13578935710E+02  0.29457304221E+02  0.98702875325E+02  0.92383114111E+02 0.  0.
          5    1    1    2  502    0  0.57105032714E+02 -0.52221592240E+02  0.28150620256E+03  0.29198614956E+03  0.47000000000E+01 0. -1.
         -5    1    1    2    0  502 -0.44635166727E+02  0.65800527951E+02  0.14220897600E+03  0.16299536939E+03  0.47000000000E+01 0.  1.
        -11    1    3    3    0    0 -0.43572456691E+02 -0.71404603633E+01 -0.12677554786E+02  0.45937626753E+02  0.00000000000E+00 0.  1.
         11    1    3    3    0    0  0.31102590705E+02 -0.64384753468E+01  0.42134859007E+02  0.52765248572E+02  0.00000000000E+00 0. -1.
<mgrwt>
<rscale>  0 0.14391685E+03</rscale>
<asrwt>0</asrwt>
<pdfrwt beam="2">  1        1 0.77316858E-02 0.16575171E+03</pdfrwt>
<pdfrwt beam="1">  1       -1 0.77450526E-01 0.16575171E+03</pdfrwt>
<totfact> 0.15633820E+03</totfact>
</mgrwt>
</event>
<event>
 8    1  0.1033707E-005  0.1258343E+03  0.7546771E-02  0.1252436E+00
         -2   -1    0    0    0  501 -0.00000000000E+00  0.00000000000E+00  0.11024745846E+03  0.11024745846E+03  0.00000000000E+00 0.  1.
          2   -1    0    0  501    0  0.00000000000E+00 -0.00000000000E+00 -0.10273705669E+03  0.10273705669E+03  0.00000000000E+00 0. -1.
         23    2    1    2    0    0  0.13802392420E+02 -0.50525648718E+01  0.13049316373E+02  0.12650913160E+03  0.12497296217E+03 0.  0.
         23    2    1    2    0    0 -0.13802392420E+02  0.50525648718E+01 -0.55389145980E+01  0.86475383544E+02  0.85036921016E+02 0.  0.
          5    1    3    3  502    0  0.34277981442E+02 -0.49088171576E+02  0.38642378383E+02  0.71413948270E+02  0.47000000000E+01 0. -1.
         -5    1    3    3    0  502 -0.20475589022E+02  0.44035606704E+02 -0.25593062009E+02  0.55095183334E+02  0.47000000000E+01 0. -1.
        -11    1    4    4    0    0 -0.29664847464E+02  0.32351583866E+02 -0.23872736085E+02  0.49965344809E+02  0.00000000000E+00 0. -1.
         11    1    4    4    0    0  0.15862455044E+02 -0.27299018995E+02  0.18333821487E+02  0.36510038735E+02  0.00000000000E+00 0.  1.
<mgrwt>
<rscale>  0 0.11451154E+03</rscale>
<asrwt>0</asrwt>
<pdfrwt beam="2">  1        2 0.15805701E-01 0.12583432E+03</pdfrwt>
<pdfrwt beam="1">  1       -2 0.16961147E-01 0.12583432E+03</pdfrwt>
<totfact> 0.95303693E+03</totfact>
</mgrwt>
</event>
<event>
 8    1  0.1033707E-005  0.1259456E+03  0.7546771E-02  0.1246122E+00
         -1   -1    0    0    0  501 -0.00000000000E+00  0.00000000000E+00  0.72870726947E+02  0.72870726947E+02  0.00000000000E+00 0.  1.
          1   -1    0    0  501    0  0.00000000000E+00 -0.00000000000E+00 -0.19003298325E+03  0.19003298325E+03  0.00000000000E+00 0. -1.
         23    2    1    2    0    0  0.15364732372E+02  0.87199386558E+00 -0.24547452487E+02  0.12831551569E+03  0.12500183507E+03 0.  0.
         23    2    1    2    0    0 -0.15364732372E+02 -0.87199386558E+00 -0.92614803818E+02  0.13458819450E+03  0.96434666171E+02 0.  0.
          5    1    3    3  502    0  0.16404072223E+02  0.62025561722E+02 -0.83446164606E+01  0.64868995031E+02  0.47000000000E+01 0. -1.
         -5    1    3    3    0  502 -0.10393398515E+01 -0.61153567857E+02 -0.16202836027E+02  0.63446520663E+02  0.47000000000E+01 0. -1.
        -11    1    4    4    0    0 -0.32380255484E+02  0.11257089240E+02  0.51049555452E+01  0.34659249480E+02  0.00000000000E+00 0.  1.
         11    1    4    4    0    0  0.17015523112E+02 -0.12129083106E+02 -0.97719759363E+02  0.99928945024E+02  0.00000000000E+00 0. -1.
<mgrwt>
<rscale>  0 0.11818457E+03</rscale>
<asrwt>0</asrwt>
<pdfrwt beam="2">  1        1 0.29235843E-01 0.12594560E+03</pdfrwt>
<pdfrwt beam="1">  1       -1 0.11210881E-01 0.12594560E+03</pdfrwt>
<totfact> 0.75228925E+03</totfact>
</mgrwt>
</event>
<event>
 8    1  0.1033707E-005  0.1319428E+03  0.7546771E-02  0.1237862E+00
         -2   -1    0    0    0  501 -0.00000000000E+00  0.00000000000E+00  0.16139946442E+02  0.16139946442E+02  0.00000000000E+00 0.  1.
          2   -1    0    0  501    0  0.00000000000E+00 -0.00000000000E+00 -0.88873065477E+03  0.88873065477E+03  0.00000000000E+00 0. -1.
         23    2    1    2    0    0  0.33017219356E+02 -0.26321946928E+02 -0.38292500447E+03  0.40501908004E+03  0.12500365787E+03 0.  0.
         23    2    1    2    0    0 -0.33017219356E+02  0.26321946928E+02 -0.48966570386E+03  0.49985152117E+03  0.91082709784E+02 0.  0.
          5    1    3    3  502    0  0.61407956763E+01  0.47611003772E+02 -0.20194092775E+03  0.20762163989E+03  0.47000000000E+01 0.  1.
         -5    1    3    3    0  502  0.26876423680E+02 -0.73932950700E+02 -0.18098407672E+03  0.19739744015E+03  0.47000000000E+01 0.  1.
        -11    1    4    4    0    0 -0.40942424342E+02 -0.25135521799E+02 -0.25394832484E+03  0.25845275827E+03  0.00000000000E+00 0. -1.
         11    1    4    4    0    0  0.79252049858E+01  0.51457468727E+02 -0.23571737902E+03  0.24139876291E+03  0.00000000000E+00 0.  1.
<mgrwt>
<rscale>  0 0.12323005E+03</rscale>
<asrwt>0</asrwt>
<pdfrwt beam="2">  1        2 0.13672780E+00 0.13194278E+03</pdfrwt>
<pdfrwt beam="1">  1       -2 0.24830686E-02 0.13194278E+03</pdfrwt>
<totfact> 0.16512327E+04</totfact>
</mgrwt>
</event>
<event>
 8    1  0.1033707E-005  0.1355907E+03  0.7546771E-02  0.1231668E+00
          3   -1    0    0  501    0  0.00000000000E+00  0.00000000000E+00  0.71556233305E+02  0.71556233305E+02  0.00000000000E+00 0. -1.
         -3   -1    0    0    0  501 -0.00000000000E+00 -0.00000000000E+00 -0.25742959554E+03  0.25742959554E+03  0.00000000000E+00 0.  1.
         23    2    1    2    0    0 -0.52313423925E+02 -0.48881582448E+01 -0.17787105529E+03  0.22365808347E+03  0.12499695026E+03 0.  0.
         23    2    1    2    0    0  0.52313423925E+02  0.48881582448E+01 -0.80023069422E+01  0.10532774538E+03  0.90935738939E+02 0.  0.
          5    1    3    3  502    0 -0.32873995951E+02  0.52415609253E+02 -0.42229304318E+02  0.75056644251E+02  0.47000000000E+01 0.  1.
         -5    1    3    3    0  502 -0.19439427974E+02 -0.57303767497E+02 -0.13564175097E+03  0.14860143921E+03  0.47000000000E+01 0.  1.
        -11    1    4    4    0    0  0.41120635346E+02 -0.29431566380E+02 -0.33917955716E+02  0.60889666371E+02  0.00000000000E+00 0.  1.
         11    1    4    4    0    0  0.11192788578E+02  0.34319724625E+02  0.25915648774E+02  0.44438079007E+02  0.00000000000E+00 0. -1.
<mgrwt>
<rscale>  0 0.12720195E+03</rscale>
<asrwt>0</asrwt>
<pdfrwt beam="1">  1        3 0.11008651E-01 0.13559066E+03</pdfrwt>
<pdfrwt beam="2">  1       -3 0.39604554E-01 0.13559066E+03</pdfrwt>
<totfact> 0.91778996E+02</totfact>
</mgrwt>
</event>
<event>
 8    1  0.1033707E-005  0.1170159E+03  0.7546771E-02  0.1262349E+00
         -1   -1    0    0    0  501 -0.00000000000E+00  0.00000000000E+00  0.38029378351E+02  0.38029378351E+02  0.00000000000E+00 0.  1.
          1   -1    0    0  501    0  0.00000000000E+00 -0.00000000000E+00 -0.38471047466E+03  0.38471047466E+03  0.00000000000E+00 0. -1.
         23    2    1    2    0    0 -0.25927754943E+02  0.23090478132E+01 -0.79768837047E+02  0.14161849923E+03  0.11408396812E+03 0.  0.
         23    2    1    2    0    0  0.25927754943E+02 -0.23090478132E+01 -0.26691225926E+03  0.28112135378E+03  0.84317739721E+02 0.  0.
          5    1    3    3  502    0  0.19874656226E+02  0.36442083635E+02 -0.72729074634E+02  0.83872735242E+02  0.47000000000E+01 0. -1.
         -5    1    3    3    0  502 -0.45802411169E+02 -0.34133035821E+02 -0.70397624129E+01  0.57745763984E+02  0.47000000000E+01 0.  1.
        -11    1    4    4    0    0 -0.19693204616E+02  0.27391762423E+02 -0.96697204319E+02  0.10241328175E+03  0.00000000000E+00 0.  1.
         11    1    4    4    0    0  0.45620959559E+02 -0.29700810236E+02 -0.17021505494E+03  0.17870807203E+03  0.00000000000E+00 0. -1.
<mgrwt>
<rscale>  0 0.10904493E+03</rscale>
<asrwt>0</asrwt>
<pdfrwt beam="2">  1        1 0.59186231E-01 0.11701595E+03</pdfrwt>
<pdfrwt beam="1">  1       -1 0.58506732E-02 0.11701595E+03</pdfrwt>
<totfact> 0.83303498E+03</totfact>
</mgrwt>
</event>
<event>
 8    1  0.1033707E-005  0.1588292E+03  0.7546771E-02  0.1197847E+00
          3   -1    0    0  501    0  0.00000000000E+00  0.00000000000E+00  0.27778084430E+03  0.27778084430E+03  0.00000000000E+00 0. -1.
         -3   -1    0    0    0  501 -0.00000000000E+00 -0.00000000000E+00 -0.91557614420E+02  0.91557614420E+02  0.00000000000E+00 0.  1.
         23    2    1    2    0    0 -0.97098093119E+02  0.13172245805E+02  0.26552793170E+02  0.16103339407E+03  0.12500062173E+03 0.  0.
         23    2    1    2    0    0  0.97098093119E+02 -0.13172245805E+02  0.15967043671E+03  0.20830506465E+03  0.91075813771E+02 0.  0.
          5    1    3    3  502    0 -0.30043276876E+02  0.57272120920E+02 -0.20343810781E+02  0.67960686850E+02  0.47000000000E+01 0.  1.
         -5    1    3    3    0  502 -0.67054816243E+02 -0.44099875115E+02  0.46896603951E+02  0.93072707217E+02  0.47000000000E+01 0.  1.
        -11    1    4    4    0    0  0.67123522404E+02  0.17463773915E+02  0.37526296288E+02  0.78859200937E+02  0.00000000000E+00 0.  1.
         11    1    4    4    0    0  0.29974570715E+02 -0.30636019719E+02  0.12214414042E+03  0.12944586372E+03  0.00000000000E+00 0. -1.
<mgrwt>
<rscale>  0 0.15215746E+03</rscale>
<asrwt>0</asrwt>
<pdfrwt beam="1">  1        3 0.42735514E-01 0.15882916E+03</pdfrwt>
<pdfrwt beam="2">  1       -3 0.14085787E-01 0.15882916E+03</pdfrwt>
<totfact> 0.53519236E+02</totfact>
</mgrwt>
</event>
<event>
 8    1  0.1033707E-005  0.1254771E+03  0.7546771E-02  0.1249728E+00
         -2   -1    0    0    0  501 -0.00000000000E+00  0.00000000000E+00  0.93206716884E+02  0.93206716884E+02  0.00000000000E+00 0.  1.
          2   -1    0    0  501    0  0.00000000000E+00 -0.00000000000E+00 -0.18136411993E+03  0.18136411993E+03  0.00000000000E+00 0. -1.
         23    2    1    2    0    0  0.63298940129E+01 -0.89312114880E+01  0.25895341982E+02  0.12812133461E+03  0.12499869419E+03 0.  0.
         23    2    1    2    0    0 -0.63298940129E+01  0.89312114880E+01 -0.11405274503E+03  0.14644950220E+03  0.91211808177E+02 0.  0.
          5    1    3    3  502    0 -0.11476859236E+02  0.47494642618E+02  0.44151439177E+02  0.66021958141E+02  0.47000000000E+01 0.  1.
         -5    1    3    3    0  502  0.17806753249E+02 -0.56425854106E+02 -0.18256097195E+02  0.62099376467E+02  0.47000000000E+01 0.  1.
        -11    1    4    4    0    0 -0.47175730148E+02  0.39315397716E+01 -0.41101909515E+02  0.62692690848E+02  0.00000000000E+00 0.  1.
         11    1    4    4    0    0  0.40845836135E+02  0.49996717164E+01 -0.72950835512E+02  0.83756811357E+02  0.00000000000E+00 0. -1.
<mgrwt>
<rscale>  0 0.11606801E+03</rscale>
<asrwt>0</asrwt>
<pdfrwt beam="2">  1        2 0.27902172E-01 0.12547712E+03</pdfrwt>
<pdfrwt beam="1">  1       -2 0.14339495E-01 0.12547712E+03</pdfrwt>
<totfact> 0.66275537E+03</totfact>
</mgrwt>
</event>
<event>
 8    1  0.1033707E-005  0.1575998E+03  0.7546771E-02  0.1199327E+00
         -4   -1    0    0    0  501 -0.00000000000E+00  0.00000000000E+00  0.49271402040E+03  0.49271402040E+03  0.00000000000E+00 0.  1.
          4   -1    0    0  501    0  0.00000000000E+00 -0.00000000000E+00 -0.45126307159E+02  0.45126307159E+02  0.00000000000E+00 0. -1.
         23    2    1    2    0    0  0.62939327025E+02 -0.72462971530E+02  0.30383764856E+03  0.34227912292E+03  0.12500176069E+03 0.  0.
         23    2    1    2    0    0 -0.62939327025E+02  0.72462971530E+02  0.14375006468E+03  0.19556120464E+03  0.91476021637E+02 0.  0.
          5    1    3    3  502    0  0.82706209873E+02 -0.92845451794E+02  0.20966987208E+03  0.24381169030E+03  0.47000000000E+01 0. -1.
         -5    1    3    3    0  502 -0.19766882848E+02  0.20382480265E+02  0.94167776479E+02  0.98467432617E+02  0.47000000000E+01 0. -1.
        -11    1    4    4    0    0 -0.59075190556E+02  0.85659048962E+01  0.34520110969E+02  0.68955717147E+02  0.00000000000E+00 0. -1.
         11    1    4    4    0    0 -0.38641364685E+01  0.63897066633E+02  0.10922995371E+03  0.12660548749E+03  0.00000000000E+00 0.  1.
<mgrwt>
<rscale>  0 0.15093652E+03</rscale>
<asrwt>0</asrwt>
<pdfrwt beam="2">  1        4 0.69425092E-02 0.15759975E+03</pdfrwt>
<pdfrwt beam="1">  1       -4 0.75802153E-01 0.15759975E+03</pdfrwt>
<totfact> 0.38259496E+02</totfact>
</mgrwt>
</event>
<event>
 8    1  0.1033707E-005  0.1353102E+03  0.7546771E-02  0.1232303E+00
         -1   -1    0    0    0  501 -0.00000000000E+00  0.00000000000E+00  0.10586812185E+03  0.10586812185E+03  0.00000000000E+00 0.  1.
          1   -1    0    0  501    0  0.00000000000E+00 -0.00000000000E+00 -0.15898973820E+03  0.15898973820E+03  0.00000000000E+00 0. -1.
         23    2    1    2    0    0  0.18841933547E+02 -0.48283141543E+02  0.20958005733E+02  0.13692368388E+03  0.12499030757E+03 0.  0.
         23    2    1    2    0    0 -0.18841933547E+02  0.48283141543E+02 -0.74079622084E+02  0.12793417617E+03  0.90515649508E+02 0.  0.
          5    1    3    3  502    0  0.21599571437E+01 -0.89405771777E+02  0.22255312479E+02  0.92279176283E+02  0.47000000000E+01 0. -1.
         -5    1    3    3    0  502  0.16681976403E+02  0.41122630234E+02 -0.12973067457E+01  0.44644507600E+02  0.47000000000E+01 0. -1.
        -11    1    4    4    0    0 -0.41165022914E+02 -0.84596379867E+01 -0.20482754247E+02  0.46751126274E+02  0.00000000000E+00 0.  1.
         11    1    4    4    0    0  0.22323089367E+02  0.56742779530E+02 -0.53596867838E+02  0.81183049892E+02  0.00000000000E+00 0. -1.
<mgrwt>
<rscale>  0 0.12678661E+03</rscale>
<asrwt>0</asrwt>
<pdfrwt beam="2">  1        1 0.24459959E-01 0.13531023E+03</pdfrwt>
<pdfrwt beam="1">  1       -1 0.16287404E-01 0.13531023E+03</pdfrwt>
<totfact> 0.52866747E+03</totfact>
</mgrwt>
</event>
<event>
 8    1  0.1033707E-005  0.1402800E+03  0.7546771E-02  0.1223008E+00
         -2   -1    0    0    0  501 -0.00000000000E+00  0.00000000000E+00  0.23275370198E+03  0.23275370198E+03  0.00000000000E+00 0.  1.
          2   -1    0    0  501    0  0.00000000000E+00 -0.00000000000E+00 -0.82525127947E+02  0.82525127947E+02  0.00000000000E+00 0. -1.
         23    2    1    2    0    0  0.62368994794E+02  0.13439443717E+02  0.14486607106E+03  0.20165482880E+03  0.12493190654E+03 0.  0.
         23    2    1    2    0    0 -0.62368994794E+02 -0.13439443717E+02  0.53625029681E+01  0.11362400113E+03  0.93867710292E+02 0.  0.
          5    1    3    3  502    0  0.91330343700E+02  0.40527670888E+02  0.97259550387E+02  0.13951786240E+03  0.47000000000E+01 0. -1.
         -5    1    3    3    0  502 -0.28961348907E+02 -0.27088227171E+02  0.47606520675E+02  0.62136966393E+02  0.47000000000E+01 0. -1.
        -11    1    4    4    0    0 -0.28687025205E+02 -0.19703140277E+02  0.47772687601E+02  0.59104896857E+02  0.00000000000E+00 0.  1.
         11    1    4    4    0    0 -0.33681969589E+02  0.62636965598E+01 -0.42410184633E+02  0.54519104272E+02  0.00000000000E+00 0. -1.
<mgrwt>
<rscale>  0 0.13304342E+03</rscale>
<asrwt>0</asrwt>
<pdfrwt beam="2">  1        2 0.12696174E-01 0.14028005E+03</pdfrwt>
<pdfrwt beam="1">  1       -2 0.35808262E-01 0.14028005E+03</pdfrwt>
<totfact> 0.33715649E+03</totfact>
</mgrwt>
</event>
<event>
 8    1  0.1033707E-005  0.1285123E+03  0.7546771E-02  0.1243518E+00
          1   -1    0    0  501    0  0.00000000000E+00  0.00000000000E+00  0.21774548741E+03  0.21774548741E+03  0.00000000000E+00 0. -1.
         -1   -1    0    0    0  501 -0.00000000000E+00 -0.00000000000E+00 -0.61250731405E+02  0.61250731405E+02  0.00000000000E+00 0.  1.
         23    2    1    2    0    0 -0.53191264006E+01  0.29388791201E+02  0.58492816045E+02  0.14119781231E+03  0.12499367391E+03 0.  0.
         23    2    1    2    0    0  0.53191264006E+01 -0.29388791201E+02  0.98001939955E+02  0.13779840650E+03  0.92152191758E+02 0.  0.
          5    1    3    3  502    0 -0.40618309833E+02  0.54662104736E+02  0.75615936704E-01  0.68263376020E+02  0.47000000000E+01 0. -1.
         -5    1    3    3    0  502  0.35299183433E+02 -0.25273313535E+02  0.58417200108E+02  0.72934436287E+02  0.47000000000E+01 0. -1.
        -11    1    4    4    0    0  0.44590437145E+02 -0.99315096483E+01  0.76207887914E+02  0.88851472407E+02  0.00000000000E+00 0.  1.
         11    1    4    4    0    0 -0.39271310744E+02 -0.19457281553E+02  0.21794052042E+02  0.48946934096E+02  0.00000000000E+00 0. -1.
<mgrwt>
<rscale>  0 0.11974494E+03</rscale>
<asrwt>0</asrwt>
<pdfrwt beam="1">  1        1 0.33499305E-01 0.12851231E+03</pdfrwt>
<pdfrwt beam="2">  1       -1 0.94231895E-02 0.12851231E+03</pdfrwt>
<totfact> 0.82963346E+03</totfact>
</mgrwt>
</event>
<event>
 8    1  0.1033707E-005  0.1304064E+03  0.7546771E-02  0.1239565E+00
          3   -1    0    0  501    0  0.00000000000E+00  0.00000000000E+00  0.10438217961E+03  0.10438217961E+03  0.00000000000E+00 0. -1.
         -3   -1    0    0    0  501 -0.00000000000E+00 -0.00000000000E+00 -0.13669937751E+03  0.13669937751E+03  0.00000000000E+00 0.  1.
         23    2    1    2    0    0  0.27196659805E+02 -0.25301905173E+02 -0.48915008068E+02  0.13927854035E+03  0.12500395624E+03 0.  0.
         23    2    1    2    0    0 -0.27196659805E+02  0.25301905173E+02  0.16597810175E+02  0.10180301678E+03  0.93319463201E+02 0.  0.
          5    1    3    3  502    0  0.31560748555E+02  0.41275119670E+02  0.62963207993E+01  0.52549500557E+02  0.47000000000E+01 0.  1.
         -5    1    3    3    0  502 -0.43640887500E+01 -0.66577024843E+02 -0.55211328867E+02  0.86729039790E+02  0.47000000000E+01 0.  1.
        -11    1    4    4    0    0 -0.19294552282E+02  0.47516614719E+02  0.42623618147E+02  0.66684940175E+02  0.00000000000E+00 0. -1.
         11    1    4    4    0    0 -0.79021075225E+01 -0.22214709546E+02 -0.26025807973E+02  0.35118076601E+02  0.00000000000E+00 0.  1.
<mgrwt>
<rscale>  0 0.12216642E+03</rscale>
<asrwt>0</asrwt>
<pdfrwt beam="1">  1        3 0.16058797E-01 0.13040642E+03</pdfrwt>
<pdfrwt beam="2">  1       -3 0.21030674E-01 0.13040642E+03</pdfrwt>
<totfact> 0.15446587E+03</totfact>
</mgrwt>
</event>
<event>
 8    1  0.1033707E-005  0.1516367E+03  0.7546771E-02  0.1206886E+00
         -1   -1    0    0    0  501 -0.00000000000E+00  0.00000000000E+00  0.57292027479E+03  0.57292027479E+03  0.00000000000E+00 0.  1.
          1   -1    0    0  501    0  0.00000000000E+00 -0.00000000000E+00 -0.34843037658E+02  0.34843037658E+02  0.00000000000E+00 0. -1.
         23    2    1    2    0    0  0.59731824095E+02  0.61652435566E+02  0.34652754754E+03  0.37825258515E+03  0.12499905338E+03 0.  0.
         23    2    1    2    0    0 -0.59731824095E+02 -0.61652435566E+02  0.19154968959E+03  0.22951072730E+03  0.92816899013E+02 0.  0.
          5    1    3    3  502    0  0.55406757973E+02  0.94703725213E+02  0.30850734235E+03  0.32747148682E+03  0.47000000000E+01 0.  1.
         -5    1    3    3    0  502  0.43250661222E+01 -0.33051289647E+02  0.38020205194E+02  0.50781098327E+02  0.47000000000E+01 0.  1.
        -11    1    4    4    0    0 -0.84031871685E+02 -0.49594920530E+02  0.16410079409E+03  0.19091904626E+03  0.00000000000E+00 0.  1.
         11    1    4    4    0    0  0.24300047590E+02 -0.12057515037E+02  0.27448895493E+02  0.38591681040E+02  0.00000000000E+00 0. -1.
<mgrwt>
<rscale>  0 0.14489836E+03</rscale>
<asrwt>0</asrwt>
<pdfrwt beam="2">  1        1 0.53604678E-02 0.15163666E+03</pdfrwt>
<pdfrwt beam="1">  1       -1 0.88141574E-01 0.15163666E+03</pdfrwt>
<totfact> 0.19605125E+03</totfact>
</mgrwt>
</event>
<event>
 8    1  0.1033707E-005  0.2154680E+03  0.7546771E-02  0.1140717E+00
         -1   -1    0    0    0  501 -0.00000000000E+00  0.00000000000E+00  0.22068481413E+03  0.22068481413E+03  0.00000000000E+00 0.  1.
          1   -1    0    0  501    0  0.00000000000E+00 -0.00000000000E+00 -0.22304821594E+03  0.22304821594E+03  0.00000000000E+00 0. -1.
         23    2    1    2    0    0  0.16150175113E+03 -0.68710470288E+02  0.78691893042E+02  0.22938804549E+03  0.12499006775E+03 0.  0.
         23    2    1    2    0    0 -0.16150175113E+03  0.68710470288E+02 -0.81055294848E+02  0.21434498458E+03  0.92573577460E+02 0.  0.
          5    1    3    3  502    0  0.12071454293E+03 -0.79321684586E+02  0.10575556935E+03  0.17908171590E+03  0.47000000000E+01 0. -1.
         -5    1    3    3    0  502  0.40787208199E+02  0.10611214298E+02 -0.27063676306E+02  0.50306329589E+02  0.47000000000E+01 0. -1.
        -11    1    4    4    0    0 -0.57677210989E+02  0.28175491830E+02 -0.80405650849E+02  0.10288628527E+03  0.00000000000E+00 0.  1.
         11    1    4    4    0    0 -0.10382454014E+03  0.40534978458E+02 -0.64964399965E+00  0.11145869931E+03  0.00000000000E+00 0. -1.
<mgrwt>
<rscale>  0 0.21107560E+03</rscale>
<asrwt>0</asrwt>
<pdfrwt beam="2">  1        1 0.34315110E-01 0.21546801E+03</pdfrwt>
<pdfrwt beam="1">  1       -1 0.33951510E-01 0.21546801E+03</pdfrwt>
<totfact> 0.10508344E+03</totfact>
</mgrwt>
</event>
<event>
 8    1  0.1033707E-005  0.1290236E+03  0.7546771E-02  0.1246240E+00
         -1   -1    0    0    0  501 -0.00000000000E+00  0.00000000000E+00  0.21128878381E+03  0.21128878381E+03  0.00000000000E+00 0.  1.
          1   -1    0    0  501    0  0.00000000000E+00 -0.00000000000E+00 -0.58174974675E+02  0.58174974675E+02  0.00000000000E+00 0. -1.
         23    2    1    2    0    0 -0.12504585317E+02 -0.29435375803E+02  0.10789383059E+03  0.16819087296E+03  0.12499714023E+03 0.  0.
         23    2    1    2    0    0  0.12504585317E+02  0.29435375803E+02  0.45219978550E+02  0.10127288553E+03  0.84785286936E+02 0.  0.
          5    1    3    3  502    0  0.20504553670E+02 -0.11889339428E+02  0.12463946242E+03  0.12696014613E+03  0.47000000000E+01 0.  1.
         -5    1    3    3    0  502 -0.33009138987E+02 -0.17546036375E+02 -0.16745631833E+02  0.41230726826E+02  0.47000000000E+01 0.  1.
        -11    1    4    4    0    0  0.63176478430E+00 -0.19338252204E+02  0.47224977272E+02  0.51034944924E+02  0.00000000000E+00 0.  1.
         11    1    4    4    0    0  0.11872820532E+02  0.48773628008E+02 -0.20049987218E+01  0.50237940606E+02  0.00000000000E+00 0. -1.
<mgrwt>
<rscale>  0 0.11811463E+03</rscale>
<asrwt>0</asrwt>
<pdfrwt beam="2">  1        1 0.89499962E-02 0.12902361E+03</pdfrwt>
<pdfrwt beam="1">  1       -1 0.32505966E-01 0.12902361E+03</pdfrwt>
<totfact> 0.62756564E+03</totfact>
</mgrwt>
</event>
<event>
 8    1  0.1033707E-005  0.1250944E+03  0.7546771E-02  0.1249779E+00
         -2   -1    0    0    0  501 -0.00000000000E+00  0.00000000000E+00  0.83512642301E+02  0.83512642301E+02  0.00000000000E+00 0.  1.
          2   -1    0    0  501    0  0.00000000000E+00 -0.00000000000E+00 -0.15259500912E+03  0.15259500912E+03  0.00000000000E+00 0. -1.
         23    2    1    2    0    0 -0.88389477234E+00 -0.47644172420E+01 -0.83919025897E+01  0.12537561066E+03  0.12500055511E+03 0.  0.
         23    2    1    2    0    0  0.88389477234E+00  0.47644172420E+01 -0.60690464232E+02  0.11073204076E+03  0.92492007555E+02 0.  0.
          5    1    3    3  502    0 -0.52117839293E+02 -0.17446657364E+02  0.27240047232E+02  0.61520445373E+02  0.47000000000E+01 0. -1.
         -5    1    3    3    0  502  0.51233944521E+02  0.12682240122E+02 -0.35631949822E+02  0.63855165286E+02  0.47000000000E+01 0. -1.
        -11    1    4    4    0    0  0.21531182865E+02  0.15982856161E+02  0.15519113568E+02  0.30982033706E+02  0.00000000000E+00 0.  1.
         11    1    4    4    0    0 -0.20647288093E+02 -0.11218438919E+02 -0.76209577800E+02  0.79750007059E+02  0.00000000000E+00 0. -1.
<mgrwt>
<rscale>  0 0.11603884E+03</rscale>
<asrwt>0</asrwt>
<pdfrwt beam="2">  1        2 0.23476155E-01 0.12509444E+03</pdfrwt>
<pdfrwt beam="1">  1       -2 0.12848099E-01 0.12509444E+03</pdfrwt>
<totfact> 0.95621830E+03</totfact>
</mgrwt>
</event>
<event>
 8    1  0.1033707E-005  0.1724399E+03  0.7546771E-02  0.1181292E+00
          1   -1    0    0  501    0  0.00000000000E+00  0.00000000000E+00  0.55872886260E+02  0.55872886260E+02  0.00000000000E+00 0. -1.
         -1   -1    0    0    0  501 -0.00000000000E+00 -0.00000000000E+00 -0.59974417760E+03  0.59974417760E+03  0.00000000000E+00 0.  1.
         23    2    1    2    0    0 -0.92551889139E+02 -0.74372843225E+02 -0.43991280054E+03  0.47250269827E+03  0.12505341182E+03 0.  0.
         23    2    1    2    0    0  0.92551889139E+02  0.74372843225E+02 -0.10395849080E+03  0.18311436559E+03  0.92878044132E+02 0.  0.
          5    1    3    3  502    0  0.27436237763E+02 -0.35295112433E+02 -0.14158588508E+03  0.14855014291E+03  0.47000000000E+01 0.  1.
         -5    1    3    3    0  502 -0.11998812690E+03 -0.39077730791E+02 -0.29832691546E+03  0.32395255537E+03  0.47000000000E+01 0.  1.
        -11    1    4    4    0    0  0.20856965231E+02  0.27111372396E+02 -0.89786985571E+02  0.96081956109E+02  0.00000000000E+00 0.  1.
         11    1    4    4    0    0  0.71694923908E+02  0.47261470829E+02 -0.14171505233E+02  0.87032409478E+02  0.00000000000E+00 0. -1.
<mgrwt>
<rscale>  0 0.16673923E+03</rscale>
<asrwt>0</asrwt>
<pdfrwt beam="1">  1        1 0.85958290E-02 0.17243993E+03</pdfrwt>
<pdfrwt beam="2">  1       -1 0.92268331E-01 0.17243993E+03</pdfrwt>
<totfact> 0.94064531E+02</totfact>
</mgrwt>
</event>
<event>
 8    1  0.1033707E-005  0.1389848E+03  0.7546771E-02  0.1225621E+00
         -2   -1    0    0    0  501 -0.00000000000E+00  0.00000000000E+00  0.13648124135E+03  0.13648124135E+03  0.00000000000E+00 0.  1.
          2   -1    0    0  501    0  0.00000000000E+00 -0.00000000000E+00 -0.13839325783E+03  0.13839325783E+03  0.00000000000E+00 0. -1.
         23    2    1    2    0    0 -0.60214098112E+02 -0.81384692038E+01  0.56313017280E+02  0.14995974857E+03  0.12499919193E+03 0.  0.
         23    2    1    2    0    0  0.60214098112E+02  0.81384692038E+01 -0.58225033763E+02  0.12491475061E+03  0.92312339751E+02 0.  0.
          5    1    3    3  502    0 -0.37105020866E+01 -0.60071529945E+02  0.13150500219E+02  0.61784967360E+02  0.47000000000E+01 0. -1.
         -5    1    3    3    0  502 -0.56503596026E+02  0.51933060741E+02  0.43162517061E+02  0.88174781206E+02  0.47000000000E+01 0. -1.
        -11    1    4    4    0    0  0.18639647138E+02  0.42078082663E+02 -0.54188748073E+02  0.71094457616E+02  0.00000000000E+00 0. -1.
         11    1    4    4    0    0  0.41574450974E+02 -0.33939613459E+02 -0.40362856901E+01  0.53820292992E+02  0.00000000000E+00 0.  1.
<mgrwt>
<rscale>  0 0.13124436E+03</rscale>
<asrwt>0</asrwt>
<pdfrwt beam="2">  1        2 0.21291270E-01 0.13898478E+03</pdfrwt>
<pdfrwt beam="1">  1       -2 0.20997114E-01 0.13898478E+03</pdfrwt>
<totfact> 0.47743094E+03</totfact>
</mgrwt>
</event>
<event>
 8    1  0.1033707E-005  0.2268237E+03  0.7546771E-02  0.1132087E+00
         -1   -1    0    0    0  501 -0.00000000000E+00  0.00000000000E+00  0.32788114889E+02  0.32788114889E+02  0.00000000000E+00 0.  1.
          1   -1    0    0  501    0  0.00000000000E+00 -0.00000000000E+00 -0.14653809649E+04  0.14653809649E+04  0.00000000000E+00 0. -1.
         23    2    1    2    0    0  0.27076487586E+02  0.18732828751E+03 -0.67579054334E+03  0.71284070198E+03  0.12499593775E+03 0.  0.
         23    2    1    2    0    0 -0.27076487586E+02 -0.18732828751E+03 -0.75680230670E+03  0.78532837784E+03  0.90365403367E+02 0.  0.
          5    1    3    3  502    0 -0.19293410721E+02  0.45318850958E+02 -0.53581825346E+02  0.72932406767E+02  0.47000000000E+01 0. -1.
         -5    1    3    3    0  502  0.46369898306E+02  0.14200943655E+03 -0.62220871799E+03  0.63990829521E+03  0.47000000000E+01 0. -1.
        -11    1    4    4    0    0 -0.73533298953E+00 -0.76769437587E+02 -0.15596890761E+03  0.17384012024E+03  0.00000000000E+00 0. -1.
         11    1    4    4    0    0 -0.26341154596E+02 -0.11055884992E+03 -0.60083339909E+03  0.61148825760E+03  0.00000000000E+00 0.  1.
<mgrwt>
<rscale>  0 0.22242662E+03</rscale>
<asrwt>0</asrwt>
<pdfrwt beam="2">  1        1 0.22544322E+00 0.22682374E+03</pdfrwt>
<pdfrwt beam="1">  1       -1 0.50443256E-02 0.22682374E+03</pdfrwt>
<totfact> 0.13132779E+03</totfact>
</mgrwt>
</event>
<event>
 8    1  0.1033707E-005  0.1475801E+03  0.7546771E-02  0.1213110E+00
         -2   -1    0    0    0  501 -0.00000000000E+00  0.00000000000E+00  0.29470026314E+02  0.29470026314E+02  0.00000000000E+00 0.  1.
          2   -1    0    0  501    0  0.00000000000E+00 -0.00000000000E+00 -0.60858764375E+03  0.60858764375E+03  0.00000000000E+00 0. -1.
         23    2    1    2    0    0  0.11438793657E+02  0.77603226913E+02 -0.30733933454E+03  0.34093601534E+03  0.12500717250E+03 0.  0.
         23    2    1    2    0    0 -0.11438793657E+02 -0.77603226913E+02 -0.27177828290E+03  0.29712165473E+03  0.90910592463E+02 0.  0.
          5    1    3    3  502    0  0.31829163874E+02  0.82549043237E+02 -0.10468410927E+03  0.13714332994E+03  0.47000000000E+01 0.  1.
         -5    1    3    3    0  502 -0.20390370217E+02 -0.49458163241E+01 -0.20265522527E+03  0.20379268541E+03  0.47000000000E+01 0.  1.
        -11    1    4    4    0    0 -0.29138342369E+02 -0.30330416478E+02 -0.22298321888E+03  0.22691516711E+03  0.00000000000E+00 0. -1.
         11    1    4    4    0    0  0.17699548711E+02 -0.47272810436E+02 -0.48795064018E+02  0.70206487618E+02  0.00000000000E+00 0.  1.
<mgrwt>
<rscale>  0 0.14016303E+03</rscale>
<asrwt>0</asrwt>
<pdfrwt beam="2">  1        2 0.93628866E-01 0.14758015E+03</pdfrwt>
<pdfrwt beam="1">  1       -2 0.45338503E-02 0.14758015E+03</pdfrwt>
<totfact> 0.10820298E+04</totfact>
</mgrwt>
</event>
<event>
 8    1  0.1033707E-005  0.1426237E+03  0.7546771E-02  0.1220584E+00
         -3   -1    0    0    0  501 -0.00000000000E+00  0.00000000000E+00  0.50811341480E+02  0.50811341480E+02  0.00000000000E+00 0.  1.
          3   -1    0    0  501    0  0.00000000000E+00 -0.00000000000E+00 -0.32808862541E+03  0.32808862541E+03  0.00000000000E+00 0. -1.
         23    2    1    2    0    0 -0.43313030135E+02  0.53301375168E+02 -0.13076961854E+03  0.19349991445E+03  0.12499787433E+03 0.  0.
         23    2    1    2    0    0  0.43313030135E+02 -0.53301375168E+02 -0.14650766539E+03  0.18540005243E+03  0.90507614319E+02 0.  0.
          5    1    3    3  502    0 -0.73687517527E+01  0.36908918514E+02 -0.14604032757E+03  0.15088549978E+03  0.47000000000E+01 0. -1.
         -5    1    3    3    0  502 -0.35944278382E+02  0.16392456653E+02  0.15270709031E+02  0.42614414672E+02  0.47000000000E+01 0. -1.
        -11    1    4    4    0    0 -0.10610628234E+02 -0.51729526850E+02 -0.40834000323E+02  0.66752864823E+02  0.00000000000E+00 0.  1.
         11    1    4    4    0    0  0.53923658368E+02 -0.15718483177E+01 -0.10567366507E+03  0.11864718761E+03  0.00000000000E+00 0. -1.
<mgrwt>
<rscale>  0 0.13474233E+03</rscale>
<asrwt>0</asrwt>
<pdfrwt beam="2">  1        3 0.50475172E-01 0.14262371E+03</pdfrwt>
<pdfrwt beam="1">  1       -3 0.78171296E-02 0.14262371E+03</pdfrwt>
<totfact> 0.10099304E+03</totfact>
</mgrwt>
</event>
<event>
 8    1  0.1033707E-005  0.2391251E+03  0.7546771E-02  0.1123062E+00
         -2   -1    0    0    0  501 -0.00000000000E+00  0.00000000000E+00  0.14934212457E+04  0.14934212457E+04  0.00000000000E+00 0.  1.
          2   -1    0    0  501    0  0.00000000000E+00 -0.00000000000E+00 -0.44447954438E+02  0.44447954438E+02  0.00000000000E+00 0. -1.
         23    2    1    2    0    0  0.91136805515E+02  0.18234723961E+03  0.10820858560E+04  0.11081925074E+04  0.12499760280E+03 0.  0.
         23    2    1    2    0    0 -0.91136805515E+02 -0.18234723961E+03  0.36688743526E+03  0.42967669269E+03  0.91974110335E+02 0.  0.
          5    1    3    3  502    0  0.87596642704E+02  0.85513731689E+02  0.81247847902E+03  0.82166242399E+03  0.47000000000E+01 0.  1.
         -5    1    3    3    0  502  0.35401628107E+01  0.96833507918E+02  0.26960737696E+03  0.28653008345E+03  0.47000000000E+01 0.  1.
        -11    1    4    4    0    0 -0.10909957522E+02 -0.11931587757E+03  0.17078341363E+03  0.20861994197E+03  0.00000000000E+00 0. -1.
         11    1    4    4    0    0 -0.80226847993E+02 -0.63031362032E+02  0.19610402163E+03  0.22105675072E+03  0.00000000000E+00 0.  1.
<mgrwt>
<rscale>  0 0.23515661E+03</rscale>
<asrwt>0</asrwt>
<pdfrwt beam="2">  1        2 0.68381480E-02 0.23912514E+03</pdfrwt>
<pdfrwt beam="1">  1       -2 0.22975708E+00 0.23912514E+03</pdfrwt>
<totfact> 0.98592787E+01</totfact>
</mgrwt>
</event>
<event>
 8    1  0.1033707E-005  0.1833275E+03  0.7546771E-02  0.1170029E+00
         -2   -1    0    0    0  501 -0.00000000000E+00  0.00000000000E+00  0.80648655018E+02  0.80648655018E+02  0.00000000000E+00 0.  1.
          2   -1    0    0  501    0  0.00000000000E+00 -0.00000000000E+00 -0.49126303894E+03  0.49126303894E+03  0.00000000000E+00 0. -1.
         23    2    1    2    0    0 -0.90991380465E+02 -0.98518188636E+02 -0.72705767275E+02  0.19721839120E+03  0.12499480158E+03 0.  0.
         23    2    1    2    0    0  0.90991380465E+02  0.98518188636E+02 -0.33790861664E+03  0.37469330275E+03  0.90705970668E+02 0.  0.
          5    1    3    3  502    0 -0.28124870812E+02 -0.19658225866E+02  0.35243958958E+02  0.49413367072E+02  0.47000000000E+01 0. -1.
         -5    1    3    3    0  502 -0.62866509654E+02 -0.78859962770E+02 -0.10794972623E+03  0.14780502413E+03  0.47000000000E+01 0. -1.
        -11    1    4    4    0    0  0.19939465419E+02 -0.42140655331E+01 -0.79367918511E+01  0.21870832047E+02  0.00000000000E+00 0.  1.
         11    1    4    4    0    0  0.71051915046E+02  0.10273225417E+03 -0.32997182479E+03  0.35282247071E+03  0.00000000000E+00 0. -1.
<mgrwt>
<rscale>  0 0.17771944E+03</rscale>
<asrwt>0</asrwt>
<pdfrwt beam="2">  1        2 0.75578930E-01 0.18332748E+03</pdfrwt>
<pdfrwt beam="1">  1       -2 0.12407485E-01 0.18332748E+03</pdfrwt>
<totfact> 0.29279402E+03</totfact>
</mgrwt>
</event>
<event>
 8    1  0.1033707E-005  0.1317629E+03  0.7546771E-02  0.1238807E+00
         -4   -1    0    0    0  501 -0.00000000000E+00  0.00000000000E+00  0.53223044328E+02  0.53223044328E+02  0.00000000000E+00 0.  1.
          4   -1    0    0  501    0  0.00000000000E+00 -0.00000000000E+00 -0.25057847841E+03  0.25057847841E+03  0.00000000000E+00 0. -1.
         23    2    1    2    0    0  0.34000935933E+02 -0.23995219751E+02 -0.12062741816E+03  0.17864055058E+03  0.12501855096E+03 0.  0.
         23    2    1    2    0    0 -0.34000935933E+02  0.23995219751E+02 -0.76728015928E+02  0.12516097216E+03  0.89700871285E+02 0.  0.
          5    1    3    3  502    0  0.74452212043E+02 -0.36166979064E+02 -0.51832361183E+02  0.97774566829E+02  0.47000000000E+01 0. -1.
         -5    1    3    3    0  502 -0.40451276111E+02  0.12171759313E+02 -0.68795056976E+02  0.80865983751E+02  0.47000000000E+01 0. -1.
        -11    1    4    4    0    0 -0.51457538532E+02 -0.56544082015E+01 -0.14017284058E+02  0.53631472628E+02  0.00000000000E+00 0.  1.
         11    1    4    4    0    0  0.17456602599E+02  0.29649627953E+02 -0.62710731870E+02  0.71529499535E+02  0.00000000000E+00 0. -1.
<mgrwt>
<rscale>  0 0.12263845E+03</rscale>
<asrwt>0</asrwt>
<pdfrwt beam="2">  1        4 0.38550535E-01 0.13176294E+03</pdfrwt>
<pdfrwt beam="1">  1       -4 0.81881606E-02 0.13176294E+03</pdfrwt>
<totfact> 0.11395803E+03</totfact>
</mgrwt>
</event>
<event>
 8    1  0.1033707E-005  0.1395012E+03  0.7546771E-02  0.1221131E+00
         -1   -1    0    0    0  501 -0.00000000000E+00  0.00000000000E+00  0.14320652898E+03  0.14320652898E+03  0.00000000000E+00 0.  1.
          1   -1    0    0  501    0  0.00000000000E+00 -0.00000000000E+00 -0.14531776013E+03  0.14531776013E+03  0.00000000000E+00 0. -1.
         23    2    1    2    0    0 -0.47672893270E+02  0.39601436592E+02  0.61754877801E+02  0.15255900944E+03  0.12497842972E+03 0.  0.
         23    2    1    2    0    0  0.47672893270E+02 -0.39601436592E+02 -0.63866108948E+02  0.13596527968E+03  0.10279444962E+03 0.  0.
          5    1    3    3  502    0 -0.48119750846E+02 -0.37550109826E+02  0.18343683159E+02  0.63906978346E+02  0.47000000000E+01 0. -1.
         -5    1    3    3    0  502  0.44685757584E+00  0.77151546418E+02  0.43411194642E+02  0.88652031091E+02  0.47000000000E+01 0. -1.
        -11    1    4    4    0    0  0.12106537013E+02 -0.18126424164E+02 -0.86118641175E+02  0.88834429414E+02  0.00000000000E+00 0. -1.
         11    1    4    4    0    0  0.35566356257E+02 -0.21475012428E+02  0.22252532227E+02  0.47130850265E+02  0.00000000000E+00 0.  1.
<mgrwt>
<rscale>  0 0.13435620E+03</rscale>
<asrwt>0</asrwt>
<pdfrwt beam="2">  1        1 0.22356578E-01 0.13950121E+03</pdfrwt>
<pdfrwt beam="1">  1       -1 0.22031774E-01 0.13950121E+03</pdfrwt>
<totfact> 0.36595850E+03</totfact>
</mgrwt>
</event>
<event>
 8    1  0.1033707E-005  0.1308950E+03  0.7546771E-02  0.1240758E+00
          1   -1    0    0  501    0  0.00000000000E+00  0.00000000000E+00  0.16426394994E+03  0.16426394994E+03  0.00000000000E+00 0. -1.
         -1   -1    0    0    0  501 -0.00000000000E+00 -0.00000000000E+00 -0.79515580861E+02  0.79515580861E+02  0.00000000000E+00 0.  1.
         23    2    1    2    0    0 -0.57214856772E+01  0.38416572623E+02  0.38990867225E+02  0.13657889684E+03  0.12499975554E+03 0.  0.
         23    2    1    2    0    0  0.57214856772E+01 -0.38416572623E+02  0.45757501851E+02  0.10720063396E+03  0.88823749608E+02 0.  0.
          5    1    3    3  502    0 -0.59952238455E+02 -0.62760638946E+01  0.17691898961E+02  0.62998040942E+02  0.47000000000E+01 0. -1.
         -5    1    3    3    0  502  0.54230752778E+02  0.44692636518E+02  0.21298968264E+02  0.73580855899E+02  0.47000000000E+01 0. -1.
        -11    1    4    4    0    0  0.37635006009E+02 -0.93369080898E+01 -0.66041379344E+01  0.39334287433E+02  0.00000000000E+00 0.  1.
         11    1    4    4    0    0 -0.31913520332E+02 -0.29079664534E+02  0.52361639785E+02  0.67866346523E+02  0.00000000000E+00 0. -1.
<mgrwt>
<rscale>  0 0.12142919E+03</rscale>
<asrwt>0</asrwt>
<pdfrwt beam="1">  1        1 0.25271377E-01 0.13089502E+03</pdfrwt>
<pdfrwt beam="2">  1       -1 0.12233166E-01 0.13089502E+03</pdfrwt>
<totfact> 0.79120325E+03</totfact>
</mgrwt>
</event>
<event>
 8    1  0.1033707E-005  0.1479182E+03  0.7546771E-02  0.1212106E+00
          1   -1    0    0  501    0  0.00000000000E+00  0.00000000000E+00  0.96112837570E+02  0.96112837570E+02  0.00000000000E+00 0. -1.
         -1   -1    0    0    0  501 -0.00000000000E+00 -0.00000000000E+00 -0.18978146883E+03  0.18978146883E+03  0.00000000000E+00 0.  1.
         23    2    1    2    0    0  0.60443368773E+02  0.51005127884E+02 -0.58809997944E+02  0.15918043335E+03  0.12499948242E+03 0.  0.
         23    2    1    2    0    0 -0.60443368773E+02 -0.51005127884E+02 -0.34858633319E+02  0.12671387305E+03  0.92662599831E+02 0.  0.
          5    1    3    3  502    0  0.76934270209E+02  0.81615822410E+02 -0.50655994991E+02  0.12315902009E+03  0.47000000000E+01 0.  1.
         -5    1    3    3    0  502 -0.16490901435E+02 -0.30610694525E+02 -0.81540029531E+01  0.36021413265E+02  0.47000000000E+01 0.  1.
        -11    1    4    4    0    0  0.19070971511E+02  0.24352931986E+01 -0.23310929922E+02  0.30216420389E+02  0.00000000000E+00 0.  1.
         11    1    4    4    0    0 -0.79514340284E+02 -0.53440421083E+02 -0.11547703397E+02  0.96497452661E+02  0.00000000000E+00 0. -1.
<mgrwt>
<rscale>  0 0.14091270E+03</rscale>
<asrwt>0</asrwt>
<pdfrwt beam="1">  1        1 0.14786591E-01 0.14791820E+03</pdfrwt>
<pdfrwt beam="2">  1       -1 0.29197149E-01 0.14791820E+03</pdfrwt>
<totfact> 0.39193229E+03</totfact>
</mgrwt>
</event>
<event>
 8    1  0.1033707E-005  0.1338743E+03  0.7546771E-02  0.1234371E+00
         -3   -1    0    0    0  501 -0.00000000000E+00  0.00000000000E+00  0.44747726889E+03  0.44747726889E+03  0.00000000000E+00 0.  1.
          3   -1    0    0  501    0  0.00000000000E+00 -0.00000000000E+00 -0.31520906294E+02  0.31520906294E+02  0.00000000000E+00 0. -1.
         23    2    1    2    0    0 -0.33103876013E+02  0.34702854612E+02  0.22040701215E+03  0.25787900321E+03  0.12498869776E+03 0.  0.
         23    2    1    2    0    0  0.33103876013E+02 -0.34702854612E+02  0.19554935044E+03  0.22111917197E+03  0.91400136919E+02 0.  0.
          5    1    3    3  502    0 -0.28430907992E+01  0.50238614316E+02  0.21763783752E+03  0.22342855649E+03  0.47000000000E+01 0. -1.
         -5    1    3    3    0  502 -0.30260785213E+02 -0.15535759704E+02  0.27691746311E+01  0.34450446724E+02  0.47000000000E+01 0. -1.
        -11    1    4    4    0    0  0.10885516553E+02  0.26387532946E+02  0.22764022615E+02  0.36510232692E+02  0.00000000000E+00 0. -1.
         11    1    4    4    0    0  0.22218359460E+02 -0.61090387558E+02  0.17278532782E+03  0.18460893928E+03  0.00000000000E+00 0.  1.
<mgrwt>
<rscale>  0 0.12544770E+03</rscale>
<asrwt>0</asrwt>
<pdfrwt beam="2">  1        3 0.48493705E-02 0.13387430E+03</pdfrwt>
<pdfrwt beam="1">  1       -3 0.68842652E-01 0.13387430E+03</pdfrwt>
<totfact> 0.11348361E+03</totfact>
</mgrwt>
</event>
<event>
 8    1  0.1033707E-005  0.1400570E+03  0.7546771E-02  0.1219393E+00
         -1   -1    0    0    0  501 -0.00000000000E+00  0.00000000000E+00  0.10510915063E+03  0.10510915063E+03  0.00000000000E+00 0.  1.
          1   -1    0    0  501    0  0.00000000000E+00 -0.00000000000E+00 -0.16579463526E+03  0.16579463526E+03  0.00000000000E+00 0. -1.
         23    2    1    2    0    0  0.15569156226E+02 -0.61221367903E+02 -0.20863965155E+02  0.14160249741E+03  0.12500203085E+03 0.  0.
         23    2    1    2    0    0 -0.15569156226E+02  0.61221367903E+02 -0.39821519474E+02  0.12930128848E+03  0.10555858693E+03 0.  0.
          5    1    3    3  502    0  0.92017748058E+00 -0.94481528745E+02  0.80197176228E+01  0.94942150130E+02  0.47000000000E+01 0. -1.
         -5    1    3    3    0  502  0.14648978745E+02  0.33260160842E+02 -0.28883682777E+02  0.46660347280E+02  0.47000000000E+01 0. -1.
        -11    1    4    4    0    0 -0.22549613989E+01 -0.28520939588E+02 -0.23708999303E+02  0.37157038282E+02  0.00000000000E+00 0. -1.
         11    1    4    4    0    0 -0.13314194827E+02  0.89742307491E+02 -0.16112520171E+02  0.92144250195E+02  0.00000000000E+00 0.  1.
<mgrwt>
<rscale>  0 0.13558745E+03</rscale>
<asrwt>0</asrwt>
<pdfrwt beam="2">  1        1 0.25506867E-01 0.14005700E+03</pdfrwt>
<pdfrwt beam="1">  1       -1 0.16170639E-01 0.14005700E+03</pdfrwt>
<totfact> 0.50835271E+03</totfact>
</mgrwt>
</event>
<event>
 8    1  0.1033707E-005  0.2050492E+03  0.7546771E-02  0.1149663E+00
         -1   -1    0    0    0  501 -0.00000000000E+00  0.00000000000E+00  0.15566704295E+03  0.15566704295E+03  0.00000000000E+00 0. -1.
          1   -1    0    0  501    0  0.00000000000E+00 -0.00000000000E+00 -0.27677227759E+03  0.27677227759E+03  0.00000000000E+00 0.  1.
         23    2    1    2    0    0 -0.15506404484E+03 -0.48743847017E+02  0.94379174955E+01  0.20526630079E+03  0.12499743729E+03 0.  0.
         23    2    1    2    0    0  0.15506404484E+03  0.48743847017E+02 -0.13054315213E+03  0.22717301976E+03  0.90251015031E+02 0.  0.
          5    1    3    3  502    0 -0.13095450632E+03 -0.26879698042E+02  0.58664797381E+02  0.14606590753E+03  0.47000000000E+01 0. -1.
         -5    1    3    3    0  502 -0.24109538522E+02 -0.21864148975E+02 -0.49226879886E+02  0.59200393254E+02  0.47000000000E+01 0. -1.
        -11    1    4    4    0    0  0.11455764941E+03 -0.28446736176E+01 -0.54937824809E+02  0.12708151637E+03  0.00000000000E+00 0. -1.
         11    1    4    4    0    0  0.40506395423E+02  0.51588520635E+02 -0.75605327326E+02  0.10009150339E+03  0.00000000000E+00 0.  1.
<mgrwt>
<rscale>  0 0.20008974E+03</rscale>
<asrwt>0</asrwt>
<pdfrwt beam="2">  1        1 0.42580350E-01 0.20504921E+03</pdfrwt>
<pdfrwt beam="1">  1       -1 0.23948776E-01 0.20504921E+03</pdfrwt>
<totfact> 0.14439561E+03</totfact>
</mgrwt>
</event>
<event>
 8    1  0.1698774E-005  0.1405741E+03  0.7546771E-02  0.1223253E+00
         -2   -1    0    0    0  501 -0.00000000000E+00  0.00000000000E+00  0.60329790146E+02  0.60329790146E+02  0.00000000000E+00 0.  1.
          2   -1    0    0  501    0  0.00000000000E+00 -0.00000000000E+00 -0.27215835602E+03  0.27215835602E+03  0.00000000000E+00 0. -1.
         23    2    1    2    0    0  0.58481782231E+02 -0.26762027755E+02 -0.90301993105E+02  0.16707944135E+03  0.12499905912E+03 0.  0.
         23    2    1    2    0    0 -0.58481782231E+02  0.26762027755E+02 -0.12152657277E+03  0.16540870481E+03  0.91951110690E+02 0.  0.
          5    1    3    3  502    0 -0.27307079129E+02 -0.23519893774E+00 -0.69450234657E+02  0.74774039499E+02  0.47000000000E+01 0.  1.
         -5    1    3    3    0  502  0.85788861360E+02 -0.26526828818E+02 -0.20851758448E+02  0.92305401851E+02  0.47000000000E+01 0.  1.
        -11    1    4    4    0    0 -0.60730700437E+02 -0.12989284387E+02 -0.37815256675E+02  0.72711299823E+02  0.00000000000E+00 0.  1.
         11    1    4    4    0    0  0.22489182060E+01  0.39751312142E+02 -0.83711316093E+02  0.92697404992E+02  0.00000000000E+00 0. -1.
<mgrwt>
<rscale>  0 0.13287340E+03</rscale>
<asrwt>0</asrwt>
<pdfrwt beam="2">  1        2 0.41870517E-01 0.14057414E+03</pdfrwt>
<pdfrwt beam="1">  1       -2 0.92815061E-02 0.14057414E+03</pdfrwt>
<totfact> 0.86358047E+03</totfact>
</mgrwt>
</event>
<event>
 8    1  0.1033707E-005  0.1623519E+03  0.7546771E-02  0.1193021E+00
          2   -1    0    0  501    0  0.00000000000E+00  0.00000000000E+00  0.40582766838E+03  0.40582766838E+03  0.00000000000E+00 0. -1.
         -2   -1    0    0    0  501 -0.00000000000E+00 -0.00000000000E+00 -0.56534477901E+02  0.56534477901E+02  0.00000000000E+00 0.  1.
         23    2    1    2    0    0 -0.48032949790E+02 -0.91775312563E+02  0.16598494364E+03  0.23218338796E+03  0.12501300681E+03 0.  0.
         23    2    1    2    0    0  0.48032949790E+02  0.91775312563E+02  0.18330824684E+03  0.23017875831E+03  0.93007930615E+02 0.  0.
          5    1    3    3  502    0 -0.22378473408E+02 -0.47205663768E+02  0.17234781999E+03  0.18015280131E+03  0.47000000000E+01 0. -1.
         -5    1    3    3    0  502 -0.25654476382E+02 -0.44569648795E+02 -0.63628763553E+01  0.52030586655E+02  0.47000000000E+01 0. -1.
        -11    1    4    4    0    0  0.67086454241E+02  0.96587607749E+02  0.14155134180E+03  0.18402864092E+03  0.00000000000E+00 0.  1.
         11    1    4    4    0    0 -0.19053504451E+02 -0.48122951864E+01  0.41756905040E+02  0.46150117393E+02  0.00000000000E+00 0. -1.
<mgrwt>
<rscale>  0 0.15622953E+03</rscale>
<asrwt>0</asrwt>
<pdfrwt beam="1">  1        2 0.62435024E-01 0.16235185E+03</pdfrwt>
<pdfrwt beam="2">  1       -2 0.86976122E-02 0.16235185E+03</pdfrwt>
<totfact> 0.63007567E+03</totfact>
</mgrwt>
</event>
<event>
 7    1  0.1033707E-005  0.1918652E+03  0.7546771E-02  0.1169219E+00
          2   -1    0    0  501    0  0.00000000000E+00  0.00000000000E+00  0.24042460076E+03  0.24042460076E+03  0.00000000000E+00 0. -1.
         -2   -1    0    0    0  501 -0.00000000000E+00 -0.00000000000E+00 -0.12020827562E+03  0.12020827562E+03  0.00000000000E+00 0.  1.
         23    2    1    2    0    0  0.90621216594E+02 -0.63568138310E+02  0.79905636857E+02  0.16457880007E+03  0.91913859262E+02 0.  0.
          5    1    1    2  502    0 -0.43930165405E+02  0.90353214288E+02  0.80408539628E+02  0.12876795413E+03  0.47000000000E+01 0. -1.
         -5    1    1    2    0  502 -0.46691051189E+02 -0.26785075978E+02 -0.40097851352E+02  0.67286122190E+02  0.47000000000E+01 0.  1.
        -11    1    3    3    0    0  0.30430210616E+02 -0.65705191185E+02  0.11299172512E+02  0.73286022993E+02  0.00000000000E+00 0.  1.
         11    1    3    3    0    0  0.60191005979E+02  0.21370528745E+01  0.68606464346E+02  0.91292777073E+02  0.00000000000E+00 0. -1.
<mgrwt>
<rscale>  0 0.17854462E+03</rscale>
<asrwt>0</asrwt>
<pdfrwt beam="1">  1        2 0.36988400E-01 0.19186519E+03</pdfrwt>
<pdfrwt beam="2">  1       -2 0.18493581E-01 0.19186519E+03</pdfrwt>
<totfact> 0.32845139E+03</totfact>
</mgrwt>
</event>
<event>
 8    1  0.1033707E-005  0.2139483E+03  0.7546771E-02  0.1141836E+00
          2   -1    0    0  501    0  0.00000000000E+00  0.00000000000E+00  0.42481648975E+03  0.42481648975E+03  0.00000000000E+00 0. -1.
         -2   -1    0    0    0  501 -0.00000000000E+00 -0.00000000000E+00 -0.10574579157E+03  0.10574579157E+03  0.00000000000E+00 0.  1.
         23    2    1    2    0    0 -0.16554593531E+03  0.52538503270E+02  0.10134626133E+03  0.23673810560E+03  0.12493244149E+03 0.  0.
         23    2    1    2    0    0  0.16554593531E+03 -0.52538503270E+02  0.21772443685E+03  0.29382417572E+03  0.93610708844E+02 0.  0.
          5    1    3    3  502    0 -0.12534007795E+03  0.78660240998E+02  0.11408151308E+03  0.18690706322E+03  0.47000000000E+01 0. -1.
         -5    1    3    3    0  502 -0.40205857361E+02 -0.26121737728E+02 -0.12735251753E+02  0.49831042386E+02  0.47000000000E+01 0. -1.
        -11    1    4    4    0    0  0.44596928266E+02  0.18810273770E+02  0.97951264721E+02  0.10925732319E+03  0.00000000000E+00 0.  1.
         11    1    4    4    0    0  0.12094900704E+03 -0.71348777040E+02  0.11977317213E+03  0.18456685253E+03  0.00000000000E+00 0. -1.
<mgrwt>
<rscale>  0 0.20965989E+03</rscale>
<asrwt>0</asrwt>
<pdfrwt beam="1">  1        2 0.65356382E-01 0.21394828E+03</pdfrwt>
<pdfrwt beam="2">  1       -2 0.16268584E-01 0.21394828E+03</pdfrwt>
<totfact> 0.22134776E+03</totfact>
</mgrwt>
</event>
<event>
 8    1  0.1033707E-005  0.1692266E+03  0.7546771E-02  0.1184884E+00
         -2   -1    0    0    0  501 -0.00000000000E+00  0.00000000000E+00  0.24399284325E+03  0.24399284325E+03  0.00000000000E+00 0.  1.
          2   -1    0    0  501    0  0.00000000000E+00 -0.00000000000E+00 -0.10335306727E+03  0.10335306727E+03  0.00000000000E+00 0. -1.
         23    2    1    2    0    0 -0.11253508608E+03  0.18660086728E+02  0.90169269506E+02  0.19175024105E+03  0.12500125337E+03 0.  0.
         23    2    1    2    0    0  0.11253508608E+03 -0.18660086728E+02  0.50470506474E+02  0.15559566947E+03  0.93007504524E+02 0.  0.
          5    1    3    3  502    0 -0.10559382875E+03  0.46009981839E+02  0.10806341011E+03  0.15800875199E+03  0.47000000000E+01 0. -1.
         -5    1    3    3    0  502 -0.69412573259E+01 -0.27349895111E+02 -0.17894140608E+02  0.33741489060E+02  0.47000000000E+01 0. -1.
        -11    1    4    4    0    0  0.91592719301E+02 -0.25464560727E+02  0.76123071157E+02  0.12178830832E+03  0.00000000000E+00 0.  1.
         11    1    4    4    0    0  0.20942366778E+02  0.68044739994E+01 -0.25652564683E+02  0.33807361144E+02  0.00000000000E+00 0. -1.
<mgrwt>
<rscale>  0 0.16342396E+03</rscale>
<asrwt>0</asrwt>
<pdfrwt beam="2">  1        2 0.15900472E-01 0.16922665E+03</pdfrwt>
<pdfrwt beam="1">  1       -2 0.37537360E-01 0.16922665E+03</pdfrwt>
<totfact> 0.23893599E+03</totfact>
</mgrwt>
</event>
<event>
 8    1  0.1033707E-005  0.1361192E+03  0.7546771E-02  0.1229220E+00
         -1   -1    0    0    0  501 -0.00000000000E+00  0.00000000000E+00  0.54494328117E+02  0.54494328117E+02  0.00000000000E+00 0.  1.
          1   -1    0    0  501    0  0.00000000000E+00 -0.00000000000E+00 -0.34925308482E+03  0.34925308482E+03  0.00000000000E+00 0. -1.
         23    2    1    2    0    0 -0.47113918520E+02  0.26145276100E+02 -0.68191002922E+02  0.15224468946E+03  0.12500054324E+03 0.  0.
         23    2    1    2    0    0  0.47113918520E+02 -0.26145276100E+02 -0.22656775378E+03  0.25150272348E+03  0.94959865630E+02 0.  0.
          5    1    3    3  502    0  0.30253773679E+02 -0.28005830874E+02 -0.23109881078E+02  0.47494989085E+02  0.47000000000E+01 0.  1.
         -5    1    3    3    0  502 -0.77367692199E+02  0.54151106974E+02 -0.45081121844E+02  0.10474970038E+03  0.47000000000E+01 0.  1.
        -11    1    4    4    0    0 -0.24135161054E+02 -0.27702161346E+02 -0.60395443616E+02  0.70693177549E+02  0.00000000000E+00 0. -1.
         11    1    4    4    0    0  0.71249079575E+02  0.15568852459E+01 -0.16617231017E+03  0.18080954593E+03  0.00000000000E+00 0.  1.
<mgrwt>
<rscale>  0 0.12881816E+03</rscale>
<asrwt>0</asrwt>
<pdfrwt beam="2">  1        1 0.53731242E-01 0.13611919E+03</pdfrwt>
<pdfrwt beam="1">  1       -1 0.83837431E-02 0.13611919E+03</pdfrwt>
<totfact> 0.55406138E+03</totfact>
</mgrwt>
</event>
<event>
 8    1  0.1033707E-005  0.1900900E+03  0.7546771E-02  0.1163094E+00
         -2   -1    0    0    0  501 -0.00000000000E+00  0.00000000000E+00  0.23930429943E+02  0.23930429943E+02  0.00000000000E+00 0.  1.
          2   -1    0    0  501    0  0.00000000000E+00 -0.00000000000E+00 -0.13600642346E+04  0.13600642346E+04  0.00000000000E+00 0. -1.
         23    2    1    2    0    0 -0.89239861791E+02 -0.11200578780E+03 -0.73562289541E+03  0.75978632750E+03  0.12500067906E+03 0.  0.
         23    2    1    2    0    0  0.89239861791E+02  0.11200578780E+03 -0.60051090924E+03  0.62420833704E+03  0.92269423323E+02 0.  0.
          5    1    3    3  502    0 -0.67519884328E+02 -0.89647481185E+02 -0.71091240489E+03  0.71973199393E+03  0.47000000000E+01 0. -1.
         -5    1    3    3    0  502 -0.21719977463E+02 -0.22358306616E+02 -0.24710490525E+02  0.40054333570E+02  0.47000000000E+01 0. -1.
        -11    1    4    4    0    0  0.24049559854E+02  0.59334852283E+02 -0.11593634457E+03  0.13243957874E+03  0.00000000000E+00 0.  1.
         11    1    4    4    0    0  0.65190301936E+02  0.52670935518E+02 -0.48457456467E+03  0.49176875830E+03  0.00000000000E+00 0. -1.
<mgrwt>
<rscale>  0 0.18495315E+03</rscale>
<asrwt>0</asrwt>
<pdfrwt beam="2">  1        2 0.20924065E+00 0.19009003E+03</pdfrwt>
<pdfrwt beam="1">  1       -2 0.36816046E-02 0.19009003E+03</pdfrwt>
<totfact> 0.50233134E+03</totfact>
</mgrwt>
</event>
<event>
 8    1  0.1033707E-005  0.2723822E+03  0.7546771E-02  0.1101915E+00
          2   -1    0    0  501    0  0.00000000000E+00  0.00000000000E+00  0.89682059419E+03  0.89682059419E+03  0.00000000000E+00 0. -1.
         -2   -1    0    0    0  501 -0.00000000000E+00 -0.00000000000E+00 -0.11522403452E+03  0.11522403452E+03  0.00000000000E+00 0.  1.
         23    2    1    2    0    0 -0.18092835464E+03  0.16075543000E+03  0.11253666338E+03  0.29471439683E+03  0.12495878243E+03 0.  0.
         23    2    1    2    0    0  0.18092835464E+03 -0.16075543000E+03  0.66905989629E+03  0.71733023188E+03  0.91346258611E+02 0.  0.
          5    1    3    3  502    0 -0.46247165483E+02 -0.12450663054E+02  0.85007566815E-01  0.48123970658E+02  0.47000000000E+01 0. -1.
         -5    1    3    3    0  502 -0.13468118916E+03  0.17320609305E+03  0.11245165581E+03  0.24659042617E+03  0.47000000000E+01 0. -1.
        -11    1    4    4    0    0  0.14190423207E+03 -0.67043945038E+02  0.42107264643E+03  0.44937053221E+03  0.00000000000E+00 0.  1.
         11    1    4    4    0    0  0.39024122565E+02 -0.93711484961E+02  0.24798724986E+03  0.26795969967E+03  0.00000000000E+00 0. -1.
<mgrwt>
<rscale>  0 0.26889318E+03</rscale>
<asrwt>0</asrwt>
<pdfrwt beam="1">  1        2 0.13797239E+00 0.27238222E+03</pdfrwt>
<pdfrwt beam="2">  1       -2 0.17726775E-01 0.27238222E+03</pdfrwt>
<totfact> 0.79126748E+02</totfact>
</mgrwt>
</event>
<event>
 8    1  0.1033707E-005  0.1865106E+03  0.7546771E-02  0.1166521E+00
         -2   -1    0    0    0  501 -0.00000000000E+00  0.00000000000E+00  0.12126171490E+03  0.12126171490E+03  0.00000000000E+00 0.  1.
          2   -1    0    0  501    0  0.00000000000E+00 -0.00000000000E+00 -0.26761700256E+03  0.26761700256E+03  0.00000000000E+00 0. -1.
         23    2    1    2    0    0  0.63180492568E+02  0.12315762003E+03 -0.38680391522E+02  0.19047934767E+03  0.12500654059E+03 0.  0.
         23    2    1    2    0    0 -0.63180492568E+02 -0.12315762003E+03 -0.10767489614E+03  0.19839936979E+03  0.92783903031E+02 0.  0.
          5    1    3    3  502    0 -0.26794934939E+02  0.32394779905E+02 -0.45857790279E+02  0.62389239720E+02  0.47000000000E+01 0.  1.
         -5    1    3    3    0  502  0.89975427508E+02  0.90762840120E+02  0.71773987574E+01  0.12809010795E+03  0.47000000000E+01 0.  1.
        -11    1    4    4    0    0 -0.71369946012E+02 -0.13469120883E+03 -0.10000405217E+03  0.18230798496E+03  0.00000000000E+00 0.  1.
         11    1    4    4    0    0  0.81894534440E+01  0.11533588804E+02 -0.76708439654E+01  0.16091384824E+02  0.00000000000E+00 0. -1.
<mgrwt>
<rscale>  0 0.18133080E+03</rscale>
<asrwt>0</asrwt>
<pdfrwt beam="2">  1        2 0.41171846E-01 0.18651061E+03</pdfrwt>
<pdfrwt beam="1">  1       -2 0.18655649E-01 0.18651061E+03</pdfrwt>
<totfact> 0.28807415E+03</totfact>
</mgrwt>
</event>
<event>
 8    1  0.1033707E-005  0.2103294E+03  0.7546771E-02  0.1145078E+00
         -2   -1    0    0    0  501 -0.00000000000E+00  0.00000000000E+00  0.33790164803E+03  0.33790164803E+03  0.00000000000E+00 0.  1.
          2   -1    0    0  501    0  0.00000000000E+00 -0.00000000000E+00 -0.11999336255E+03  0.11999336255E+03  0.00000000000E+00 0. -1.
         23    2    1    2    0    0 -0.95460247544E+02  0.13964816530E+03  0.12204805327E+03  0.24317523041E+03  0.12499678574E+03 0.  0.
         23    2    1    2    0    0  0.95460247544E+02 -0.13964816530E+03  0.95860232220E+02  0.21471978017E+03  0.91110542424E+02 0.  0.
          5    1    3    3  502    0 -0.10456538779E+03  0.60960407175E+02  0.10861492460E+03  0.16269414068E+03  0.47000000000E+01 0.  1.
         -5    1    3    3    0  502  0.91051402475E+01  0.78687758128E+02  0.13433128669E+02  0.80481089729E+02  0.47000000000E+01 0.  1.
        -11    1    4    4    0    0  0.88046116506E+02 -0.15042156759E+03  0.10007166445E+03  0.20098035888E+03  0.00000000000E+00 0.  1.
         11    1    4    4    0    0  0.74141310377E+01  0.10773402292E+02 -0.42114322274E+01  0.13739421290E+02  0.00000000000E+00 0. -1.
<mgrwt>
<rscale>  0 0.20562502E+03</rscale>
<asrwt>0</asrwt>
<pdfrwt beam="2">  1        2 0.18460517E-01 0.21032942E+03</pdfrwt>
<pdfrwt beam="1">  1       -2 0.51984869E-01 0.21032942E+03</pdfrwt>
<totfact> 0.10754458E+03</totfact>
</mgrwt>
</event>
<event>
 7    1  0.1033707E-005  0.2122490E+03  0.7546771E-02  0.1166793E+00
         -2   -1    0    0    0  501 -0.00000000000E+00  0.00000000000E+00  0.73266921870E+02  0.73266921870E+02  0.00000000000E+00 0.  1.
          2   -1    0    0  501    0  0.00000000000E+00 -0.00000000000E+00 -0.44771189507E+03  0.44771189507E+03  0.00000000000E+00 0. -1.
         23    2    1    2    0    0  0.67103436693E+02 -0.13192787726E+02 -0.25206462602E+03  0.27597554820E+03  0.89157201910E+02 0.  0.
          5    1    1    2  502    0 -0.12227600968E+02  0.10453928534E+03 -0.55159066946E+02  0.11892261800E+03  0.47000000000E+01 0. -1.
         -5    1    1    2    0  502 -0.54875835725E+02 -0.91346497617E+02 -0.67221280236E+02  0.12608065074E+03  0.47000000000E+01 0.  1.
        -11    1    3    3    0    0 -0.41252366972E+01 -0.33603989815E+02 -0.46918006222E+02  0.57857972805E+02  0.00000000000E+00 0.  1.
         11    1    3    3    0    0  0.71228673391E+02  0.20411202089E+02 -0.20514661980E+03  0.21811757540E+03  0.00000000000E+00 0. -1.
<mgrwt>
<rscale>  0 0.18104736E+03</rscale>
<asrwt>0</asrwt>
<pdfrwt beam="2">  1        2 0.68878753E-01 0.21224903E+03</pdfrwt>
<pdfrwt beam="1">  1       -2 0.11271834E-01 0.21224903E+03</pdfrwt>
<totfact> 0.38046969E+03</totfact>
</mgrwt>
</event>
<event>
 8    1  0.1033707E-005  0.2204306E+03  0.7546771E-02  0.1136769E+00
         -2   -1    0    0    0  501 -0.00000000000E+00  0.00000000000E+00  0.14034713610E+03  0.14034713610E+03  0.00000000000E+00 0.  1.
          2   -1    0    0  501    0  0.00000000000E+00 -0.00000000000E+00 -0.41794668317E+03  0.41794668317E+03  0.00000000000E+00 0. -1.
         23    2    1    2    0    0 -0.16757573341E+03 -0.69875419332E+02 -0.83890820349E+01  0.22059015146E+03  0.12500175026E+03 0.  0.
         23    2    1    2    0    0  0.16757573341E+03  0.69875419332E+02 -0.26921046503E+03  0.33770366781E+03  0.92764713757E+02 0.  0.
          5    1    3    3  502    0 -0.23338876221E+02 -0.67952825032E+01  0.47422332385E+02  0.53496229927E+02  0.47000000000E+01 0. -1.
         -5    1    3    3    0  502 -0.14423685719E+03 -0.63080136829E+02 -0.55811414419E+02  0.16709392153E+03  0.47000000000E+01 0. -1.
        -11    1    4    4    0    0  0.11033277650E+03 -0.38540129799E+01 -0.13954461906E+03  0.17793503223E+03  0.00000000000E+00 0. -1.
         11    1    4    4    0    0  0.57242956907E+02  0.73729432312E+02 -0.12966584598E+03  0.15976863559E+03  0.00000000000E+00 0.  1.
<mgrwt>
<rscale>  0 0.21617263E+03</rscale>
<asrwt>0</asrwt>
<pdfrwt beam="2">  1        2 0.64299490E-01 0.22043057E+03</pdfrwt>
<pdfrwt beam="1">  1       -2 0.21591867E-01 0.22043057E+03</pdfrwt>
<totfact> 0.13951198E+03</totfact>
</mgrwt>
</event>
<event>
 8    1  0.1033707E-005  0.1587697E+03  0.7546771E-02  0.1197921E+00
          2   -1    0    0  501    0  0.00000000000E+00  0.00000000000E+00  0.28447855617E+03  0.28447855617E+03  0.00000000000E+00 0. -1.
         -2   -1    0    0    0  501 -0.00000000000E+00 -0.00000000000E+00 -0.75618514728E+02  0.75618514728E+02  0.00000000000E+00 0.  1.
         23    2    1    2    0    0 -0.55062112947E+02 -0.80927455590E+02  0.12703119978E+03  0.20333405773E+03  0.12500689567E+03 0.  0.
         23    2    1    2    0    0  0.55062112947E+02  0.80927455590E+02  0.81828841663E+02  0.15676301317E+03  0.91091128101E+02 0.  0.
          5    1    3    3  502    0 -0.86006096592E+01  0.32757091781E+01  0.10376361105E+03  0.10427692811E+03  0.47000000000E+01 0.  1.
         -5    1    3    3    0  502 -0.46461503288E+02 -0.84203164768E+02  0.23267588732E+02  0.99057129628E+02  0.47000000000E+01 0.  1.
        -11    1    4    4    0    0 -0.19081983381E+02  0.43655380909E+02  0.14211878504E+02  0.49718124086E+02  0.00000000000E+00 0.  1.
         11    1    4    4    0    0  0.74144096328E+02  0.37272074681E+02  0.67616963158E+02  0.10704488908E+03  0.00000000000E+00 0. -1.
<mgrwt>
<rscale>  0 0.15209594E+03</rscale>
<asrwt>0</asrwt>
<pdfrwt beam="1">  1        2 0.43765931E-01 0.15876969E+03</pdfrwt>
<pdfrwt beam="2">  1       -2 0.11633618E-01 0.15876969E+03</pdfrwt>
<totfact> 0.58113211E+03</totfact>
</mgrwt>
</event>
<event>
 8    1  0.1033707E-005  0.1522238E+03  0.7546771E-02  0.1206630E+00
         -1   -1    0    0    0  501 -0.00000000000E+00  0.00000000000E+00  0.12403971999E+03  0.12403971999E+03  0.00000000000E+00 0.  1.
          1   -1    0    0  501    0  0.00000000000E+00 -0.00000000000E+00 -0.24774546531E+03  0.24774546531E+03  0.00000000000E+00 0. -1.
         23    2    1    2    0    0  0.66236364767E+02 -0.56188973796E+02  0.47456067610E+02  0.15944957451E+03  0.12501052621E+03 0.  0.
         23    2    1    2    0    0 -0.66236364767E+02  0.56188973796E+02 -0.17116181293E+03  0.21233561079E+03  0.90805223477E+02 0.  0.
          5    1    3    3  502    0 -0.30931818983E+01 -0.77888050534E+02  0.35074786215E+02  0.85606348002E+02  0.47000000000E+01 0. -1.
         -5    1    3    3    0  502  0.69329546666E+02  0.21699076737E+02  0.12381281395E+02  0.73843226508E+02  0.47000000000E+01 0. -1.
        -11    1    4    4    0    0  0.56480913905E+01  0.46490432416E+02 -0.36482816355E+02  0.59365454027E+02  0.00000000000E+00 0.  1.
         11    1    4    4    0    0 -0.71884456158E+02  0.96985413802E+01 -0.13467899658E+03  0.15297015677E+03  0.00000000000E+00 0. -1.
<mgrwt>
<rscale>  0 0.14509748E+03</rscale>
<asrwt>0</asrwt>
<pdfrwt beam="2">  1        1 0.38114687E-01 0.15222381E+03</pdfrwt>
<pdfrwt beam="1">  1       -1 0.19083034E-01 0.15222381E+03</pdfrwt>
<totfact> 0.23782862E+03</totfact>
</mgrwt>
</event>
<event>
 8    1  0.1033707E-005  0.1529069E+03  0.7546771E-02  0.1204284E+00
          3   -1    0    0  501    0  0.00000000000E+00  0.00000000000E+00  0.22012600478E+03  0.22012600478E+03  0.00000000000E+00 0. -1.
         -3   -1    0    0    0  501 -0.00000000000E+00 -0.00000000000E+00 -0.92884624121E+02  0.92884624121E+02  0.00000000000E+00 0.  1.
         23    2    1    2    0    0 -0.70142100845E+02 -0.53256110703E+02  0.89868346366E+02  0.17736074203E+03  0.12499754196E+03 0.  0.
         23    2    1    2    0    0  0.70142100845E+02  0.53256110703E+02  0.37373034295E+02  0.13564988688E+03  0.96166628718E+02 0.  0.
          5    1    3    3  502    0  0.31567849678E+02 -0.70309123265E+01  0.47767749529E+02  0.57877549676E+02  0.47000000000E+01 0. -1.
         -5    1    3    3    0  502 -0.10170995052E+03 -0.46225198376E+02  0.42100596837E+02  0.11948319235E+03  0.47000000000E+01 0. -1.
        -11    1    4    4    0    0  0.92432142206E+02  0.37997944429E+02  0.41708619848E+02  0.10829198337E+03  0.00000000000E+00 0. -1.
         11    1    4    4    0    0 -0.22290041361E+02  0.15258166273E+02 -0.43355855527E+01  0.27357903501E+02  0.00000000000E+00 0.  1.
<mgrwt>
<rscale>  0 0.14693986E+03</rscale>
<asrwt>0</asrwt>
<pdfrwt beam="1">  1        3 0.33865539E-01 0.15290688E+03</pdfrwt>
<pdfrwt beam="2">  1       -3 0.14289942E-01 0.15290688E+03</pdfrwt>
<totfact> 0.81130141E+02</totfact>
</mgrwt>
</event>
<event>
 7    1  0.1033707E-005  0.1639340E+03  0.7546771E-02  0.1208019E+00
         -1   -1    0    0    0  501 -0.00000000000E+00  0.00000000000E+00  0.24804355786E+03  0.24804355786E+03  0.00000000000E+00 0.  1.
          1   -1    0    0  501    0  0.00000000000E+00 -0.00000000000E+00 -0.33114869390E+03  0.33114869390E+03  0.00000000000E+00 0. -1.
         23    2    1    2    0    0  0.10264680752E+02  0.37968273629E+01 -0.29531195165E+03  0.31103917214E+03  0.97038333922E+02 0.  0.
          5    1    1    2  502    0  0.36398661900E+02  0.68469250945E+02  0.10525782083E+03  0.13082125118E+03  0.47000000000E+01 0. -1.
         -5    1    1    2    0  502 -0.46663342652E+02 -0.72266078308E+02  0.10694899478E+03  0.13733182845E+03  0.47000000000E+01 0.  1.
        -11    1    3    3    0    0 -0.31070541203E+02 -0.27852815333E+02 -0.89568532449E+02  0.98811334663E+02  0.00000000000E+00 0.  1.
         11    1    3    3    0    0  0.41335221955E+02  0.31649642696E+02 -0.20574341920E+03  0.21222783748E+03  0.00000000000E+00 0. -1.
<mgrwt>
<rscale>  0 0.14402030E+03</rscale>
<asrwt>0</asrwt>
<pdfrwt beam="2">  1        1 0.50945953E-01 0.16393395E+03</pdfrwt>
<pdfrwt beam="1">  1       -1 0.38160547E-01 0.16393395E+03</pdfrwt>
<totfact> 0.52268677E+02</totfact>
</mgrwt>
</event>
<event>
 8    1  0.1033707E-005  0.1265918E+03  0.7546771E-02  0.1247183E+00
          1   -1    0    0  501    0  0.00000000000E+00  0.00000000000E+00  0.14824449971E+03  0.14824449971E+03  0.00000000000E+00 0. -1.
         -1   -1    0    0    0  501 -0.00000000000E+00 -0.00000000000E+00 -0.88688373865E+02  0.88688373865E+02  0.00000000000E+00 0.  1.
         23    2    1    2    0    0 -0.18410718265E+02 -0.83622448425E+01  0.20288717853E+01  0.12660810177E+03  0.12496644920E+03 0.  0.
         23    2    1    2    0    0  0.18410718265E+02  0.83622448425E+01  0.57527254064E+02  0.11032477181E+03  0.91941767600E+02 0.  0.
          5    1    3    3  502    0 -0.56365802059E+02  0.80246339620E+01  0.40430702416E+02  0.69987356643E+02  0.47000000000E+01 0. -1.
         -5    1    3    3    0  502  0.37955083795E+02 -0.16386878805E+02 -0.38401830630E+02  0.56620745126E+02  0.47000000000E+01 0. -1.
        -11    1    4    4    0    0  0.42174599487E+01 -0.30711222818E+02  0.61187915145E+02  0.68592471418E+02  0.00000000000E+00 0. -1.
         11    1    4    4    0    0  0.14193258316E+02  0.39073467661E+02 -0.36606610808E+01  0.41732300394E+02  0.00000000000E+00 0.  1.
<mgrwt>
<rscale>  0 0.11755654E+03</rscale>
<asrwt>0</asrwt>
<pdfrwt beam="1">  1        1 0.22806846E-01 0.12659184E+03</pdfrwt>
<pdfrwt beam="2">  1       -1 0.13644365E-01 0.12659184E+03</pdfrwt>
<totfact> 0.75812760E+03</totfact>
</mgrwt>
</event>
<event>
 8    1  0.1033707E-005  0.2872819E+03  0.7546771E-02  0.1093580E+00
          1   -1    0    0  501    0  0.00000000000E+00  0.00000000000E+00  0.30324513529E+03  0.30324513529E+03  0.00000000000E+00 0. -1.
         -1   -1    0    0    0  501 -0.00000000000E+00 -0.00000000000E+00 -0.33176932236E+03  0.33176932236E+03  0.00000000000E+00 0.  1.
         23    2    1    2    0    0  0.33963143711E+02 -0.25643072958E+03 -0.16248047794E+03  0.33004668025E+03  0.12498276372E+03 0.  0.
         23    2    1    2    0    0 -0.33963143711E+02  0.25643072958E+03  0.13395629087E+03  0.30496777740E+03  0.90282020285E+02 0.  0.
          5    1    3    3  502    0  0.55703627196E+02 -0.45147217184E+02 -0.21235879787E+02  0.74928084805E+02  0.47000000000E+01 0. -1.
         -5    1    3    3    0  502 -0.21740483485E+02 -0.21128351240E+03 -0.14124459816E+03  0.25511859544E+03  0.47000000000E+01 0. -1.
        -11    1    4    4    0    0 -0.49393377507E+02  0.18935777112E+03  0.61726669513E+02  0.20519808224E+03  0.00000000000E+00 0.  1.
         11    1    4    4    0    0  0.15430233796E+02  0.67072958458E+02  0.72229621360E+02  0.99769695164E+02  0.00000000000E+00 0. -1.
<mgrwt>
<rscale>  0 0.28389521E+03</rscale>
<asrwt>0</asrwt>
<pdfrwt beam="1">  1        1 0.46653098E-01 0.28728193E+03</pdfrwt>
<pdfrwt beam="2">  1       -1 0.51041434E-01 0.28728193E+03</pdfrwt>
<totfact> 0.34351159E+02</totfact>
</mgrwt>
</event>
<event>
 8    1  0.1033707E-005  0.1630178E+03  0.7546771E-02  0.1192967E+00
          2   -1    0    0  501    0  0.00000000000E+00  0.00000000000E+00  0.60497728089E+02  0.60497728089E+02  0.00000000000E+00 0. -1.
         -2   -1    0    0    0  501 -0.00000000000E+00 -0.00000000000E+00 -0.59684414228E+03  0.59684414228E+03  0.00000000000E+00 0.  1.
         23    2    1    2    0    0 -0.69529264526E+02 -0.78197118592E+02 -0.48286915919E+03  0.50964440118E+03  0.12500273108E+03 0.  0.
         23    2    1    2    0    0  0.69529264526E+02  0.78197118592E+02 -0.53477255006E+02  0.14769746919E+03  0.89474117045E+02 0.  0.
          5    1    3    3  502    0 -0.64494253562E+02 -0.36655841667E+01 -0.35993948167E+03  0.36572047484E+03  0.47000000000E+01 0.  1.
         -5    1    3    3    0  502 -0.50350109640E+01 -0.74531534426E+02 -0.12292967752E+03  0.14392392634E+03  0.47000000000E+01 0.  1.
        -11    1    4    4    0    0  0.40733371975E+02  0.51380910034E+02 -0.77561914463E+02  0.10156306456E+03  0.00000000000E+00 0.  1.
         11    1    4    4    0    0  0.28795892551E+02  0.26816208559E+02  0.24084659457E+02  0.46134404629E+02  0.00000000000E+00 0. -1.
<mgrwt>
<rscale>  0 0.15627549E+03</rscale>
<asrwt>0</asrwt>
<pdfrwt beam="1">  1        2 0.93073428E-02 0.16301776E+03</pdfrwt>
<pdfrwt beam="2">  1       -2 0.91822175E-01 0.16301776E+03</pdfrwt>
<totfact> 0.72229529E+02</totfact>
</mgrwt>
</event>
<event>
 8    1  0.1033707E-005  0.1572537E+03  0.7546771E-02  0.1200043E+00
          4   -1    0    0  501    0  0.00000000000E+00  0.00000000000E+00  0.30172801458E+03  0.30172801458E+03  0.00000000000E+00 0. -1.
         -4   -1    0    0    0  501 -0.00000000000E+00 -0.00000000000E+00 -0.69565571618E+02  0.69565571618E+02  0.00000000000E+00 0.  1.
         23    2    1    2    0    0  0.90609794672E+02 -0.29819109602E+02  0.11032708864E+03  0.19209580041E+03  0.12501766219E+03 0.  0.
         23    2    1    2    0    0 -0.90609794672E+02  0.29819109602E+02  0.12183535432E+03  0.17919778579E+03  0.90380742860E+02 0.  0.
          5    1    3    3  502    0  0.78772001215E+02  0.20375504836E+02  0.11404940779E+03  0.14017684113E+03  0.47000000000E+01 0.  1.
         -5    1    3    3    0  502  0.11837793457E+02 -0.50194614439E+02 -0.37223191530E+01  0.51918959278E+02  0.47000000000E+01 0.  1.
        -11    1    4    4    0    0 -0.62878646190E+02 -0.63997343376E+01  0.17894618741E+02  0.65687884166E+02  0.00000000000E+00 0.  1.
         11    1    4    4    0    0 -0.27731148482E+02  0.36218843940E+02  0.10394073558E+03  0.11350990162E+03  0.00000000000E+00 0. -1.
<mgrwt>
<rscale>  0 0.15035086E+03</rscale>
<asrwt>0</asrwt>
<pdfrwt beam="1">  1        4 0.46419694E-01 0.15725371E+03</pdfrwt>
<pdfrwt beam="2">  1       -4 0.10702396E-01 0.15725371E+03</pdfrwt>
<totfact> 0.52063585E+02</totfact>
</mgrwt>
</event>
<event>
 8    1  0.1033707E-005  0.1708282E+03  0.7546771E-02  0.1183269E+00
          1   -1    0    0  501    0  0.00000000000E+00  0.00000000000E+00  0.16745478675E+03  0.16745478675E+03  0.00000000000E+00 0. -1.
         -1   -1    0    0    0  501 -0.00000000000E+00 -0.00000000000E+00 -0.55278847078E+03  0.55278847078E+03  0.00000000000E+00 0.  1.
         23    2    1    2    0    0  0.77998107666E+02  0.86504836440E+02 -0.50280156479E+03  0.53102888153E+03  0.12496186593E+03 0.  0.
         23    2    1    2    0    0 -0.77998107666E+02 -0.86504836440E+02  0.11746788076E+03  0.18921437600E+03  0.91850887565E+02 0.  0.
          5    1    3    3  502    0  0.46212701232E+02 -0.20768103823E+02 -0.24050078539E+03  0.24582442040E+03  0.47000000000E+01 0. -1.
         -5    1    3    3    0  502  0.31785406434E+02  0.10727294026E+03 -0.26230077940E+03  0.28520446113E+03  0.47000000000E+01 0. -1.
        -11    1    4    4    0    0 -0.41403638701E+02 -0.16752928921E+02 -0.35656210152E+01  0.44806646587E+02  0.00000000000E+00 0. -1.
         11    1    4    4    0    0 -0.36594468964E+02 -0.69751907518E+02  0.12103350177E+03  0.14440772941E+03  0.00000000000E+00 0.  1.
<mgrwt>
<rscale>  0 0.16490384E+03</rscale>
<asrwt>0</asrwt>
<pdfrwt beam="1">  1        1 0.25762275E-01 0.17082816E+03</pdfrwt>
<pdfrwt beam="2">  1       -1 0.85044379E-01 0.17082816E+03</pdfrwt>
<totfact> 0.26744049E+02</totfact>
</mgrwt>
</event>
<event>
 8    1  0.1033707E-005  0.1363569E+03  0.7546771E-02  0.1229802E+00
          1   -1    0    0  501    0  0.00000000000E+00  0.00000000000E+00  0.36457743115E+03  0.36457743115E+03  0.00000000000E+00 0. -1.
         -1   -1    0    0    0  501 -0.00000000000E+00 -0.00000000000E+00 -0.41222692269E+02  0.41222692269E+02  0.00000000000E+00 0.  1.
         23    2    1    2    0    0  0.35054672824E+02 -0.41719550732E+02  0.20306244799E+03  0.24459673679E+03  0.12499541938E+03 0.  0.
         23    2    1    2    0    0 -0.35054672824E+02  0.41719550732E+02  0.12029229090E+03  0.16120338663E+03  0.92449692333E+02 0.  0.
          5    1    3    3  502    0  0.25445032580E+02  0.11853821569E+02 -0.55086200273E+01  0.28989613026E+02  0.47000000000E+01 0. -1.
         -5    1    3    3    0  502  0.96096402435E+01 -0.53573372301E+02  0.20857106801E+03  0.21560712376E+03  0.47000000000E+01 0. -1.
        -11    1    4    4    0    0  0.34654234712E+01  0.45405001548E+02  0.13316823681E+02  0.47444294898E+02  0.00000000000E+00 0.  1.
         11    1    4    4    0    0 -0.38520096295E+02 -0.36854508158E+01  0.10697546722E+03  0.11375909174E+03  0.00000000000E+00 0. -1.
<mgrwt>
<rscale>  0 0.12843162E+03</rscale>
<asrwt>0</asrwt>
<pdfrwt beam="1">  1        1 0.56088833E-01 0.13635691E+03</pdfrwt>
<pdfrwt beam="2">  1       -1 0.63419529E-02 0.13635691E+03</pdfrwt>
<totfact> 0.79874738E+03</totfact>
</mgrwt>
</event>
<event>
 7    1  0.1033707E-005  0.1402141E+03  0.7546771E-02  0.1230463E+00
         -2   -1    0    0    0  501 -0.00000000000E+00  0.00000000000E+00  0.18787614331E+03  0.18787614331E+03  0.00000000000E+00 0.  1.
          2   -1    0    0  501    0  0.00000000000E+00 -0.00000000000E+00 -0.77808931069E+02  0.77808931069E+02  0.00000000000E+00 0. -1.
         23    2    1    2    0    0  0.11511956710E+02 -0.35805459467E+02  0.21082231647E+02  0.99617891153E+02  0.89803717471E+02 0.  0.
          5    1    1    2  502    0 -0.37071896909E+02  0.62343267890E+02  0.33940678725E+01  0.72764127758E+02  0.47000000000E+01 0. -1.
         -5    1    1    2    0  502  0.25559940200E+02 -0.26537808423E+02  0.85590912719E+02  0.93303055465E+02  0.47000000000E+01 0.  1.
        -11    1    3    3    0    0  0.42151813320E+02 -0.66125064384E+00 -0.10322614482E+02  0.43402407633E+02  0.00000000000E+00 0. -1.
         11    1    3    3    0    0 -0.30639856611E+02 -0.35144208824E+02  0.31404846129E+02  0.56215483520E+02  0.00000000000E+00 0.  1.
<mgrwt>
<rscale>  0 0.12799426E+03</rscale>
<asrwt>0</asrwt>
<pdfrwt beam="2">  1        2 0.11970605E-01 0.14021406E+03</pdfrwt>
<pdfrwt beam="1">  1       -2 0.28904022E-01 0.14021406E+03</pdfrwt>
<totfact> 0.53441679E+03</totfact>
</mgrwt>
</event>
<event>
 8    1  0.1033707E-005  0.1365775E+03  0.7546771E-02  0.1229613E+00
         -4   -1    0    0    0  501 -0.00000000000E+00  0.00000000000E+00  0.81054339927E+03  0.81054339927E+03  0.00000000000E+00 0.  1.
          4   -1    0    0  501    0  0.00000000000E+00 -0.00000000000E+00 -0.40943968149E+02  0.40943968149E+02  0.00000000000E+00 0. -1.
         23    2    1    2    0    0 -0.53029849737E+02 -0.14682716947E+02  0.72091576303E+03  0.73373902810E+03  0.12500270731E+03 0.  0.
         23    2    1    2    0    0  0.53029849737E+02  0.14682716947E+02  0.48683668090E+02  0.11774833932E+03  0.92015350529E+02 0.  0.
          5    1    3    3  502    0 -0.82690708786E+02  0.81893658723E+01  0.30622490056E+03  0.31733357647E+03  0.47000000000E+01 0.  1.
         -5    1    3    3    0  502  0.29660859049E+02 -0.22872082820E+02  0.41469086247E+03  0.41640545163E+03  0.47000000000E+01 0.  1.
        -11    1    4    4    0    0  0.61980937356E+02 -0.10620780447E+02  0.83957915290E+00  0.62889923406E+02  0.00000000000E+00 0. -1.
         11    1    4    4    0    0 -0.89510876197E+01  0.25303497395E+02  0.47844088937E+02  0.54858415910E+02  0.00000000000E+00 0.  1.
<mgrwt>
<rscale>  0 0.12855710E+03</rscale>
<asrwt>0</asrwt>
<pdfrwt beam="2">  1        4 0.62990726E-02 0.13657754E+03</pdfrwt>
<pdfrwt beam="1">  1       -4 0.12469897E+00 0.13657754E+03</pdfrwt>
<totfact> 0.13904763E+02</totfact>
</mgrwt>
</event>
<event>
 8    1  0.1033707E-005  0.1554815E+03  0.7546771E-02  0.1201986E+00
          2   -1    0    0  501    0  0.00000000000E+00  0.00000000000E+00  0.26538396830E+03  0.26538396830E+03  0.00000000000E+00 0. -1.
         -2   -1    0    0    0  501 -0.00000000000E+00 -0.00000000000E+00 -0.11218811737E+03  0.11218811737E+03  0.00000000000E+00 0.  1.
         23    2    1    2    0    0  0.36984173880E+02 -0.84741940095E+02 -0.24289132379E+02  0.15736725001E+03  0.12500185556E+03 0.  0.
         23    2    1    2    0    0 -0.36984173880E+02  0.84741940095E+02  0.17748498331E+03  0.22020483567E+03  0.91870696226E+02 0.  0.
          5    1    3    3  502    0  0.13641089303E+02  0.29093414110E+02 -0.25134550607E+02  0.41065090968E+02  0.47000000000E+01 0. -1.
         -5    1    3    3    0  502  0.23343084577E+02 -0.11383535421E+03  0.84541822876E+00  0.11630215904E+03  0.47000000000E+01 0. -1.
        -11    1    4    4    0    0 -0.32697705760E+02  0.51953290904E+02  0.17677439164E+03  0.18712955388E+03  0.00000000000E+00 0. -1.
         11    1    4    4    0    0 -0.42864681208E+01  0.32788649192E+02  0.71059166741E+00  0.33075281787E+02  0.00000000000E+00 0.  1.
<mgrwt>
<rscale>  0 0.14877528E+03</rscale>
<asrwt>0</asrwt>
<pdfrwt beam="1">  1        2 0.40828303E-01 0.15548148E+03</pdfrwt>
<pdfrwt beam="2">  1       -2 0.17259710E-01 0.15548148E+03</pdfrwt>
<totfact> 0.32859201E+03</totfact>
</mgrwt>
</event>
<event>
 8    1  0.1033707E-005  0.1370674E+03  0.7546771E-02  0.1228427E+00
         -2   -1    0    0    0  501 -0.00000000000E+00  0.00000000000E+00  0.24427705881E+02  0.24427705881E+02  0.00000000000E+00 0. -1.
          2   -1    0    0  501    0  0.00000000000E+00 -0.00000000000E+00 -0.65652577092E+03  0.65652577092E+03  0.00000000000E+00 0.  1.
         23    2    1    2    0    0 -0.55415714020E+02  0.95522496277E+01 -0.26861340196E+03  0.30156363381E+03  0.12500127478E+03 0.  0.
         23    2    1    2    0    0  0.55415714020E+02 -0.95522496277E+01 -0.36348466309E+03  0.37938984299E+03  0.93023684246E+02 0.  0.
          5    1    3    3  502    0 -0.57906528864E+02  0.56101559754E+02 -0.21855558584E+03  0.23300039741E+03  0.47000000000E+01 0.  1.
         -5    1    3    3    0  502  0.24908148436E+01 -0.46549310127E+02 -0.50057816114E+02  0.68563236402E+02  0.47000000000E+01 0.  1.
        -11    1    4    4    0    0  0.68004178195E+02 -0.10298084841E+02 -0.35970988476E+03  0.36622646000E+03  0.00000000000E+00 0.  1.
         11    1    4    4    0    0 -0.12588464175E+02  0.74583521317E+00 -0.37747783212E+01  0.13163382993E+02  0.00000000000E+00 0. -1.
<mgrwt>
<rscale>  0 0.12934729E+03</rscale>
<asrwt>0</asrwt>
<pdfrwt beam="2">  1        2 0.10100396E+00 0.13706738E+03</pdfrwt>
<pdfrwt beam="1">  1       -2 0.37581088E-02 0.13706738E+03</pdfrwt>
<totfact> 0.13044855E+04</totfact>
</mgrwt>
</event>
<event>
 8    1  0.1033707E-005  0.1485255E+03  0.7546771E-02  0.1211187E+00
         -1   -1    0    0    0  501 -0.00000000000E+00  0.00000000000E+00  0.93534937468E+02  0.93534937468E+02  0.00000000000E+00 0.  1.
          1   -1    0    0  501    0  0.00000000000E+00 -0.00000000000E+00 -0.19695551975E+03  0.19695551975E+03  0.00000000000E+00 0. -1.
         23    2    1    2    0    0  0.71707884782E+02 -0.35936540699E+02 -0.50854632745E+02  0.15699050334E+03  0.12500547496E+03 0.  0.
         23    2    1    2    0    0 -0.71707884782E+02  0.35936540699E+02 -0.52565949539E+02  0.13349995388E+03  0.92874124154E+02 0.  0.
          5    1    3    3  502    0  0.52270294491E+02 -0.53439074913E+02  0.23119972851E+02  0.78387126229E+02  0.47000000000E+01 0. -1.
         -5    1    3    3    0  502  0.19437590292E+02  0.17502534215E+02 -0.73974605597E+02  0.78603377112E+02  0.47000000000E+01 0. -1.
        -11    1    4    4    0    0  0.10602282087E+02  0.35536397477E+02 -0.25225623551E+01  0.37169977831E+02  0.00000000000E+00 0.  1.
         11    1    4    4    0    0 -0.82310166869E+02  0.40014322137E+00 -0.50043387184E+02  0.96329976048E+02  0.00000000000E+00 0. -1.
<mgrwt>
<rscale>  0 0.14160399E+03</rscale>
<asrwt>0</asrwt>
<pdfrwt beam="2">  1        1 0.30300849E-01 0.14852550E+03</pdfrwt>
<pdfrwt beam="1">  1       -1 0.14389991E-01 0.14852550E+03</pdfrwt>
<totfact> 0.49404456E+03</totfact>
</mgrwt>
</event>
<event>
 8    1  0.1033707E-005  0.1289806E+03  0.7546771E-02  0.1244008E+00
         -1   -1    0    0    0  501 -0.00000000000E+00  0.00000000000E+00  0.88563748922E+02  0.88563748922E+02  0.00000000000E+00 0.  1.
          1   -1    0    0  501    0  0.00000000000E+00 -0.00000000000E+00 -0.15932858781E+03  0.15932858781E+03  0.00000000000E+00 0. -1.
         23    2    1    2    0    0  0.56102822192E+01  0.31299566928E+02  0.91182707335E+00  0.12898384118E+03  0.12499944680E+03 0.  0.
         23    2    1    2    0    0 -0.56102822192E+01 -0.31299566928E+02 -0.71676665964E+02  0.11890849556E+03  0.89389863610E+02 0.  0.
          5    1    3    3  502    0 -0.39496241351E+02 -0.32034224027E+02  0.12665060591E+01  0.51086579719E+02  0.47000000000E+01 0. -1.
         -5    1    3    3    0  502  0.45106523570E+02  0.63333790955E+02 -0.35467898571E+00  0.77897261456E+02  0.47000000000E+01 0. -1.
        -11    1    4    4    0    0  0.37446397640E+02 -0.32365177538E+02 -0.25189437578E+02  0.55535980938E+02  0.00000000000E+00 0.  1.
         11    1    4    4    0    0 -0.43056679859E+02  0.10656106100E+01 -0.46487228386E+02  0.63372514622E+02  0.00000000000E+00 0. -1.
<mgrwt>
<rscale>  0 0.11944936E+03</rscale>
<asrwt>0</asrwt>
<pdfrwt beam="2">  1        1 0.24512091E-01 0.12898062E+03</pdfrwt>
<pdfrwt beam="1">  1       -1 0.13625192E-01 0.12898062E+03</pdfrwt>
<totfact> 0.69493214E+03</totfact>
</mgrwt>
</event>
<event>
 8    1  0.1033707E-005  0.1336529E+03  0.7546771E-02  0.1235144E+00
         -4   -1    0    0    0  501 -0.00000000000E+00  0.00000000000E+00  0.14339429805E+03  0.14339429805E+03  0.00000000000E+00 0.  1.
          4   -1    0    0  501    0  0.00000000000E+00 -0.00000000000E+00 -0.27837005111E+03  0.27837005111E+03  0.00000000000E+00 0. -1.
         23    2    1    2    0    0  0.32866166577E+02 -0.34070009449E+02  0.99102828363E+02  0.16638650448E+03  0.12498859082E+03 0.  0.
         23    2    1    2    0    0 -0.32866166577E+02  0.34070009449E+02 -0.23407858142E+03  0.25537784467E+03  0.90466075515E+02 0.  0.
          5    1    3    3  502    0  0.46825089440E+02 -0.69152865102E+02  0.97274766745E+02  0.12829332796E+03  0.47000000000E+01 0. -1.
         -5    1    3    3    0  502 -0.13958922863E+02  0.35082855654E+02  0.18280616178E+01  0.38093176523E+02  0.47000000000E+01 0. -1.
        -11    1    4    4    0    0  0.67260555797E+01  0.32021775529E+02 -0.21541619937E+02  0.39174932306E+02  0.00000000000E+00 0.  1.
         11    1    4    4    0    0 -0.39592222157E+02  0.20482339191E+01 -0.21253696149E+03  0.21620291237E+03  0.00000000000E+00 0. -1.
<mgrwt>
<rscale>  0 0.12495212E+03</rscale>
<asrwt>0</asrwt>
<pdfrwt beam="2">  1        4 0.42826161E-01 0.13365290E+03</pdfrwt>
<pdfrwt beam="1">  1       -4 0.22060662E-01 0.13365290E+03</pdfrwt>
<totfact> 0.16704848E+02</totfact>
</mgrwt>
</event>
<event>
 8    1  0.1033707E-005  0.1386048E+03  0.7546771E-02  0.1226090E+00
          3   -1    0    0  501    0  0.00000000000E+00  0.00000000000E+00  0.90402794521E+03  0.90402794521E+03  0.00000000000E+00 0. -1.
         -3   -1    0    0    0  501 -0.00000000000E+00 -0.00000000000E+00 -0.17173623159E+02  0.17173623159E+02  0.00000000000E+00 0.  1.
         23    2    1    2    0    0 -0.59289190707E+02  0.84062223444E+01  0.51428064830E+03  0.53263107604E+03  0.12500162093E+03 0.  0.
         23    2    1    2    0    0  0.59289190707E+02 -0.84062223444E+01  0.37257367375E+03  0.38857049233E+03  0.92682319939E+02 0.  0.
          5    1    3    3  502    0 -0.98721985700E+01 -0.36209994673E+02  0.38761921830E+03  0.38946036051E+03  0.47000000000E+01 0.  1.
         -5    1    3    3    0  502 -0.49416992137E+02  0.44616217017E+02  0.12666143000E+03  0.14317071552E+03  0.47000000000E+01 0.  1.
        -11    1    4    4    0    0  0.40237288202E+02 -0.50234181666E+02  0.22094780408E+03  0.23013136356E+03  0.00000000000E+00 0.  1.
         11    1    4    4    0    0  0.19051902505E+02  0.41827959321E+02  0.15162586967E+03  0.15843912876E+03  0.00000000000E+00 0. -1.
<mgrwt>
<rscale>  0 0.13092457E+03</rscale>
<asrwt>0</asrwt>
<pdfrwt beam="1">  1        3 0.13908119E+00 0.13860475E+03</pdfrwt>
<pdfrwt beam="2">  1       -3 0.26420966E-02 0.13860475E+03</pdfrwt>
<totfact> 0.59975053E+02</totfact>
</mgrwt>
</event>
<event>
 8    1  0.1033707E-005  0.1415521E+03  0.7546771E-02  0.1222107E+00
          1   -1    0    0  501    0  0.00000000000E+00  0.00000000000E+00  0.40224624489E+02  0.40224624489E+02  0.00000000000E+00 0. -1.
         -1   -1    0    0    0  501 -0.00000000000E+00 -0.00000000000E+00 -0.70643210540E+03  0.70643210540E+03  0.00000000000E+00 0.  1.
         23    2    1    2    0    0 -0.89999405817E+01  0.65811120284E+02 -0.59911940657E+03  0.61561437931E+03  0.12499959283E+03 0.  0.
         23    2    1    2    0    0  0.89999405817E+01 -0.65811120284E+02 -0.67088074346E+02  0.13104235058E+03  0.90880060752E+02 0.  0.
          5    1    3    3  502    0  0.54241392633E+02  0.54585528810E+02 -0.31791182779E+03  0.32712647230E+03  0.47000000000E+01 0.  1.
         -5    1    3    3    0  502 -0.63241333215E+02  0.11225591474E+02 -0.28120757877E+03  0.28848790701E+03  0.47000000000E+01 0.  1.
        -11    1    4    4    0    0 -0.12557399547E+02 -0.70098170832E+02 -0.12642393625E+02  0.72327532475E+02  0.00000000000E+00 0. -1.
         11    1    4    4    0    0  0.21557340129E+02  0.42870505479E+01 -0.54445680721E+02  0.58714818104E+02  0.00000000000E+00 0.  1.
<mgrwt>
<rscale>  0 0.13367182E+03</rscale>
<asrwt>0</asrwt>
<pdfrwt beam="1">  1        1 0.61884042E-02 0.14155211E+03</pdfrwt>
<pdfrwt beam="2">  1       -1 0.10868185E+00 0.14155211E+03</pdfrwt>
<totfact> 0.10168377E+03</totfact>
</mgrwt>
</event>
<event>
 8    1  0.1033707E-005  0.2091637E+03  0.7546771E-02  0.1145891E+00
          2   -1    0    0  501    0  0.00000000000E+00  0.00000000000E+00  0.50935233701E+03  0.50935233701E+03  0.00000000000E+00 0. -1.
         -2   -1    0    0    0  501 -0.00000000000E+00 -0.00000000000E+00 -0.84571095571E+02  0.84571095571E+02  0.00000000000E+00 0.  1.
         23    2    1    2    0    0  0.53920733512E+02 -0.15880104554E+03  0.14378745447E+03  0.25381937391E+03  0.12499689972E+03 0.  0.
         23    2    1    2    0    0 -0.53920733512E+02  0.15880104554E+03  0.28099378697E+03  0.34010405867E+03  0.92671704649E+02 0.  0.
          5    1    3    3  502    0  0.29811126273E+02 -0.17013583238E+03  0.92885483996E+02  0.19617519682E+03  0.47000000000E+01 0. -1.
         -5    1    3    3    0  502  0.24109607240E+02  0.11334786840E+02  0.50901970473E+02  0.57644177086E+02  0.47000000000E+01 0.  1.
        -11    1    4    4    0    0 -0.13375435625E+02  0.60018888272E+02  0.19036179421E+03  0.20004694929E+03  0.00000000000E+00 0. -1.
         11    1    4    4    0    0 -0.40545297887E+02  0.98782157271E+02  0.90631992760E+02  0.14005710938E+03  0.00000000000E+00 0.  1.
<mgrwt>
<rscale>  0 0.20462918E+03</rscale>
<asrwt>0</asrwt>
<pdfrwt beam="1">  1        2 0.78361896E-01 0.20916367E+03</pdfrwt>
<pdfrwt beam="2">  1       -2 0.13010938E-01 0.20916367E+03</pdfrwt>
<totfact> 0.26147676E+03</totfact>
</mgrwt>
</event>
<event>
 8    1  0.1033707E-005  0.1137272E+03  0.7546771E-02  0.1263406E+00
          1   -1    0    0  501    0  0.00000000000E+00  0.00000000000E+00  0.10766446349E+02  0.10766446349E+02  0.00000000000E+00 0. -1.
         -1   -1    0    0    0  501 -0.00000000000E+00 -0.00000000000E+00 -0.11064654873E+04  0.11064654873E+04  0.00000000000E+00 0.  1.
         23    2    1    2    0    0 -0.26229694003E+02  0.44023390573E+01 -0.76436553751E+03  0.77277975731E+03  0.11057350925E+03 0.  0.
         23    2    1    2    0    0  0.26229694003E+02 -0.44023390573E+01 -0.33133350341E+03  0.34445217630E+03  0.90321834794E+02 0.  0.
          5    1    3    3  502    0 -0.50232663588E+01  0.42081242172E+02 -0.12770603445E+03  0.13463649350E+03  0.47000000000E+01 0. -1.
         -5    1    3    3    0  502 -0.21206427644E+02 -0.37678903115E+02 -0.63665950306E+03  0.63814326381E+03  0.47000000000E+01 0.  1.
        -11    1    4    4    0    0  0.56980099997E+02 -0.49257381011E+01 -0.15008499537E+03  0.16061289029E+03  0.00000000000E+00 0. -1.
         11    1    4    4    0    0 -0.30750405994E+02  0.52339904376E+00 -0.18124850803E+03  0.18383928601E+03  0.00000000000E+00 0.  1.
<mgrwt>
<rscale>  0 0.10848274E+03</rscale>
<asrwt>0</asrwt>
<pdfrwt beam="1">  1        1 0.16563780E-02 0.11372721E+03</pdfrwt>
<pdfrwt beam="2">  1       -1 0.17022529E+00 0.11372721E+03</pdfrwt>
<totfact> 0.20341003E+03</totfact>
</mgrwt>
</event>
<event>
 8    1  0.1033707E-005  0.1259370E+03  0.7546771E-02  0.1248968E+00
         -2   -1    0    0    0  501 -0.00000000000E+00  0.00000000000E+00  0.23462760348E+03  0.23462760348E+03  0.00000000000E+00 0.  1.
          2   -1    0    0  501    0  0.00000000000E+00 -0.00000000000E+00 -0.51017737809E+02  0.51017737809E+02  0.00000000000E+00 0. -1.
         23    2    1    2    0    0 -0.11259941850E+02 -0.10408636578E+02  0.11654754057E+03  0.17159095246E+03  0.12499999898E+03 0.  0.
         23    2    1    2    0    0  0.11259941850E+02  0.10408636578E+02  0.67062325100E+02  0.11405438883E+03  0.90972095494E+02 0.  0.
          5    1    3    3  502    0  0.44287516054E+02  0.30887298464E+02  0.34962278614E+02  0.64496978305E+02  0.47000000000E+01 0.  1.
         -5    1    3    3    0  502 -0.55547457904E+02 -0.41295935042E+02  0.81585261958E+02  0.10709397415E+03  0.47000000000E+01 0.  1.
        -11    1    4    4    0    0 -0.14976103076E+02  0.70136205981E+01 -0.18312761355E+02  0.24674516524E+02  0.00000000000E+00 0. -1.
         11    1    4    4    0    0  0.26236044927E+02  0.33950159801E+01  0.85375086455E+02  0.89379872310E+02  0.00000000000E+00 0.  1.
<mgrwt>
<rscale>  0 0.11650991E+03</rscale>
<asrwt>0</asrwt>
<pdfrwt beam="2">  1        2 0.78488829E-02 0.12593699E+03</pdfrwt>
<pdfrwt beam="1">  1       -2 0.36096554E-01 0.12593699E+03</pdfrwt>
<totfact> 0.59457844E+03</totfact>
</mgrwt>
</event>
<event>
 8    1  0.1033707E-005  0.1430831E+03  0.7546771E-02  0.1219048E+00
         -2   -1    0    0    0  501 -0.00000000000E+00  0.00000000000E+00  0.13319553103E+03  0.13319553103E+03  0.00000000000E+00 0.  1.
          2   -1    0    0  501    0  0.00000000000E+00 -0.00000000000E+00 -0.13735058204E+03  0.13735058204E+03  0.00000000000E+00 0. -1.
         23    2    1    2    0    0 -0.45159902972E+02  0.52995901194E+02  0.36082105023E+02  0.14756251843E+03  0.12499918464E+03 0.  0.
         23    2    1    2    0    0  0.45159902972E+02 -0.52995901194E+02 -0.40237156032E+02  0.12298359464E+03  0.93048124356E+02 0.  0.
          5    1    3    3  502    0 -0.50688408735E+02  0.16977867440E+02  0.76176174484E+02  0.93179731283E+02  0.47000000000E+01 0.  1.
         -5    1    3    3    0  502  0.55285057631E+01  0.36018033754E+02 -0.40094069460E+02  0.54382787143E+02  0.47000000000E+01 0.  1.
        -11    1    4    4    0    0  0.73105025895E+02 -0.41375962813E+02 -0.39207514732E+02  0.92701371734E+02  0.00000000000E+00 0.  1.
         11    1    4    4    0    0 -0.27945122923E+02 -0.11619938381E+02 -0.10296412998E+01  0.30282222910E+02  0.00000000000E+00 0. -1.
<mgrwt>
<rscale>  0 0.13583350E+03</rscale>
<asrwt>0</asrwt>
<pdfrwt beam="2">  1        2 0.21130859E-01 0.14308312E+03</pdfrwt>
<pdfrwt beam="1">  1       -2 0.20491620E-01 0.14308312E+03</pdfrwt>
<totfact> 0.50280039E+03</totfact>
</mgrwt>
</event>
<event>
 8    1  0.1033707E-005  0.1560136E+03  0.7546771E-02  0.1201574E+00
         -1   -1    0    0    0  501 -0.00000000000E+00  0.00000000000E+00  0.42524543638E+02  0.42524543638E+02  0.00000000000E+00 0.  1.
          1   -1    0    0  501    0  0.00000000000E+00 -0.00000000000E+00 -0.48602566678E+03  0.48602566678E+03  0.00000000000E+00 0. -1.
         23    2    1    2    0    0  0.92384378461E+02 -0.13470065222E+02 -0.26700386330E+03  0.30924313452E+03  0.12499574869E+03 0.  0.
         23    2    1    2    0    0 -0.92384378461E+02  0.13470065222E+02 -0.17649725984E+03  0.21930707590E+03  0.90708294915E+02 0.  0.
          5    1    3    3  502    0 -0.34136656686E+01 -0.42459488532E+02 -0.14589149672E+03  0.15205551649E+03  0.47000000000E+01 0. -1.
         -5    1    3    3    0  502  0.95798044130E+02  0.28989423310E+02 -0.12111236657E+03  0.15718761802E+03  0.47000000000E+01 0. -1.
        -11    1    4    4    0    0 -0.62619742256E+02 -0.25261505225E+02 -0.14819423725E+03  0.16285241085E+03  0.00000000000E+00 0. -1.
         11    1    4    4    0    0 -0.29764636206E+02  0.38731570447E+02 -0.28303022597E+02  0.56454665050E+02  0.00000000000E+00 0.  1.
<mgrwt>
<rscale>  0 0.14910764E+03</rscale>
<asrwt>0</asrwt>
<pdfrwt beam="2">  1        1 0.74773180E-01 0.15601363E+03</pdfrwt>
<pdfrwt beam="1">  1       -1 0.65422374E-02 0.15601363E+03</pdfrwt>
<totfact> 0.53292397E+03</totfact>
</mgrwt>
</event>
<event>
 8    1  0.1033707E-005  0.1278978E+03  0.7546771E-02  0.1244771E+00
         -2   -1    0    0    0  501 -0.00000000000E+00  0.00000000000E+00  0.19246210665E+03  0.19246210665E+03  0.00000000000E+00 0.  1.
          2   -1    0    0  501    0  0.00000000000E+00 -0.00000000000E+00 -0.10104822067E+03  0.10104822067E+03  0.00000000000E+00 0. -1.
         23    2    1    2    0    0 -0.36062316928E+01 -0.26841637569E+02  0.13697928535E+03  0.18740643518E+03  0.12499747564E+03 0.  0.
         23    2    1    2    0    0  0.36062316928E+01  0.26841637569E+02 -0.45565399369E+02  0.10610389215E+03  0.91914916609E+02 0.  0.
          5    1    3    3  502    0 -0.51095734690E+02 -0.15124381220E+02  0.14480378384E+02  0.55419241865E+02  0.47000000000E+01 0.  1.
         -5    1    3    3    0  502  0.47489502997E+02 -0.11717256349E+02  0.12249890696E+03  0.13198719331E+03  0.47000000000E+01 0.  1.
        -11    1    4    4    0    0  0.17333616867E+02 -0.27978664472E+02  0.92451782376E+00  0.32925896685E+02  0.00000000000E+00 0.  1.
         11    1    4    4    0    0 -0.13727385174E+02  0.54820302041E+02 -0.46489917193E+02  0.73177995464E+02  0.00000000000E+00 0. -1.
<mgrwt>
<rscale>  0 0.11899082E+03</rscale>
<asrwt>0</asrwt>
<pdfrwt beam="2">  1        2 0.15545880E-01 0.12789780E+03</pdfrwt>
<pdfrwt beam="1">  1       -2 0.29609555E-01 0.12789780E+03</pdfrwt>
<totfact> 0.37342427E+03</totfact>
</mgrwt>
</event>
<event>
 8    1  0.1033707E-005  0.1314143E+03  0.7546771E-02  0.1239043E+00
         -2   -1    0    0    0  501 -0.00000000000E+00  0.00000000000E+00  0.33371957922E+02  0.33371957922E+02  0.00000000000E+00 0.  1.
          2   -1    0    0  501    0  0.00000000000E+00 -0.00000000000E+00 -0.40046463847E+03  0.40046463847E+03  0.00000000000E+00 0. -1.
         23    2    1    2    0    0 -0.77330768263E+01 -0.40219793672E+02 -0.22450984986E+03  0.26014302269E+03  0.12486908059E+03 0.  0.
         23    2    1    2    0    0  0.77330768263E+01  0.40219793672E+02 -0.14258283068E+03  0.17369357370E+03  0.90344682516E+02 0.  0.
          5    1    3    3  502    0  0.50774457699E+02  0.12320599081E+02 -0.83154342475E+02  0.98318754003E+02  0.47000000000E+01 0. -1.
         -5    1    3    3    0  502 -0.58507534525E+02 -0.52540392752E+02 -0.14135550739E+03  0.16182426869E+03  0.47000000000E+01 0. -1.
        -11    1    4    4    0    0 -0.47952822833E+01 -0.13483833155E+02  0.57641879670E+01  0.15428361924E+02  0.00000000000E+00 0.  1.
         11    1    4    4    0    0  0.12528359110E+02  0.53703626827E+02 -0.14834701865E+03  0.15826521178E+03  0.00000000000E+00 0. -1.
<mgrwt>
<rscale>  0 0.12249099E+03</rscale>
<asrwt>0</asrwt>
<pdfrwt beam="2">  1        2 0.61609949E-01 0.13141431E+03</pdfrwt>
<pdfrwt beam="1">  1       -2 0.51341470E-02 0.13141431E+03</pdfrwt>
<totfact> 0.14108897E+04</totfact>
</mgrwt>
</event>
<event>
 8    1  0.1033707E-005  0.1281456E+03  0.7546771E-02  0.1244384E+00
         -2   -1    0    0    0  501 -0.00000000000E+00  0.00000000000E+00  0.28179913146E+02  0.28179913146E+02  0.00000000000E+00 0.  1.
          2   -1    0    0  501    0  0.00000000000E+00 -0.00000000000E+00 -0.44763145918E+03  0.44763145918E+03  0.00000000000E+00 0. -1.
         23    2    1    2    0    0 -0.21845200289E+02  0.17860207765E+02 -0.22448943555E+03  0.25848944128E+03  0.12500033913E+03 0.  0.
         23    2    1    2    0    0  0.21845200289E+02 -0.17860207765E+02 -0.19496211048E+03  0.21732193105E+03  0.91773620352E+02 0.  0.
          5    1    3    3  502    0 -0.36492520456E+02 -0.35648416888E+02 -0.37777736413E+02  0.63653444874E+02  0.47000000000E+01 0. -1.
         -5    1    3    3    0  502  0.14647320167E+02  0.53508624654E+02 -0.18671169914E+03  0.19483599641E+03  0.47000000000E+01 0. -1.
        -11    1    4    4    0    0  0.49742887962E+02 -0.68570494941E+01 -0.17302984645E+03  0.18016853719E+03  0.00000000000E+00 0. -1.
         11    1    4    4    0    0 -0.27897687673E+02 -0.11003158271E+02 -0.21932264033E+02  0.37153393856E+02  0.00000000000E+00 0.  1.
<mgrwt>
<rscale>  0 0.11922320E+03</rscale>
<asrwt>0</asrwt>
<pdfrwt beam="2">  1        2 0.68866377E-01 0.12814556E+03</pdfrwt>
<pdfrwt beam="1">  1       -2 0.43353713E-02 0.12814556E+03</pdfrwt>
<totfact> 0.16089377E+04</totfact>
</mgrwt>
</event>
<event>
 7    1  0.1033707E-005  0.2106020E+03  0.7546771E-02  0.1141845E+00
         -2   -1    0    0    0  501 -0.00000000000E+00  0.00000000000E+00  0.40857674256E+02  0.40857674256E+02  0.00000000000E+00 0.  1.
          2   -1    0    0  501    0  0.00000000000E+00 -0.00000000000E+00 -0.11020165699E+04  0.11020165699E+04  0.00000000000E+00 0. -1.
         23    2    1    2    0    0 -0.39198183191E+02 -0.16003939856E+03 -0.42278274711E+03  0.47065604033E+03  0.12499100122E+03 0.  0.
          5    1    3    3  502    0  0.42216391510E+00  0.19614342489E+02 -0.23286339976E+02  0.30809808229E+02  0.47000000000E+01 0. -1.
         -5    1    3    3    0  502 -0.39620347106E+02 -0.17965374105E+03 -0.39949640713E+03  0.43984623210E+03  0.47000000000E+01 0. -1.
        -11    1    1    2    0    0 -0.27849244802E+02  0.13566287245E+03 -0.44778703528E+03  0.46871443797E+03  0.00000000000E+00 0. -1.
         11    1    1    2    0    0  0.67047427993E+02  0.24376526113E+02 -0.19058911322E+03  0.20350376582E+03  0.00000000000E+00 0.  1.
<mgrwt>
<rscale>  0 0.20964845E+03</rscale>
<asrwt>0</asrwt>
<pdfrwt beam="2">  1        2 0.16954103E+00 0.21060201E+03</pdfrwt>
<pdfrwt beam="1">  1       -2 0.62857953E-02 0.21060201E+03</pdfrwt>
<totfact> 0.31225181E+03</totfact>
</mgrwt>
</event>
<event>
 7    1  0.1033707E-005  0.4817925E+03  0.7546771E-02  0.1019641E+00
         -1   -1    0    0    0  501 -0.00000000000E+00  0.00000000000E+00  0.30563286914E+03  0.30563286914E+03  0.00000000000E+00 0.  1.
          1   -1    0    0  501    0  0.00000000000E+00 -0.00000000000E+00 -0.87868530410E+03  0.87868530410E+03  0.00000000000E+00 0. -1.
         23    2    1    2    0    0  0.26845820088E+03 -0.37183901191E+03 -0.52062925886E+03  0.69968205682E+03  0.90366470903E+02 0.  0.
          5    1    1    2  502    0 -0.16599915845E+01  0.50912359765E+01  0.23695325339E+02  0.24743376866E+02  0.47000000000E+01 0. -1.
         -5    1    1    2    0  502 -0.26679820930E+03  0.36674777593E+03 -0.76118501437E+02  0.45989273955E+03  0.47000000000E+01 0.  1.
        -11    1    3    3    0    0  0.42964248674E+02 -0.27283974445E+02 -0.29731673007E+02  0.58943314340E+02  0.00000000000E+00 0.  1.
         11    1    3    3    0    0  0.22549395221E+03 -0.34455503746E+03 -0.49089758585E+03  0.64073874248E+03  0.00000000000E+00 0. -1.
<mgrwt>
<rscale>  0 0.47816355E+03</rscale>
<asrwt>0</asrwt>
<pdfrwt beam="2">  1        1 0.13518235E+00 0.48179246E+03</pdfrwt>
<pdfrwt beam="1">  1       -1 0.47020442E-01 0.48179246E+03</pdfrwt>
<totfact> 0.89512981E+01</totfact>
</mgrwt>
</event>
<event>
 8    1  0.1033707E-005  0.1495539E+03  0.7546771E-02  0.1211061E+00
         -1   -1    0    0    0  501 -0.00000000000E+00  0.00000000000E+00  0.63566051251E+02  0.63566051251E+02  0.00000000000E+00 0.  1.
          1   -1    0    0  501    0  0.00000000000E+00 -0.00000000000E+00 -0.30307537624E+03  0.30307537624E+03  0.00000000000E+00 0. -1.
         23    2    1    2    0    0 -0.13263713525E+02 -0.81021844032E+02 -0.89787598059E+02  0.17443678280E+03  0.12500365244E+03 0.  0.
         23    2    1    2    0    0  0.13263713525E+02  0.81021844032E+02 -0.14972172693E+03  0.19220464469E+03  0.88235846557E+02 0.  0.
          5    1    3    3  502    0 -0.13521010823E+02 -0.93215206077E+02 -0.11431695704E+02  0.94998242323E+02  0.47000000000E+01 0. -1.
         -5    1    3    3    0  502  0.25729729758E+00  0.12193362045E+02 -0.78355902355E+02  0.79438540480E+02  0.47000000000E+01 0. -1.
        -11    1    4    4    0    0  0.10400521875E+02  0.91941127390E+02 -0.82264700899E+02  0.12380962311E+03  0.00000000000E+00 0.  1.
         11    1    4    4    0    0  0.28631916503E+01 -0.10919283357E+02 -0.67457026032E+02  0.68395021577E+02  0.00000000000E+00 0. -1.
<mgrwt>
<rscale>  0 0.14169899E+03</rscale>
<asrwt>0</asrwt>
<pdfrwt beam="2">  1        1 0.46626981E-01 0.14955393E+03</pdfrwt>
<pdfrwt beam="1">  1       -1 0.97793925E-02 0.14955393E+03</pdfrwt>
<totfact> 0.52587026E+03</totfact>
</mgrwt>
</event>
<event>
 8    1  0.1033707E-005  0.1972733E+03  0.7546771E-02  0.1156533E+00
         -2   -1    0    0    0  501 -0.00000000000E+00  0.00000000000E+00  0.29734281293E+02  0.29734281293E+02  0.00000000000E+00 0.  1.
          2   -1    0    0  501    0  0.00000000000E+00 -0.00000000000E+00 -0.11859504619E+04  0.11859504619E+04  0.00000000000E+00 0. -1.
         23    2    1    2    0    0  0.13337667393E+02 -0.15203121048E+03 -0.57080057556E+03  0.60392884788E+03  0.12500149562E+03 0.  0.
         23    2    1    2    0    0 -0.13337667393E+02  0.15203121048E+03 -0.58541560510E+03  0.61175589537E+03  0.90788008530E+02 0.  0.
          5    1    3    3  502    0  0.16446416604E+02 -0.40452280002E+02 -0.38224840386E+03  0.38476330884E+03  0.47000000000E+01 0. -1.
         -5    1    3    3    0  502 -0.31087492115E+01 -0.11157893048E+03 -0.18855217170E+03  0.21916553904E+03  0.47000000000E+01 0. -1.
        -11    1    4    4    0    0 -0.28445359974E+02  0.15611066005E+03 -0.55867292752E+03  0.58077113963E+03  0.00000000000E+00 0.  1.
         11    1    4    4    0    0  0.15107692581E+02 -0.40794495713E+01 -0.26742677578E+02  0.30984755735E+02  0.00000000000E+00 0. -1.
<mgrwt>
<rscale>  0 0.19215352E+03</rscale>
<asrwt>0</asrwt>
<pdfrwt beam="2">  1        2 0.18245393E+00 0.19727330E+03</pdfrwt>
<pdfrwt beam="1">  1       -2 0.45745045E-02 0.19727330E+03</pdfrwt>
<totfact> 0.45276725E+03</totfact>
</mgrwt>
</event>
<event>
 8    1  0.1033707E-005  0.1516589E+03  0.7546771E-02  0.1207406E+00
          1   -1    0    0  501    0  0.00000000000E+00  0.00000000000E+00  0.84118099205E+02  0.84118099205E+02  0.00000000000E+00 0. -1.
         -1   -1    0    0    0  501 -0.00000000000E+00 -0.00000000000E+00 -0.24010247534E+03  0.24010247534E+03  0.00000000000E+00 0.  1.
         23    2    1    2    0    0 -0.54533865545E+02  0.66364143282E+02 -0.12220551802E+03  0.19476808338E+03  0.12498910217E+03 0.  0.
         23    2    1    2    0    0  0.54533865545E+02 -0.66364143282E+02 -0.33778858117E+02  0.12945249117E+03  0.90767803818E+02 0.  0.
          5    1    3    3  502    0 -0.14604700459E+01  0.38588471712E+02  0.17524880485E+02  0.42666316432E+02  0.47000000000E+01 0.  1.
         -5    1    3    3    0  502 -0.53073395499E+02  0.27775671570E+02 -0.13973039851E+03  0.15210176694E+03  0.47000000000E+01 0.  1.
        -11    1    4    4    0    0  0.42458512262E+02  0.56279978295E+01 -0.36690325662E+02  0.56396627738E+02  0.00000000000E+00 0.  1.
         11    1    4    4    0    0  0.12075353283E+02 -0.71992141112E+02  0.29114675447E+01  0.73055863434E+02  0.00000000000E+00 0. -1.
<mgrwt>
<rscale>  0 0.14449419E+03</rscale>
<asrwt>0</asrwt>
<pdfrwt beam="1">  1        1 0.12941246E-01 0.15165889E+03</pdfrwt>
<pdfrwt beam="2">  1       -1 0.36938842E-01 0.15165889E+03</pdfrwt>
<totfact> 0.31271214E+03</totfact>
</mgrwt>
</event>
<event>
 7    1  0.1033707E-005  0.1721163E+03  0.7546771E-02  0.1184358E+00
          2   -1    0    0  501    0  0.00000000000E+00  0.00000000000E+00  0.73087142678E+03  0.73087142678E+03  0.00000000000E+00 0. -1.
         -2   -1    0    0    0  501 -0.00000000000E+00 -0.00000000000E+00 -0.34562573029E+02  0.34562573029E+02  0.00000000000E+00 0.  1.
         23    2    1    2    0    0  0.12864644148E+03 -0.25576500340E+02  0.31938953695E+03  0.36281359840E+03  0.11144490385E+03 0.  0.
          5    1    3    3  502    0  0.76055359190E+02  0.29123540357E+02  0.23728293452E+03  0.25091408745E+03  0.47000000000E+01 0. -1.
         -5    1    3    3    0  502  0.52591082291E+02 -0.54700040697E+02  0.82106602431E+02  0.11189951095E+03  0.47000000000E+01 0.  1.
        -11    1    1    2    0    0 -0.10730060135E+03  0.33278364118E+02  0.34903424278E+03  0.36666847588E+03  0.00000000000E+00 0. -1.
         11    1    1    2    0    0 -0.21345840129E+02 -0.77018637785E+01  0.27885074020E+02  0.35951925534E+02  0.00000000000E+00 0.  1.
<mgrwt>
<rscale>  0 0.16390427E+03</rscale>
<asrwt>0</asrwt>
<pdfrwt beam="1">  1        2 0.11244175E+00 0.17211633E+03</pdfrwt>
<pdfrwt beam="2">  1       -2 0.53173195E-02 0.17211633E+03</pdfrwt>
<totfact> 0.69189089E+03</totfact>
</mgrwt>
</event>
<event>
 8    1  0.1033707E-005  0.1310919E+03  0.7546771E-02  0.1239815E+00
         -2   -1    0    0    0  501 -0.00000000000E+00  0.00000000000E+00  0.42797429413E+02  0.42797429413E+02  0.00000000000E+00 0.  1.
          2   -1    0    0  501    0  0.00000000000E+00 -0.00000000000E+00 -0.30797346397E+03  0.30797346397E+03  0.00000000000E+00 0. -1.
         23    2    1    2    0    0 -0.24231284387E+02 -0.31182901624E+02 -0.14525018325E+03  0.19565966085E+03  0.12500223459E+03 0.  0.
         23    2    1    2    0    0  0.24231284387E+02  0.31182901624E+02 -0.11992585131E+03  0.15511123254E+03  0.90098591281E+02 0.  0.
          5    1    3    3  502    0 -0.14682851669E+02  0.24303536529E+02  0.99843535990E+01  0.30463508297E+02  0.47000000000E+01 0.  1.
         -5    1    3    3    0  502 -0.95484327184E+01 -0.55486438153E+02 -0.15523453685E+03  0.16519615255E+03  0.47000000000E+01 0.  1.
        -11    1    4    4    0    0  0.18799796213E+02  0.45503957179E+02 -0.12846410506E+03  0.13757568370E+03  0.00000000000E+00 0. -1.
         11    1    4    4    0    0  0.54314881746E+01 -0.14321055555E+02  0.85382537503E+01  0.17535548840E+02  0.00000000000E+00 0.  1.
<mgrwt>
<rscale>  0 0.12201159E+03</rscale>
<asrwt>0</asrwt>
<pdfrwt beam="2">  1        2 0.47380531E-01 0.13109190E+03</pdfrwt>
<pdfrwt beam="1">  1       -2 0.65842202E-02 0.13109190E+03</pdfrwt>
<totfact> 0.12796549E+04</totfact>
</mgrwt>
</event>
<event>
 8    1  0.1033707E-005  0.1401811E+03  0.7546771E-02  0.1224394E+00
          1   -1    0    0  501    0  0.00000000000E+00  0.00000000000E+00  0.68780844068E+02  0.68780844068E+02  0.00000000000E+00 0. -1.
         -1   -1    0    0    0  501 -0.00000000000E+00 -0.00000000000E+00 -0.30448216042E+03  0.30448216042E+03  0.00000000000E+00 0.  1.
         23    2    1    2    0    0  0.59145686821E+01 -0.63167996618E+02 -0.22111696246E+03  0.26180806235E+03  0.12500229000E+03 0.  0.
         23    2    1    2    0    0 -0.59145686821E+01  0.63167996618E+02 -0.14584353884E+02  0.11145494213E+03  0.90467247266E+02 0.  0.
          5    1    3    3  502    0  0.52226555387E+02  0.21045610603E+00 -0.45644342224E+02  0.69520884319E+02  0.47000000000E+01 0. -1.
         -5    1    3    3    0  502 -0.46311986705E+02 -0.63378452724E+02 -0.17547262024E+03  0.19228717803E+03  0.47000000000E+01 0. -1.
        -11    1    4    4    0    0  0.17051923833E+02  0.80102768150E+02 -0.91514150351E+01  0.82407341717E+02  0.00000000000E+00 0.  1.
         11    1    4    4    0    0 -0.22966492515E+02 -0.16934771532E+02 -0.54329388491E+01  0.29047600414E+02  0.00000000000E+00 0. -1.
<mgrwt>
<rscale>  0 0.13208528E+03</rscale>
<asrwt>0</asrwt>
<pdfrwt beam="1">  1        1 0.10581668E-01 0.14018113E+03</pdfrwt>
<pdfrwt beam="2">  1       -1 0.46843410E-01 0.14018113E+03</pdfrwt>
<totfact> 0.26677121E+03</totfact>
</mgrwt>
</event>
<event>
 8    1  0.1033707E-005  0.1559122E+03  0.7546771E-02  0.1201760E+00
          2   -1    0    0  501    0  0.00000000000E+00  0.00000000000E+00  0.36471299466E+02  0.36471299466E+02  0.00000000000E+00 0. -1.
         -2   -1    0    0    0  501 -0.00000000000E+00 -0.00000000000E+00 -0.62369498857E+03  0.62369498857E+03  0.00000000000E+00 0.  1.
         23    2    1    2    0    0  0.65968863774E+02 -0.65836429497E+02 -0.42273828002E+03  0.45057326507E+03  0.12498914900E+03 0.  0.
         23    2    1    2    0    0 -0.65968863774E+02  0.65836429497E+02 -0.16448540909E+03  0.20959302297E+03  0.90484579004E+02 0.  0.
          5    1    3    3  502    0  0.38434052337E+02 -0.43292124232E+02 -0.51566111186E+02  0.77669416262E+02  0.47000000000E+01 0. -1.
         -5    1    3    3    0  502  0.27534811436E+02 -0.22544305265E+02 -0.37117216883E+03  0.37290384881E+03  0.47000000000E+01 0. -1.
        -11    1    4    4    0    0  0.21515643672E+02  0.23470239304E+02 -0.51513406173E+02  0.60559112206E+02  0.00000000000E+00 0. -1.
         11    1    4    4    0    0 -0.87484507446E+02  0.42366190192E+02 -0.11297200292E+03  0.14903391076E+03  0.00000000000E+00 0.  1.
<mgrwt>
<rscale>  0 0.14895725E+03</rscale>
<asrwt>0</asrwt>
<pdfrwt beam="1">  1        2 0.56109694E-02 0.15591220E+03</pdfrwt>
<pdfrwt beam="2">  1       -2 0.95953071E-01 0.15591220E+03</pdfrwt>
<totfact> 0.12421484E+03</totfact>
</mgrwt>
</event>
<event>
 8    1  0.1033707E-005  0.1357222E+03  0.7546771E-02  0.1231407E+00
         -2   -1    0    0    0  501 -0.00000000000E+00  0.00000000000E+00  0.22760451012E+02  0.22760451012E+02  0.00000000000E+00 0. -1.
          2   -1    0    0  501    0  0.00000000000E+00 -0.00000000000E+00 -0.65854369493E+03  0.65854369493E+03  0.00000000000E+00 0.  1.
         23    2    1    2    0    0  0.45705168757E+02 -0.26608740963E+02 -0.29706191060E+03  0.32659805931E+03  0.12499410414E+03 0.  0.
         23    2    1    2    0    0 -0.45705168757E+02  0.26608740963E+02 -0.33872133332E+03  0.35470608663E+03  0.91034491830E+02 0.  0.
          5    1    3    3  502    0  0.51118115462E+01  0.18151082422E+02 -0.24761969066E+03  0.24838114584E+03  0.47000000000E+01 0. -1.
         -5    1    3    3    0  502  0.40593357211E+02 -0.44759823385E+02 -0.49442219945E+02  0.78216913466E+02  0.47000000000E+01 0. -1.
        -11    1    4    4    0    0  0.97144372878E+01 -0.15477895220E+02 -0.15152975703E+02  0.23739170266E+02  0.00000000000E+00 0. -1.
         11    1    4    4    0    0 -0.55419606045E+02  0.42086636183E+02 -0.32356835762E+03  0.33096691637E+03  0.00000000000E+00 0.  1.
<mgrwt>
<rscale>  0 0.12737275E+03</rscale>
<asrwt>0</asrwt>
<pdfrwt beam="2">  1        2 0.10131442E+00 0.13572219E+03</pdfrwt>
<pdfrwt beam="1">  1       -2 0.35016075E-02 0.13572219E+03</pdfrwt>
<totfact> 0.14422033E+04</totfact>
</mgrwt>
</event>
<event>
 8    1  0.1033707E-005  0.1276987E+03  0.7546771E-02  0.1245591E+00
         -2   -1    0    0    0  501 -0.00000000000E+00  0.00000000000E+00  0.73262805820E+02  0.73262805820E+02  0.00000000000E+00 0. -1.
          2   -1    0    0  501    0  0.00000000000E+00 -0.00000000000E+00 -0.22664726187E+03  0.22664726187E+03  0.00000000000E+00 0.  1.
         23    2    1    2    0    0  0.22714445927E+02 -0.12858035793E+02 -0.10014872179E+02  0.12809078943E+03  0.12500271010E+03 0.  0.
         23    2    1    2    0    0 -0.22714445927E+02  0.12858035793E+02 -0.14336958387E+03  0.17181927826E+03  0.91026104303E+02 0.  0.
          5    1    3    3  502    0  0.23750194853E+02  0.15672527624E+02  0.52109950832E+02  0.59558684114E+02  0.47000000000E+01 0. -1.
         -5    1    3    3    0  502 -0.10357489255E+01 -0.28530563417E+02 -0.62124823011E+02  0.68532105314E+02  0.47000000000E+01 0. -1.
        -11    1    4    4    0    0  0.28770037064E+02 -0.12117402394E+02 -0.82821769172E+02  0.88509840821E+02  0.00000000000E+00 0.  1.
         11    1    4    4    0    0 -0.51484482992E+02  0.24975438187E+02 -0.60547814695E+02  0.83309437436E+02  0.00000000000E+00 0. -1.
<mgrwt>
<rscale>  0 0.11850069E+03</rscale>
<asrwt>0</asrwt>
<pdfrwt beam="2">  1        2 0.34868809E-01 0.12769868E+03</pdfrwt>
<pdfrwt beam="1">  1       -2 0.11271201E-01 0.12769868E+03</pdfrwt>
<totfact> 0.76778918E+03</totfact>
</mgrwt>
</event>
<event>
 8    1  0.1033707E-005  0.1699993E+03  0.7546771E-02  0.1183542E+00
         -2   -1    0    0    0  501 -0.00000000000E+00  0.00000000000E+00  0.38865563610E+02  0.38865563610E+02  0.00000000000E+00 0.  1.
          2   -1    0    0  501    0  0.00000000000E+00 -0.00000000000E+00 -0.70325070339E+03  0.70325070339E+03  0.00000000000E+00 0. -1.
         23    2    1    2    0    0  0.29576904264E+02 -0.11135218338E+03 -0.25705708357E+03  0.30818517880E+03  0.12500263281E+03 0.  0.
         23    2    1    2    0    0 -0.29576904264E+02  0.11135218338E+03 -0.40732805621E+03  0.43393108819E+03  0.95425059165E+02 0.  0.
          5    1    3    3  502    0 -0.46229195619E+02 -0.33614036281E+02 -0.12216998089E+03  0.13496161008E+03  0.47000000000E+01 0.  1.
         -5    1    3    3    0  502  0.75806099883E+02 -0.77738147103E+02 -0.13488710268E+03  0.17322356873E+03  0.47000000000E+01 0.  1.
        -11    1    4    4    0    0 -0.10685611404E+01  0.11604927770E+03 -0.27499918383E+03  0.29848471952E+03  0.00000000000E+00 0.  1.
         11    1    4    4    0    0 -0.28508343123E+02 -0.46970943196E+01 -0.13232887238E+03  0.13544636868E+03  0.00000000000E+00 0. -1.
<mgrwt>
<rscale>  0 0.16465236E+03</rscale>
<asrwt>0</asrwt>
<pdfrwt beam="2">  1        2 0.10819242E+00 0.16999929E+03</pdfrwt>
<pdfrwt beam="1">  1       -2 0.59793171E-02 0.16999929E+03</pdfrwt>
<totfact> 0.60612115E+03</totfact>
</mgrwt>
</event>
<event>
 8    1  0.1033707E-005  0.2333407E+03  0.7546771E-02  0.1127197E+00
         -2   -1    0    0    0  501 -0.00000000000E+00  0.00000000000E+00  0.57421665776E+03  0.57421665776E+03  0.00000000000E+00 0. -1.
          2   -1    0    0  501    0  0.00000000000E+00 -0.00000000000E+00 -0.13541766646E+03  0.13541766646E+03  0.00000000000E+00 0.  1.
         23    2    1    2    0    0  0.28542115216E+02  0.19495717301E+03  0.43350725041E+03  0.49231739970E+03  0.12499973697E+03 0.  0.
         23    2    1    2    0    0 -0.28542115216E+02 -0.19495717301E+03  0.52917408897E+01  0.21731692452E+03  0.91518804131E+02 0.  0.
          5    1    3    3  502    0 -0.25127629203E+02 -0.30394340559E+01  0.29257149569E+02  0.38970587751E+02  0.47000000000E+01 0. -1.
         -5    1    3    3    0  502  0.53669744419E+02  0.19799660707E+03  0.40425010084E+03  0.45334681195E+03  0.47000000000E+01 0. -1.
        -11    1    4    4    0    0 -0.59846551283E+02 -0.11874423188E+03 -0.10644298338E+02  0.13339828856E+03  0.00000000000E+00 0.  1.
         11    1    4    4    0    0  0.31304436067E+02 -0.76212941135E+02  0.15936039228E+02  0.83918635952E+02  0.00000000000E+00 0. -1.
<mgrwt>
<rscale>  0 0.22921027E+03</rscale>
<asrwt>0</asrwt>
<pdfrwt beam="2">  1        2 0.20833487E-01 0.23334071E+03</pdfrwt>
<pdfrwt beam="1">  1       -2 0.88341023E-01 0.23334071E+03</pdfrwt>
<totfact> 0.30311290E+02</totfact>
</mgrwt>
</event>
<event>
 8    1  0.1441504E-005  0.2222068E+03  0.7546771E-02  0.1135457E+00
         -2   -1    0    0    0  501 -0.00000000000E+00  0.00000000000E+00  0.28850112470E+02  0.28850112470E+02  0.00000000000E+00 0.  1.
          2   -1    0    0  501    0  0.00000000000E+00 -0.00000000000E+00 -0.15903028872E+04  0.15903028872E+04  0.00000000000E+00 0. -1.
         23    2    1    2    0    0 -0.17076799328E+03 -0.67738096957E+02 -0.76474772772E+03  0.79637612360E+03  0.12500274346E+03 0.  0.
         23    2    1    2    0    0  0.17076799328E+03  0.67738096957E+02 -0.79670504697E+03  0.82277687603E+03  0.92047262616E+02 0.  0.
          5    1    3    3  502    0 -0.13842914665E+03 -0.87410629470E+01 -0.35588974269E+03  0.38199297608E+03  0.47000000000E+01 0. -1.
         -5    1    3    3    0  502 -0.32338846639E+02 -0.58997034010E+02 -0.40885798503E+03  0.41438314752E+03  0.47000000000E+01 0. -1.
        -11    1    4    4    0    0  0.42945620719E+02 -0.12007692640E+02 -0.93174460451E+02  0.10329564900E+03  0.00000000000E+00 0.  1.
         11    1    4    4    0    0  0.12782237257E+03  0.79745789597E+02 -0.70353058652E+03  0.71948122703E+03  0.00000000000E+00 0. -1.
<mgrwt>
<rscale>  0 0.21790209E+03</rscale>
<asrwt>0</asrwt>
<pdfrwt beam="2">  1        2 0.24466211E+00 0.22220676E+03</pdfrwt>
<pdfrwt beam="1">  1       -2 0.44384765E-02 0.22220676E+03</pdfrwt>
<totfact> 0.28656664E+03</totfact>
</mgrwt>
</event>
<event>
 8    1  0.1033707E-005  0.1762404E+03  0.7546771E-02  0.1175061E+00
          1   -1    0    0  501    0  0.00000000000E+00  0.00000000000E+00  0.10302116486E+04  0.10302116486E+04  0.00000000000E+00 0. -1.
         -1   -1    0    0    0  501 -0.00000000000E+00 -0.00000000000E+00 -0.27916463248E+02  0.27916463248E+02  0.00000000000E+00 0.  1.
         23    2    1    2    0    0 -0.12408177382E+03 -0.64005000197E+01  0.49471545585E+03  0.52517051082E+03  0.12499372056E+03 0.  0.
         23    2    1    2    0    0  0.12408177382E+03  0.64005000197E+01  0.50757972945E+03  0.53295760098E+03  0.10473475879E+03 0.  0.
          5    1    3    3  502    0 -0.33809416323E+02 -0.61515510989E+02  0.20109205987E+03  0.21304305027E+03  0.47000000000E+01 0. -1.
         -5    1    3    3    0  502 -0.90272357497E+02  0.55115010969E+02  0.29362339598E+03  0.31212746055E+03  0.47000000000E+01 0. -1.
        -11    1    4    4    0    0 -0.15478499282E+02  0.46920763657E+01  0.19607585162E+02  0.25417649704E+02  0.00000000000E+00 0.  1.
         11    1    4    4    0    0  0.13956027310E+03  0.17084236540E+01  0.48797214429E+03  0.50753995128E+03  0.00000000000E+00 0. -1.
<mgrwt>
<rscale>  0 0.17270036E+03</rscale>
<asrwt>0</asrwt>
<pdfrwt beam="1">  1        1 0.15849407E+00 0.17624041E+03</pdfrwt>
<pdfrwt beam="2">  1       -1 0.42948413E-02 0.17624041E+03</pdfrwt>
<totfact> 0.33240389E+03</totfact>
</mgrwt>
</event>
<event>
 8    1  0.1033707E-005  0.1754291E+03  0.7546771E-02  0.1178002E+00
          2   -1    0    0  501    0  0.00000000000E+00  0.00000000000E+00  0.54858068460E+03  0.54858068460E+03  0.00000000000E+00 0. -1.
         -2   -1    0    0    0  501 -0.00000000000E+00 -0.00000000000E+00 -0.49569396957E+02  0.49569396957E+02  0.00000000000E+00 0.  1.
         23    2    1    2    0    0  0.12304272191E+03  0.32817797384E+01  0.25487731375E+03  0.30941525969E+03  0.12500030549E+03 0.  0.
         23    2    1    2    0    0 -0.12304272191E+03 -0.32817797384E+01  0.24413397389E+03  0.28873482187E+03  0.92823050240E+02 0.  0.
          5    1    3    3  502    0  0.11884583371E+03  0.46681889798E+02  0.21521001014E+03  0.25028178017E+03  0.47000000000E+01 0.  1.
         -5    1    3    3    0  502  0.41968882036E+01 -0.43400110059E+02  0.39667303612E+02  0.59133479515E+02  0.47000000000E+01 0.  1.
        -11    1    4    4    0    0 -0.56382775758E+02  0.32102636065E+02  0.54846988362E+02  0.84957570451E+02  0.00000000000E+00 0. -1.
         11    1    4    4    0    0 -0.66659946152E+02 -0.35384415804E+02  0.18928698553E+03  0.20377725142E+03  0.00000000000E+00 0.  1.
<mgrwt>
<rscale>  0 0.16985236E+03</rscale>
<asrwt>0</asrwt>
<pdfrwt beam="1">  1        2 0.84397024E-01 0.17542907E+03</pdfrwt>
<pdfrwt beam="2">  1       -2 0.76260614E-02 0.17542907E+03</pdfrwt>
<totfact> 0.55723525E+03</totfact>
</mgrwt>
</event>
<event>
 8    1  0.1033707E-005  0.1975310E+03  0.7546771E-02  0.1155896E+00
          1   -1    0    0  501    0  0.00000000000E+00  0.00000000000E+00  0.23896783125E+03  0.23896783125E+03  0.00000000000E+00 0. -1.
         -1   -1    0    0    0  501 -0.00000000000E+00 -0.00000000000E+00 -0.14905910091E+03  0.14905910091E+03  0.00000000000E+00 0.  1.
         23    2    1    2    0    0 -0.41722665941E+02 -0.14714021834E+03  0.55908642032E+02  0.20529067703E+03  0.12500984407E+03 0.  0.
         23    2    1    2    0    0  0.41722665941E+02  0.14714021834E+03  0.34000088299E+02  0.18273625513E+03  0.94050562094E+02 0.  0.
          5    1    3    3  502    0  0.28895162414E+02 -0.19786116729E+02 -0.20418963580E+02  0.40809862776E+02  0.47000000000E+01 0. -1.
         -5    1    3    3    0  502 -0.70617828355E+02 -0.12735410161E+03  0.76327605612E+02  0.16448081425E+03  0.47000000000E+01 0. -1.
        -11    1    4    4    0    0  0.68620327250E+02  0.12310824219E+03  0.39206829532E+02  0.14629273424E+03  0.00000000000E+00 0. -1.
         11    1    4    4    0    0 -0.26897661308E+02  0.24031976143E+02 -0.52067412329E+01  0.36443520898E+02  0.00000000000E+00 0.  1.
<mgrwt>
<rscale>  0 0.19287234E+03</rscale>
<asrwt>0</asrwt>
<pdfrwt beam="1">  1        1 0.36764282E-01 0.19753097E+03</pdfrwt>
<pdfrwt beam="2">  1       -1 0.22932169E-01 0.19753097E+03</pdfrwt>
<totfact> 0.18620778E+03</totfact>
</mgrwt>
</event>
<event>
 8    1  0.1033707E-005  0.1196445E+03  0.7546771E-02  0.1252662E+00
          1   -1    0    0  501    0  0.00000000000E+00  0.00000000000E+00  0.82492192213E+02  0.82492192213E+02  0.00000000000E+00 0. -1.
         -1   -1    0    0    0  501 -0.00000000000E+00 -0.00000000000E+00 -0.16429001216E+03  0.16429001216E+03  0.00000000000E+00 0.  1.
         23    2    1    2    0    0  0.23361660507E+02  0.29884259670E+02 -0.85031770125E+02  0.14678283916E+03  0.11347230403E+03 0.  0.
         23    2    1    2    0    0 -0.23361660507E+02 -0.29884259670E+02  0.32339501753E+01  0.99999365219E+02  0.92469337906E+02 0.  0.
          5    1    3    3  502    0  0.14351831911E+02  0.66440013222E+02 -0.19180535382E+02  0.70783002011E+02  0.47000000000E+01 0. -1.
         -5    1    3    3    0  502  0.90098285954E+01 -0.36555753552E+02 -0.65851234743E+02  0.75999837146E+02  0.47000000000E+01 0.  1.
        -11    1    4    4    0    0 -0.39175533004E+02 -0.42329248068E+02  0.31178131292E+02  0.65563431111E+02  0.00000000000E+00 0.  1.
         11    1    4    4    0    0  0.15813872498E+02  0.12444988398E+02 -0.27944181117E+02  0.34435934108E+02  0.00000000000E+00 0. -1.
<mgrwt>
<rscale>  0 0.11438313E+03</rscale>
<asrwt>0</asrwt>
<pdfrwt beam="1">  1        1 0.12691107E-01 0.11964447E+03</pdfrwt>
<pdfrwt beam="2">  1       -1 0.25275386E-01 0.11964447E+03</pdfrwt>
<totfact> 0.59910887E+03</totfact>
</mgrwt>
</event>
<event>
 8    1  0.1033707E-005  0.2037311E+03  0.7546771E-02  0.1153440E+00
          1   -1    0    0  501    0  0.00000000000E+00  0.00000000000E+00  0.35135893989E+03  0.35135893989E+03  0.00000000000E+00 0. -1.
         -1   -1    0    0    0  501 -0.00000000000E+00 -0.00000000000E+00 -0.13319433342E+03  0.13319433342E+03  0.00000000000E+00 0.  1.
         23    2    1    2    0    0 -0.16025592638E+03 -0.14118494850E+02 -0.27287130688E+01  0.20374942176E+03  0.12500034863E+03 0.  0.
         23    2    1    2    0    0  0.16025592638E+03  0.14118494850E+02  0.22089331953E+03  0.28080385155E+03  0.64619274168E+02 0.  0.
          5    1    3    3  502    0 -0.37149851035E+02 -0.61271856295E+02 -0.19876602524E+01  0.71835872647E+02  0.47000000000E+01 0. -1.
         -5    1    3    3    0  502 -0.12310607534E+03  0.47153361445E+02 -0.74105281639E+00  0.13191354912E+03  0.47000000000E+01 0. -1.
        -11    1    4    4    0    0  0.14639959832E+03  0.28206657097E+02  0.21189617383E+03  0.25909157913E+03  0.00000000000E+00 0. -1.
         11    1    4    4    0    0  0.13856328056E+02 -0.14088162248E+02  0.89971457052E+01  0.21712272418E+02  0.00000000000E+00 0.  1.
<mgrwt>
<rscale>  0 0.19567538E+03</rscale>
<asrwt>0</asrwt>
<pdfrwt beam="1">  1        1 0.54055221E-01 0.20373115E+03</pdfrwt>
<pdfrwt beam="2">  1       -1 0.20491436E-01 0.20373115E+03</pdfrwt>
<totfact> 0.13811637E+03</totfact>
</mgrwt>
</event>
<event>
 8    1  0.1033707E-005  0.1540533E+03  0.7546771E-02  0.1204760E+00
         -1   -1    0    0    0  501 -0.00000000000E+00  0.00000000000E+00  0.60869988105E+02  0.60869988105E+02  0.00000000000E+00 0.  1.
          1   -1    0    0  501    0  0.00000000000E+00 -0.00000000000E+00 -0.32621758473E+03  0.32621758473E+03  0.00000000000E+00 0. -1.
         23    2    1    2    0    0 -0.81585852397E+02  0.38096326791E+02 -0.12543275644E+03  0.19866001326E+03  0.12499937222E+03 0.  0.
         23    2    1    2    0    0  0.81585852397E+02 -0.38096326791E+02 -0.13991484019E+03  0.18842755957E+03  0.88437555803E+02 0.  0.
          5    1    3    3  502    0 -0.10301710617E+03  0.30989442993E+02 -0.48051164505E+02  0.11791469014E+03  0.47000000000E+01 0. -1.
         -5    1    3    3    0  502  0.21431253773E+02  0.71068837982E+01 -0.77381591932E+02  0.80745323118E+02  0.47000000000E+01 0. -1.
        -11    1    4    4    0    0  0.28907432459E+02  0.19630030932E+02 -0.87793048291E+02  0.94491254061E+02  0.00000000000E+00 0. -1.
         11    1    4    4    0    0  0.52678419939E+02 -0.57726357723E+02 -0.52121791896E+02  0.93936305514E+02  0.00000000000E+00 0.  1.
<mgrwt>
<rscale>  0 0.14656360E+03</rscale>
<asrwt>0</asrwt>
<pdfrwt beam="2">  1        1 0.50187322E-01 0.15405332E+03</pdfrwt>
<pdfrwt beam="1">  1       -1 0.93646134E-02 0.15405332E+03</pdfrwt>
<totfact> 0.51353506E+03</totfact>
</mgrwt>
</event>
<event>
 8    1  0.1033707E-005  0.1371764E+03  0.7546771E-02  0.1230659E+00
         -2   -1    0    0    0  501 -0.00000000000E+00  0.00000000000E+00  0.12978453960E+03  0.12978453960E+03  0.00000000000E+00 0.  1.
          2   -1    0    0  501    0  0.00000000000E+00 -0.00000000000E+00 -0.12904153912E+03  0.12904153912E+03  0.00000000000E+00 0. -1.
         23    2    1    2    0    0 -0.24908474302E+01 -0.56459341625E+02  0.47552003654E+02  0.14518458790E+03  0.12499403960E+03 0.  0.
         23    2    1    2    0    0  0.24908474302E+01  0.56459341625E+02 -0.46809003168E+02  0.11364149082E+03  0.86772369335E+02 0.  0.
          5    1    3    3  502    0 -0.25091323576E+02 -0.55059500676E+02  0.83023397954E+02  0.10284015627E+03  0.47000000000E+01 0. -1.
         -5    1    3    3    0  502  0.22600476146E+02 -0.13998409489E+01 -0.35471394300E+02  0.42344431633E+02  0.47000000000E+01 0. -1.
        -11    1    4    4    0    0 -0.17995840372E+02  0.53108977409E+02  0.64835116868E+01  0.56448646360E+02  0.00000000000E+00 0.  1.
         11    1    4    4    0    0  0.20486687802E+02  0.33503642158E+01 -0.53292514855E+02  0.57192844457E+02  0.00000000000E+00 0. -1.
<mgrwt>
<rscale>  0 0.12786471E+03</rscale>
<asrwt>0</asrwt>
<pdfrwt beam="2">  1        2 0.19852544E-01 0.13717642E+03</pdfrwt>
<pdfrwt beam="1">  1       -2 0.19966852E-01 0.13717642E+03</pdfrwt>
<totfact> 0.56223284E+03</totfact>
</mgrwt>
</event>
<event>
 8    1  0.1033707E-005  0.1887595E+03  0.7546771E-02  0.1164321E+00
         -2   -1    0    0    0  501 -0.00000000000E+00  0.00000000000E+00  0.27156023090E+02  0.27156023090E+02  0.00000000000E+00 0. -1.
          2   -1    0    0  501    0  0.00000000000E+00 -0.00000000000E+00 -0.11903596653E+04  0.11903596653E+04  0.00000000000E+00 0.  1.
         23    2    1    2    0    0 -0.10694637594E+03  0.92559055614E+02 -0.55405370373E+03  0.58532526048E+03  0.12500179134E+03 0.  0.
         23    2    1    2    0    0  0.10694637594E+03 -0.92559055614E+02 -0.60914993849E+03  0.63219042792E+03  0.92716683976E+02 0.  0.
          5    1    3    3  502    0 -0.79566220863E+01  0.28418330973E+02 -0.33636236231E+03  0.33768718979E+03  0.47000000000E+01 0.  1.
         -5    1    3    3    0  502 -0.98989753855E+02  0.64140724641E+02 -0.21769134142E+03  0.24763807069E+03  0.47000000000E+01 0.  1.
        -11    1    4    4    0    0  0.24499951389E+02 -0.81848399790E+02 -0.33400109880E+03  0.34475519165E+03  0.00000000000E+00 0.  1.
         11    1    4    4    0    0  0.82446424552E+02 -0.10710655824E+02 -0.27514883969E+03  0.28743523628E+03  0.00000000000E+00 0. -1.
<mgrwt>
<rscale>  0 0.18364515E+03</rscale>
<asrwt>0</asrwt>
<pdfrwt beam="2">  1        2 0.18313225E+00 0.18875951E+03</pdfrwt>
<pdfrwt beam="1">  1       -2 0.41778498E-02 0.18875951E+03</pdfrwt>
<totfact> 0.51544405E+03</totfact>
</mgrwt>
</event>
<event>
 8    1  0.1033707E-005  0.1921642E+03  0.7546771E-02  0.1161787E+00
          2   -1    0    0  501    0  0.00000000000E+00  0.00000000000E+00  0.24751196246E+03  0.24751196246E+03  0.00000000000E+00 0. -1.
         -2   -1    0    0    0  501 -0.00000000000E+00 -0.00000000000E+00 -0.13829902707E+03  0.13829902707E+03  0.00000000000E+00 0.  1.
         23    2    1    2    0    0  0.81322779575E+02 -0.12122932427E+03  0.97365477247E+02  0.21542309236E+03  0.12496851211E+03 0.  0.
         23    2    1    2    0    0 -0.81322779575E+02  0.12122932427E+03  0.11847458150E+02  0.17038789717E+03  0.87073128444E+02 0.  0.
          5    1    3    3  502    0  0.11033560833E+03 -0.90590305535E+02  0.48865597224E+02  0.15096518312E+03  0.47000000000E+01 0. -1.
         -5    1    3    3    0  502 -0.29012828751E+02 -0.30639018739E+02  0.48499880023E+02  0.64457909240E+02  0.47000000000E+01 0. -1.
        -11    1    4    4    0    0 -0.93498913647E+02  0.84883543133E+02 -0.92743224853E+01  0.12662257226E+03  0.00000000000E+00 0.  1.
         11    1    4    4    0    0  0.12176134072E+02  0.36345781142E+02  0.21121780635E+02  0.43765324915E+02  0.00000000000E+00 0. -1.
<mgrwt>
<rscale>  0 0.18635923E+03</rscale>
<asrwt>0</asrwt>
<pdfrwt beam="1">  1        2 0.38078763E-01 0.19216418E+03</pdfrwt>
<pdfrwt beam="2">  1       -2 0.21276774E-01 0.19216418E+03</pdfrwt>
<totfact> 0.25070932E+03</totfact>
</mgrwt>
</event>
<event>
 7    1  0.1033707E-005  0.2196400E+03  0.7546771E-02  0.1150658E+00
         -1   -1    0    0    0  501 -0.00000000000E+00  0.00000000000E+00  0.15905869014E+03  0.15905869014E+03  0.00000000000E+00 0.  1.
          1   -1    0    0  501    0  0.00000000000E+00 -0.00000000000E+00 -0.26641285340E+03  0.26641285340E+03  0.00000000000E+00 0. -1.
         23    2    1    2    0    0  0.92276660900E+02 -0.70953526684E+02 -0.13984721105E+03  0.20344103546E+03  0.91003447049E+02 0.  0.
          5    1    1    2  502    0 -0.12543380717E+02 -0.33438373510E+02 -0.53834333220E+02  0.64774120265E+02  0.47000000000E+01 0. -1.
         -5    1    1    2    0  502 -0.79733280183E+02  0.10439190019E+03  0.86327381021E+02  0.15725638782E+03  0.47000000000E+01 0.  1.
        -11    1    3    3    0    0  0.58274051822E+02 -0.90970896372E+02 -0.96967875793E+02  0.14517003147E+03  0.00000000000E+00 0. -1.
         11    1    3    3    0    0  0.34002609079E+02  0.20017369688E+02 -0.42879335262E+02  0.58271003989E+02  0.00000000000E+00 0.  1.
<mgrwt>
<rscale>  0 0.19891516E+03</rscale>
<asrwt>0</asrwt>
<pdfrwt beam="2">  1        1 0.40986593E-01 0.21964004E+03</pdfrwt>
<pdfrwt beam="1">  1       -1 0.24470568E-01 0.21964004E+03</pdfrwt>
<totfact> 0.14635190E+03</totfact>
</mgrwt>
</event>
<event>
 8    1  0.1033707E-005  0.1948305E+03  0.7546771E-02  0.1158936E+00
          2   -1    0    0  501    0  0.00000000000E+00  0.00000000000E+00  0.25328770523E+03  0.25328770523E+03  0.00000000000E+00 0. -1.
         -2   -1    0    0    0  501 -0.00000000000E+00 -0.00000000000E+00 -0.13512197937E+03  0.13512197937E+03  0.00000000000E+00 0.  1.
         23    2    1    2    0    0  0.98176004265E+02  0.11268834946E+03  0.75838126952E+02  0.20907019662E+03  0.12498693410E+03 0.  0.
         23    2    1    2    0    0 -0.98176004265E+02 -0.11268834946E+03  0.42327598910E+02  0.17933948798E+03  0.89631659588E+02 0.  0.
          5    1    3    3  502    0  0.43330435123E+01  0.31571680297E+02  0.78561797880E+02  0.84909318387E+02  0.47000000000E+01 0. -1.
         -5    1    3    3    0  502  0.93842960753E+02  0.81116669166E+02 -0.27236709278E+01  0.12416087823E+03  0.47000000000E+01 0. -1.
        -11    1    4    4    0    0  0.10334928705E+02 -0.41486892231E+02  0.21627190202E+02  0.47913550634E+02  0.00000000000E+00 0. -1.
         11    1    4    4    0    0 -0.10851093297E+03 -0.71201457232E+02  0.20700408707E+02  0.13142593734E+03  0.00000000000E+00 0.  1.
<mgrwt>
<rscale>  0 0.18947423E+03</rscale>
<asrwt>0</asrwt>
<pdfrwt beam="1">  1        2 0.38967339E-01 0.19483050E+03</pdfrwt>
<pdfrwt beam="2">  1       -2 0.20787997E-01 0.19483050E+03</pdfrwt>
<totfact> 0.25463826E+03</totfact>
</mgrwt>
</event>
<event>
 8    1  0.1033707E-005  0.1319912E+03  0.7546771E-02  0.1241373E+00
         -2   -1    0    0    0  501 -0.00000000000E+00  0.00000000000E+00  0.13755264369E+03  0.13755264369E+03  0.00000000000E+00 0.  1.
          2   -1    0    0  501    0  0.00000000000E+00 -0.00000000000E+00 -0.10237676161E+03  0.10237676161E+03  0.00000000000E+00 0. -1.
         23    2    1    2    0    0  0.32925704394E+02 -0.26714233626E+02  0.57418937647E+02  0.14393962399E+03  0.12499571459E+03 0.  0.
         23    2    1    2    0    0 -0.32925704394E+02  0.26714233626E+02 -0.22243055563E+02  0.95989781304E+02  0.83195746922E+02 0.  0.
          5    1    3    3  502    0  0.30670453428E+02 -0.37418964736E+02 -0.29067115050E+02  0.56637821397E+02  0.47000000000E+01 0. -1.
         -5    1    3    3    0  502  0.22552509666E+01  0.10704731109E+02  0.86486052697E+02  0.87301802594E+02  0.47000000000E+01 0. -1.
        -11    1    4    4    0    0 -0.44321230314E+02  0.49925890856E+02 -0.21441837465E+02  0.70119315657E+02  0.00000000000E+00 0. -1.
         11    1    4    4    0    0  0.11395525919E+02 -0.23211657230E+02 -0.80121809807E+00  0.25870465647E+02  0.00000000000E+00 0.  1.
<mgrwt>
<rscale>  0 0.12105114E+03</rscale>
<asrwt>0</asrwt>
<pdfrwt beam="2">  1        2 0.15750271E-01 0.13199122E+03</pdfrwt>
<pdfrwt beam="1">  1       -2 0.21161945E-01 0.13199122E+03</pdfrwt>
<totfact> 0.66258821E+03</totfact>
</mgrwt>
</event>
<event>
 8    1  0.1033707E-005  0.1355590E+03  0.7546771E-02  0.1231457E+00
          2   -1    0    0  501    0  0.00000000000E+00  0.00000000000E+00  0.14833437820E+03  0.14833437820E+03  0.00000000000E+00 0. -1.
         -2   -1    0    0    0  501 -0.00000000000E+00 -0.00000000000E+00 -0.11021918129E+03  0.11021918129E+03  0.00000000000E+00 0.  1.
         23    2    1    2    0    0 -0.63478126285E+01  0.52053752366E+02 -0.21614113418E+02  0.13727126229E+03  0.12500536665E+03 0.  0.
         23    2    1    2    0    0  0.63478126285E+01 -0.52053752366E+02  0.59729310325E+02  0.12128229720E+03  0.91607408228E+02 0.  0.
          5    1    3    3  502    0 -0.15058608039E+02  0.18113413193E+02  0.51074608460E+02  0.56440792366E+02  0.47000000000E+01 0.  1.
         -5    1    3    3    0  502  0.87107954107E+01  0.33940339173E+02 -0.72688721878E+02  0.80830469924E+02  0.47000000000E+01 0.  1.
        -11    1    4    4    0    0  0.46635804753E+02 -0.35219381096E+02  0.49135515821E+02  0.76351830396E+02  0.00000000000E+00 0. -1.
         11    1    4    4    0    0 -0.40287992124E+02 -0.16834371270E+02  0.10593794504E+02  0.44930466807E+02  0.00000000000E+00 0.  1.
<mgrwt>
<rscale>  0 0.12734022E+03</rscale>
<asrwt>0</asrwt>
<pdfrwt beam="1">  1        2 0.22820674E-01 0.13555895E+03</pdfrwt>
<pdfrwt beam="2">  1       -2 0.16956797E-01 0.13555895E+03</pdfrwt>
<totfact> 0.63159534E+03</totfact>
</mgrwt>
</event>
<event>
 8    1  0.1033707E-005  0.1283252E+03  0.7546771E-02  0.1253017E+00
          3   -1    0    0  501    0  0.00000000000E+00  0.00000000000E+00  0.58496402422E+03  0.58496402422E+03  0.00000000000E+00 0. -1.
         -3   -1    0    0    0  501 -0.00000000000E+00 -0.00000000000E+00 -0.19671157395E+02  0.19671157395E+02  0.00000000000E+00 0.  1.
         23    2    1    2    0    0  0.92919623154E+01  0.27481733833E+02  0.27609270490E+03  0.30445778960E+03  0.12500311072E+03 0.  0.
         23    2    1    2    0    0 -0.92919623154E+01 -0.27481733833E+02  0.28920016192E+03  0.30017739202E+03  0.75020975486E+02 0.  0.
          5    1    3    3  502    0  0.33660507004E+02 -0.22029111204E+02  0.25596354324E+02  0.47912157402E+02  0.47000000000E+01 0. -1.
         -5    1    3    3    0  502 -0.24368544689E+02  0.49510845037E+02  0.25049635058E+03  0.25654563220E+03  0.47000000000E+01 0. -1.
        -11    1    4    4    0    0  0.29850118107E+02  0.40997551253E+01  0.10603689542E+03  0.11023457141E+03  0.00000000000E+00 0.  1.
         11    1    4    4    0    0 -0.39142080422E+02 -0.31581488958E+02  0.18316326650E+03  0.18994282061E+03  0.00000000000E+00 0. -1.
<mgrwt>
<rscale>  0 0.11418126E+03</rscale>
<asrwt>0</asrwt>
<pdfrwt beam="1">  1        3 0.89994452E-01 0.12832523E+03</pdfrwt>
<pdfrwt beam="2">  1       -3 0.30263323E-02 0.12832523E+03</pdfrwt>
<totfact> 0.13199270E+03</totfact>
</mgrwt>
</event>
<event>
 8    1  0.1033707E-005  0.1316882E+03  0.7546771E-02  0.1237716E+00
         -1   -1    0    0    0  501 -0.00000000000E+00  0.00000000000E+00  0.61056642548E+03  0.61056642548E+03  0.00000000000E+00 0.  1.
          1   -1    0    0  501    0  0.00000000000E+00 -0.00000000000E+00 -0.23970480385E+02  0.23970480385E+02  0.00000000000E+00 0. -1.
         23    2    1    2    0    0  0.24222925450E+02  0.33630514948E+02  0.41378515669E+03  0.43423489282E+03  0.12499609831E+03 0.  0.
         23    2    1    2    0    0 -0.24222925450E+02 -0.33630514948E+02  0.17281078841E+03  0.20030201305E+03  0.92409773225E+02 0.  0.
          5    1    3    3  502    0 -0.17773994352E+02  0.12973508271E+02  0.36768595655E+03  0.36837383110E+03  0.47000000000E+01 0.  1.
         -5    1    3    3    0  502  0.41996919802E+02  0.20657006678E+02  0.46099200135E+02  0.65861061719E+02  0.47000000000E+01 0.  1.
        -11    1    4    4    0    0 -0.22472646948E+02  0.59180756019E+01  0.23092859963E+00  0.23239982954E+02  0.00000000000E+00 0. -1.
         11    1    4    4    0    0 -0.17502785019E+01 -0.39548590550E+02  0.17257985981E+03  0.17706203009E+03  0.00000000000E+00 0.  1.
<mgrwt>
<rscale>  0 0.12332169E+03</rscale>
<asrwt>0</asrwt>
<pdfrwt beam="2">  1        1 0.36877667E-02 0.13168822E+03</pdfrwt>
<pdfrwt beam="1">  1       -1 0.93933284E-01 0.13168822E+03</pdfrwt>
<totfact> 0.28409845E+03</totfact>
</mgrwt>
</event>
<event>
 8    1  0.1033707E-005  0.1270326E+03  0.7546771E-02  0.1247149E+00
         -3   -1    0    0    0  501 -0.00000000000E+00  0.00000000000E+00  0.43902973006E+02  0.43902973006E+02  0.00000000000E+00 0.  1.
          3   -1    0    0  501    0  0.00000000000E+00 -0.00000000000E+00 -0.42267785085E+03  0.42267785085E+03  0.00000000000E+00 0. -1.
         23    2    1    2    0    0  0.10825640765E+02  0.19834999596E+02 -0.72140348351E+02  0.14608734864E+03  0.12500664728E+03 0.  0.
         23    2    1    2    0    0 -0.10825640765E+02 -0.19834999596E+02 -0.30663452949E+03  0.32049347522E+03  0.90447284500E+02 0.  0.
          5    1    3    3  502    0 -0.16031673153E+02  0.26949307533E+02 -0.10093552524E+03  0.10579862937E+03  0.47000000000E+01 0. -1.
         -5    1    3    3    0  502  0.26857313919E+02 -0.71143079365E+01  0.28795176889E+02  0.40288719270E+02  0.47000000000E+01 0. -1.
        -11    1    4    4    0    0 -0.20270762299E+02  0.31893827477E+02 -0.16857319019E+03  0.17275717202E+03  0.00000000000E+00 0.  1.
         11    1    4    4    0    0  0.94451215336E+01 -0.51728827073E+02 -0.13806133931E+03  0.14773630320E+03  0.00000000000E+00 0. -1.
<mgrwt>
<rscale>  0 0.11757696E+03</rscale>
<asrwt>0</asrwt>
<pdfrwt beam="2">  1        3 0.65027362E-01 0.12703261E+03</pdfrwt>
<pdfrwt beam="1">  1       -3 0.67543035E-02 0.12703261E+03</pdfrwt>
<totfact> 0.74901748E+02</totfact>
</mgrwt>
</event>
<event>
 8    1  0.1033707E-005  0.1454562E+03  0.7546771E-02  0.1216604E+00
         -1   -1    0    0    0  501 -0.00000000000E+00  0.00000000000E+00  0.42267200974E+03  0.42267200974E+03  0.00000000000E+00 0.  1.
          1   -1    0    0  501    0  0.00000000000E+00 -0.00000000000E+00 -0.77636974768E+02  0.77636974768E+02  0.00000000000E+00 0. -1.
         23    2    1    2    0    0  0.41204182544E+02  0.60411537397E+02  0.35477638501E+03  0.38343681837E+03  0.12573850569E+03 0.  0.
         23    2    1    2    0    0 -0.41204182544E+02 -0.60411537397E+02 -0.97413500381E+01  0.11687216613E+03  0.90646956962E+02 0.  0.
          5    1    3    3  502    0  0.67767154767E+02  0.33448964161E+02  0.32851942584E+03  0.33713250158E+03  0.47000000000E+01 0. -1.
         -5    1    3    3    0  502 -0.26562972223E+02  0.26962573235E+02  0.26256959172E+02  0.46304316794E+02  0.47000000000E+01 0.  1.
        -11    1    4    4    0    0  0.98721294513E+01 -0.49388397690E+02  0.22831478727E+02  0.55298726813E+02  0.00000000000E+00 0.  1.
         11    1    4    4    0    0 -0.51076311996E+02 -0.11023139707E+02 -0.32572828765E+02  0.61573439321E+02  0.00000000000E+00 0. -1.
<mgrwt>
<rscale>  0 0.13759369E+03</rscale>
<asrwt>0</asrwt>
<pdfrwt beam="2">  1        1 0.11944150E-01 0.14545621E+03</pdfrwt>
<pdfrwt beam="1">  1       -1 0.65026462E-01 0.14545621E+03</pdfrwt>
<totfact> 0.12339861E+03</totfact>
</mgrwt>
</event>
<event>
 8    1  0.1033707E-005  0.1418905E+03  0.7546771E-02  0.1211176E+00
         -2   -1    0    0    0  501 -0.00000000000E+00  0.00000000000E+00  0.15471561359E+03  0.15471561359E+03  0.00000000000E+00 0.  1.
          2   -1    0    0  501    0  0.00000000000E+00 -0.00000000000E+00 -0.16922173928E+03  0.16922173928E+03  0.00000000000E+00 0. -1.
         23    2    1    2    0    0  0.69872628780E+01  0.66760307433E+02  0.71579890517E+02  0.15892321169E+03  0.12500858369E+03 0.  0.
         23    2    1    2    0    0 -0.69872628780E+01 -0.66760307433E+02 -0.86086016212E+02  0.16501414118E+03  0.12374612766E+03 0.  0.
          5    1    3    3  502    0  0.64411390557E+02  0.40771564842E+02  0.24843806691E+02  0.80314708890E+02  0.47000000000E+01 0.  1.
         -5    1    3    3    0  502 -0.57424127679E+02  0.25988742591E+02  0.46736083826E+02  0.78608502801E+02  0.47000000000E+01 0.  1.
        -11    1    4    4    0    0  0.39077845799E+02  0.11524252609E+02 -0.13040191666E+01  0.40762567344E+02  0.00000000000E+00 0.  1.
         11    1    4    4    0    0 -0.46065108677E+02 -0.78284560042E+02 -0.84781997045E+02  0.12425157384E+03  0.00000000000E+00 0. -1.
<mgrwt>
<rscale>  0 0.14161191E+03</rscale>
<asrwt>0</asrwt>
<pdfrwt beam="2">  1        2 0.26034114E-01 0.14189047E+03</pdfrwt>
<pdfrwt beam="1">  1       -2 0.23802402E-01 0.14189047E+03</pdfrwt>
<totfact> 0.30810124E+03</totfact>
</mgrwt>
</event>
<event>
 7    1  0.1033707E-005  0.1345131E+03  0.7546771E-02  0.1235235E+00
         -2   -1    0    0    0  501 -0.00000000000E+00  0.00000000000E+00  0.21121264860E+03  0.21121264860E+03  0.00000000000E+00 0.  1.
          2   -1    0    0  501    0  0.00000000000E+00 -0.00000000000E+00 -0.73354498122E+02  0.73354498122E+02  0.00000000000E+00 0. -1.
         23    2    1    2    0    0 -0.36042774915E+02  0.21224121787E+02  0.12595503483E+02  0.10076155893E+03  0.90800330836E+02 0.  0.
          5    1    1    2  502    0 -0.19601356730E+02 -0.26707086568E+02 -0.11976571196E+02  0.35538850801E+02  0.47000000000E+01 0. -1.
         -5    1    1    2    0  502  0.55644131645E+02  0.54829647810E+01  0.13723921819E+03  0.14826673699E+03  0.47000000000E+01 0.  1.
        -11    1    3    3    0    0  0.25066282506E+02 -0.13568601890E+02 -0.32228960607E+01  0.28684709079E+02  0.00000000000E+00 0.  1.
         11    1    3    3    0    0 -0.61109057421E+02  0.34792723677E+02  0.15818399543E+02  0.72076849847E+02  0.00000000000E+00 0. -1.
<mgrwt>
<rscale>  0 0.12489415E+03</rscale>
<asrwt>0</asrwt>
<pdfrwt beam="2">  1        2 0.11285307E-01 0.13451306E+03</pdfrwt>
<pdfrwt beam="1">  1       -2 0.32494253E-01 0.13451306E+03</pdfrwt>
<totfact> 0.46321460E+03</totfact>
</mgrwt>
</event>
<event>
 8    1  0.1033707E-005  0.1368527E+03  0.7546771E-02  0.1228987E+00
          1   -1    0    0  501    0  0.00000000000E+00  0.00000000000E+00  0.75470492564E+03  0.75470492564E+03  0.00000000000E+00 0. -1.
         -1   -1    0    0    0  501 -0.00000000000E+00 -0.00000000000E+00 -0.21015010931E+02  0.21015010931E+02  0.00000000000E+00 0.  1.
         23    2    1    2    0    0 -0.45554747017E+02 -0.32075245355E+02  0.49838345484E+03  0.51683142552E+03  0.12499839199E+03 0.  0.
         23    2    1    2    0    0  0.45554747017E+02  0.32075245355E+02  0.23530645987E+03  0.25888851105E+03  0.92466614298E+02 0.  0.
          5    1    3    3  502    0 -0.40052231583E+02  0.31895414692E+02  0.92107853868E+02  0.10548670759E+03  0.47000000000E+01 0. -1.
         -5    1    3    3    0  502 -0.55025154339E+01 -0.63970660047E+02  0.40627560097E+03  0.41134471793E+03  0.47000000000E+01 0. -1.
        -11    1    4    4    0    0  0.28028149159E+02 -0.15860314679E+01  0.90858886130E+01  0.29506711321E+02  0.00000000000E+00 0.  1.
         11    1    4    4    0    0  0.17526597858E+02  0.33661276822E+02  0.22622057125E+03  0.22938179973E+03  0.00000000000E+00 0. -1.
<mgrwt>
<rscale>  0 0.12897334E+03</rscale>
<asrwt>0</asrwt>
<pdfrwt beam="1">  1        1 0.11610843E+00 0.13685267E+03</pdfrwt>
<pdfrwt beam="2">  1       -1 0.32330792E-02 0.13685267E+03</pdfrwt>
<totfact> 0.81916882E+03</totfact>
</mgrwt>
</event>
<event>
 8    1  0.1033707E-005  0.1251745E+03  0.7546771E-02  0.1250356E+00
          1   -1    0    0  501    0  0.00000000000E+00  0.00000000000E+00  0.15264970274E+03  0.15264970274E+03  0.00000000000E+00 0. -1.
         -1   -1    0    0    0  501 -0.00000000000E+00 -0.00000000000E+00 -0.88446737804E+02  0.88446737804E+02  0.00000000000E+00 0.  1.
         23    2    1    2    0    0  0.39072230803E+01  0.53321671336E+01 -0.68206138411E+01  0.12536016417E+03  0.12499980636E+03 0.  0.
         23    2    1    2    0    0 -0.39072230803E+01 -0.53321671336E+01  0.71023578779E+02  0.11573627637E+03  0.91141859360E+02 0.  0.
          5    1    3    3  502    0 -0.41553710169E+02  0.22448143552E+02  0.36679572523E+02  0.59984256420E+02  0.47000000000E+01 0.  1.
         -5    1    3    3    0  502  0.45460933249E+02 -0.17115976419E+02 -0.43500186364E+02  0.65375907752E+02  0.47000000000E+01 0.  1.
        -11    1    4    4    0    0  0.34483731025E+01  0.11467085350E+02 -0.19767552228E+02  0.23111500267E+02  0.00000000000E+00 0.  1.
         11    1    4    4    0    0 -0.73555961828E+01 -0.16799252484E+02  0.90791131007E+02  0.92624776106E+02  0.00000000000E+00 0. -1.
<mgrwt>
<rscale>  0 0.11570474E+03</rscale>
<asrwt>0</asrwt>
<pdfrwt beam="1">  1        1 0.23484570E-01 0.12517448E+03</pdfrwt>
<pdfrwt beam="2">  1       -1 0.13607190E-01 0.12517448E+03</pdfrwt>
<totfact> 0.73320276E+03</totfact>
</mgrwt>
</event>
<event>
 8    1  0.1033707E-005  0.1737353E+03  0.7546771E-02  0.1180247E+00
          2   -1    0    0  501    0  0.00000000000E+00  0.00000000000E+00  0.85059822965E+03  0.85059822965E+03  0.00000000000E+00 0. -1.
         -2   -1    0    0    0  501 -0.00000000000E+00 -0.00000000000E+00 -0.30974792868E+02  0.30974792868E+02  0.00000000000E+00 0.  1.
         23    2    1    2    0    0  0.12060301820E+03  0.36414884054E+01  0.44147950644E+03  0.47443451731E+03  0.12500243267E+03 0.  0.
         23    2    1    2    0    0 -0.12060301820E+03 -0.36414884054E+01  0.37814393035E+03  0.40713850521E+03  0.90612261473E+02 0.  0.
          5    1    3    3  502    0  0.48566113842E+02 -0.52622068608E+02  0.11664649760E+03  0.13695344071E+03  0.47000000000E+01 0.  1.
         -5    1    3    3    0  502  0.72036904359E+02  0.56263557013E+02  0.32483300884E+03  0.33748107661E+03  0.47000000000E+01 0.  1.
        -11    1    4    4    0    0 -0.57557175960E+02 -0.32651959083E+01  0.61566182920E+02  0.84343849142E+02  0.00000000000E+00 0.  1.
         11    1    4    4    0    0 -0.63045842241E+02 -0.37629249709E+00  0.31657774743E+03  0.32279465607E+03  0.00000000000E+00 0. -1.
<mgrwt>
<rscale>  0 0.16771963E+03</rscale>
<asrwt>0</asrwt>
<pdfrwt beam="1">  1        2 0.13086125E+00 0.17373531E+03</pdfrwt>
<pdfrwt beam="2">  1       -2 0.47653534E-02 0.17373531E+03</pdfrwt>
<totfact> 0.67573341E+03</totfact>
</mgrwt>
</event>
<event>
 8    1  0.1033707E-005  0.1425209E+03  0.7546771E-02  0.1220411E+00
          1   -1    0    0  501    0  0.00000000000E+00  0.00000000000E+00  0.74167567242E+02  0.74167567242E+02  0.00000000000E+00 0. -1.
         -1   -1    0    0    0  501 -0.00000000000E+00 -0.00000000000E+00 -0.24063810095E+03  0.24063810095E+03  0.00000000000E+00 0.  1.
         23    2    1    2    0    0  0.57327797897E+02 -0.37448033282E+02 -0.13492265442E+03  0.19625578899E+03  0.12499352154E+03 0.  0.
         23    2    1    2    0    0 -0.57327797897E+02  0.37448033282E+02 -0.31547879289E+02  0.11854987920E+03  0.91487559609E+02 0.  0.
          5    1    3    3  502    0  0.12054305041E+02  0.20717970668E+02 -0.11797608116E+03  0.12047815696E+03  0.47000000000E+01 0. -1.
         -5    1    3    3    0  502  0.45273492856E+02 -0.58166003950E+02 -0.16946573261E+02  0.75777632031E+02  0.47000000000E+01 0. -1.
        -11    1    4    4    0    0 -0.40410470557E+02  0.80891158329E+01  0.28148245010E+02  0.49907550758E+02  0.00000000000E+00 0. -1.
         11    1    4    4    0    0 -0.16917327340E+02  0.29358917449E+02 -0.59696124299E+02  0.68642328445E+02  0.00000000000E+00 0.  1.
<mgrwt>
<rscale>  0 0.13486426E+03</rscale>
<asrwt>0</asrwt>
<pdfrwt beam="1">  1        1 0.11410395E-01 0.14252092E+03</pdfrwt>
<pdfrwt beam="2">  1       -1 0.37021246E-01 0.14252092E+03</pdfrwt>
<totfact> 0.36633764E+03</totfact>
</mgrwt>
</event>
<event>
 7    1  0.1033707E-005  0.2349442E+03  0.7546771E-02  0.1134878E+00
          1   -1    0    0  501    0  0.00000000000E+00  0.00000000000E+00  0.44355682879E+03  0.44355682879E+03  0.00000000000E+00 0. -1.
         -1   -1    0    0    0  501 -0.00000000000E+00 -0.00000000000E+00 -0.10069023667E+03  0.10069023667E+03  0.00000000000E+00 0.  1.
         23    2    1    2    0    0  0.11709595679E+03 -0.10193282290E+03  0.21050192578E+03  0.27458211285E+03  0.83561429259E+02 0.  0.
          5    1    1    2  502    0  0.41909635702E+02  0.62477369483E+01  0.17225009923E+01  0.42667420725E+02  0.47000000000E+01 0. -1.
         -5    1    1    2    0  502 -0.15900559249E+03  0.95685085948E+02  0.13064216534E+03  0.22699753188E+03  0.47000000000E+01 0.  1.
        -11    1    3    3    0    0  0.11629134308E+03 -0.91003063422E+02  0.21651902616E+03  0.26207961141E+03  0.00000000000E+00 0. -1.
         11    1    3    3    0    0  0.80461370721E+00 -0.10929759474E+02 -0.60171003755E+01  0.12502501442E+02  0.00000000000E+00 0.  1.
<mgrwt>
<rscale>  0 0.21867098E+03</rscale>
<asrwt>0</asrwt>
<pdfrwt beam="1">  1        1 0.68239511E-01 0.23494421E+03</pdfrwt>
<pdfrwt beam="2">  1       -1 0.15490806E-01 0.23494421E+03</pdfrwt>
<totfact> 0.16109810E+03</totfact>
</mgrwt>
</event>
<event>
 8    1  0.1033707E-005  0.1412005E+03  0.7546771E-02  0.1221751E+00
          2   -1    0    0  501    0  0.00000000000E+00  0.00000000000E+00  0.33773413894E+03  0.33773413894E+03  0.00000000000E+00 0. -1.
         -2   -1    0    0    0  501 -0.00000000000E+00 -0.00000000000E+00 -0.49458033386E+02  0.49458033386E+02  0.00000000000E+00 0.  1.
         23    2    1    2    0    0 -0.62430700268E+02 -0.20380201634E+02  0.12960807738E+03  0.19166594417E+03  0.12499854191E+03 0.  0.
         23    2    1    2    0    0  0.62430700268E+02  0.20380201634E+02  0.15866802818E+03  0.19552622815E+03  0.93498758148E+02 0.  0.
          5    1    3    3  502    0  0.31470756205E+01 -0.16640403687E+02  0.12436997089E+03  0.12560567973E+03  0.47000000000E+01 0.  1.
         -5    1    3    3    0  502 -0.65577775888E+02 -0.37397979463E+01  0.52381064835E+01  0.66060264446E+02  0.47000000000E+01 0.  1.
        -11    1    4    4    0    0  0.41271635547E+02  0.52906726259E+01  0.16382888181E+03  0.16903029798E+03  0.00000000000E+00 0. -1.
         11    1    4    4    0    0  0.21159064721E+02  0.15089529008E+02 -0.51608536379E+01  0.26495930175E+02  0.00000000000E+00 0.  1.
<mgrwt>
<rscale>  0 0.13392114E+03</rscale>
<asrwt>0</asrwt>
<pdfrwt beam="1">  1        2 0.51959097E-01 0.14120050E+03</pdfrwt>
<pdfrwt beam="2">  1       -2 0.76089284E-02 0.14120050E+03</pdfrwt>
<totfact> 0.93502830E+03</totfact>
</mgrwt>
</event>
<event>
 8    1  0.1033707E-005  0.1270226E+03  0.7546771E-02  0.1245740E+00
          1   -1    0    0  501    0  0.00000000000E+00  0.00000000000E+00  0.32644559135E+02  0.32644559135E+02  0.00000000000E+00 0. -1.
         -1   -1    0    0    0  501 -0.00000000000E+00 -0.00000000000E+00 -0.47215607835E+03  0.47215607835E+03  0.00000000000E+00 0.  1.
         23    2    1    2    0    0 -0.19875302110E+02  0.10724958879E+02 -0.35469889898E+03  0.37675727951E+03  0.12499874539E+03 0.  0.
         23    2    1    2    0    0  0.19875302110E+02 -0.10724958879E+02 -0.84812620235E+02  0.12804335798E+03  0.93230191429E+02 0.  0.
          5    1    3    3  502    0  0.30284745496E+02  0.52087750768E+02 -0.14288781123E+03  0.15514288958E+03  0.47000000000E+01 0.  1.
         -5    1    3    3    0  502 -0.50160047606E+02 -0.41362791889E+02 -0.21181108775E+03  0.22161438993E+03  0.47000000000E+01 0.  1.
        -11    1    4    4    0    0 -0.23254687806E+02 -0.34694858392E+02 -0.59193614421E+02  0.72445825911E+02  0.00000000000E+00 0.  1.
         11    1    4    4    0    0  0.43129989916E+02  0.23969899513E+02 -0.25619005814E+02  0.55597532065E+02  0.00000000000E+00 0. -1.
<mgrwt>
<rscale>  0 0.11841195E+03</rscale>
<asrwt>0</asrwt>
<pdfrwt beam="1">  1        1 0.50222400E-02 0.12702259E+03</pdfrwt>
<pdfrwt beam="2">  1       -1 0.72639394E-01 0.12702259E+03</pdfrwt>
<totfact> 0.31566184E+03</totfact>
</mgrwt>
</event>
<event>
 8    1  0.1033707E-005  0.1865562E+03  0.7546771E-02  0.1162413E+00
          2   -1    0    0  501    0  0.00000000000E+00  0.00000000000E+00  0.32174011378E+02  0.32174011378E+02  0.00000000000E+00 0. -1.
         -2   -1    0    0    0  501 -0.00000000000E+00 -0.00000000000E+00 -0.10622853716E+04  0.10622853716E+04  0.00000000000E+00 0.  1.
         23    2    1    2    0    0 -0.69207553447E+02  0.11995227765E+03 -0.53247017353E+03  0.56420536077E+03  0.12499987625E+03 0.  0.
         23    2    1    2    0    0  0.69207553447E+02 -0.11995227765E+03 -0.49764118669E+03  0.53025402220E+03  0.11976787132E+03 0.  0.
          5    1    3    3  502    0 -0.10240587049E+01  0.11676424676E+03 -0.36667175750E+03  0.38484439162E+03  0.47000000000E+01 0. -1.
         -5    1    3    3    0  502 -0.68183494742E+02  0.31880308830E+01 -0.16579841603E+03  0.17936096915E+03  0.47000000000E+01 0. -1.
        -11    1    4    4    0    0  0.80914588247E+01 -0.12097636374E+03 -0.35239744476E+03  0.37267239147E+03  0.00000000000E+00 0. -1.
         11    1    4    4    0    0  0.61116094623E+02  0.10240860880E+01 -0.14524374193E+03  0.15758163073E+03  0.00000000000E+00 0.  1.
<mgrwt>
<rscale>  0 0.18568396E+03</rscale>
<asrwt>0</asrwt>
<pdfrwt beam="1">  1        2 0.49498468E-02 0.18655617E+03</pdfrwt>
<pdfrwt beam="2">  1       -2 0.16342856E+00 0.18655617E+03</pdfrwt>
<totfact> 0.39986086E+02</totfact>
</mgrwt>
</event>
<event>
 8    1  0.1033707E-005  0.2412338E+03  0.7546771E-02  0.1121453E+00
          2   -1    0    0  501    0  0.00000000000E+00  0.00000000000E+00  0.76159746612E+03  0.76159746612E+03  0.00000000000E+00 0.  1.
         -2   -1    0    0    0  501 -0.00000000000E+00 -0.00000000000E+00 -0.71953888657E+02  0.71953888657E+02  0.00000000000E+00 0. -1.
         23    2    1    2    0    0  0.19423730168E+03 -0.69568355078E+02  0.36823155077E+03  0.44021383435E+03  0.12500343826E+03 0.  0.
         23    2    1    2    0    0 -0.19423730168E+03  0.69568355078E+02  0.32141202670E+03  0.39333752043E+03  0.94025680976E+02 0.  0.
          5    1    3    3  502    0  0.53326113761E+02  0.35265626560E+02  0.12071178577E+03  0.13667759161E+03  0.47000000000E+01 0. -1.
         -5    1    3    3    0  502  0.14091118792E+03 -0.10483398164E+03  0.24751976500E+03  0.30353624273E+03  0.47000000000E+01 0. -1.
        -11    1    4    4    0    0 -0.15664326198E+02 -0.12994524658E+02  0.53448070347E+01  0.21042712482E+02  0.00000000000E+00 0. -1.
         11    1    4    4    0    0 -0.17857297548E+03  0.82562879737E+02  0.31606721966E+03  0.37229480795E+03  0.00000000000E+00 0.  1.
<mgrwt>
<rscale>  0 0.23752439E+03</rscale>
<asrwt>0</asrwt>
<pdfrwt beam="1">  1        2 0.11716884E+00 0.24123380E+03</pdfrwt>
<pdfrwt beam="2">  1       -2 0.11069830E-01 0.24123380E+03</pdfrwt>
<totfact> 0.21220415E+03</totfact>
</mgrwt>
</event>
<event>
 8    1  0.1033707E-005  0.1446303E+03  0.7546771E-02  0.1217068E+00
          2   -1    0    0  501    0  0.00000000000E+00  0.00000000000E+00  0.42741746746E+02  0.42741746746E+02  0.00000000000E+00 0. -1.
         -2   -1    0    0    0  501 -0.00000000000E+00 -0.00000000000E+00 -0.58858497807E+03  0.58858497807E+03  0.00000000000E+00 0.  1.
         23    2    1    2    0    0  0.64876105307E+02  0.32924808900E+02 -0.46970650237E+03  0.49146936315E+03  0.12499993787E+03 0.  0.
         23    2    1    2    0    0 -0.64876105307E+02 -0.32924808900E+02 -0.76136728952E+02  0.13985736166E+03  0.92034385064E+02 0.  0.
          5    1    3    3  502    0  0.10106897606E+03  0.30936309678E+02 -0.38366709984E+03  0.39798809867E+03  0.47000000000E+01 0.  1.
         -5    1    3    3    0  502 -0.36192870755E+02  0.19884992214E+01 -0.86039402529E+02  0.93481264488E+02  0.47000000000E+01 0.  1.
        -11    1    4    4    0    0  0.12978940001E+02 -0.28531005724E+02 -0.47247270248E+02  0.56698992205E+02  0.00000000000E+00 0.  1.
         11    1    4    4    0    0 -0.77855045308E+02 -0.43938031761E+01 -0.28889458704E+02  0.83158369456E+02  0.00000000000E+00 0. -1.
<mgrwt>
<rscale>  0 0.13725710E+03</rscale>
<asrwt>0</asrwt>
<pdfrwt beam="1">  1        2 0.65756538E-02 0.14463034E+03</pdfrwt>
<pdfrwt beam="2">  1       -2 0.90551529E-01 0.14463034E+03</pdfrwt>
<totfact> 0.11502051E+03</totfact>
</mgrwt>
</event>
<event>
 8    1  0.1033707E-005  0.1766799E+03  0.7546771E-02  0.1182479E+00
          1   -1    0    0  501    0  0.00000000000E+00  0.00000000000E+00  0.12365577355E+03  0.12365577355E+03  0.00000000000E+00 0. -1.
         -1   -1    0    0    0  501 -0.00000000000E+00 -0.00000000000E+00 -0.19866767042E+03  0.19866767042E+03  0.00000000000E+00 0.  1.
         23    2    1    2    0    0  0.11943625331E+03  0.36393978398E+02 -0.49578894648E+02  0.18350436219E+03  0.12500497542E+03 0.  0.
         23    2    1    2    0    0 -0.11943625331E+03 -0.36393978398E+02 -0.25433002218E+02  0.13881908178E+03  0.55085021503E+02 0.  0.
          5    1    3    3  502    0  0.12567089324E+03  0.66601691702E+02 -0.53558455673E+02  0.15205116547E+03  0.47000000000E+01 0. -1.
         -5    1    3    3    0  502 -0.62346399314E+01 -0.30207713303E+02  0.39795610249E+01  0.31453196722E+02  0.47000000000E+01 0. -1.
        -11    1    4    4    0    0 -0.49662637801E+02  0.10062598345E+02 -0.21079393860E+02  0.54881457017E+02  0.00000000000E+00 0.  1.
         11    1    4    4    0    0 -0.69773615512E+02 -0.46456576743E+02 -0.43536083574E+01  0.83937624758E+02  0.00000000000E+00 0. -1.
<mgrwt>
<rscale>  0 0.16563388E+03</rscale>
<asrwt>0</asrwt>
<pdfrwt beam="1">  1        1 0.19023965E-01 0.17667989E+03</pdfrwt>
<pdfrwt beam="2">  1       -1 0.30564257E-01 0.17667989E+03</pdfrwt>
<totfact> 0.26428190E+03</totfact>
</mgrwt>
</event>
<event>
 8    1  0.1033707E-005  0.1339115E+03  0.7546771E-02  0.1234274E+00
          2   -1    0    0  501    0  0.00000000000E+00  0.00000000000E+00  0.26954541219E+03  0.26954541219E+03  0.00000000000E+00 0.  1.
         -2   -1    0    0    0  501 -0.00000000000E+00 -0.00000000000E+00 -0.13206748412E+03  0.13206748412E+03  0.00000000000E+00 0. -1.
         23    2    1    2    0    0 -0.39428177813E+02 -0.28155176455E+02 -0.83398309708E+02  0.15775796292E+03  0.12483990402E+03 0.  0.
         23    2    1    2    0    0  0.39428177813E+02  0.28155176455E+02  0.22087623777E+03  0.24385493340E+03  0.91277713388E+02 0.  0.
          5    1    3    3  502    0 -0.10287257137E+02  0.47284427440E+02 -0.51141175645E+02  0.70563124818E+02  0.47000000000E+01 0. -1.
         -5    1    3    3    0  502 -0.29140920676E+02 -0.75439603895E+02 -0.32257134063E+02  0.87194838102E+02  0.47000000000E+01 0. -1.
        -11    1    4    4    0    0  0.28296524530E+02  0.57708434498E+02  0.99623542135E+02  0.11855718814E+03  0.00000000000E+00 0.  1.
         11    1    4    4    0    0  0.11131653283E+02 -0.29553258044E+02  0.12125269564E+03  0.12529774525E+03  0.00000000000E+00 0. -1.
<mgrwt>
<rscale>  0 0.12551030E+03</rscale>
<asrwt>0</asrwt>
<pdfrwt beam="1">  1        2 0.41468525E-01 0.13391153E+03</pdfrwt>
<pdfrwt beam="2">  1       -2 0.20318075E-01 0.13391153E+03</pdfrwt>
<totfact> 0.24411879E+03</totfact>
</mgrwt>
</event>
<event>
 8    1  0.1033707E-005  0.1555128E+03  0.7546771E-02  0.1203621E+00
          1   -1    0    0  501    0  0.00000000000E+00  0.00000000000E+00  0.58485180961E+03  0.58485180961E+03  0.00000000000E+00 0. -1.
         -1   -1    0    0    0  501 -0.00000000000E+00 -0.00000000000E+00 -0.34044017371E+02  0.34044017371E+02  0.00000000000E+00 0.  1.
         23    2    1    2    0    0 -0.30991803731E+02  0.87182759125E+02  0.27903382114E+03  0.31944341517E+03  0.12499158678E+03 0.  0.
         23    2    1    2    0    0  0.30991803731E+02 -0.87182759125E+02  0.27177397110E+03  0.29945241181E+03  0.85142998471E+02 0.  0.
          5    1    3    3  502    0 -0.96403931165E+01 -0.14238471277E+02 -0.37601621386E+01  0.18218124576E+02  0.47000000000E+01 0. -1.
         -5    1    3    3    0  502 -0.21351410615E+02  0.10142123040E+03  0.28279398328E+03  0.30122529059E+03  0.47000000000E+01 0. -1.
        -11    1    4    4    0    0  0.31903663255E+02 -0.15261544478E+02  0.27472932983E+02  0.44783038259E+02  0.00000000000E+00 0. -1.
         11    1    4    4    0    0 -0.91185952387E+00 -0.71921214646E+02  0.24430103811E+03  0.25466937356E+03  0.00000000000E+00 0.  1.
<mgrwt>
<rscale>  0 0.14746647E+03</rscale>
<asrwt>0</asrwt>
<pdfrwt beam="1">  1        1 0.89977194E-01 0.15551277E+03</pdfrwt>
<pdfrwt beam="2">  1       -1 0.52375416E-02 0.15551277E+03</pdfrwt>
<totfact> 0.58076911E+03</totfact>
</mgrwt>
</event>
<event>
 7    1  0.1033707E-005  0.1913170E+03  0.7546771E-02  0.1186223E+00
         -1   -1    0    0    0  501 -0.00000000000E+00  0.00000000000E+00  0.26108316047E+03  0.26108316047E+03  0.00000000000E+00 0.  1.
          1   -1    0    0  501    0  0.00000000000E+00 -0.00000000000E+00 -0.83616358132E+02  0.83616358132E+02  0.00000000000E+00 0. -1.
         23    2    1    2    0    0  0.38000468706E+02  0.12607808090E+02  0.30554703969E+02  0.10348309953E+03  0.90400052578E+02 0.  0.
          5    1    1    2  502    0 -0.46403279482E+02 -0.95775283891E+02  0.69540529956E+02  0.12721691970E+03  0.47000000000E+01 0. -1.
         -5    1    1    2    0  502  0.84028107761E+01  0.83167475801E+02  0.77371568415E+02  0.11399949938E+03  0.47000000000E+01 0.  1.
        -11    1    3    3    0    0  0.63788558115E+02 -0.72899440568E+01  0.10027011453E+02  0.64982031281E+02  0.00000000000E+00 0.  1.
         11    1    3    3    0    0 -0.25788089409E+02  0.19897752147E+02  0.20527692517E+02  0.38501068244E+02  0.00000000000E+00 0. -1.
<mgrwt>
<rscale>  0 0.16221114E+03</rscale>
<asrwt>0</asrwt>
<pdfrwt beam="2">  1        1 0.12864055E-01 0.19131700E+03</pdfrwt>
<pdfrwt beam="1">  1       -1 0.40166640E-01 0.19131700E+03</pdfrwt>
<totfact> 0.27512313E+03</totfact>
</mgrwt>
</event>
<event>
 8    1  0.1033707E-005  0.1368673E+03  0.7546771E-02  0.1229413E+00
          2   -1    0    0  501    0  0.00000000000E+00  0.00000000000E+00  0.12261494011E+03  0.12261494011E+03  0.00000000000E+00 0. -1.
         -2   -1    0    0    0  501 -0.00000000000E+00 -0.00000000000E+00 -0.12156566764E+03  0.12156566764E+03  0.00000000000E+00 0.  1.
         23    2    1    2    0    0  0.23233902988E+02  0.50674826860E+02 -0.57870105249E+01  0.13698954167E+03  0.12499957085E+03 0.  0.
         23    2    1    2    0    0 -0.23233902988E+02 -0.50674826860E+02  0.68362830014E+01  0.10719106608E+03  0.91298617491E+02 0.  0.
          5    1    3    3  502    0  0.71605493160E+02  0.51182406916E+02 -0.95091513254E+00  0.88147488155E+02  0.47000000000E+01 0. -1.
         -5    1    3    3    0  502 -0.48371590172E+02 -0.50758005595E+00 -0.48360953924E+01  0.48842053519E+02  0.47000000000E+01 0. -1.
        -11    1    4    4    0    0 -0.54407106337E+02 -0.30220092398E+02 -0.14950956083E+02  0.64007173756E+02  0.00000000000E+00 0.  1.
         11    1    4    4    0    0  0.31173203349E+02 -0.20454734462E+02  0.21787239084E+02  0.43183892319E+02  0.00000000000E+00 0. -1.
<mgrwt>
<rscale>  0 0.12868948E+03</rscale>
<asrwt>0</asrwt>
<pdfrwt beam="1">  1        2 0.18863837E-01 0.13686725E+03</pdfrwt>
<pdfrwt beam="2">  1       -2 0.18702410E-01 0.13686725E+03</pdfrwt>
<totfact> 0.66513748E+03</totfact>
</mgrwt>
</event>
<event>
 8    1  0.1033707E-005  0.1293560E+03  0.7546771E-02  0.1241141E+00
          2   -1    0    0  501    0  0.00000000000E+00  0.00000000000E+00  0.44512558734E+03  0.44512558734E+03  0.00000000000E+00 0. -1.
         -2   -1    0    0    0  501 -0.00000000000E+00 -0.00000000000E+00 -0.29486871165E+02  0.29486871165E+02  0.00000000000E+00 0.  1.
         23    2    1    2    0    0  0.17772717187E+02 -0.28140716976E+02  0.22752387178E+03  0.26172521499E+03  0.12500082600E+03 0.  0.
         23    2    1    2    0    0 -0.17772717187E+02  0.28140716976E+02  0.18811484439E+03  0.21288724352E+03  0.93946869794E+02 0.  0.
          5    1    3    3  502    0  0.22949059738E+02  0.44445707149E+02  0.13415465267E+03  0.14325376456E+03  0.47000000000E+01 0. -1.
         -5    1    3    3    0  502 -0.51763425507E+01 -0.72586424125E+02  0.93369219115E+02  0.11847145043E+03  0.47000000000E+01 0. -1.
        -11    1    4    4    0    0  0.13585730189E+02 -0.28687312752E+02  0.88234346846E+02  0.93770112195E+02  0.00000000000E+00 0.  1.
         11    1    4    4    0    0 -0.31358447376E+02  0.56828029728E+02  0.99880497545E+02  0.11911713132E+03  0.00000000000E+00 0. -1.
<mgrwt>
<rscale>  0 0.12119349E+03</rscale>
<asrwt>0</asrwt>
<pdfrwt beam="1">  1        2 0.68480855E-01 0.12935600E+03</pdfrwt>
<pdfrwt beam="2">  1       -2 0.45364420E-02 0.12935600E+03</pdfrwt>
<totfact> 0.15141107E+04</totfact>
</mgrwt>
</event>
<event>
 8    1  0.1033707E-005  0.2126801E+03  0.7546771E-02  0.1142644E+00
          1   -1    0    0  501    0  0.00000000000E+00  0.00000000000E+00  0.60977729099E+03  0.60977729099E+03  0.00000000000E+00 0. -1.
         -1   -1    0    0    0  501 -0.00000000000E+00 -0.00000000000E+00 -0.69692477212E+02  0.69692477212E+02  0.00000000000E+00 0.  1.
         23    2    1    2    0    0 -0.16651993177E+03  0.43350519005E+02  0.31849603226E+03  0.38297854340E+03  0.12499874786E+03 0.  0.
         23    2    1    2    0    0  0.16651993177E+03 -0.43350519005E+02  0.22158878151E+03  0.29649122479E+03  0.95902570949E+02 0.  0.
          5    1    3    3  502    0 -0.13909072115E+03  0.37380411357E+01  0.30076293533E+03  0.33142214007E+03  0.47000000000E+01 0. -1.
         -5    1    3    3    0  502 -0.27429210616E+02  0.39612477869E+02  0.17733096938E+02  0.51556403336E+02  0.47000000000E+01 0. -1.
        -11    1    4    4    0    0  0.17148406905E+03 -0.28298094083E+02  0.17237088557E+03  0.24478417077E+03  0.00000000000E+00 0.  1.
         11    1    4    4    0    0 -0.49641372851E+01 -0.15052424923E+02  0.49217895939E+02  0.51707054023E+02  0.00000000000E+00 0. -1.
<mgrwt>
<rscale>  0 0.20864444E+03</rscale>
<asrwt>0</asrwt>
<pdfrwt beam="1">  1        1 0.93811887E-01 0.21268014E+03</pdfrwt>
<pdfrwt beam="2">  1       -1 0.10721920E-01 0.21268014E+03</pdfrwt>
<totfact> 0.18704507E+03</totfact>
</mgrwt>
</event>
<event>
 8    1  0.1033707E-005  0.1322059E+03  0.7546771E-02  0.1241121E+00
         -2   -1    0    0    0  501 -0.00000000000E+00  0.00000000000E+00  0.18384483913E+02  0.18384483913E+02  0.00000000000E+00 0.  1.
          2   -1    0    0  501    0  0.00000000000E+00 -0.00000000000E+00 -0.74718885305E+03  0.74718885305E+03  0.00000000000E+00 0. -1.
         23    2    1    2    0    0  0.37592776633E+02  0.20969237290E+02 -0.31998580038E+03  0.34622149608E+03  0.12500194452E+03 0.  0.
         23    2    1    2    0    0 -0.37592776633E+02 -0.20969237290E+02 -0.40881856875E+03  0.41935184088E+03  0.82887987835E+02 0.  0.
          5    1    3    3  502    0  0.15790513266E+02  0.54029721467E+02 -0.29221605281E+03  0.29762537296E+03  0.47000000000E+01 0.  1.
         -5    1    3    3    0  502  0.21802263367E+02 -0.33060484176E+02 -0.27769747577E+02  0.48596123121E+02  0.47000000000E+01 0.  1.
        -11    1    4    4    0    0 -0.47666802039E+00 -0.47585488203E+02 -0.21998064499E+03  0.22506907844E+03  0.00000000000E+00 0. -1.
         11    1    4    4    0    0 -0.37116108613E+02  0.26616250912E+02 -0.18883792377E+03  0.19428276245E+03  0.00000000000E+00 0.  1.
<mgrwt>
<rscale>  0 0.12120586E+03</rscale>
<asrwt>0</asrwt>
<pdfrwt beam="2">  1        2 0.11495215E+00 0.13220595E+03</pdfrwt>
<pdfrwt beam="1">  1       -2 0.28283818E-02 0.13220595E+03</pdfrwt>
<totfact> 0.16963525E+04</totfact>
</mgrwt>
</event>
<event>
 8    1  0.1033707E-005  0.1688701E+03  0.7546771E-02  0.1185600E+00
         -1   -1    0    0    0  501 -0.00000000000E+00  0.00000000000E+00  0.15057221000E+03  0.15057221000E+03  0.00000000000E+00 0.  1.
          1   -1    0    0  501    0  0.00000000000E+00 -0.00000000000E+00 -0.33565292622E+03  0.33565292622E+03  0.00000000000E+00 0. -1.
         23    2    1    2    0    0 -0.49185381599E+02  0.10233678896E+03  0.77569273664E+02  0.18583352043E+03  0.12500033985E+03 0.  0.
         23    2    1    2    0    0  0.49185381599E+02 -0.10233678896E+03 -0.26264998988E+03  0.30039161578E+03  0.91422565627E+02 0.  0.
          5    1    3    3  502    0 -0.20925633961E+01  0.78246195565E+02  0.10093463591E+03  0.12781524427E+03  0.47000000000E+01 0. -1.
         -5    1    3    3    0  502 -0.47092818203E+02  0.24090593398E+02 -0.23365362243E+02  0.58018276166E+02  0.47000000000E+01 0. -1.
        -11    1    4    4    0    0  0.11998007066E+02  0.13518594822E+02 -0.11791760199E+02  0.21581246213E+02  0.00000000000E+00 0.  1.
         11    1    4    4    0    0  0.37187374533E+02 -0.11585538378E+03 -0.25085822969E+03  0.27881036957E+03  0.00000000000E+00 0. -1.
<mgrwt>
<rscale>  0 0.16277386E+03</rscale>
<asrwt>0</asrwt>
<pdfrwt beam="2">  1        1 0.51638911E-01 0.16887008E+03</pdfrwt>
<pdfrwt beam="1">  1       -1 0.23164956E-01 0.16887008E+03</pdfrwt>
<totfact> 0.11939166E+03</totfact>
</mgrwt>
</event>
<event>
 8    1  0.1033707E-005  0.1350011E+03  0.7546771E-02  0.1230177E+00
         -2   -1    0    0    0  501 -0.00000000000E+00  0.00000000000E+00  0.19027335933E+02  0.19027335933E+02  0.00000000000E+00 0.  1.
          2   -1    0    0  501    0  0.00000000000E+00 -0.00000000000E+00 -0.80000951867E+03  0.80000951867E+03  0.00000000000E+00 0. -1.
         23    2    1    2    0    0  0.42132189354E+02  0.28680476082E+02 -0.37804203613E+03  0.40142382168E+03  0.12501044934E+03 0.  0.
         23    2    1    2    0    0 -0.42132189354E+02 -0.28680476082E+02 -0.40294014661E+03  0.41761303292E+03  0.97170944366E+02 0.  0.
          5    1    3    3  502    0  0.52847565096E+02 -0.34096194027E+02 -0.25635793873E+03  0.26400170139E+03  0.47000000000E+01 0.  1.
         -5    1    3    3    0  502 -0.10715375741E+02  0.62776670109E+02 -0.12168409740E+03  0.13742212030E+03  0.47000000000E+01 0.  1.
        -11    1    4    4    0    0  0.27911418243E+02  0.66244170766E+01 -0.72001093705E+02  0.77505404099E+02  0.00000000000E+00 0.  1.
         11    1    4    4    0    0 -0.70043607597E+02 -0.35304893159E+02 -0.33093905290E+03  0.34010762882E+03  0.00000000000E+00 0. -1.
<mgrwt>
<rscale>  0 0.12818312E+03</rscale>
<asrwt>0</asrwt>
<pdfrwt beam="2">  1        2 0.12307836E+00 0.13500112E+03</pdfrwt>
<pdfrwt beam="1">  1       -2 0.29272831E-02 0.13500112E+03</pdfrwt>
<totfact> 0.14855138E+04</totfact>
</mgrwt>
</event>
<event>
 8    1  0.1033707E-005  0.2389879E+03  0.7546771E-02  0.1123500E+00
          2   -1    0    0  501    0  0.00000000000E+00  0.00000000000E+00  0.33058645618E+03  0.33058645618E+03  0.00000000000E+00 0. -1.
         -2   -1    0    0    0  501 -0.00000000000E+00 -0.00000000000E+00 -0.18187391484E+03  0.18187391484E+03  0.00000000000E+00 0.  1.
         23    2    1    2    0    0  0.19619851058E+03  0.54739578805E+02 -0.11098455030E+02  0.23924549191E+03  0.12499981062E+03 0.  0.
         23    2    1    2    0    0 -0.19619851058E+03 -0.54739578805E+02  0.15981099637E+03  0.27321487910E+03  0.87272782464E+02 0.  0.
          5    1    3    3  502    0 -0.76501614580E+00 -0.90513916606E+01  0.26828381075E+02  0.28711756682E+02  0.47000000000E+01 0. -1.
         -5    1    3    3    0  502  0.19696352673E+03  0.63790970465E+02 -0.37926836105E+02  0.21053373523E+03  0.47000000000E+01 0. -1.
        -11    1    4    4    0    0 -0.88266891559E+02  0.31971781027E+01  0.26602213644E+02  0.92243936734E+02  0.00000000000E+00 0. -1.
         11    1    4    4    0    0 -0.10793161902E+03 -0.57936756907E+02  0.13320878273E+03  0.18097094237E+03  0.00000000000E+00 0.  1.
<mgrwt>
<rscale>  0 0.23451720E+03</rscale>
<asrwt>0</asrwt>
<pdfrwt beam="1">  1        2 0.50859455E-01 0.23898793E+03</pdfrwt>
<pdfrwt beam="2">  1       -2 0.27980602E-01 0.23898793E+03</pdfrwt>
<totfact> 0.11408449E+03</totfact>
</mgrwt>
</event>
<event>
 6    1  0.1033707E-005  0.2956800E+03  0.7546771E-02  0.1137342E+00
         -2   -1    0    0    0  501 -0.00000000000E+00  0.00000000000E+00  0.18907546313E+04  0.18907546313E+04  0.00000000000E+00 0.  1.
          2   -1    0    0  501    0  0.00000000000E+00 -0.00000000000E+00 -0.19698437781E+02  0.19698437781E+02  0.00000000000E+00 0. -1.
          5    1    1    2  502    0  0.14339479564E-01 -0.49099308416E+02  0.31330165494E+02  0.58432966401E+02  0.47000000000E+01 0. -1.
         -5    1    1    2    0  502  0.85539816057E+01 -0.16890129065E+02  0.15607063423E+04  0.15608282494E+04  0.47000000000E+01 0.  1.
        -11    1    1    2    0    0  0.96634381101E+01  0.63782763300E+02  0.20400224249E+03  0.21395919675E+03  0.00000000000E+00 0. -1.
         11    1    1    2    0    0 -0.18231759195E+02  0.22066741807E+01  0.75017443240E+02  0.77232656594E+02  0.00000000000E+00 0.  1.
<mgrwt>
<rscale>  0 0.21542292E+03</rscale>
<asrwt>0</asrwt>
<pdfrwt beam="2">  1        2 0.30305304E-02 0.29567997E+03</pdfrwt>
<pdfrwt beam="1">  1       -2 0.29088518E+00 0.29567997E+03</pdfrwt>
<totfact> 0.12739081E+02</totfact>
</mgrwt>
</event>
<event>
 8    1  0.1033707E-005  0.2031078E+03  0.7546771E-02  0.1150866E+00
          1   -1    0    0  501    0  0.00000000000E+00  0.00000000000E+00  0.13156413583E+04  0.13156413583E+04  0.00000000000E+00 0. -1.
         -1   -1    0    0    0  501 -0.00000000000E+00 -0.00000000000E+00 -0.29937951467E+02  0.29937951467E+02  0.00000000000E+00 0.  1.
         23    2    1    2    0    0  0.14431949799E+03 -0.69274038045E+02  0.53678321638E+03  0.57392421995E+03  0.12500311601E+03 0.  0.
         23    2    1    2    0    0 -0.14431949799E+03  0.69274038045E+02  0.74892019048E+03  0.77165508985E+03  0.94568050236E+02 0.  0.
          5    1    3    3  502    0  0.72766597356E+02  0.21229333022E+02  0.31330651119E+03  0.32237977950E+03  0.47000000000E+01 0. -1.
         -5    1    3    3    0  502  0.71552900629E+02 -0.90503371067E+02  0.22347670519E+03  0.25154444046E+03  0.47000000000E+01 0. -1.
        -11    1    4    4    0    0 -0.12471523808E+03  0.32771016179E+02  0.67224556517E+03  0.68450122717E+03  0.00000000000E+00 0. -1.
         11    1    4    4    0    0 -0.19604259908E+02  0.36503021866E+02  0.76674625313E+02  0.87153862673E+02  0.00000000000E+00 0.  1.
<mgrwt>
<rscale>  0 0.19867015E+03</rscale>
<asrwt>0</asrwt>
<pdfrwt beam="1">  1        1 0.20240632E+00 0.20310783E+03</pdfrwt>
<pdfrwt beam="2">  1       -1 0.46058397E-02 0.20310783E+03</pdfrwt>
<totfact> 0.18954920E+03</totfact>
</mgrwt>
</event>
<event>
 8    1  0.1033707E-005  0.1328839E+03  0.7546771E-02  0.1236560E+00
         -2   -1    0    0    0  501 -0.00000000000E+00  0.00000000000E+00  0.80497062597E+02  0.80497062597E+02  0.00000000000E+00 0.  1.
          2   -1    0    0  501    0  0.00000000000E+00 -0.00000000000E+00 -0.20321598278E+03  0.20321598278E+03  0.00000000000E+00 0. -1.
         23    2    1    2    0    0 -0.51679595234E+01 -0.44755174526E+02 -0.11271754808E+02  0.13336106622E+03  0.12501355157E+03 0.  0.
         23    2    1    2    0    0  0.51679595234E+01  0.44755174526E+02 -0.11144716538E+03  0.15035197916E+03  0.90307881790E+02 0.  0.
          5    1    3    3  502    0 -0.46472067967E+02 -0.44031351229E+02  0.33378316728E+02  0.72350639387E+02  0.47000000000E+01 0. -1.
         -5    1    3    3    0  502  0.41304108443E+02 -0.72382329739E+00 -0.44650071536E+02  0.61010426835E+02  0.47000000000E+01 0. -1.
        -11    1    4    4    0    0 -0.83567380016E+01 -0.21585844150E+02 -0.42053782498E+01  0.23525920682E+02  0.00000000000E+00 0.  1.
         11    1    4    4    0    0  0.13524697525E+02  0.66341018676E+02 -0.10724178713E+03  0.12682605847E+03  0.00000000000E+00 0. -1.
<mgrwt>
<rscale>  0 0.12405110E+03</rscale>
<asrwt>0</asrwt>
<pdfrwt beam="2">  1        2 0.31263997E-01 0.13288386E+03</pdfrwt>
<pdfrwt beam="1">  1       -2 0.12384164E-01 0.13288386E+03</pdfrwt>
<totfact> 0.74516957E+03</totfact>
</mgrwt>
</event>
<event>
 8    1  0.1033707E-005  0.1269692E+03  0.7546771E-02  0.1247576E+00
         -2   -1    0    0    0  501 -0.00000000000E+00  0.00000000000E+00  0.10307548567E+03  0.10307548567E+03  0.00000000000E+00 0.  1.
          2   -1    0    0  501    0  0.00000000000E+00 -0.00000000000E+00 -0.12661322405E+03  0.12661322405E+03  0.00000000000E+00 0. -1.
         23    2    1    2    0    0  0.49229570620E+00  0.22280305496E+02  0.17977366921E+02  0.12823561779E+03  0.12499813431E+03 0.  0.
         23    2    1    2    0    0 -0.49229570620E+00 -0.22280305496E+02 -0.41515105294E+02  0.10145309193E+03  0.89847490369E+02 0.  0.
          5    1    3    3  502    0  0.59980322255E+02  0.82537750235E+01 -0.87641603099E+01  0.61356860789E+02  0.47000000000E+01 0. -1.
         -5    1    3    3    0  502 -0.59488026548E+02  0.14026530472E+02  0.26741527231E+02  0.66878757004E+02  0.47000000000E+01 0. -1.
        -11    1    4    4    0    0 -0.30950665616E+02 -0.34134578280E+02  0.30607985305E+01  0.46178800591E+02  0.00000000000E+00 0.  1.
         11    1    4    4    0    0  0.30458369909E+02  0.11854272784E+02 -0.44575903824E+02  0.55274291334E+02  0.00000000000E+00 0. -1.
<mgrwt>
<rscale>  0 0.11732528E+03</rscale>
<asrwt>0</asrwt>
<pdfrwt beam="2">  1        2 0.19478957E-01 0.12696924E+03</pdfrwt>
<pdfrwt beam="1">  1       -2 0.15857767E-01 0.12696924E+03</pdfrwt>
<totfact> 0.83853579E+03</totfact>
</mgrwt>
</event>
<event>
 8    1  0.1040794E-005  0.4137402E+03  0.7546771E-02  0.1039850E+00
         -2   -1    0    0    0  501 -0.00000000000E+00  0.00000000000E+00  0.76783283567E+02  0.76783283567E+02  0.00000000000E+00 0.  1.
          2   -1    0    0  501    0  0.00000000000E+00 -0.00000000000E+00 -0.22102435664E+04  0.22102435664E+04  0.00000000000E+00 0. -1.
         23    2    1    2    0    0  0.36892935568E+03 -0.13944408661E+03 -0.95082157722E+03  0.10369390497E+04  0.12500959291E+03 0.  0.
         23    2    1    2    0    0 -0.36892935568E+03  0.13944408661E+03 -0.11826387056E+04  0.12500878002E+04  0.92367080566E+02 0.  0.
          5    1    3    3  502    0  0.38380562053E+01 -0.12636068314E+02 -0.11761339858E+03  0.11844577842E+03  0.47000000000E+01 0.  1.
         -5    1    3    3    0  502  0.36509129947E+03 -0.12680801830E+03 -0.83320817863E+03  0.91849327128E+03  0.47000000000E+01 0.  1.
        -11    1    4    4    0    0 -0.55880273948E+02  0.38394134930E+02 -0.12157353584E+03  0.13920071563E+03  0.00000000000E+00 0.  1.
         11    1    4    4    0    0 -0.31304908173E+03  0.10104995168E+03 -0.10610651697E+04  0.11108870846E+04  0.00000000000E+00 0. -1.
<mgrwt>
<rscale>  0 0.41155647E+03</rscale>
<asrwt>0</asrwt>
<pdfrwt beam="2">  1        2 0.34003751E+00 0.41374016E+03</pdfrwt>
<pdfrwt beam="1">  1       -2 0.11812812E-01 0.41374016E+03</pdfrwt>
<totfact> 0.28468712E+02</totfact>
</mgrwt>
</event>
<event>
 8    1  0.1033707E-005  0.2439111E+03  0.7546771E-02  0.1120144E+00
         -1   -1    0    0    0  501 -0.00000000000E+00  0.00000000000E+00  0.82023237426E+02  0.82023237426E+02  0.00000000000E+00 0.  1.
          1   -1    0    0  501    0  0.00000000000E+00 -0.00000000000E+00 -0.13207823166E+04  0.13207823166E+04  0.00000000000E+00 0. -1.
         23    2    1    2    0    0  0.17619679181E+03  0.11321163913E+03 -0.14066219276E+03  0.28156430051E+03  0.12502167081E+03 0.  0.
         23    2    1    2    0    0 -0.17619679181E+03 -0.11321163913E+03 -0.10980968864E+04  0.11212412535E+04  0.86619812693E+02 0.  0.
          5    1    3    3  502    0  0.11539138308E+03  0.13549215746E+03 -0.91820042376E+02  0.20031551663E+03  0.47000000000E+01 0.  1.
         -5    1    3    3    0  502  0.60805408729E+02 -0.22280518326E+02 -0.48842150380E+02  0.81248783876E+02  0.47000000000E+01 0.  1.
        -11    1    4    4    0    0 -0.44379128702E+02 -0.76426445421E+02 -0.49328192512E+03  0.50113627515E+03  0.00000000000E+00 0. -1.
         11    1    4    4    0    0 -0.13181766310E+03 -0.36785193712E+02 -0.60481496125E+03  0.62010497832E+03  0.00000000000E+00 0.  1.
<mgrwt>
<rscale>  0 0.23947336E+03</rscale>
<asrwt>0</asrwt>
<pdfrwt beam="2">  1        1 0.20319726E+00 0.24391106E+03</pdfrwt>
<pdfrwt beam="1">  1       -1 0.12618961E-01 0.24391106E+03</pdfrwt>
<totfact> 0.40283806E+02</totfact>
</mgrwt>
</event>
<event>
 8    1  0.1033707E-005  0.1282794E+03  0.7546771E-02  0.1244162E+00
          1   -1    0    0  501    0  0.00000000000E+00  0.00000000000E+00  0.10500883145E+03  0.10500883145E+03  0.00000000000E+00 0. -1.
         -1   -1    0    0    0  501 -0.00000000000E+00 -0.00000000000E+00 -0.12065893781E+03  0.12065893781E+03  0.00000000000E+00 0.  1.
         23    2    1    2    0    0 -0.28342901618E+02 -0.52138825472E+01 -0.17752501708E+02  0.12950197695E+03  0.12500042430E+03 0.  0.
         23    2    1    2    0    0  0.28342901618E+02  0.52138825472E+01  0.21023953475E+01  0.96165792315E+02  0.91722052430E+02 0.  0.
          5    1    3    3  502    0  0.10493587840E+02  0.36949568787E+02 -0.50262727986E+02  0.63433570323E+02  0.47000000000E+01 0. -1.
         -5    1    3    3    0  502 -0.38836489458E+02 -0.42163451334E+02  0.32510226279E+02  0.66068406629E+02  0.47000000000E+01 0. -1.
        -11    1    4    4    0    0  0.53697298552E+02  0.14619875346E+02 -0.22094989322E+02  0.59877618356E+02  0.00000000000E+00 0.  1.
         11    1    4    4    0    0 -0.25354396934E+02 -0.94059927984E+01  0.24197384669E+02  0.36288173959E+02  0.00000000000E+00 0. -1.
<mgrwt>
<rscale>  0 0.11935674E+03</rscale>
<asrwt>0</asrwt>
<pdfrwt beam="1">  1        1 0.16155205E-01 0.12827942E+03</pdfrwt>
<pdfrwt beam="2">  1       -1 0.18562913E-01 0.12827942E+03</pdfrwt>
<totfact> 0.72531439E+03</totfact>
</mgrwt>
</event>
<event>
 8    1  0.1033707E-005  0.1282381E+03  0.7546771E-02  0.1245225E+00
         -1   -1    0    0    0  501 -0.00000000000E+00  0.00000000000E+00  0.37761788074E+03  0.37761788074E+03  0.00000000000E+00 0.  1.
          1   -1    0    0  501    0  0.00000000000E+00 -0.00000000000E+00 -0.35104702307E+02  0.35104702307E+02  0.00000000000E+00 0. -1.
         23    2    1    2    0    0  0.20614590159E+02  0.19911245742E+02  0.24850682677E+03  0.27964381751E+03  0.12499441062E+03 0.  0.
         23    2    1    2    0    0 -0.20614590159E+02 -0.19911245742E+02  0.94006351668E+02  0.13307876554E+03  0.89729285354E+02 0.  0.
          5    1    3    3  502    0  0.60877305115E+02 -0.26537016209E+02  0.12702914579E+03  0.14341810690E+03  0.47000000000E+01 0.  1.
         -5    1    3    3    0  502 -0.40262714956E+02  0.46448261951E+02  0.12147768098E+03  0.13622571060E+03  0.47000000000E+01 0.  1.
        -11    1    4    4    0    0 -0.52652292816E+02 -0.91176042986E+01  0.80613066016E+02  0.96715361031E+02  0.00000000000E+00 0.  1.
         11    1    4    4    0    0  0.32037702657E+02 -0.10793641443E+02  0.13393285653E+02  0.36363404512E+02  0.00000000000E+00 0. -1.
<mgrwt>
<rscale>  0 0.11871901E+03</rscale>
<asrwt>0</asrwt>
<pdfrwt beam="2">  1        1 0.54007237E-02 0.12823814E+03</pdfrwt>
<pdfrwt beam="1">  1       -1 0.58095056E-01 0.12823814E+03</pdfrwt>
<totfact> 0.44071991E+03</totfact>
</mgrwt>
</event>
<event>
 8    1  0.1033707E-005  0.2532332E+03  0.7546771E-02  0.1113658E+00
          1   -1    0    0  501    0  0.00000000000E+00  0.00000000000E+00  0.18388341154E+03  0.18388341154E+03  0.00000000000E+00 0. -1.
         -1   -1    0    0    0  501 -0.00000000000E+00 -0.00000000000E+00 -0.38818224906E+03  0.38818224906E+03  0.00000000000E+00 0.  1.
         23    2    1    2    0    0 -0.68943994332E+02  0.20913863925E+03 -0.21676270655E+03  0.33333638296E+03  0.12503930771E+03 0.  0.
         23    2    1    2    0    0  0.68943994332E+02 -0.20913863925E+03  0.12463869032E+02  0.23872927764E+03  0.91345909556E+02 0.  0.
          5    1    3    3  502    0 -0.95194013589E+02  0.93598519771E+02 -0.13006626569E+03  0.18644545207E+03  0.47000000000E+01 0. -1.
         -5    1    3    3    0  502  0.26250019257E+02  0.11554011948E+03 -0.86696440858E+02  0.14689093089E+03  0.47000000000E+01 0. -1.
        -11    1    4    4    0    0  0.55420408272E+02 -0.41902858189E+02 -0.69632242965E+01  0.69826625796E+02  0.00000000000E+00 0. -1.
         11    1    4    4    0    0  0.13523586060E+02 -0.16723578106E+03  0.19427093328E+02  0.16890265185E+03  0.00000000000E+00 0.  1.
<mgrwt>
<rscale>  0 0.24944154E+03</rscale>
<asrwt>0</asrwt>
<pdfrwt beam="1">  1        1 0.28289756E-01 0.25323324E+03</pdfrwt>
<pdfrwt beam="2">  1       -1 0.59720345E-01 0.25323324E+03</pdfrwt>
<totfact> 0.48078136E+02</totfact>
</mgrwt>
</event>
<event>
 8    1  0.1033707E-005  0.1377073E+03  0.7546771E-02  0.1228132E+00
         -2   -1    0    0    0  501 -0.00000000000E+00  0.00000000000E+00  0.20508254248E+03  0.20508254248E+03  0.00000000000E+00 0.  1.
          2   -1    0    0  501    0  0.00000000000E+00 -0.00000000000E+00 -0.74088224629E+02  0.74088224629E+02  0.00000000000E+00 0. -1.
         23    2    1    2    0    0 -0.57668508458E+02 -0.34464862777E+01  0.85697086384E+02  0.16219523983E+03  0.12500308026E+03 0.  0.
         23    2    1    2    0    0  0.57668508458E+02  0.34464862777E+01  0.45297231467E+02  0.11697552728E+03  0.91070849713E+02 0.  0.
          5    1    3    3  502    0 -0.72428165815E+02  0.43767781016E+02  0.36534579587E+02  0.92294763470E+02  0.47000000000E+01 0. -1.
         -5    1    3    3    0  502  0.14759657357E+02 -0.47214267294E+02  0.49162506798E+02  0.69900476365E+02  0.47000000000E+01 0. -1.
        -11    1    4    4    0    0  0.26005623883E+02 -0.13463203405E+02  0.68319910412E+02  0.74331423221E+02  0.00000000000E+00 0.  1.
         11    1    4    4    0    0  0.31662884575E+02  0.16909689683E+02 -0.23022678945E+02  0.42644104054E+02  0.00000000000E+00 0. -1.
<mgrwt>
<rscale>  0 0.12954538E+03</rscale>
<asrwt>0</asrwt>
<pdfrwt beam="2">  1        2 0.11398189E-01 0.13770732E+03</pdfrwt>
<pdfrwt beam="1">  1       -2 0.31551160E-01 0.13770732E+03</pdfrwt>
<totfact> 0.48359796E+03</totfact>
</mgrwt>
</event>
<event>
 8    1  0.1033707E-005  0.1865618E+03  0.7546771E-02  0.1166849E+00
          2   -1    0    0  501    0  0.00000000000E+00  0.00000000000E+00  0.10702063375E+04  0.10702063375E+04  0.00000000000E+00 0. -1.
         -2   -1    0    0    0  501 -0.00000000000E+00 -0.00000000000E+00 -0.32830942677E+02  0.32830942677E+02  0.00000000000E+00 0.  1.
         23    2    1    2    0    0 -0.13190883082E+03 -0.42191569925E+02  0.35614556478E+03  0.40205096467E+03  0.12500098665E+03 0.  0.
         23    2    1    2    0    0  0.13190883082E+03  0.42191569925E+02  0.68122983000E+03  0.70098631546E+03  0.90153563203E+02 0.  0.
          5    1    3    3  502    0 -0.15061415737E+03 -0.33937501260E+02  0.25012281411E+03  0.29397260167E+03  0.47000000000E+01 0. -1.
         -5    1    3    3    0  502  0.18705326552E+02 -0.82540686653E+01  0.10602275066E+03  0.10807836300E+03  0.47000000000E+01 0. -1.
        -11    1    4    4    0    0  0.47686912062E+02  0.60553781324E+02  0.37595785882E+03  0.38377742719E+03  0.00000000000E+00 0.  1.
         11    1    4    4    0    0  0.84221918758E+02 -0.18362211399E+02  0.30527197119E+03  0.31720888827E+03  0.00000000000E+00 0. -1.
<mgrwt>
<rscale>  0 0.18098926E+03</rscale>
<asrwt>0</asrwt>
<pdfrwt beam="1">  1        2 0.16464710E+00 0.18656183E+03</pdfrwt>
<pdfrwt beam="2">  1       -2 0.50509151E-02 0.18656183E+03</pdfrwt>
<totfact> 0.45376793E+03</totfact>
</mgrwt>
</event>
<event>
 8    1  0.1033707E-005  0.1345814E+03  0.7546771E-02  0.1230305E+00
          1   -1    0    0  501    0  0.00000000000E+00  0.00000000000E+00  0.65109248404E+03  0.65109248404E+03  0.00000000000E+00 0. -1.
         -1   -1    0    0    0  501 -0.00000000000E+00 -0.00000000000E+00 -0.26392379160E+02  0.26392379160E+02  0.00000000000E+00 0.  1.
         23    2    1    2    0    0 -0.32005342363E+02 -0.38283288143E+02  0.21927981940E+03  0.25728544658E+03  0.12498883844E+03 0.  0.
         23    2    1    2    0    0  0.32005342363E+02  0.38283288143E+02  0.40542028548E+03  0.42019941663E+03  0.98549428004E+02 0.  0.
          5    1    3    3  502    0 -0.23257623273E+02 -0.42776237794E+02  0.23395009827E+03  0.23900933463E+03  0.47000000000E+01 0.  1.
         -5    1    3    3    0  502 -0.87477190904E+01  0.44929496506E+01 -0.14670278870E+02  0.18276111949E+02  0.47000000000E+01 0.  1.
        -11    1    4    4    0    0  0.43150469932E+02 -0.22214591449E+02  0.16093818036E+03  0.16809684419E+03  0.00000000000E+00 0.  1.
         11    1    4    4    0    0 -0.11145127569E+02  0.60497879592E+02  0.24448210512E+03  0.25210257244E+03  0.00000000000E+00 0. -1.
<mgrwt>
<rscale>  0 0.12809804E+03</rscale>
<asrwt>0</asrwt>
<pdfrwt beam="1">  1        1 0.10016806E+00 0.13458143E+03</pdfrwt>
<pdfrwt beam="2">  1       -1 0.40603665E-02 0.13458143E+03</pdfrwt>
<totfact> 0.72422476E+03</totfact>
</mgrwt>
</event>
<event>
 8    1  0.1033707E-005  0.1300181E+03  0.7546771E-02  0.1241266E+00
         -4   -1    0    0    0  501 -0.00000000000E+00  0.00000000000E+00  0.14522540731E+02  0.14522540731E+02  0.00000000000E+00 0.  1.
          4   -1    0    0  501    0  0.00000000000E+00 -0.00000000000E+00 -0.89448388130E+03  0.89448388130E+03  0.00000000000E+00 0. -1.
         23    2    1    2    0    0 -0.20225035458E+02 -0.29521348788E+02 -0.50877255770E+03  0.52512305407E+03  0.12499657737E+03 0.  0.
         23    2    1    2    0    0  0.20225035458E+02  0.29521348788E+02 -0.37118878287E+03  0.38388336796E+03  0.91130486534E+02 0.  0.
          5    1    3    3  502    0 -0.25842869055E+02  0.46511556264E+02 -0.19458984267E+03  0.20178819494E+03  0.47000000000E+01 0.  1.
         -5    1    3    3    0  502  0.56178335966E+01 -0.76032905052E+02 -0.31418271503E+03  0.32333485913E+03  0.47000000000E+01 0.  1.
        -11    1    4    4    0    0  0.43452235818E+02 -0.12847305418E+02 -0.23621905175E+03  0.24052565448E+03  0.00000000000E+00 0. -1.
         11    1    4    4    0    0 -0.23227200360E+02  0.42368654206E+02 -0.13496973112E+03  0.14335771348E+03  0.00000000000E+00 0.  1.
<mgrwt>
<rscale>  0 0.12111662E+03</rscale>
<asrwt>0</asrwt>
<pdfrwt beam="2">  1        4 0.13761291E+00 0.13001810E+03</pdfrwt>
<pdfrwt beam="1">  1       -4 0.22342370E-02 0.13001810E+03</pdfrwt>
<totfact> 0.55933624E+02</totfact>
</mgrwt>
</event>
<event>
 7    1  0.1033707E-005  0.1644769E+03  0.7546771E-02  0.1208089E+00
          4   -1    0    0  501    0  0.00000000000E+00  0.00000000000E+00  0.61463105543E+02  0.61463105543E+02  0.00000000000E+00 0. -1.
         -4   -1    0    0    0  501 -0.00000000000E+00 -0.00000000000E+00 -0.36508093578E+03  0.36508093578E+03  0.00000000000E+00 0.  1.
         23    2    1    2    0    0  0.23160524970E+02  0.21558929450E+02 -0.19864447914E+02  0.98567448271E+02  0.91212653792E+02 0.  0.
          5    1    1    2  502    0 -0.77725732846E+02  0.20580360841E+02 -0.82962413140E+02  0.11562738773E+03  0.47000000000E+01 0. -1.
         -5    1    1    2    0  502  0.54565207875E+02 -0.42139290291E+02 -0.20079096918E+03  0.21234920532E+03  0.47000000000E+01 0.  1.
        -11    1    3    3    0    0  0.56984330818E+00 -0.28739313202E+02  0.15896407362E+02  0.32847657629E+02  0.00000000000E+00 0.  1.
         11    1    3    3    0    0  0.22590681662E+02  0.50298242652E+02 -0.35760855276E+02  0.65719790641E+02  0.00000000000E+00 0. -1.
<mgrwt>
<rscale>  0 0.14396644E+03</rscale>
<asrwt>0</asrwt>
<pdfrwt beam="1">  1        4 0.94558624E-02 0.16447694E+03</pdfrwt>
<pdfrwt beam="2">  1       -4 0.56166298E-01 0.16447694E+03</pdfrwt>
<totfact> 0.43774432E+02</totfact>
</mgrwt>
</event>
<event>
 8    1  0.1033707E-005  0.1483553E+03  0.7546771E-02  0.1211105E+00
         -1   -1    0    0    0  501 -0.00000000000E+00  0.00000000000E+00  0.55675713740E+02  0.55675713740E+02  0.00000000000E+00 0.  1.
          1   -1    0    0  501    0  0.00000000000E+00 -0.00000000000E+00 -0.47052863807E+03  0.47052863807E+03  0.00000000000E+00 0. -1.
         23    2    1    2    0    0 -0.75568450766E+02  0.25723813392E+02 -0.78283626222E+02  0.16774274170E+03  0.12504797452E+03 0.  0.
         23    2    1    2    0    0  0.75568450766E+02 -0.25723813392E+02 -0.33656929811E+03  0.35846161011E+03  0.94040034915E+02 0.  0.
          5    1    3    3  502    0 -0.55610946628E+02 -0.22149965308E+02  0.14112162236E+02  0.61680154596E+02  0.47000000000E+01 0. -1.
         -5    1    3    3    0  502 -0.19957504138E+02  0.47873778700E+02 -0.92395788458E+02  0.10606258710E+03  0.47000000000E+01 0. -1.
        -11    1    4    4    0    0  0.12306878971E+02  0.33995207135E+02 -0.10837073498E+03  0.11424250338E+03  0.00000000000E+00 0.  1.
         11    1    4    4    0    0  0.63261571795E+02 -0.59719020527E+02 -0.22819856313E+03  0.24421910673E+03  0.00000000000E+00 0. -1.
<mgrwt>
<rscale>  0 0.14166557E+03</rscale>
<asrwt>0</asrwt>
<pdfrwt beam="2">  1        1 0.72389023E-01 0.14835532E+03</pdfrwt>
<pdfrwt beam="1">  1       -1 0.85654942E-02 0.14835532E+03</pdfrwt>
<totfact> 0.36930108E+03</totfact>
</mgrwt>
</event>
<event>
 8    1  0.1033707E-005  0.1321819E+03  0.7546771E-02  0.1237266E+00
          2   -1    0    0  501    0  0.00000000000E+00  0.00000000000E+00  0.12160167739E+03  0.12160167739E+03  0.00000000000E+00 0. -1.
         -2   -1    0    0    0  501 -0.00000000000E+00 -0.00000000000E+00 -0.12335160032E+03  0.12335160032E+03  0.00000000000E+00 0.  1.
         23    2    1    2    0    0  0.41093979371E+02  0.12715981792E+02 -0.38070602767E+02  0.13755518921E+03  0.12498659108E+03 0.  0.
         23    2    1    2    0    0 -0.41093979371E+02 -0.12715981792E+02  0.36320679841E+02  0.10739808851E+03  0.91458986967E+02 0.  0.
          5    1    3    3  502    0  0.43769204875E+02 -0.56918085105E-01 -0.81137370103E+02  0.92309855174E+02  0.47000000000E+01 0. -1.
         -5    1    3    3    0  502 -0.26752255035E+01  0.12772899878E+02  0.43066767336E+02  0.45245334031E+02  0.47000000000E+01 0. -1.
        -11    1    4    4    0    0  0.16253768024E+02  0.11605840729E+02 -0.16359352807E+02  0.25816834397E+02  0.00000000000E+00 0.  1.
         11    1    4    4    0    0 -0.57347747396E+02 -0.24321822522E+02  0.52680032648E+02  0.81581254109E+02  0.00000000000E+00 0. -1.
<mgrwt>
<rscale>  0 0.12360461E+03</rscale>
<asrwt>0</asrwt>
<pdfrwt beam="1">  1        2 0.18707950E-01 0.13218192E+03</pdfrwt>
<pdfrwt beam="2">  1       -2 0.18977169E-01 0.13218192E+03</pdfrwt>
<totfact> 0.65361790E+03</totfact>
</mgrwt>
</event>
<event>
 8    1  0.1033707E-005  0.1293566E+03  0.7546771E-02  0.1242515E+00
          1   -1    0    0  501    0  0.00000000000E+00  0.00000000000E+00  0.33138658048E+03  0.33138658048E+03  0.00000000000E+00 0. -1.
         -1   -1    0    0    0  501 -0.00000000000E+00 -0.00000000000E+00 -0.49175896995E+02  0.49175896995E+02  0.00000000000E+00 0.  1.
         23    2    1    2    0    0  0.12451831083E+02  0.30874120598E+02  0.69587087784E+02  0.14688594351E+03  0.12499943278E+03 0.  0.
         23    2    1    2    0    0 -0.12451831083E+02 -0.30874120598E+02  0.21262359570E+03  0.23367653397E+03  0.91036639093E+02 0.  0.
          5    1    3    3  502    0  0.17444418934E+02  0.49202573516E+02 -0.19311508596E+02  0.55858977406E+02  0.47000000000E+01 0.  1.
         -5    1    3    3    0  502 -0.49925878503E+01 -0.18328452918E+02  0.88898596380E+02  0.91026966104E+02  0.47000000000E+01 0.  1.
        -11    1    4    4    0    0 -0.33349488575E+02 -0.22103908200E+02  0.20630500670E+03  0.21014882092E+03  0.00000000000E+00 0. -1.
         11    1    4    4    0    0  0.20897657492E+02 -0.87702123977E+01  0.63185890039E+01  0.23527713045E+02  0.00000000000E+00 0.  1.
<mgrwt>
<rscale>  0 0.12035352E+03</rscale>
<asrwt>0</asrwt>
<pdfrwt beam="1">  1        1 0.50982549E-01 0.12935655E+03</pdfrwt>
<pdfrwt beam="2">  1       -1 0.75655228E-02 0.12935655E+03</pdfrwt>
<totfact> 0.68830000E+03</totfact>
</mgrwt>
</event>
<event>
 8    1  0.1033707E-005  0.1297634E+03  0.7546771E-02  0.1240901E+00
          1   -1    0    0  501    0  0.00000000000E+00  0.00000000000E+00  0.27869737950E+03  0.27869737950E+03  0.00000000000E+00 0. -1.
         -1   -1    0    0    0  501 -0.00000000000E+00 -0.00000000000E+00 -0.60741662237E+02  0.60741662237E+02  0.00000000000E+00 0.  1.
         23    2    1    2    0    0 -0.14550516130E+02 -0.31651851425E+02  0.40162149166E+02  0.13583641706E+03  0.12499990702E+03 0.  0.
         23    2    1    2    0    0  0.14550516130E+02  0.31651851425E+02  0.17779356810E+03  0.20360262468E+03  0.92897355729E+02 0.  0.
          5    1    3    3  502    0 -0.60635619728E+02 -0.94492187364E+01  0.54814290025E+02  0.82417610409E+02  0.47000000000E+01 0. -1.
         -5    1    3    3    0  502  0.46085103599E+02 -0.22202632689E+02 -0.14652140859E+02  0.53418806648E+02  0.47000000000E+01 0. -1.
        -11    1    4    4    0    0  0.21488830379E+00  0.61223722193E+02  0.82041698879E+02  0.10236811364E+03  0.00000000000E+00 0.  1.
         11    1    4    4    0    0  0.14335627826E+02 -0.29571870767E+02  0.95751869217E+02  0.10123451103E+03  0.00000000000E+00 0. -1.
<mgrwt>
<rscale>  0 0.12134103E+03</rscale>
<asrwt>0</asrwt>
<pdfrwt beam="1">  1        1 0.42876519E-01 0.12976338E+03</pdfrwt>
<pdfrwt beam="2">  1       -1 0.93448713E-02 0.12976338E+03</pdfrwt>
<totfact> 0.61989616E+03</totfact>
</mgrwt>
</event>
<event>
 8    1  0.1033707E-005  0.1318338E+03  0.7546771E-02  0.1238445E+00
          1   -1    0    0  501    0  0.00000000000E+00  0.00000000000E+00  0.61166967460E+02  0.61166967460E+02  0.00000000000E+00 0. -1.
         -1   -1    0    0    0  501 -0.00000000000E+00 -0.00000000000E+00 -0.22133810438E+03  0.22133810438E+03  0.00000000000E+00 0.  1.
         23    2    1    2    0    0  0.12562890378E+02  0.39987810807E+02 -0.10660006085E+03  0.16953971242E+03  0.12499315936E+03 0.  0.
         23    2    1    2    0    0 -0.12562890378E+02 -0.39987810807E+02 -0.53571076070E+02  0.11296535942E+03  0.90191246860E+02 0.  0.
          5    1    3    3  502    0 -0.33505257985E+02  0.56578248941E+02 -0.10019243449E+03  0.11993462592E+03  0.47000000000E+01 0.  1.
         -5    1    3    3    0  502  0.46068148362E+02 -0.16590438134E+02 -0.64076263620E+01  0.49605086499E+02  0.47000000000E+01 0.  1.
        -11    1    4    4    0    0 -0.14515370004E+02  0.20185814028E+02 -0.45995576882E+02  0.52285333957E+02  0.00000000000E+00 0.  1.
         11    1    4    4    0    0  0.19524796262E+01 -0.60173624835E+02 -0.75754991880E+01  0.60680025465E+02  0.00000000000E+00 0. -1.
<mgrwt>
<rscale>  0 0.12286459E+03</rscale>
<asrwt>0</asrwt>
<pdfrwt beam="1">  1        1 0.94103027E-02 0.13183376E+03</pdfrwt>
<pdfrwt beam="2">  1       -1 0.34052016E-01 0.13183376E+03</pdfrwt>
<totfact> 0.54328175E+03</totfact>
</mgrwt>
</event>
<event>
 8    1  0.1033707E-005  0.1506030E+03  0.7546771E-02  0.1207052E+00
         -2   -1    0    0    0  501 -0.00000000000E+00  0.00000000000E+00  0.12626274942E+03  0.12626274942E+03  0.00000000000E+00 0.  1.
          2   -1    0    0  501    0  0.00000000000E+00 -0.00000000000E+00 -0.16280795764E+03  0.16280795764E+03  0.00000000000E+00 0. -1.
         23    2    1    2    0    0  0.77335641252E+02 -0.32803906470E+02  0.13234281550E+02  0.15118341429E+03  0.12499752342E+03 0.  0.
         23    2    1    2    0    0 -0.77335641252E+02  0.32803906470E+02 -0.49779489765E+02  0.13788729277E+03  0.97355072896E+02 0.  0.
          5    1    3    3  502    0  0.24612363961E+01 -0.23888094139E+02 -0.48037309393E+02  0.53910776473E+02  0.47000000000E+01 0.  1.
         -5    1    3    3    0  502  0.74874404856E+02 -0.89158123305E+01  0.61271590942E+02  0.97272637821E+02  0.47000000000E+01 0.  1.
        -11    1    4    4    0    0 -0.73713250260E+02  0.18677712369E+02  0.96883414590E+01  0.76657446888E+02  0.00000000000E+00 0.  1.
         11    1    4    4    0    0 -0.36223909927E+01  0.14126194101E+02 -0.59467831224E+02  0.61229845882E+02  0.00000000000E+00 0. -1.
<mgrwt>
<rscale>  0 0.14476899E+03</rscale>
<asrwt>0</asrwt>
<pdfrwt beam="2">  1        2 0.25047378E-01 0.15060305E+03</pdfrwt>
<pdfrwt beam="1">  1       -2 0.19425039E-01 0.15060305E+03</pdfrwt>
<totfact> 0.45678233E+03</totfact>
</mgrwt>
</event>
<event>
 8    1  0.1033707E-005  0.1501616E+03  0.7546771E-02  0.1207859E+00
          2   -1    0    0  501    0  0.00000000000E+00  0.00000000000E+00  0.31080436814E+03  0.31080436814E+03  0.00000000000E+00 0. -1.
         -2   -1    0    0    0  501 -0.00000000000E+00 -0.00000000000E+00 -0.71392894106E+02  0.71392894106E+02  0.00000000000E+00 0.  1.
         23    2    1    2    0    0  0.82671808382E+02 -0.93507863160E+01  0.59125734328E+02  0.16138261252E+03  0.12500572010E+03 0.  0.
         23    2    1    2    0    0 -0.82671808382E+02  0.93507863160E+01  0.18028573971E+03  0.22081464973E+03  0.96613127924E+02 0.  0.
          5    1    3    3  502    0  0.10320842852E+03  0.25369047390E+02  0.57054442682E+02  0.12071813332E+03  0.47000000000E+01 0. -1.
         -5    1    3    3    0  502 -0.20536620137E+02 -0.34719833706E+02  0.20712916461E+01  0.40664479196E+02  0.47000000000E+01 0. -1.
        -11    1    4    4    0    0 -0.10114828232E+03 -0.53916844611E+01  0.12644335748E+03  0.16201224622E+03  0.00000000000E+00 0.  1.
         11    1    4    4    0    0  0.18476473934E+02  0.14742470777E+02  0.53842382230E+02  0.58802403504E+02  0.00000000000E+00 0. -1.
<mgrwt>
<rscale>  0 0.14414392E+03</rscale>
<asrwt>0</asrwt>
<pdfrwt beam="1">  1        2 0.47816056E-01 0.15016156E+03</pdfrwt>
<pdfrwt beam="2">  1       -2 0.10983522E-01 0.15016156E+03</pdfrwt>
<totfact> 0.57772740E+03</totfact>
</mgrwt>
</event>
<event>
 8    1  0.1033707E-005  0.1568013E+03  0.7546771E-02  0.1200445E+00
          1   -1    0    0  501    0  0.00000000000E+00  0.00000000000E+00  0.19955693192E+03  0.19955693192E+03  0.00000000000E+00 0. -1.
         -1   -1    0    0    0  501 -0.00000000000E+00 -0.00000000000E+00 -0.10406751282E+03  0.10406751282E+03  0.00000000000E+00 0.  1.
         23    2    1    2    0    0  0.88650947145E+02  0.33212213215E+02  0.53783219038E+02  0.16576877279E+03  0.12499843938E+03 0.  0.
         23    2    1    2    0    0 -0.88650947145E+02 -0.33212213215E+02  0.41706200056E+02  0.13785567195E+03  0.91119359241E+02 0.  0.
          5    1    3    3  502    0  0.75254277478E+02 -0.33816710990E+02  0.51182494130E+02  0.97203466637E+02  0.47000000000E+01 0.  1.
         -5    1    3    3    0  502  0.13396669667E+02  0.67028924206E+02  0.26007249086E+01  0.68565306157E+02  0.47000000000E+01 0.  1.
        -11    1    4    4    0    0 -0.79948067249E+02  0.71706908215E+01  0.51540113513E+02  0.95391276145E+02  0.00000000000E+00 0. -1.
         11    1    4    4    0    0 -0.87028798963E+01 -0.40382904037E+02 -0.98339134571E+01  0.42464395802E+02  0.00000000000E+00 0.  1.
<mgrwt>
<rscale>  0 0.15002285E+03</rscale>
<asrwt>0</asrwt>
<pdfrwt beam="1">  1        1 0.30701066E-01 0.15680131E+03</pdfrwt>
<pdfrwt beam="2">  1       -1 0.16010387E-01 0.15680131E+03</pdfrwt>
<totfact> 0.41216613E+03</totfact>
</mgrwt>
</event>
<event>
 8    1  0.1033707E-005  0.1346532E+03  0.7546771E-02  0.1232651E+00
          1   -1    0    0  501    0  0.00000000000E+00  0.00000000000E+00  0.66617769710E+02  0.66617769710E+02  0.00000000000E+00 0. -1.
         -1   -1    0    0    0  501 -0.00000000000E+00 -0.00000000000E+00 -0.22741558647E+03  0.22741558647E+03  0.00000000000E+00 0.  1.
         23    2    1    2    0    0  0.39459209016E+02  0.30717657864E+02 -0.12295141568E+03  0.18234183659E+03  0.12502356208E+03 0.  0.
         23    2    1    2    0    0 -0.39459209016E+02 -0.30717657864E+02 -0.37846401087E+02  0.11169151959E+03  0.92423166968E+02 0.  0.
          5    1    3    3  502    0  0.57444418143E+02  0.49880848339E+02 -0.13342501328E+03  0.15366289199E+03  0.47000000000E+01 0.  1.
         -5    1    3    3    0  502 -0.17985209127E+02 -0.19163190475E+02  0.10473597604E+02  0.28678944599E+02  0.47000000000E+01 0.  1.
        -11    1    4    4    0    0 -0.47435545237E+02 -0.11773104921E+02  0.18076614061E+02  0.52110468501E+02  0.00000000000E+00 0. -1.
         11    1    4    4    0    0  0.79763362211E+01 -0.18944552943E+02 -0.55923015149E+02  0.59581051090E+02  0.00000000000E+00 0.  1.
<mgrwt>
<rscale>  0 0.12656008E+03</rscale>
<asrwt>0</asrwt>
<pdfrwt beam="1">  1        1 0.10248888E-01 0.13465324E+03</pdfrwt>
<pdfrwt beam="2">  1       -1 0.34987014E-01 0.13465324E+03</pdfrwt>
<totfact> 0.46378933E+03</totfact>
</mgrwt>
</event>
<event>
 8    1  0.1033707E-005  0.1320206E+03  0.7546771E-02  0.1237742E+00
          2   -1    0    0  501    0  0.00000000000E+00  0.00000000000E+00  0.91982829310E+02  0.91982829310E+02  0.00000000000E+00 0. -1.
         -2   -1    0    0    0  501 -0.00000000000E+00 -0.00000000000E+00 -0.18944071120E+03  0.18944071120E+03  0.00000000000E+00 0.  1.
         23    2    1    2    0    0  0.34685633505E+02  0.24495446200E+02 -0.12006214918E+03  0.17844990517E+03  0.12500531562E+03 0.  0.
         23    2    1    2    0    0 -0.34685633505E+02 -0.24495446200E+02  0.22604267284E+02  0.10297363535E+03  0.91046672763E+02 0.  0.
          5    1    3    3  502    0  0.49544287881E+02  0.67165515183E+02 -0.58886623140E+02  0.10225246831E+03  0.47000000000E+01 0.  1.
         -5    1    3    3    0  502 -0.14858654377E+02 -0.42670068982E+02 -0.61175526038E+02  0.76197436852E+02  0.47000000000E+01 0.  1.
        -11    1    4    4    0    0  0.13737250650E+02 -0.41515472566E+01  0.43984111576E+02  0.46266072572E+02  0.00000000000E+00 0.  1.
         11    1    4    4    0    0 -0.48422884155E+02 -0.20343898944E+02 -0.21379844292E+02  0.56707562776E+02  0.00000000000E+00 0. -1.
<mgrwt>
<rscale>  0 0.12330533E+03</rscale>
<asrwt>0</asrwt>
<pdfrwt beam="1">  1        2 0.14151205E-01 0.13202064E+03</pdfrwt>
<pdfrwt beam="2">  1       -2 0.29144725E-01 0.13202064E+03</pdfrwt>
<totfact> 0.42971812E+03</totfact>
</mgrwt>
</event>
<event>
 8    1  0.1033707E-005  0.1261141E+03  0.7546771E-02  0.1249801E+00
         -4   -1    0    0    0  501 -0.00000000000E+00  0.00000000000E+00  0.43495119682E+02  0.43495119682E+02  0.00000000000E+00 0.  1.
          4   -1    0    0  501    0  0.00000000000E+00 -0.00000000000E+00 -0.31006341841E+03  0.31006341841E+03  0.00000000000E+00 0. -1.
         23    2    1    2    0    0 -0.83813444727E+01 -0.14450071399E+02 -0.89096121229E+02  0.15441142298E+03  0.12500286888E+03 0.  0.
         23    2    1    2    0    0  0.83813444727E+01  0.14450071399E+02 -0.17747217749E+03  0.19914711511E+03  0.88792725903E+02 0.  0.
          5    1    3    3  502    0 -0.57050345179E+02 -0.16842558536E+02 -0.86892640637E+02  0.10540794401E+03  0.47000000000E+01 0.  1.
         -5    1    3    3    0  502  0.48669000706E+02  0.23924871370E+01 -0.22034805923E+01  0.49003478970E+02  0.47000000000E+01 0.  1.
        -11    1    4    4    0    0 -0.27110649509E+02 -0.16567745653E+02 -0.27763823090E+02  0.42193688929E+02  0.00000000000E+00 0.  1.
         11    1    4    4    0    0  0.35491993982E+02  0.31017817052E+02 -0.14970835440E+03  0.15695342618E+03  0.00000000000E+00 0. -1.
<mgrwt>
<rscale>  0 0.11602600E+03</rscale>
<asrwt>0</asrwt>
<pdfrwt beam="2">  1        4 0.47702064E-01 0.12611411E+03</pdfrwt>
<pdfrwt beam="1">  1       -4 0.66915570E-02 0.12611411E+03</pdfrwt>
<totfact> 0.10305871E+03</totfact>
</mgrwt>
</event>
<event>
 8    1  0.1033707E-005  0.1267253E+03  0.7546771E-02  0.1251363E+00
          1   -1    0    0  501    0  0.00000000000E+00  0.00000000000E+00  0.50927717607E+02  0.50927717607E+02  0.00000000000E+00 0. -1.
         -1   -1    0    0    0  501 -0.00000000000E+00 -0.00000000000E+00 -0.31418098704E+03  0.31418098704E+03  0.00000000000E+00 0.  1.
         23    2    1    2    0    0  0.74438648555E+01 -0.19505234764E+02 -0.24652087611E+03  0.27718559253E+03  0.12499378001E+03 0.  0.
         23    2    1    2    0    0 -0.74438648555E+01  0.19505234764E+02 -0.16732393327E+02  0.87923112122E+02  0.83753419939E+02 0.  0.
          5    1    3    3  502    0 -0.33003265966E+02  0.30012758500E+02 -0.17709165410E+03  0.18268422260E+03  0.47000000000E+01 0.  1.
         -5    1    3    3    0  502  0.40447130821E+02 -0.49517993264E+02 -0.69429222013E+02  0.94501369925E+02  0.47000000000E+01 0.  1.
        -11    1    4    4    0    0 -0.21361105361E+02 -0.97360852559E+01  0.25528274067E+02  0.34681132553E+02  0.00000000000E+00 0. -1.
         11    1    4    4    0    0  0.13917240505E+02  0.29241320020E+02 -0.42260667394E+02  0.53241979568E+02  0.00000000000E+00 0.  1.
<mgrwt>
<rscale>  0 0.11512530E+03</rscale>
<asrwt>0</asrwt>
<pdfrwt beam="1">  1        1 0.78350336E-02 0.12672533E+03</pdfrwt>
<pdfrwt beam="2">  1       -1 0.48335536E-01 0.12672533E+03</pdfrwt>
<totfact> 0.37402702E+03</totfact>
</mgrwt>
</event>
<event>
 8    1  0.1033707E-005  0.1466580E+03  0.7546771E-02  0.1210310E+00
         -3   -1    0    0    0  501 -0.00000000000E+00  0.00000000000E+00  0.58798026337E+02  0.58798026337E+02  0.00000000000E+00 0.  1.
          3   -1    0    0  501    0  0.00000000000E+00 -0.00000000000E+00 -0.38216448106E+03  0.38216448106E+03  0.00000000000E+00 0. -1.
         23    2    1    2    0    0 -0.32910351368E+02  0.69278579680E+02 -0.84990002602E+02  0.16950480264E+03  0.12500385892E+03 0.  0.
         23    2    1    2    0    0  0.32910351368E+02 -0.69278579680E+02 -0.23837645212E+03  0.27145770476E+03  0.10480142994E+03 0.  0.
          5    1    3    3  502    0 -0.16529702666E+02  0.90263815995E+02 -0.13243832938E+02  0.92834673797E+02  0.47000000000E+01 0.  1.
         -5    1    3    3    0  502 -0.16380648702E+02 -0.20985236315E+02 -0.71746169664E+02  0.76670128841E+02  0.47000000000E+01 0.  1.
        -11    1    4    4    0    0  0.55503669338E+02  0.10278045218E+01 -0.90550365196E+02  0.10621243962E+03  0.00000000000E+00 0.  1.
         11    1    4    4    0    0 -0.22593317969E+02 -0.70306384202E+02 -0.14782608692E+03  0.16524526514E+03  0.00000000000E+00 0. -1.
<mgrwt>
<rscale>  0 0.14226751E+03</rscale>
<asrwt>0</asrwt>
<pdfrwt beam="2">  1        3 0.58794538E-01 0.14665803E+03</pdfrwt>
<pdfrwt beam="1">  1       -3 0.90458499E-02 0.14665803E+03</pdfrwt>
<totfact> 0.58643431E+02</totfact>
</mgrwt>
</event>
<event>
 8    1  0.1033707E-005  0.1378687E+03  0.7546771E-02  0.1231478E+00
         -2   -1    0    0    0  501 -0.00000000000E+00  0.00000000000E+00  0.13877865632E+03  0.13877865632E+03  0.00000000000E+00 0.  1.
          2   -1    0    0  501    0  0.00000000000E+00 -0.00000000000E+00 -0.10266113756E+03  0.10266113756E+03  0.00000000000E+00 0. -1.
         23    2    1    2    0    0 -0.41961783838E+02  0.40319192714E+02  0.29053424088E+02  0.14089668167E+03  0.12498537854E+03 0.  0.
         23    2    1    2    0    0  0.41961783838E+02 -0.40319192714E+02  0.70640946723E+01  0.10054311221E+03  0.81685906838E+02 0.  0.
          5    1    3    3  502    0 -0.58151750593E+02 -0.21012742245E+02  0.43404036452E+02  0.75691226797E+02  0.47000000000E+01 0. -1.
         -5    1    3    3    0  502  0.16189966755E+02  0.61331934959E+02 -0.14350612364E+02  0.65205454868E+02  0.47000000000E+01 0. -1.
        -11    1    4    4    0    0  0.76431535120E+01 -0.17533519744E+02 -0.36114032181E+02  0.40866434033E+02  0.00000000000E+00 0. -1.
         11    1    4    4    0    0  0.34318630326E+02 -0.22785672970E+02  0.43178126853E+02  0.59676678181E+02  0.00000000000E+00 0.  1.
<mgrwt>
<rscale>  0 0.12732646E+03</rscale>
<asrwt>0</asrwt>
<pdfrwt beam="2">  1        2 0.15794021E-01 0.13786868E+03</pdfrwt>
<pdfrwt beam="1">  1       -2 0.21350562E-01 0.13786868E+03</pdfrwt>
<totfact> 0.65255244E+03</totfact>
</mgrwt>
</event>
<event>
 8    1  0.1033707E-005  0.1334051E+03  0.7546771E-02  0.1235660E+00
         -2   -1    0    0    0  501 -0.00000000000E+00  0.00000000000E+00  0.10648661434E+03  0.10648661434E+03  0.00000000000E+00 0. -1.
          2   -1    0    0  501    0  0.00000000000E+00 -0.00000000000E+00 -0.16036848843E+03  0.16036848843E+03  0.00000000000E+00 0.  1.
         23    2    1    2    0    0  0.42163153961E+02  0.19848586880E+02  0.28070407377E+02  0.13632637498E+03  0.12500093917E+03 0.  0.
         23    2    1    2    0    0 -0.42163153961E+02 -0.19848586880E+02 -0.81952281466E+02  0.13052872779E+03  0.90276654719E+02 0.  0.
          5    1    3    3  502    0 -0.73583293683E+01 -0.47364085733E+02  0.20574835118E+02  0.52372850491E+02  0.47000000000E+01 0. -1.
         -5    1    3    3    0  502  0.49521483329E+02  0.67212672613E+02  0.74955722595E+01  0.83953524491E+02  0.47000000000E+01 0. -1.
        -11    1    4    4    0    0 -0.17438922012E+02  0.30186097273E+00 -0.94616713631E+02  0.96210860194E+02  0.00000000000E+00 0.  1.
         11    1    4    4    0    0 -0.24724231949E+02 -0.20150447853E+02  0.12664432164E+02  0.34317867594E+02  0.00000000000E+00 0. -1.
<mgrwt>
<rscale>  0 0.12462285E+03</rscale>
<asrwt>0</asrwt>
<pdfrwt beam="2">  1        2 0.24672075E-01 0.13340515E+03</pdfrwt>
<pdfrwt beam="1">  1       -2 0.16382556E-01 0.13340515E+03</pdfrwt>
<totfact> 0.61255211E+03</totfact>
</mgrwt>
</event>
<event>
 8    1  0.1033707E-005  0.1298880E+03  0.7546771E-02  0.1241874E+00
          1   -1    0    0  501    0  0.00000000000E+00  0.00000000000E+00  0.53396275263E+03  0.53396275263E+03  0.00000000000E+00 0. -1.
         -1   -1    0    0    0  501 -0.00000000000E+00 -0.00000000000E+00 -0.28815969155E+02  0.28815969155E+02  0.00000000000E+00 0.  1.
         23    2    1    2    0    0  0.26530260799E+02  0.23283797761E+02  0.17038510812E+03  0.21424744153E+03  0.12499956462E+03 0.  0.
         23    2    1    2    0    0 -0.26530260799E+02 -0.23283797761E+02  0.33476167535E+03  0.34853128026E+03  0.90347573618E+02 0.  0.
          5    1    3    3  502    0  0.12734355875E+02  0.28271217144E+02 -0.10221754091E+02  0.32984841899E+02  0.47000000000E+01 0.  1.
         -5    1    3    3    0  502  0.13795904924E+02 -0.49874193834E+01  0.18060686221E+03  0.18126259963E+03  0.47000000000E+01 0.  1.
        -11    1    4    4    0    0 -0.37641080785E+02 -0.43449404892E+02  0.30759377024E+03  0.31291952518E+03  0.00000000000E+00 0. -1.
         11    1    4    4    0    0  0.11110819986E+02  0.20165607131E+02  0.27167905112E+02  0.35611755080E+02  0.00000000000E+00 0.  1.
<mgrwt>
<rscale>  0 0.12074460E+03</rscale>
<asrwt>0</asrwt>
<pdfrwt beam="1">  1        1 0.82148109E-01 0.12988796E+03</pdfrwt>
<pdfrwt beam="2">  1       -1 0.44332264E-02 0.12988796E+03</pdfrwt>
<totfact> 0.83082714E+03</totfact>
</mgrwt>
</event>
<event>
 8    1  0.1033707E-005  0.1527523E+03  0.7546771E-02  0.1203080E+00
          2   -1    0    0  501    0  0.00000000000E+00  0.00000000000E+00  0.24853671342E+03  0.24853671342E+03  0.00000000000E+00 0. -1.
         -2   -1    0    0    0  501 -0.00000000000E+00 -0.00000000000E+00 -0.83856245199E+02  0.83856245199E+02  0.00000000000E+00 0.  1.
         23    2    1    2    0    0  0.71889883024E+02 -0.50360082563E+02  0.69414373421E+02  0.16778442632E+03  0.12501586011E+03 0.  0.
         23    2    1    2    0    0 -0.71889883024E+02  0.50360082563E+02  0.95266094799E+02  0.16460853230E+03  0.10156794224E+03 0.  0.
          5    1    3    3  502    0  0.83127233789E+02 -0.82739575927E+02  0.46316900766E+02  0.12618763695E+03  0.47000000000E+01 0.  1.
         -5    1    3    3    0  502 -0.11237350764E+02  0.32379493364E+02  0.23097472654E+02  0.41596789368E+02  0.47000000000E+01 0.  1.
        -11    1    4    4    0    0 -0.17412331015E+02  0.68375343787E+02  0.76893365428E+02  0.10435979377E+03  0.00000000000E+00 0. -1.
         11    1    4    4    0    0 -0.54477552009E+02 -0.18015261223E+02  0.18372729371E+02  0.60248738530E+02  0.00000000000E+00 0.  1.
<mgrwt>
<rscale>  0 0.14789761E+03</rscale>
<asrwt>0</asrwt>
<pdfrwt beam="1">  1        2 0.38236417E-01 0.15275228E+03</pdfrwt>
<pdfrwt beam="2">  1       -2 0.12900961E-01 0.15275228E+03</pdfrwt>
<totfact> 0.56723475E+03</totfact>
</mgrwt>
</event>
<event>
 8    1  0.1033707E-005  0.1265899E+03  0.7546771E-02  0.1247828E+00
          1   -1    0    0  501    0  0.00000000000E+00  0.00000000000E+00  0.45886496463E+03  0.45886496463E+03  0.00000000000E+00 0. -1.
         -1   -1    0    0    0  501 -0.00000000000E+00 -0.00000000000E+00 -0.26255667164E+02  0.26255667164E+02  0.00000000000E+00 0.  1.
         23    2    1    2    0    0 -0.18073536247E+02 -0.85118867362E+01  0.24868286578E+03  0.27904869588E+03  0.12500360798E+03 0.  0.
         23    2    1    2    0    0  0.18073536247E+02  0.85118867362E+01  0.18392643168E+03  0.20607193592E+03  0.90761255902E+02 0.  0.
          5    1    3    3  502    0 -0.60221414434E+02 -0.81996493261E+01  0.59546458934E+02  0.85215748410E+02  0.47000000000E+01 0.  1.
         -5    1    3    3    0  502  0.42147878187E+02 -0.31223741011E+00  0.18913640685E+03  0.19383294747E+03  0.47000000000E+01 0.  1.
        -11    1    4    4    0    0  0.46944431047E+02  0.18781645984E+02  0.60245276967E+02  0.78651276080E+02  0.00000000000E+00 0.  1.
         11    1    4    4    0    0 -0.28870894800E+02 -0.10269759248E+02  0.12368115472E+03  0.12742065984E+03  0.00000000000E+00 0. -1.
<mgrwt>
<rscale>  0 0.11717714E+03</rscale>
<asrwt>0</asrwt>
<pdfrwt beam="1">  1        1 0.70594604E-01 0.12658992E+03</pdfrwt>
<pdfrwt beam="2">  1       -1 0.40393338E-02 0.12658992E+03</pdfrwt>
<totfact> 0.11576874E+04</totfact>
</mgrwt>
</event>
<event>
 7    1  0.1033707E-005  0.1395089E+03  0.7546771E-02  0.1232739E+00
         -2   -1    0    0    0  501 -0.00000000000E+00  0.00000000000E+00  0.27614767321E+02  0.27614767321E+02  0.00000000000E+00 0.  1.
          2   -1    0    0  501    0  0.00000000000E+00 -0.00000000000E+00 -0.50707216965E+03  0.50707216965E+03  0.00000000000E+00 0. -1.
         23    2    1    2    0    0  0.18196228608E+02  0.14018688392E+02 -0.23502228463E+03  0.25324199255E+03  0.91478992987E+02 0.  0.
          5    1    1    2  502    0 -0.64794939873E+02 -0.16385632578E+01 -0.21534743782E+03  0.22493927647E+03  0.47000000000E+01 0. -1.
         -5    1    1    2    0  502  0.46598711265E+02 -0.12380125134E+02 -0.29087679878E+02  0.56505667951E+02  0.47000000000E+01 0.  1.
        -11    1    3    3    0    0 -0.18732742530E+02 -0.24400363539E+02 -0.14828779520E+03  0.15144491933E+03  0.00000000000E+00 0.  1.
         11    1    3    3    0    0  0.36928971138E+02  0.38419051931E+02 -0.86734489422E+02  0.10179707322E+03  0.00000000000E+00 0. -1.
<mgrwt>
<rscale>  0 0.12650304E+03</rscale>
<asrwt>0</asrwt>
<pdfrwt beam="2">  1        2 0.78011100E-01 0.13950889E+03</pdfrwt>
<pdfrwt beam="1">  1       -2 0.42484259E-02 0.13950889E+03</pdfrwt>
<totfact> 0.14575289E+04</totfact>
</mgrwt>
</event>
<event>
 8    1  0.1033707E-005  0.1764447E+03  0.7546771E-02  0.1177335E+00
          2   -1    0    0  501    0  0.00000000000E+00  0.00000000000E+00  0.25962560253E+03  0.25962560253E+03  0.00000000000E+00 0.  1.
         -2   -1    0    0    0  501 -0.00000000000E+00 -0.00000000000E+00 -0.10689511169E+03  0.10689511169E+03  0.00000000000E+00 0. -1.
         23    2    1    2    0    0  0.62690353350E+00  0.12453276591E+03  0.57340136454E+02  0.18552797269E+03  0.12499573837E+03 0.  0.
         23    2    1    2    0    0 -0.62690353350E+00 -0.12453276591E+03  0.95390354378E+02  0.18099274153E+03  0.90278734952E+02 0.  0.
          5    1    3    3  502    0 -0.14043565591E+02  0.14078814691E+03  0.71938588346E+02  0.15879475602E+03  0.47000000000E+01 0.  1.
         -5    1    3    3    0  502  0.14670469124E+02 -0.16255381009E+02 -0.14598451892E+02  0.26733216674E+02  0.47000000000E+01 0.  1.
        -11    1    4    4    0    0 -0.21851995082E+02 -0.54040158621E+02 -0.26948824923E+01  0.58353327450E+02  0.00000000000E+00 0. -1.
         11    1    4    4    0    0  0.21225091548E+02 -0.70492607285E+02  0.98085236870E+02  0.12263941408E+03  0.00000000000E+00 0.  1.
<mgrwt>
<rscale>  0 0.17049285E+03</rscale>
<asrwt>0</asrwt>
<pdfrwt beam="1">  1        2 0.39942400E-01 0.17644471E+03</pdfrwt>
<pdfrwt beam="2">  1       -2 0.16445402E-01 0.17644471E+03</pdfrwt>
<totfact> 0.36665804E+03</totfact>
</mgrwt>
</event>
<event>
 8    1  0.1033707E-005  0.1361944E+03  0.7546771E-02  0.1230829E+00
         -1   -1    0    0    0  501 -0.00000000000E+00  0.00000000000E+00  0.16309528208E+03  0.16309528208E+03  0.00000000000E+00 0.  1.
          1   -1    0    0  501    0  0.00000000000E+00 -0.00000000000E+00 -0.90847847704E+02  0.90847847704E+02  0.00000000000E+00 0. -1.
         23    2    1    2    0    0 -0.36507730688E+02  0.40270865571E+02  0.25298478861E+02  0.13852411789E+03  0.12487738463E+03 0.  0.
         23    2    1    2    0    0  0.36507730688E+02 -0.40270865571E+02  0.46948955518E+02  0.11541901190E+03  0.90348142588E+02 0.  0.
          5    1    3    3  502    0  0.39075793138E+02  0.29285227568E+02 -0.15959480889E+02  0.51588149737E+02  0.47000000000E+01 0.  1.
         -5    1    3    3    0  502 -0.75583523826E+02  0.10985638003E+02  0.41257959750E+02  0.86935968155E+02  0.47000000000E+01 0.  1.
        -11    1    4    4    0    0 -0.82513094460E+01 -0.15454781306E+02  0.60080681528E+02  0.62582926311E+02  0.00000000000E+00 0.  1.
         11    1    4    4    0    0  0.44759040134E+02 -0.24816084265E+02 -0.13131726010E+02  0.52836085585E+02  0.00000000000E+00 0. -1.
<mgrwt>
<rscale>  0 0.12775256E+03</rscale>
<asrwt>0</asrwt>
<pdfrwt beam="2">  1        1 0.13976592E-01 0.13619441E+03</pdfrwt>
<pdfrwt beam="1">  1       -1 0.25091582E-01 0.13619441E+03</pdfrwt>
<totfact> 0.53963046E+03</totfact>
</mgrwt>
</event>
<event>
 8    1  0.1033707E-005  0.1285142E+03  0.7546771E-02  0.1244296E+00
          1   -1    0    0  501    0  0.00000000000E+00  0.00000000000E+00  0.54602069679E+03  0.54602069679E+03  0.00000000000E+00 0. -1.
         -1   -1    0    0    0  501 -0.00000000000E+00 -0.00000000000E+00 -0.23134878799E+02  0.23134878799E+02  0.00000000000E+00 0.  1.
         23    2    1    2    0    0  0.28135940487E+02  0.10068593075E+02  0.27452109253E+03  0.30311340283E+03  0.12499158777E+03 0.  0.
         23    2    1    2    0    0 -0.28135940487E+02 -0.10068593075E+02  0.24836472546E+03  0.26604217276E+03  0.90556022014E+02 0.  0.
          5    1    3    3  502    0  0.79175435943E+01 -0.32331112365E+02  0.10960530005E+02  0.35358330579E+02  0.47000000000E+01 0. -1.
         -5    1    3    3    0  502  0.20218396892E+02  0.42399705440E+02  0.26356056253E+03  0.26775507225E+03  0.47000000000E+01 0. -1.
        -11    1    4    4    0    0 -0.55923873752E+02  0.13470751786E+02  0.17354558462E+03  0.18283055201E+03  0.00000000000E+00 0.  1.
         11    1    4    4    0    0  0.27787933266E+02 -0.23539344861E+02  0.74819140838E+02  0.83211620747E+02  0.00000000000E+00 0. -1.
<mgrwt>
<rscale>  0 0.11927631E+03</rscale>
<asrwt>0</asrwt>
<pdfrwt beam="1">  1        1 0.84003174E-01 0.12851422E+03</pdfrwt>
<pdfrwt beam="2">  1       -1 0.35592125E-02 0.12851422E+03</pdfrwt>
<totfact> 0.11121591E+04</totfact>
</mgrwt>
</event>
<event>
 8    1  0.1033707E-005  0.1325878E+03  0.7546771E-02  0.1236907E+00
          4   -1    0    0  501    0  0.00000000000E+00  0.00000000000E+00  0.26601861001E+03  0.26601861001E+03  0.00000000000E+00 0. -1.
         -4   -1    0    0    0  501 -0.00000000000E+00 -0.00000000000E+00 -0.51472135375E+02  0.51472135375E+02  0.00000000000E+00 0.  1.
         23    2    1    2    0    0  0.33449874257E+02 -0.28911809584E+02  0.13265236915E+03  0.18755312657E+03  0.12499894970E+03 0.  0.
         23    2    1    2    0    0 -0.33449874257E+02  0.28911809584E+02  0.81894105485E+02  0.12993761881E+03  0.90677193648E+02 0.  0.
          5    1    3    3  502    0 -0.15622742683E+02  0.42181860819E+02  0.35743576181E+02  0.57646098821E+02  0.47000000000E+01 0. -1.
         -5    1    3    3    0  502  0.49072616941E+02 -0.71093670403E+02  0.96908792968E+02  0.12990702775E+03  0.47000000000E+01 0. -1.
        -11    1    4    4    0    0  0.10647506489E+02  0.40809873757E+01 -0.16051947274E+02  0.19689816243E+02  0.00000000000E+00 0.  1.
         11    1    4    4    0    0 -0.44097380746E+02  0.24830822208E+02  0.97946052758E+02  0.11024780257E+03  0.00000000000E+00 0. -1.
<mgrwt>
<rscale>  0 0.12383143E+03</rscale>
<asrwt>0</asrwt>
<pdfrwt beam="1">  1        4 0.40925939E-01 0.13258780E+03</pdfrwt>
<pdfrwt beam="2">  1       -4 0.79187902E-02 0.13258780E+03</pdfrwt>
<totfact> 0.10724679E+03</totfact>
</mgrwt>
</event>
<event>
 8    1  0.1033707E-005  0.1524459E+03  0.7546771E-02  0.1206175E+00
          2   -1    0    0  501    0  0.00000000000E+00  0.00000000000E+00  0.17040139008E+03  0.17040139008E+03  0.00000000000E+00 0. -1.
         -2   -1    0    0    0  501 -0.00000000000E+00 -0.00000000000E+00 -0.11893835975E+03  0.11893835975E+03  0.00000000000E+00 0.  1.
         23    2    1    2    0    0 -0.30971623894E+02  0.81586401718E+02 -0.12370041789E+01  0.15245089123E+03  0.12499664645E+03 0.  0.
         23    2    1    2    0    0  0.30971623894E+02 -0.81586401718E+02  0.52700034502E+02  0.13688885860E+03  0.91354712747E+02 0.  0.
          5    1    3    3  502    0 -0.75731455101E+02  0.30240239918E+02  0.12985057171E+02  0.82706874635E+02  0.47000000000E+01 0.  1.
         -5    1    3    3    0  502  0.44759831207E+02  0.51346161800E+02 -0.14222061350E+02  0.69744016591E+02  0.47000000000E+01 0.  1.
        -11    1    4    4    0    0 -0.13995024580E+00 -0.71159036323E+02 -0.41163966312E+01  0.71278136604E+02  0.00000000000E+00 0.  1.
         11    1    4    4    0    0  0.31111574140E+02 -0.10427365395E+02  0.56816431133E+02  0.65610721999E+02  0.00000000000E+00 0. -1.
<mgrwt>
<rscale>  0 0.14545216E+03</rscale>
<asrwt>0</asrwt>
<pdfrwt beam="1">  1        2 0.26215598E-01 0.15244587E+03</pdfrwt>
<pdfrwt beam="2">  1       -2 0.18298209E-01 0.15244587E+03</pdfrwt>
<totfact> 0.48067550E+03</totfact>
</mgrwt>
</event>
<event>
 8    1  0.1033707E-005  0.1251690E+03  0.7546771E-02  0.1260723E+00
          2   -1    0    0  501    0  0.00000000000E+00  0.00000000000E+00  0.18345347650E+02  0.18345347650E+02  0.00000000000E+00 0. -1.
         -2   -1    0    0    0  501 -0.00000000000E+00 -0.00000000000E+00 -0.60835245540E+03  0.60835245540E+03  0.00000000000E+00 0.  1.
         23    2    1    2    0    0 -0.64720556351E+01 -0.10245928603E+01 -0.46166637899E+03  0.47833370227E+03  0.12499739174E+03 0.  0.
         23    2    1    2    0    0  0.64720556351E+01  0.10245928603E+01 -0.12834072876E+03  0.14836410078E+03  0.74145980652E+02 0.  0.
          5    1    3    3  502    0  0.49882070716E+01  0.56018967718E+02 -0.13229874411E+03  0.14383342674E+03  0.47000000000E+01 0. -1.
         -5    1    3    3    0  502 -0.11460262707E+02 -0.57043560578E+02 -0.32936763488E+03  0.33450027553E+03  0.47000000000E+01 0. -1.
        -11    1    4    4    0    0  0.30501043020E+02  0.20495117882E+02 -0.37936492782E+02  0.52816105185E+02  0.00000000000E+00 0. -1.
         11    1    4    4    0    0 -0.24028987385E+02 -0.19470525022E+02 -0.90404235980E+02  0.95547995597E+02  0.00000000000E+00 0.  1.
<mgrwt>
<rscale>  0 0.10991751E+03</rscale>
<asrwt>0</asrwt>
<pdfrwt beam="1">  1        2 0.28223615E-02 0.12516903E+03</pdfrwt>
<pdfrwt beam="2">  1       -2 0.93592676E-01 0.12516903E+03</pdfrwt>
<totfact> 0.32201922E+03</totfact>
</mgrwt>
</event>
<event>
 8    1  0.1033707E-005  0.1289628E+03  0.7546771E-02  0.1244590E+00
         -1   -1    0    0    0  501 -0.00000000000E+00  0.00000000000E+00  0.17928338500E+03  0.17928338500E+03  0.00000000000E+00 0.  1.
          1   -1    0    0  501    0  0.00000000000E+00 -0.00000000000E+00 -0.99345184149E+02  0.99345184149E+02  0.00000000000E+00 0. -1.
         23    2    1    2    0    0  0.16761677039E+02  0.27014688058E+02  0.12043256790E+03  0.17645229510E+03  0.12498264619E+03 0.  0.
         23    2    1    2    0    0 -0.16761677039E+02 -0.27014688058E+02 -0.40494367041E+02  0.10217627405E+03  0.88257861005E+02 0.  0.
          5    1    3    3  502    0  0.34806288181E+02 -0.11991533259E+02 -0.10497373649E+02  0.38568891874E+02  0.47000000000E+01 0. -1.
         -5    1    3    3    0  502 -0.18044611142E+02  0.39006221317E+02  0.13092994154E+03  0.13788340323E+03  0.47000000000E+01 0. -1.
        -11    1    4    4    0    0 -0.22373345473E+02 -0.54382494636E+01  0.24406360032E+02  0.33553115428E+02  0.00000000000E+00 0.  1.
         11    1    4    4    0    0  0.56116684339E+01 -0.21576438594E+02 -0.64900727073E+02  0.68623158624E+02  0.00000000000E+00 0. -1.
<mgrwt>
<rscale>  0 0.11909950E+03</rscale>
<asrwt>0</asrwt>
<pdfrwt beam="2">  1        1 0.15283875E-01 0.12896282E+03</pdfrwt>
<pdfrwt beam="1">  1       -1 0.27582059E-01 0.12896282E+03</pdfrwt>
<totfact> 0.40966208E+03</totfact>
</mgrwt>
</event>
<event>
 8    1  0.1033707E-005  0.1388473E+03  0.7546771E-02  0.1226086E+00
         -1   -1    0    0    0  501 -0.00000000000E+00  0.00000000000E+00  0.25176044291E+02  0.25176044291E+02  0.00000000000E+00 0.  1.
          1   -1    0    0  501    0  0.00000000000E+00 -0.00000000000E+00 -0.65101488498E+03  0.65101488498E+03  0.00000000000E+00 0. -1.
         23    2    1    2    0    0  0.54037891660E+01 -0.60409681302E+02 -0.26712576351E+03  0.30105603393E+03  0.12490008608E+03 0.  0.
         23    2    1    2    0    0 -0.54037891660E+01  0.60409681302E+02 -0.35871307718E+03  0.37513489534E+03  0.91501843865E+02 0.  0.
          5    1    3    3  502    0  0.34221977018E+02 -0.89572924037E+02 -0.16483158125E+03  0.19075112742E+03  0.47000000000E+01 0.  1.
         -5    1    3    3    0  502 -0.28818187852E+02  0.29163242735E+02 -0.10229418226E+03  0.11030490652E+03  0.47000000000E+01 0.  1.
        -11    1    4    4    0    0 -0.33549163568E+02  0.71504985732E+02 -0.24193264886E+03  0.25449934370E+03  0.00000000000E+00 0. -1.
         11    1    4    4    0    0  0.28145374402E+02 -0.11095304430E+02 -0.11678042832E+03  0.12063555164E+03  0.00000000000E+00 0.  1.
<mgrwt>
<rscale>  0 0.13092766E+03</rscale>
<asrwt>0</asrwt>
<pdfrwt beam="2">  1        1 0.10015613E+00 0.13884726E+03</pdfrwt>
<pdfrwt beam="1">  1       -1 0.38732377E-02 0.13884726E+03</pdfrwt>
<totfact> 0.77769343E+03</totfact>
</mgrwt>
</event>
<event>
 8    1  0.1033707E-005  0.1300384E+03  0.7546771E-02  0.1239973E+00
         -1   -1    0    0    0  501 -0.00000000000E+00  0.00000000000E+00  0.15240081301E+03  0.15240081301E+03  0.00000000000E+00 0.  1.
          1   -1    0    0  501    0  0.00000000000E+00 -0.00000000000E+00 -0.87641638260E+02  0.87641638260E+02  0.00000000000E+00 0. -1.
         23    2    1    2    0    0  0.34796230227E+02 -0.86350178820E+01  0.45378007920E+02  0.13772850823E+03  0.12499854881E+03 0.  0.
         23    2    1    2    0    0 -0.34796230227E+02  0.86350178820E+01  0.19381166826E+02  0.10231394304E+03  0.93846535051E+02 0.  0.
          5    1    3    3  502    0  0.49864035593E+02 -0.47415310168E+02  0.61942448683E+02  0.92701621523E+02  0.47000000000E+01 0. -1.
         -5    1    3    3    0  502 -0.15067805367E+02  0.38780292286E+02 -0.16564440763E+02  0.45026886703E+02  0.47000000000E+01 0. -1.
        -11    1    4    4    0    0  0.97133416206E+01  0.37619752738E+02  0.28808562921E+02  0.48368668568E+02  0.00000000000E+00 0.  1.
         11    1    4    4    0    0 -0.44509571847E+02 -0.28984734856E+02 -0.94273960947E+01  0.53945274472E+02  0.00000000000E+00 0. -1.
<mgrwt>
<rscale>  0 0.12191399E+03</rscale>
<asrwt>0</asrwt>
<pdfrwt beam="2">  1        1 0.13483329E-01 0.13003837E+03</pdfrwt>
<pdfrwt beam="1">  1       -1 0.23446279E-01 0.13003837E+03</pdfrwt>
<totfact> 0.62981712E+03</totfact>
</mgrwt>
</event>
<event>
 7    1  0.1033707E-005  0.1613523E+03  0.7546771E-02  0.1197471E+00
          2   -1    0    0  501    0  0.00000000000E+00  0.00000000000E+00  0.67703051908E+03  0.67703051908E+03  0.00000000000E+00 0. -1.
         -2   -1    0    0    0  501 -0.00000000000E+00 -0.00000000000E+00 -0.34834723887E+02  0.34834723887E+02  0.00000000000E+00 0.  1.
         23    2    1    2    0    0 -0.64968139124E+02  0.62761946708E+02  0.40539435314E+03  0.42531772287E+03  0.91600560983E+02 0.  0.
          5    1    1    2  502    0 -0.27600024418E+01  0.23081131732E+02  0.13502835056E+03  0.13709522862E+03  0.47000000000E+01 0. -1.
         -5    1    1    2    0  502  0.67728141566E+02 -0.85843078440E+02  0.10177309149E+03  0.14945229148E+03  0.47000000000E+01 0.  1.
        -11    1    3    3    0    0 -0.11146984608E+02 -0.20468292574E+02  0.36230374236E+02  0.43079534399E+02  0.00000000000E+00 0.  1.
         11    1    3    3    0    0 -0.53821154516E+02  0.83230239282E+02  0.36916397891E+03  0.38223818847E+03  0.00000000000E+00 0. -1.
<mgrwt>
<rscale>  0 0.15246951E+03</rscale>
<asrwt>0</asrwt>
<pdfrwt beam="1">  1        2 0.10415853E+00 0.16135228E+03</pdfrwt>
<pdfrwt beam="2">  1       -2 0.53591888E-02 0.16135228E+03</pdfrwt>
<totfact> 0.74703664E+03</totfact>
</mgrwt>
</event>
<event>
 8    1  0.1033707E-005  0.1414755E+03  0.7546771E-02  0.1222198E+00
         -1   -1    0    0    0  501 -0.00000000000E+00  0.00000000000E+00  0.48038858163E+02  0.48038858163E+02  0.00000000000E+00 0.  1.
          1   -1    0    0  501    0  0.00000000000E+00 -0.00000000000E+00 -0.33674157645E+03  0.33674157645E+03  0.00000000000E+00 0. -1.
         23    2    1    2    0    0  0.64925278947E+02  0.13235648393E+02 -0.15052700464E+03  0.20657615105E+03  0.12499941129E+03 0.  0.
         23    2    1    2    0    0 -0.64925278947E+02 -0.13235648393E+02 -0.13817571365E+03  0.17820428357E+03  0.90960236390E+02 0.  0.
          5    1    3    3  502    0 -0.69355395369E+01  0.26478387638E+02  0.10493906085E+02  0.29688697942E+02  0.47000000000E+01 0.  1.
         -5    1    3    3    0  502  0.71860818484E+02 -0.13242739245E+02 -0.16102091072E+03  0.17688745311E+03  0.47000000000E+01 0.  1.
        -11    1    4    4    0    0 -0.60477598160E+02 -0.11321221626E+01 -0.14935452688E+03  0.16113843824E+03  0.00000000000E+00 0. -1.
         11    1    4    4    0    0 -0.44476807871E+01 -0.12103526230E+02  0.11178813227E+02  0.17065845328E+02  0.00000000000E+00 0.  1.
<mgrwt>
<rscale>  0 0.13360829E+03</rscale>
<asrwt>0</asrwt>
<pdfrwt beam="2">  1        1 0.51806395E-01 0.14147554E+03</pdfrwt>
<pdfrwt beam="1">  1       -1 0.73905937E-02 0.14147554E+03</pdfrwt>
<totfact> 0.70293060E+03</totfact>
</mgrwt>
</event>
<event>
 8    1  0.1033707E-005  0.1335940E+03  0.7546771E-02  0.1236747E+00
          2   -1    0    0  501    0  0.00000000000E+00  0.00000000000E+00  0.18240848311E+03  0.18240848311E+03  0.00000000000E+00 0. -1.
         -2   -1    0    0    0  501 -0.00000000000E+00 -0.00000000000E+00 -0.86744702121E+02  0.86744702121E+02  0.00000000000E+00 0.  1.
         23    2    1    2    0    0  0.45682049606E+02  0.11629512640E+02  0.30492886225E+01  0.13362874567E+03  0.12500099315E+03 0.  0.
         23    2    1    2    0    0 -0.45682049606E+02 -0.11629512640E+02  0.92614492362E+02  0.13552443956E+03  0.86990426490E+02 0.  0.
          5    1    3    3  502    0  0.69578890223E+02  0.38950904751E+02  0.32910564825E+02  0.86392072685E+02  0.47000000000E+01 0.  1.
         -5    1    3    3    0  502 -0.23896840617E+02 -0.27321392111E+02 -0.29861276203E+02  0.47236672987E+02  0.47000000000E+01 0.  1.
        -11    1    4    4    0    0 -0.42441619106E+02  0.13766585973E+02  0.99471460339E+02  0.10902009605E+03  0.00000000000E+00 0. -1.
         11    1    4    4    0    0 -0.32404304996E+01 -0.25396098613E+02 -0.68569679771E+01  0.26504343501E+02  0.00000000000E+00 0.  1.
<mgrwt>
<rscale>  0 0.12393237E+03</rscale>
<asrwt>0</asrwt>
<pdfrwt beam="1">  1        2 0.28062843E-01 0.13359395E+03</pdfrwt>
<pdfrwt beam="2">  1       -2 0.13345339E-01 0.13359395E+03</pdfrwt>
<totfact> 0.74317374E+03</totfact>
</mgrwt>
</event>
<event>
 8    1  0.1033707E-005  0.1965346E+03  0.7546771E-02  0.1157059E+00
         -2   -1    0    0    0  501 -0.00000000000E+00  0.00000000000E+00  0.15884417153E+03  0.15884417153E+03  0.00000000000E+00 0.  1.
          2   -1    0    0  501    0  0.00000000000E+00 -0.00000000000E+00 -0.23592715977E+03  0.23592715977E+03  0.00000000000E+00 0. -1.
         23    2    1    2    0    0  0.15058255941E+03  0.18058740623E+02  0.10748554982E+02  0.19682831857E+03  0.12499852097E+03 0.  0.
         23    2    1    2    0    0 -0.15058255941E+03 -0.18058740623E+02 -0.87831543224E+02  0.19794301273E+03  0.92009950502E+02 0.  0.
          5    1    3    3  502    0  0.15392816230E+03 -0.17849698785E+02  0.26350037497E+02  0.15725426980E+03  0.47000000000E+01 0.  1.
         -5    1    3    3    0  502 -0.33456028838E+01  0.35908439408E+02 -0.15601482515E+02  0.39574048770E+02  0.47000000000E+01 0.  1.
        -11    1    4    4    0    0 -0.26073873165E+02  0.18044140742E+02  0.12430348045E+02  0.34058059684E+02  0.00000000000E+00 0.  1.
         11    1    4    4    0    0 -0.12450868625E+03 -0.36102881365E+02 -0.10026189127E+03  0.16388495305E+03  0.00000000000E+00 0. -1.
<mgrwt>
<rscale>  0 0.19156286E+03</rscale>
<asrwt>0</asrwt>
<pdfrwt beam="2">  1        2 0.36296486E-01 0.19653462E+03</pdfrwt>
<pdfrwt beam="1">  1       -2 0.24437565E-01 0.19653462E+03</pdfrwt>
<totfact> 0.20773772E+03</totfact>
</mgrwt>
</event>
<event>
 8    1  0.1033707E-005  0.1745382E+03  0.7546771E-02  0.1177295E+00
         -3   -1    0    0    0  501 -0.00000000000E+00  0.00000000000E+00  0.46428672350E+03  0.46428672350E+03  0.00000000000E+00 0.  1.
          3   -1    0    0  501    0  0.00000000000E+00 -0.00000000000E+00 -0.59978046114E+02  0.59978046114E+02  0.00000000000E+00 0. -1.
         23    2    1    2    0    0  0.11570632183E+03  0.38035958985E+02  0.20349972228E+03  0.26809646806E+03  0.12501556754E+03 0.  0.
         23    2    1    2    0    0 -0.11570632183E+03 -0.38035958985E+02  0.20080895510E+03  0.25616830155E+03  0.10229015194E+03 0.  0.
          5    1    3    3  502    0  0.29085518383E+02 -0.27597821771E+02  0.13172275975E+03  0.13777003514E+03  0.47000000000E+01 0. -1.
         -5    1    3    3    0  502  0.86620803451E+02  0.65633780756E+02  0.71776962532E+02  0.13032643292E+03  0.47000000000E+01 0. -1.
        -11    1    4    4    0    0 -0.84362020076E+02 -0.51683833555E+02  0.19863812109E+03  0.22191275816E+03  0.00000000000E+00 0.  1.
         11    1    4    4    0    0 -0.31344301759E+02  0.13647874570E+02  0.21708340079E+01  0.34255543395E+02  0.00000000000E+00 0. -1.
<mgrwt>
<rscale>  0 0.17053108E+03</rscale>
<asrwt>0</asrwt>
<pdfrwt beam="2">  1        3 0.92273920E-02 0.17453819E+03</pdfrwt>
<pdfrwt beam="1">  1       -3 0.71428724E-01 0.17453819E+03</pdfrwt>
<totfact> 0.38600124E+02</totfact>
</mgrwt>
</event>
<event>
 8    1  0.1033707E-005  0.1254109E+03  0.7546771E-02  0.1250007E+00
         -2   -1    0    0    0  501 -0.00000000000E+00  0.00000000000E+00  0.95365753933E+02  0.95365753933E+02  0.00000000000E+00 0.  1.
          2   -1    0    0  501    0  0.00000000000E+00 -0.00000000000E+00 -0.13234574871E+03  0.13234574871E+03  0.00000000000E+00 0. -1.
         23    2    1    2    0    0 -0.77003042779E+01 -0.65759034877E+01  0.81714009096E+01  0.12567681397E+03  0.12500141033E+03 0.  0.
         23    2    1    2    0    0  0.77003042779E+01  0.65759034877E+01 -0.45151395682E+02  0.10203468867E+03  0.90938946371E+02 0.  0.
          5    1    3    3  502    0 -0.24892280006E+02 -0.23781183031E+02 -0.50895901772E+02  0.61625101115E+02  0.47000000000E+01 0. -1.
         -5    1    3    3    0  502  0.17191975728E+02  0.17205279543E+02  0.59067302681E+02  0.64051712855E+02  0.47000000000E+01 0. -1.
        -11    1    4    4    0    0  0.16337001755E+02 -0.74392018188E+01 -0.69979153540E+02  0.72244870269E+02  0.00000000000E+00 0. -1.
         11    1    4    4    0    0 -0.86366974770E+01  0.14015105306E+02  0.24827757858E+02  0.29789818400E+02  0.00000000000E+00 0.  1.
<mgrwt>
<rscale>  0 0.11590652E+03</rscale>
<asrwt>0</asrwt>
<pdfrwt beam="2">  1        2 0.20360884E-01 0.12541088E+03</pdfrwt>
<pdfrwt beam="1">  1       -2 0.14671655E-01 0.12541088E+03</pdfrwt>
<totfact> 0.90481225E+03</totfact>
</mgrwt>
</event>
<event>
 8    1  0.1033707E-005  0.1426626E+03  0.7546771E-02  0.1219360E+00
         -1   -1    0    0    0  501 -0.00000000000E+00  0.00000000000E+00  0.41477217918E+03  0.41477217918E+03  0.00000000000E+00 0.  1.
          1   -1    0    0  501    0  0.00000000000E+00 -0.00000000000E+00 -0.40500885234E+02  0.40500885234E+02  0.00000000000E+00 0. -1.
         23    2    1    2    0    0  0.59165284794E+02 -0.35040149682E+02  0.21153580430E+03  0.25514703947E+03  0.12499708890E+03 0.  0.
         23    2    1    2    0    0 -0.59165284794E+02  0.35040149682E+02  0.16273548965E+03  0.20012602495E+03  0.94017249778E+02 0.  0.
          5    1    3    3  502    0  0.72369974912E+01 -0.22975727508E+02 -0.10542396773E+02  0.26711239524E+02  0.47000000000E+01 0.  1.
         -5    1    3    3    0  502  0.51928287302E+02 -0.12064422173E+02  0.22207820107E+03  0.22843579994E+03  0.47000000000E+01 0.  1.
        -11    1    4    4    0    0 -0.39592164219E+02  0.47465751506E+02  0.16560584873E+03  0.17676491215E+03  0.00000000000E+00 0.  1.
         11    1    4    4    0    0 -0.19573120574E+02 -0.12425601825E+02 -0.28703590854E+01  0.23361112795E+02  0.00000000000E+00 0. -1.
<mgrwt>
<rscale>  0 0.13561115E+03</rscale>
<asrwt>0</asrwt>
<pdfrwt beam="2">  1        1 0.62309057E-02 0.14266259E+03</pdfrwt>
<pdfrwt beam="1">  1       -1 0.63811101E-01 0.14266259E+03</pdfrwt>
<totfact> 0.30538941E+03</totfact>
</mgrwt>
</event>
<event>
 8    1  0.1033707E-005  0.1725886E+03  0.7546771E-02  0.1181222E+00
         -1   -1    0    0    0  501 -0.00000000000E+00  0.00000000000E+00  0.59612486839E+02  0.59612486839E+02  0.00000000000E+00 0.  1.
          1   -1    0    0  501    0  0.00000000000E+00 -0.00000000000E+00 -0.49802378262E+03  0.49802378262E+03  0.00000000000E+00 0. -1.
         23    2    1    2    0    0  0.73844443615E+02  0.93322004673E+02 -0.13574008736E+03  0.21957279075E+03  0.12499936285E+03 0.  0.
         23    2    1    2    0    0 -0.73844443615E+02 -0.93322004673E+02 -0.30267120842E+03  0.33806347870E+03  0.92277065514E+02 0.  0.
          5    1    3    3  502    0 -0.21745753609E+01  0.45341643517E+02  0.11438869509E+02  0.47048179035E+02  0.47000000000E+01 0.  1.
         -5    1    3    3    0  502  0.76019018976E+02  0.47980361156E+02 -0.14717895687E+03  0.17252461172E+03  0.47000000000E+01 0.  1.
        -11    1    4    4    0    0 -0.62336480635E+01 -0.48525859604E+02 -0.20670217092E+03  0.21241328791E+03  0.00000000000E+00 0. -1.
         11    1    4    4    0    0 -0.67610795552E+02 -0.44796145070E+02 -0.95969037501E+02  0.12565019080E+03  0.00000000000E+00 0.  1.
<mgrwt>
<rscale>  0 0.16680440E+03</rscale>
<asrwt>0</asrwt>
<pdfrwt beam="2">  1        1 0.76619039E-01 0.17258864E+03</pdfrwt>
<pdfrwt beam="1">  1       -1 0.91711523E-02 0.17258864E+03</pdfrwt>
<totfact> 0.31090359E+03</totfact>
</mgrwt>
</event>
<event>
 8    1  0.1033707E-005  0.1388856E+03  0.7546771E-02  0.1225859E+00
         -1   -1    0    0    0  501 -0.00000000000E+00  0.00000000000E+00  0.15432775069E+03  0.15432775069E+03  0.00000000000E+00 0.  1.
          1   -1    0    0  501    0  0.00000000000E+00 -0.00000000000E+00 -0.10075239400E+03  0.10075239400E+03  0.00000000000E+00 0. -1.
         23    2    1    2    0    0  0.54453889436E+02 -0.26422536123E+02  0.23660383283E+02  0.14088658337E+03  0.12500335654E+03 0.  0.
         23    2    1    2    0    0 -0.54453889436E+02  0.26422536123E+02  0.29914973401E+02  0.11419356132E+03  0.92097162407E+02 0.  0.
          5    1    3    3  502    0  0.33562606236E+02 -0.32668132731E+02 -0.47162784477E+02  0.66633877818E+02  0.47000000000E+01 0. -1.
         -5    1    3    3    0  502  0.20891283200E+02  0.62455966081E+01  0.70823167759E+02  0.74252705555E+02  0.47000000000E+01 0. -1.
        -11    1    4    4    0    0 -0.53740267832E+02 -0.11151040216E+02 -0.13752420130E+02  0.56581720935E+02  0.00000000000E+00 0. -1.
         11    1    4    4    0    0 -0.71362160433E+00  0.37573576339E+02  0.43667393531E+02  0.57611840385E+02  0.00000000000E+00 0.  1.
<mgrwt>
<rscale>  0 0.13108223E+03</rscale>
<asrwt>0</asrwt>
<pdfrwt beam="2">  1        1 0.15500368E-01 0.13888562E+03</pdfrwt>
<pdfrwt beam="1">  1       -1 0.23742731E-01 0.13888562E+03</pdfrwt>
<totfact> 0.51726038E+03</totfact>
</mgrwt>
</event>
<event>
 8    1  0.1033707E-005  0.1646856E+03  0.7546771E-02  0.1190217E+00
          1   -1    0    0  501    0  0.00000000000E+00  0.00000000000E+00  0.30198431444E+02  0.30198431444E+02  0.00000000000E+00 0. -1.
         -1   -1    0    0    0  501 -0.00000000000E+00 -0.00000000000E+00 -0.80257595746E+03  0.80257595746E+03  0.00000000000E+00 0.  1.
         23    2    1    2    0    0 -0.78392852878E+02 -0.73133493212E+02 -0.34141764418E+03  0.37906115002E+03  0.12500960157E+03 0.  0.
         23    2    1    2    0    0  0.78392852878E+02  0.73133493212E+02 -0.43095988184E+03  0.45371323889E+03  0.92926509543E+02 0.  0.
          5    1    3    3  502    0 -0.37885613513E+02 -0.10001137529E+03 -0.17065830604E+03  0.20145456639E+03  0.47000000000E+01 0.  1.
         -5    1    3    3    0  502 -0.40507239365E+02  0.26877882081E+02 -0.17075933814E+03  0.17760658363E+03  0.47000000000E+01 0.  1.
        -11    1    4    4    0    0  0.32001537253E+01 -0.20879126883E+02 -0.76829009377E+02  0.79679831859E+02  0.00000000000E+00 0.  1.
         11    1    4    4    0    0  0.75192699152E+02  0.94012620095E+02 -0.35413087246E+03  0.37403340703E+03  0.00000000000E+00 0. -1.
<mgrwt>
<rscale>  0 0.15866103E+03</rscale>
<asrwt>0</asrwt>
<pdfrwt beam="1">  1        1 0.46459129E-02 0.16468560E+03</pdfrwt>
<pdfrwt beam="2">  1       -1 0.12347322E+00 0.16468560E+03</pdfrwt>
<totfact> 0.11236648E+03</totfact>
</mgrwt>
</event>
<event>
 8    1  0.1033707E-005  0.1937734E+03  0.7546771E-02  0.1159850E+00
         -1   -1    0    0    0  501 -0.00000000000E+00  0.00000000000E+00  0.20725647918E+02  0.20725647918E+02  0.00000000000E+00 0.  1.
          1   -1    0    0  501    0  0.00000000000E+00 -0.00000000000E+00 -0.16380588439E+04  0.16380588439E+04  0.00000000000E+00 0. -1.
         23    2    1    2    0    0  0.12736856126E+03  0.75642725782E+02 -0.92346137328E+03  0.94357249597E+03  0.12491427001E+03 0.  0.
         23    2    1    2    0    0 -0.12736856126E+03 -0.75642725782E+02 -0.69387182274E+03  0.71521199589E+03  0.90141667970E+02 0.  0.
          5    1    3    3  502    0 -0.64210044647E+01  0.48937314610E+02 -0.14524692577E+03  0.15347589226E+03  0.47000000000E+01 0. -1.
         -5    1    3    3    0  502  0.13378956572E+03  0.26705411172E+02 -0.77821444751E+03  0.79009660371E+03  0.47000000000E+01 0. -1.
        -11    1    4    4    0    0 -0.36408707938E+02  0.19009329116E+02 -0.20131631354E+03  0.20546339505E+03  0.00000000000E+00 0. -1.
         11    1    4    4    0    0 -0.90959853319E+02 -0.94652054898E+02 -0.49255550920E+03  0.50974860084E+03  0.00000000000E+00 0.  1.
<mgrwt>
<rscale>  0 0.18846796E+03</rscale>
<asrwt>0</asrwt>
<pdfrwt beam="2">  1        1 0.25200916E+00 0.19377344E+03</pdfrwt>
<pdfrwt beam="1">  1       -1 0.31885598E-02 0.19377344E+03</pdfrwt>
<totfact> 0.20014372E+03</totfact>
</mgrwt>
</event>
<event>
 8    1  0.1033707E-005  0.1506055E+03  0.7546771E-02  0.1202913E+00
          2   -1    0    0  501    0  0.00000000000E+00  0.00000000000E+00  0.49892676720E+03  0.49892676720E+03  0.00000000000E+00 0. -1.
         -2   -1    0    0    0  501 -0.00000000000E+00 -0.00000000000E+00 -0.49380332138E+02  0.49380332138E+02  0.00000000000E+00 0.  1.
         23    2    1    2    0    0 -0.90501387763E+02 -0.41747638370E+02  0.12902950549E+03  0.19831949948E+03  0.11290989369E+03 0.  0.
         23    2    1    2    0    0  0.90501387763E+02  0.41747638370E+02  0.32051692958E+03  0.34998759986E+03  0.99130476697E+02 0.  0.
          5    1    3    3  502    0 -0.60865725370E+01  0.32539756327E+02  0.52413791357E+02  0.62170552768E+02  0.47000000000E+01 0. -1.
         -5    1    3    3    0  502 -0.84414815226E+02 -0.74287394697E+02  0.76615714128E+02  0.13614894672E+03  0.47000000000E+01 0.  1.
        -11    1    4    4    0    0  0.61736307452E+02  0.22631028072E+02  0.30520485040E+03  0.31220752041E+03  0.00000000000E+00 0. -1.
         11    1    4    4    0    0  0.28765080311E+02  0.19116610299E+02  0.15312079178E+02  0.37780079451E+02  0.00000000000E+00 0.  1.
<mgrwt>
<rscale>  0 0.14803164E+03</rscale>
<asrwt>0</asrwt>
<pdfrwt beam="1">  1        2 0.76757961E-01 0.15060548E+03</pdfrwt>
<pdfrwt beam="2">  1       -2 0.75969745E-02 0.15060548E+03</pdfrwt>
<totfact> 0.61821974E+03</totfact>
</mgrwt>
</event>
<event>
 8    1  0.1033707E-005  0.1313894E+03  0.7546771E-02  0.1238551E+00
          1   -1    0    0  501    0  0.00000000000E+00  0.00000000000E+00  0.53962646393E+02  0.53962646393E+02  0.00000000000E+00 0. -1.
         -1   -1    0    0    0  501 -0.00000000000E+00 -0.00000000000E+00 -0.24934796997E+03  0.24934796997E+03  0.00000000000E+00 0.  1.
         23    2    1    2    0    0 -0.38134825050E+02 -0.13610766754E+02 -0.10247834877E+03  0.16662827384E+03  0.12499460718E+03 0.  0.
         23    2    1    2    0    0  0.38134825050E+02  0.13610766754E+02 -0.92906974809E+02  0.13668234253E+03  0.91710626085E+02 0.  0.
          5    1    3    3  502    0 -0.71332577098E+01  0.53802164383E+02 -0.27447616947E+02  0.61000146999E+02  0.47000000000E+01 0. -1.
         -5    1    3    3    0  502 -0.31001567340E+02 -0.67412931137E+02 -0.75030731826E+02  0.10562812684E+03  0.47000000000E+01 0. -1.
        -11    1    4    4    0    0 -0.23877278967E+02  0.23548394330E+02 -0.51503060541E+02  0.61459064193E+02  0.00000000000E+00 0.  1.
         11    1    4    4    0    0  0.62012104016E+02 -0.99376275760E+01 -0.41403914268E+02  0.75223278332E+02  0.00000000000E+00 0. -1.
<mgrwt>
<rscale>  0 0.12279845E+03</rscale>
<asrwt>0</asrwt>
<pdfrwt beam="1">  1        1 0.83019456E-02 0.13138938E+03</pdfrwt>
<pdfrwt beam="2">  1       -1 0.38361226E-01 0.13138938E+03</pdfrwt>
<totfact> 0.52277494E+03</totfact>
</mgrwt>
</event>
<event>
 8    1  0.1033707E-005  0.1829124E+03  0.7546771E-02  0.1170510E+00
         -1   -1    0    0    0  501 -0.00000000000E+00  0.00000000000E+00  0.15282941606E+03  0.15282941606E+03  0.00000000000E+00 0.  1.
          1   -1    0    0  501    0  0.00000000000E+00 -0.00000000000E+00 -0.20175359805E+03  0.20175359805E+03  0.00000000000E+00 0. -1.
         23    2    1    2    0    0  0.11889942913E+03  0.60782783902E+02  0.93465312418E+01  0.18315105838E+03  0.12500132589E+03 0.  0.
         23    2    1    2    0    0 -0.11889942913E+03 -0.60782783902E+02 -0.58270713234E+02  0.17143195573E+03  0.90342782547E+02 0.  0.
          5    1    3    3  502    0  0.49310695702E+02 -0.33922192719E+02 -0.17449065533E+02  0.62520554680E+02  0.47000000000E+01 0.  1.
         -5    1    3    3    0  502  0.69588733428E+02  0.94704976621E+02  0.26795596775E+02  0.12063050370E+03  0.47000000000E+01 0.  1.
        -11    1    4    4    0    0 -0.16115694258E+02 -0.24777229273E+02  0.21402413239E+02  0.36492327746E+02  0.00000000000E+00 0.  1.
         11    1    4    4    0    0 -0.10278373487E+03 -0.36005554629E+02 -0.79673126474E+02  0.13493962798E+03  0.00000000000E+00 0. -1.
<mgrwt>
<rscale>  0 0.17723127E+03</rscale>
<asrwt>0</asrwt>
<pdfrwt beam="2">  1        1 0.31039015E-01 0.18291242E+03</pdfrwt>
<pdfrwt beam="1">  1       -1 0.23512218E-01 0.18291242E+03</pdfrwt>
<totfact> 0.22038239E+03</totfact>
</mgrwt>
</event>
<event>
 8    1  0.1033707E-005  0.1603685E+03  0.7546771E-02  0.1195343E+00
         -2   -1    0    0    0  501 -0.00000000000E+00  0.00000000000E+00  0.12389478255E+03  0.12389478255E+03  0.00000000000E+00 0. -1.
          2   -1    0    0  501    0  0.00000000000E+00 -0.00000000000E+00 -0.17894372172E+03  0.17894372172E+03  0.00000000000E+00 0.  1.
         23    2    1    2    0    0 -0.91650490911E+02  0.41143785577E+02 -0.24744434845E+02  0.16226630680E+03  0.12500177475E+03 0.  0.
         23    2    1    2    0    0  0.91650490911E+02 -0.41143785577E+02 -0.30304504323E+02  0.14057219747E+03  0.93539062132E+02 0.  0.
          5    1    3    3  502    0 -0.25202132032E+02 -0.36094532994E+02  0.22725699169E+02  0.49764547358E+02  0.47000000000E+01 0. -1.
         -5    1    3    3    0  502 -0.66448358879E+02  0.77238318571E+02 -0.47470134014E+02  0.11250175944E+03  0.47000000000E+01 0. -1.
        -11    1    4    4    0    0  0.15890255499E+02  0.29185251102E+02 -0.15115095604E+01  0.33265053177E+02  0.00000000000E+00 0. -1.
         11    1    4    4    0    0  0.75760235412E+02 -0.70329036679E+02 -0.28792994763E+02  0.10730714430E+03  0.00000000000E+00 0.  1.
<mgrwt>
<rscale>  0 0.15425199E+03</rscale>
<asrwt>0</asrwt>
<pdfrwt beam="2">  1        2 0.27529803E-01 0.16036854E+03</pdfrwt>
<pdfrwt beam="1">  1       -2 0.19060736E-01 0.16036854E+03</pdfrwt>
<totfact> 0.42651734E+03</totfact>
</mgrwt>
</event>
<event>
 7    1  0.1033707E-005  0.2480240E+03  0.7546771E-02  0.1149399E+00
         -2   -1    0    0    0  501 -0.00000000000E+00  0.00000000000E+00  0.11815135298E+03  0.11815135298E+03  0.00000000000E+00 0.  1.
          2   -1    0    0  501    0  0.00000000000E+00 -0.00000000000E+00 -0.40679676728E+03  0.40679676728E+03  0.00000000000E+00 0. -1.
         23    2    1    2    0    0 -0.23524984817E+02 -0.46908105149E+02 -0.25322696395E+03  0.27440798508E+03  0.91771737291E+02 0.  0.
          5    1    1    2  502    0 -0.15112574751E+02 -0.62572683196E+02 -0.98929064721E+02  0.11812188808E+03  0.47000000000E+01 0. -1.
         -5    1    1    2    0  502  0.38637559568E+02  0.10948078834E+03  0.63510614369E+02  0.13241824709E+03  0.47000000000E+01 0.  1.
        -11    1    3    3    0    0 -0.47461514596E+02 -0.57434175319E+02 -0.21905427022E+03  0.23137859271E+03  0.00000000000E+00 0. -1.
         11    1    3    3    0    0  0.23936529780E+02  0.10526070170E+02 -0.34172693730E+02  0.43029392371E+02  0.00000000000E+00 0.  1.
<mgrwt>
<rscale>  0 0.20040350E+03</rscale>
<asrwt>0</asrwt>
<pdfrwt beam="2">  1        2 0.62584118E-01 0.24802398E+03</pdfrwt>
<pdfrwt beam="1">  1       -2 0.18177131E-01 0.24802398E+03</pdfrwt>
<totfact> 0.19332598E+03</totfact>
</mgrwt>
</event>
<event>
 8    1  0.1033707E-005  0.1753177E+03  0.7546771E-02  0.1179096E+00
         -1   -1    0    0    0  501 -0.00000000000E+00  0.00000000000E+00  0.75481738987E+02  0.75481738987E+02  0.00000000000E+00 0.  1.
          1   -1    0    0  501    0  0.00000000000E+00 -0.00000000000E+00 -0.35511782559E+03  0.35511782559E+03  0.00000000000E+00 0. -1.
         23    2    1    2    0    0  0.76566998851E+02 -0.96165733343E+02 -0.13024720231E+03  0.21840472194E+03  0.12500374103E+03 0.  0.
         23    2    1    2    0    0 -0.76566998851E+02  0.96165733343E+02 -0.14938888429E+03  0.21219484265E+03  0.87173728341E+02 0.  0.
          5    1    3    3  502    0  0.29462162985E+02 -0.45424049507E+02  0.15895728301E+02  0.56622676549E+02  0.47000000000E+01 0. -1.
         -5    1    3    3    0  502  0.47104835866E+02 -0.50741683836E+02 -0.14614293062E+03  0.16178204539E+03  0.47000000000E+01 0. -1.
        -11    1    4    4    0    0 -0.88080422290E+02  0.59337277392E+02 -0.13318422254E+03  0.17034409415E+03  0.00000000000E+00 0.  1.
         11    1    4    4    0    0  0.11513423439E+02  0.36828455952E+02 -0.16204661756E+02  0.41850748496E+02  0.00000000000E+00 0. -1.
<mgrwt>
<rscale>  0 0.16880896E+03</rscale>
<asrwt>0</asrwt>
<pdfrwt beam="2">  1        1 0.54633510E-01 0.17531768E+03</pdfrwt>
<pdfrwt beam="1">  1       -1 0.11612576E-01 0.17531768E+03</pdfrwt>
<totfact> 0.33372327E+03</totfact>
</mgrwt>
</event>
<event>
 8    1  0.1033707E-005  0.1597259E+03  0.7546771E-02  0.1196418E+00
          2   -1    0    0  501    0  0.00000000000E+00  0.00000000000E+00  0.49970578853E+02  0.49970578853E+02  0.00000000000E+00 0. -1.
         -2   -1    0    0    0  501 -0.00000000000E+00 -0.00000000000E+00 -0.44266521728E+03  0.44266521728E+03  0.00000000000E+00 0.  1.
         23    2    1    2    0    0  0.83927648284E+02 -0.53338632644E+02 -0.24072432645E+03  0.28889543114E+03  0.12499403550E+03 0.  0.
         23    2    1    2    0    0 -0.83927648284E+02  0.53338632644E+02 -0.15197031197E+03  0.20374036499E+03  0.92337970119E+02 0.  0.
          5    1    3    3  502    0 -0.30380150643E+02  0.52531636713E+01 -0.46269870058E+02  0.55799105340E+02  0.47000000000E+01 0.  1.
         -5    1    3    3    0  502  0.11430779893E+03 -0.58591796315E+02 -0.19445445640E+03  0.23309632580E+03  0.47000000000E+01 0.  1.
        -11    1    4    4    0    0 -0.11731158898E+02 -0.25694540603E+02 -0.38453171444E+02  0.47712429198E+02  0.00000000000E+00 0.  1.
         11    1    4    4    0    0 -0.72196489386E+02  0.79033173247E+02 -0.11351714053E+03  0.15602793579E+03  0.00000000000E+00 0. -1.
<mgrwt>
<rscale>  0 0.15334813E+03</rscale>
<asrwt>0</asrwt>
<pdfrwt beam="1">  1        2 0.76877816E-02 0.15972592E+03</pdfrwt>
<pdfrwt beam="2">  1       -2 0.68102339E-01 0.15972592E+03</pdfrwt>
<totfact> 0.17643857E+03</totfact>
</mgrwt>
</event>
<event>
 8    1  0.1033707E-005  0.1406790E+03  0.7546771E-02  0.1223444E+00
         -2   -1    0    0    0  501 -0.00000000000E+00  0.00000000000E+00  0.90849494287E+02  0.90849494287E+02  0.00000000000E+00 0.  1.
          2   -1    0    0  501    0  0.00000000000E+00 -0.00000000000E+00 -0.18555465596E+03  0.18555465596E+03  0.00000000000E+00 0. -1.
         23    2    1    2    0    0 -0.11615643984E+02  0.63506597097E+02 -0.19794558841E+02  0.14206482521E+03  0.12499031540E+03 0.  0.
         23    2    1    2    0    0  0.11615643984E+02 -0.63506597097E+02 -0.74910602833E+02  0.13433932503E+03  0.90925490233E+02 0.  0.
          5    1    3    3  502    0  0.46394401937E+02 -0.33136227153E+01 -0.25531010172E+02  0.53266716691E+02  0.47000000000E+01 0. -1.
         -5    1    3    3    0  502 -0.58010045921E+02  0.66820219812E+02  0.57364513311E+01  0.88798108524E+02  0.47000000000E+01 0. -1.
        -11    1    4    4    0    0  0.23357744363E+02 -0.51060005752E+02 -0.93505977271E+02  0.10906913493E+03  0.00000000000E+00 0. -1.
         11    1    4    4    0    0 -0.11742100379E+02 -0.12446591345E+02  0.18595374438E+02  0.25270190104E+02  0.00000000000E+00 0.  1.
<mgrwt>
<rscale>  0 0.13274090E+03</rscale>
<asrwt>0</asrwt>
<pdfrwt beam="2">  1        2 0.28546870E-01 0.14067903E+03</pdfrwt>
<pdfrwt beam="1">  1       -2 0.13976846E-01 0.14067903E+03</pdfrwt>
<totfact> 0.67928023E+03</totfact>
</mgrwt>
</event>
<event>
 8    1  0.1033707E-005  0.1277627E+03  0.7546771E-02  0.1245125E+00
          3   -1    0    0  501    0  0.00000000000E+00  0.00000000000E+00  0.43011941162E+02  0.43011941162E+02  0.00000000000E+00 0. -1.
         -3   -1    0    0    0  501 -0.00000000000E+00 -0.00000000000E+00 -0.30810998448E+03  0.30810998448E+03  0.00000000000E+00 0.  1.
         23    2    1    2    0    0  0.96772818293E+01 -0.24496189725E+02 -0.19322153466E+03  0.23164166167E+03  0.12501833814E+03 0.  0.
         23    2    1    2    0    0 -0.96772818293E+01  0.24496189725E+02 -0.71876508662E+02  0.11948026397E+03  0.91736513380E+02 0.  0.
          5    1    3    3  502    0 -0.46992646405E+02  0.12442293754E+02 -0.36787612547E+02  0.61143584512E+02  0.47000000000E+01 0.  1.
         -5    1    3    3    0  502  0.56669928235E+02 -0.36938483479E+02 -0.15643392211E+03  0.17049807716E+03  0.47000000000E+01 0.  1.
        -11    1    4    4    0    0  0.15685868037E+02  0.10640073698E+02 -0.85466705536E+02  0.87543220066E+02  0.00000000000E+00 0.  1.
         11    1    4    4    0    0 -0.25363149866E+02  0.13856116028E+02  0.13590196874E+02  0.31937043908E+02  0.00000000000E+00 0. -1.
<mgrwt>
<rscale>  0 0.11877871E+03</rscale>
<asrwt>0</asrwt>
<pdfrwt beam="1">  1        3 0.66172218E-02 0.12776266E+03</pdfrwt>
<pdfrwt beam="2">  1       -3 0.47401536E-01 0.12776266E+03</pdfrwt>
<totfact> 0.14703880E+03</totfact>
</mgrwt>
</event>
<event>
 8    1  0.1033707E-005  0.1896919E+03  0.7546771E-02  0.1163643E+00
         -2   -1    0    0    0  501 -0.00000000000E+00  0.00000000000E+00  0.58249204554E+03  0.58249204554E+03  0.00000000000E+00 0. -1.
          2   -1    0    0  501    0  0.00000000000E+00 -0.00000000000E+00 -0.61535676390E+02  0.61535676390E+02  0.00000000000E+00 0.  1.
         23    2    1    2    0    0  0.21288579439E+02  0.14108803911E+03  0.37613368035E+03  0.42125948405E+03  0.12499587600E+03 0.  0.
         23    2    1    2    0    0 -0.21288579439E+02 -0.14108803911E+03  0.14482268881E+03  0.22276823789E+03  0.91066120063E+02 0.  0.
          5    1    3    3  502    0 -0.21263201029E+02  0.92239367750E+02  0.10075928492E+03  0.13832840699E+03  0.47000000000E+01 0.  1.
         -5    1    3    3    0  502  0.42551780468E+02  0.48848671356E+02  0.27537439542E+03  0.28293107706E+03  0.47000000000E+01 0.  1.
        -11    1    4    4    0    0 -0.17021551455E+02 -0.52510689146E+02  0.11775159575E+03  0.13004823717E+03  0.00000000000E+00 0. -1.
         11    1    4    4    0    0 -0.42670279840E+01 -0.88577349960E+02  0.27071093058E+02  0.92720000718E+02  0.00000000000E+00 0.  1.
<mgrwt>
<rscale>  0 0.18436610E+03</rscale>
<asrwt>0</asrwt>
<pdfrwt beam="2">  1        2 0.94670275E-02 0.18969187E+03</pdfrwt>
<pdfrwt beam="1">  1       -2 0.89614157E-01 0.18969187E+03</pdfrwt>
<totfact> 0.75052747E+02</totfact>
</mgrwt>
</event>
<event>
 8    1  0.1033707E-005  0.1859968E+03  0.7546771E-02  0.1167958E+00
          1   -1    0    0  501    0  0.00000000000E+00  0.00000000000E+00  0.60404127994E+03  0.60404127994E+03  0.00000000000E+00 0. -1.
         -1   -1    0    0    0  501 -0.00000000000E+00 -0.00000000000E+00 -0.52408537980E+02  0.52408537980E+02  0.00000000000E+00 0.  1.
         23    2    1    2    0    0 -0.30446942751E+02 -0.13432448157E+03  0.22766843139E+03  0.29398593426E+03  0.12499892886E+03 0.  0.
         23    2    1    2    0    0  0.30446942751E+02  0.13432448157E+03  0.32396431057E+03  0.36246388366E+03  0.86354558450E+02 0.  0.
          5    1    3    3  502    0 -0.15381599092E+01  0.24244676786E+02  0.29874182551E+02  0.38790811688E+02  0.47000000000E+01 0.  1.
         -5    1    3    3    0  502 -0.28908782841E+02 -0.15856915836E+03  0.19779424884E+03  0.25519512257E+03  0.47000000000E+01 0.  1.
        -11    1    4    4    0    0  0.16146088321E+02 -0.88600118755E+01  0.30753406710E+02  0.35846450351E+02  0.00000000000E+00 0. -1.
         11    1    4    4    0    0  0.14300854430E+02  0.14318449345E+03  0.29321090386E+03  0.32661743331E+03  0.00000000000E+00 0.  1.
<mgrwt>
<rscale>  0 0.17983967E+03</rscale>
<asrwt>0</asrwt>
<pdfrwt beam="1">  1        1 0.92929423E-01 0.18599681E+03</pdfrwt>
<pdfrwt beam="2">  1       -1 0.80628524E-02 0.18599681E+03</pdfrwt>
<totfact> 0.29259084E+03</totfact>
</mgrwt>
</event>
<event>
 8    1  0.1033707E-005  0.1550237E+03  0.7546771E-02  0.1202887E+00
         -2   -1    0    0    0  501 -0.00000000000E+00  0.00000000000E+00  0.47943725714E+03  0.47943725714E+03  0.00000000000E+00 0. -1.
          2   -1    0    0  501    0  0.00000000000E+00 -0.00000000000E+00 -0.42571645679E+02  0.42571645679E+02  0.00000000000E+00 0.  1.
         23    2    1    2    0    0 -0.30204630496E+02 -0.86562041407E+02  0.26689100588E+03  0.30864729990E+03  0.12500815974E+03 0.  0.
         23    2    1    2    0    0  0.30204630496E+02  0.86562041407E+02  0.16997460558E+03  0.21336160292E+03  0.90700057011E+02 0.  0.
          5    1    3    3  502    0 -0.45012200281E+02  0.16876861595E+02  0.61931028569E+02  0.78539601036E+02  0.47000000000E+01 0.  1.
         -5    1    3    3    0  502  0.14807569785E+02 -0.10343890300E+03  0.20495997731E+03  0.23010769887E+03  0.47000000000E+01 0.  1.
        -11    1    4    4    0    0  0.56672663568E+01  0.64533744356E+02  0.33444272151E+02  0.72905702165E+02  0.00000000000E+00 0.  1.
         11    1    4    4    0    0  0.24537364139E+02  0.22028297051E+02  0.13653033343E+03  0.14045590075E+03  0.00000000000E+00 0. -1.
<mgrwt>
<rscale>  0 0.14805259E+03</rscale>
<asrwt>0</asrwt>
<pdfrwt beam="2">  1        2 0.65494843E-02 0.15502370E+03</pdfrwt>
<pdfrwt beam="1">  1       -2 0.73759574E-01 0.15502370E+03</pdfrwt>
<totfact> 0.18222726E+03</totfact>
</mgrwt>
</event>
<event>
 8    1  0.1033707E-005  0.1376901E+03  0.7546771E-02  0.1227414E+00
          1   -1    0    0  501    0  0.00000000000E+00  0.00000000000E+00  0.80537098168E+02  0.80537098168E+02  0.00000000000E+00 0. -1.
         -1   -1    0    0    0  501 -0.00000000000E+00 -0.00000000000E+00 -0.18983454436E+03  0.18983454436E+03  0.00000000000E+00 0.  1.
         23    2    1    2    0    0  0.24829905108E+02 -0.52132243803E+02 -0.64641261718E+02  0.15210869085E+03  0.12499706430E+03 0.  0.
         23    2    1    2    0    0 -0.24829905108E+02  0.52132243803E+02 -0.44656184477E+02  0.11826295168E+03  0.93046525444E+02 0.  0.
          5    1    3    3  502    0 -0.42537242340E+02 -0.54209648940E+02 -0.42092217716E+02  0.80882308426E+02  0.47000000000E+01 0. -1.
         -5    1    3    3    0  502  0.67367147448E+02  0.20774051376E+01 -0.22549044002E+02  0.71226382421E+02  0.47000000000E+01 0. -1.
        -11    1    4    4    0    0 -0.72539089889E+01  0.76812694887E+02 -0.42005616755E+02  0.87848057067E+02  0.00000000000E+00 0.  1.
         11    1    4    4    0    0 -0.17575996119E+02 -0.24680451084E+02 -0.26505677221E+01  0.30414894617E+02  0.00000000000E+00 0. -1.
<mgrwt>
<rscale>  0 0.13002841E+03</rscale>
<asrwt>0</asrwt>
<pdfrwt beam="1">  1        1 0.12390323E-01 0.13769009E+03</pdfrwt>
<pdfrwt beam="2">  1       -1 0.29205314E-01 0.13769009E+03</pdfrwt>
<totfact> 0.49126977E+03</totfact>
</mgrwt>
</event>
<event>
 8    1  0.1033707E-005  0.1311015E+03  0.7546771E-02  0.1239117E+00
          2   -1    0    0  501    0  0.00000000000E+00  0.00000000000E+00  0.21621368364E+03  0.21621368364E+03  0.00000000000E+00 0. -1.
         -2   -1    0    0    0  501 -0.00000000000E+00 -0.00000000000E+00 -0.83674300928E+02  0.83674300928E+02  0.00000000000E+00 0.  1.
         23    2    1    2    0    0  0.32082874657E+02  0.23114632053E+02 -0.35537659077E+01  0.13114962897E+03  0.12499599540E+03 0.  0.
         23    2    1    2    0    0 -0.32082874657E+02 -0.23114632053E+02  0.13609314862E+03  0.16873835559E+03  0.91584335376E+02 0.  0.
          5    1    3    3  502    0  0.31950643038E+02 -0.26530854409E+02  0.45093527093E+02  0.61483705255E+02  0.47000000000E+01 0. -1.
         -5    1    3    3    0  502  0.13223161874E+00  0.49645486462E+02 -0.48647293000E+02  0.69665923718E+02  0.47000000000E+01 0. -1.
        -11    1    4    4    0    0  0.12010813044E+02 -0.23027200771E+02  0.30790419310E+00  0.25973186371E+02  0.00000000000E+00 0.  1.
         11    1    4    4    0    0 -0.44093687701E+02 -0.87431282346E-01  0.13578524443E+03  0.14276516922E+03  0.00000000000E+00 0. -1.
<mgrwt>
<rscale>  0 0.12244487E+03</rscale>
<asrwt>0</asrwt>
<pdfrwt beam="1">  1        2 0.33263643E-01 0.13110147E+03</pdfrwt>
<pdfrwt beam="2">  1       -2 0.12872969E-01 0.13110147E+03</pdfrwt>
<totfact> 0.65450549E+03</totfact>
</mgrwt>
</event>
<event>
 8    1  0.1033707E-005  0.2598716E+03  0.7546771E-02  0.1109516E+00
         -4   -1    0    0    0  501 -0.00000000000E+00  0.00000000000E+00  0.87976036815E+02  0.87976036815E+02  0.00000000000E+00 0.  1.
          4   -1    0    0  501    0  0.00000000000E+00 -0.00000000000E+00 -0.79571596711E+03  0.79571596711E+03  0.00000000000E+00 0. -1.
         23    2    1    2    0    0  0.11205728620E+03 -0.19837629998E+03 -0.23121118141E+03  0.34783883292E+03  0.12499300577E+03 0.  0.
         23    2    1    2    0    0 -0.11205728620E+03  0.19837629998E+03 -0.47652874888E+03  0.53585317100E+03  0.90271704181E+02 0.  0.
          5    1    3    3  502    0  0.51454394760E+02 -0.26358277354E+02 -0.12230967156E+03  0.13536638904E+03  0.47000000000E+01 0. -1.
         -5    1    3    3    0  502  0.60602891440E+02 -0.17201802263E+03 -0.10890150986E+03  0.21247244388E+03  0.47000000000E+01 0. -1.
        -11    1    4    4    0    0 -0.69584306673E+02  0.12635734723E+03 -0.19751992437E+03  0.24458592653E+03  0.00000000000E+00 0.  1.
         11    1    4    4    0    0 -0.42472979527E+02  0.72018952753E+02 -0.27900882451E+03  0.29126724447E+03  0.00000000000E+00 0. -1.
<mgrwt>
<rscale>  0 0.25608925E+03</rscale>
<asrwt>0</asrwt>
<pdfrwt beam="2">  1        4 0.12241785E+00 0.25987159E+03</pdfrwt>
<pdfrwt beam="1">  1       -4 0.13534774E-01 0.25987159E+03</pdfrwt>
<totfact> 0.43519720E+01</totfact>
</mgrwt>
</event>
<event>
 8    1  0.1033707E-005  0.1795904E+03  0.7546771E-02  0.1173399E+00
         -2   -1    0    0    0  501 -0.00000000000E+00  0.00000000000E+00  0.12244738531E+03  0.12244738531E+03  0.00000000000E+00 0.  1.
          2   -1    0    0  501    0  0.00000000000E+00 -0.00000000000E+00 -0.27218240675E+03  0.27218240675E+03  0.00000000000E+00 0. -1.
         23    2    1    2    0    0  0.12671276060E+03  0.32346567311E+02 -0.56176840727E+01  0.17967825497E+03  0.12308652573E+03 0.  0.
         23    2    1    2    0    0 -0.12671276060E+03 -0.32346567311E+02 -0.14411733737E+03  0.21495153709E+03  0.91279418547E+02 0.  0.
          5    1    3    3  502    0  0.27151768376E+02 -0.31020440648E+02 -0.38998092048E+02  0.56942316842E+02  0.47000000000E+01 0. -1.
         -5    1    3    3    0  502  0.99560992229E+02  0.63367007959E+02  0.33380407975E+02  0.12273593813E+03  0.47000000000E+01 0. -1.
        -11    1    4    4    0    0 -0.48315764941E+02 -0.53119027109E+02 -0.37544500166E+02  0.81028597887E+02  0.00000000000E+00 0.  1.
         11    1    4    4    0    0 -0.78396995664E+02  0.20772459798E+02 -0.10657283721E+03  0.13392293921E+03  0.00000000000E+00 0. -1.
<mgrwt>
<rscale>  0 0.17433716E+03</rscale>
<asrwt>0</asrwt>
<pdfrwt beam="2">  1        2 0.41874216E-01 0.17959041E+03</pdfrwt>
<pdfrwt beam="1">  1       -2 0.18838059E-01 0.17959041E+03</pdfrwt>
<totfact> 0.27786930E+03</totfact>
</mgrwt>
</event>
<event>
 6    1  0.1033707E-005  0.1664205E+03  0.7546771E-02  0.1250493E+00
          2   -1    0    0  501    0  0.00000000000E+00  0.00000000000E+00  0.16213470704E+02  0.16213470704E+02  0.00000000000E+00 0. -1.
         -2   -1    0    0    0  501 -0.00000000000E+00 -0.00000000000E+00 -0.99972563096E+03  0.99972563096E+03  0.00000000000E+00 0.  1.
          5    1    1    2  502    0 -0.90190479206E+02  0.29306385561E+02 -0.44686499721E+03  0.45684089408E+03  0.47000000000E+01 0. -1.
         -5    1    1    2    0  502  0.60975467491E+02 -0.28192331412E+02 -0.50378982735E+03  0.50827069100E+03  0.47000000000E+01 0.  1.
        -11    1    1    2    0    0  0.41961154070E+01 -0.11066975226E+02 -0.93339359391E+01  0.15073409876E+02  0.00000000000E+00 0.  1.
         11    1    1    2    0    0  0.25018896308E+02  0.99529210769E+01 -0.23523399757E+02  0.35754106709E+02  0.00000000000E+00 0. -1.
<mgrwt>
<rscale>  0 0.11562586E+03</rscale>
<asrwt>0</asrwt>
<pdfrwt beam="1">  1        2 0.24943799E-02 0.16642048E+03</pdfrwt>
<pdfrwt beam="2">  1       -2 0.15380396E+00 0.16642048E+03</pdfrwt>
<totfact> 0.11711338E+03</totfact>
</mgrwt>
</event>
<event>
 8    1  0.1033707E-005  0.1487128E+03  0.7546771E-02  0.1211744E+00
          4   -1    0    0  501    0  0.00000000000E+00  0.00000000000E+00  0.15443300379E+03  0.15443300379E+03  0.00000000000E+00 0. -1.
         -4   -1    0    0    0  501 -0.00000000000E+00 -0.00000000000E+00 -0.14162626003E+03  0.14162626003E+03  0.00000000000E+00 0.  1.
         23    2    1    2    0    0 -0.10301043532E+02  0.79892957266E+02 -0.53749603714E+02  0.15812818658E+03  0.12500602934E+03 0.  0.
         23    2    1    2    0    0  0.10301043532E+02 -0.79892957266E+02  0.66556347474E+02  0.13793107725E+03  0.90034652017E+02 0.  0.
          5    1    3    3  502    0  0.45664334067E+02 -0.57646656127E+01 -0.17896219225E+02  0.49606727749E+02  0.47000000000E+01 0. -1.
         -5    1    3    3    0  502 -0.55965377599E+02  0.85657622879E+02 -0.35853384488E+02  0.10852145883E+03  0.47000000000E+01 0. -1.
        -11    1    4    4    0    0 -0.19943231648E+02 -0.46877635374E+02  0.76648212107E+02  0.92033654746E+02  0.00000000000E+00 0. -1.
         11    1    4    4    0    0  0.30244275180E+02 -0.33015321892E+02 -0.10091864632E+02  0.45897422505E+02  0.00000000000E+00 0.  1.
<mgrwt>
<rscale>  0 0.14118472E+03</rscale>
<asrwt>0</asrwt>
<pdfrwt beam="1">  1        4 0.23758924E-01 0.14871282E+03</pdfrwt>
<pdfrwt beam="2">  1       -4 0.21788655E-01 0.14871282E+03</pdfrwt>
<totfact> 0.53630910E+02</totfact>
</mgrwt>
</event>
<event>
 8    1  0.1033707E-005  0.1578262E+03  0.7546771E-02  0.1199105E+00
          2   -1    0    0  501    0  0.00000000000E+00  0.00000000000E+00  0.17777784242E+03  0.17777784242E+03  0.00000000000E+00 0. -1.
         -2   -1    0    0    0  501 -0.00000000000E+00 -0.00000000000E+00 -0.14233925738E+03  0.14233925738E+03  0.00000000000E+00 0.  1.
         23    2    1    2    0    0 -0.95870472267E+02  0.96252627229E+01 -0.46078477911E+02  0.16441515331E+03  0.12500129350E+03 0.  0.
         23    2    1    2    0    0  0.95870472267E+02 -0.96252627229E+01  0.81517062945E+02  0.15570194649E+03  0.91182626935E+02 0.  0.
          5    1    3    3  502    0 -0.81228129085E+02  0.62602177619E+02 -0.29560759753E+02  0.10683150338E+03  0.47000000000E+01 0. -1.
         -5    1    3    3    0  502 -0.14642343182E+02 -0.52976914896E+02 -0.16517718157E+02  0.57583649927E+02  0.47000000000E+01 0. -1.
        -11    1    4    4    0    0  0.21119158209E+02 -0.39159829251E+02  0.50734787637E+01  0.44780031903E+02  0.00000000000E+00 0.  1.
         11    1    4    4    0    0  0.74751314058E+02  0.29534566529E+02  0.76443584182E+02  0.11092191459E+03  0.00000000000E+00 0. -1.
<mgrwt>
<rscale>  0 0.15111845E+03</rscale>
<asrwt>0</asrwt>
<pdfrwt beam="1">  1        2 0.27350437E-01 0.15782622E+03</pdfrwt>
<pdfrwt beam="2">  1       -2 0.21898347E-01 0.15782622E+03</pdfrwt>
<totfact> 0.33886113E+03</totfact>
</mgrwt>
</event>
<event>
 8    1  0.1033707E-005  0.1416072E+03  0.7546771E-02  0.1221978E+00
         -1   -1    0    0    0  501 -0.00000000000E+00  0.00000000000E+00  0.35250172062E+03  0.35250172062E+03  0.00000000000E+00 0.  1.
          1   -1    0    0  501    0  0.00000000000E+00 -0.00000000000E+00 -0.64801206014E+02  0.64801206014E+02  0.00000000000E+00 0. -1.
         23    2    1    2    0    0  0.66539579625E+02 -0.18478425225E+00  0.26763843361E+03  0.30279188637E+03  0.12500018202E+03 0.  0.
         23    2    1    2    0    0 -0.66539579625E+02  0.18478425225E+00  0.20062081003E+02  0.11451104027E+03  0.91009567894E+02 0.  0.
          5    1    3    3  502    0 -0.27534632461E+02  0.24839288770E+01  0.14732441773E+03  0.14996966342E+03  0.47000000000E+01 0.  1.
         -5    1    3    3    0  502  0.94074212086E+02 -0.26687131293E+01  0.12031401588E+03  0.15282222295E+03  0.47000000000E+01 0.  1.
        -11    1    4    4    0    0 -0.74647757339E+02 -0.26275358704E+02 -0.19325683927E+01  0.79160703454E+02  0.00000000000E+00 0. -1.
         11    1    4    4    0    0  0.81081777146E+01  0.26460142956E+02  0.21994649396E+02  0.35350336818E+02  0.00000000000E+00 0.  1.
<mgrwt>
<rscale>  0 0.13376220E+03</rscale>
<asrwt>0</asrwt>
<pdfrwt beam="2">  1        1 0.99694165E-02 0.14160719E+03</pdfrwt>
<pdfrwt beam="1">  1       -1 0.54231033E-01 0.14160719E+03</pdfrwt>
<totfact> 0.22092269E+03</totfact>
</mgrwt>
</event>
<event>
 8    1  0.1033707E-005  0.3538794E+03  0.7546771E-02  0.1062138E+00
          2   -1    0    0  501    0  0.00000000000E+00  0.00000000000E+00  0.11552552737E+04  0.11552552737E+04  0.00000000000E+00 0.  1.
         -2   -1    0    0    0  501 -0.00000000000E+00 -0.00000000000E+00 -0.21414859822E+03  0.21414859822E+03  0.00000000000E+00 0. -1.
         23    2    1    2    0    0  0.28237774827E+02 -0.32986004711E+03 -0.14378007373E+02  0.35417138053E+03  0.12500246830E+03 0.  0.
         23    2    1    2    0    0 -0.28237774827E+02  0.32986004711E+03  0.95548468281E+03  0.10152324914E+04  0.90227544685E+02 0.  0.
          5    1    3    3  502    0 -0.29466440256E+02 -0.23810058798E+02 -0.19038902524E+02  0.42658642860E+02  0.47000000000E+01 0. -1.
         -5    1    3    3    0  502  0.57704215083E+02 -0.30604998831E+03  0.46608951513E+01  0.31151273767E+03  0.47000000000E+01 0. -1.
        -11    1    4    4    0    0  0.18092704354E+02  0.45297254081E+02  0.21811400246E+03  0.22350146587E+03  0.00000000000E+00 0.  1.
         11    1    4    4    0    0 -0.46330479181E+02  0.28456279303E+03  0.73737068034E+03  0.79173102548E+03  0.00000000000E+00 0. -1.
<mgrwt>
<rscale>  0 0.35116382E+03</rscale>
<asrwt>0</asrwt>
<pdfrwt beam="1">  1        2 0.17773158E+00 0.35387941E+03</pdfrwt>
<pdfrwt beam="2">  1       -2 0.32945939E-01 0.35387941E+03</pdfrwt>
<totfact> 0.18192184E+02</totfact>
</mgrwt>
</event>
<event>
 8    1  0.1033707E-005  0.1330826E+03  0.7546771E-02  0.1235855E+00
         -1   -1    0    0    0  501 -0.00000000000E+00  0.00000000000E+00  0.35158856332E+02  0.35158856332E+02  0.00000000000E+00 0.  1.
          1   -1    0    0  501    0  0.00000000000E+00 -0.00000000000E+00 -0.39271507348E+03  0.39271507348E+03  0.00000000000E+00 0. -1.
         23    2    1    2    0    0  0.44973065655E+02  0.78782034361E+01 -0.20281918789E+03  0.24258320167E+03  0.12500537600E+03 0.  0.
         23    2    1    2    0    0 -0.44973065655E+02 -0.78782034361E+01 -0.15473702926E+03  0.18529072815E+03  0.91128826341E+02 0.  0.
          5    1    3    3  502    0  0.74714338453E+02  0.82668082017E+01 -0.19831470799E+03  0.21213530091E+03  0.47000000000E+01 0.  1.
         -5    1    3    3    0  502 -0.29741272798E+02 -0.38860476556E+00 -0.45044799058E+01  0.30447900757E+02  0.47000000000E+01 0.  1.
        -11    1    4    4    0    0  0.10988142984E+02 -0.25747471091E+02 -0.11116748377E+02  0.30120651525E+02  0.00000000000E+00 0.  1.
         11    1    4    4    0    0 -0.55961208639E+02  0.17869267655E+02 -0.14362028088E+03  0.15517007663E+03  0.00000000000E+00 0. -1.
<mgrwt>
<rscale>  0 0.12449827E+03</rscale>
<asrwt>0</asrwt>
<pdfrwt beam="2">  1        1 0.60417701E-01 0.13308263E+03</pdfrwt>
<pdfrwt beam="1">  1       -1 0.54090550E-02 0.13308263E+03</pdfrwt>
<totfact> 0.92048875E+03</totfact>
</mgrwt>
</event>
<event>
 8    1  0.1033707E-005  0.1673771E+03  0.7546771E-02  0.1187406E+00
          1   -1    0    0  501    0  0.00000000000E+00  0.00000000000E+00  0.31465353114E+03  0.31465353114E+03  0.00000000000E+00 0. -1.
         -1   -1    0    0    0  501 -0.00000000000E+00 -0.00000000000E+00 -0.79978206584E+02  0.79978206584E+02  0.00000000000E+00 0.  1.
         23    2    1    2    0    0  0.99206963973E+02 -0.50460845063E+02  0.87557796551E+02  0.18889533679E+03  0.12500704755E+03 0.  0.
         23    2    1    2    0    0 -0.99206963973E+02  0.50460845063E+02  0.14711752800E+03  0.20573640093E+03  0.91080080360E+02 0.  0.
          5    1    3    3  502    0  0.47513761561E+00 -0.66911652762E+02  0.38248358136E+02  0.77216720542E+02  0.47000000000E+01 0.  1.
         -5    1    3    3    0  502  0.98731826357E+02  0.16450807699E+02  0.49309438415E+02  0.11167861625E+03  0.47000000000E+01 0.  1.
        -11    1    4    4    0    0 -0.69749339835E+02  0.51426129633E+02  0.41498205540E+02  0.96081831163E+02  0.00000000000E+00 0.  1.
         11    1    4    4    0    0 -0.29457624138E+02 -0.96528457036E+00  0.10561932246E+03  0.10965456977E+03  0.00000000000E+00 0. -1.
<mgrwt>
<rscale>  0 0.16114840E+03</rscale>
<asrwt>0</asrwt>
<pdfrwt beam="1">  1        1 0.48408235E-01 0.16737706E+03</pdfrwt>
<pdfrwt beam="2">  1       -1 0.12304340E-01 0.16737706E+03</pdfrwt>
<totfact> 0.35432833E+03</totfact>
</mgrwt>
</event>
<event>
 8    1  0.1033707E-005  0.1954111E+03  0.7546771E-02  0.1157962E+00
         -1   -1    0    0    0  501 -0.00000000000E+00  0.00000000000E+00  0.36156300453E+02  0.36156300453E+02  0.00000000000E+00 0.  1.
          1   -1    0    0  501    0  0.00000000000E+00 -0.00000000000E+00 -0.10562742633E+04  0.10562742633E+04  0.00000000000E+00 0. -1.
         23    2    1    2    0    0 -0.92529141035E+02  0.11831891783E+03 -0.36639190661E+03  0.41524515280E+03  0.12499799772E+03 0.  0.
         23    2    1    2    0    0  0.92529141035E+02 -0.11831891783E+03 -0.65372605629E+03  0.67718541101E+03  0.93066191281E+02 0.  0.
          5    1    3    3  502    0  0.10605612080E+02  0.49681424656E+01  0.49040307821E+01  0.13538868678E+02  0.47000000000E+01 0. -1.
         -5    1    3    3    0  502 -0.10313475311E+03  0.11335077536E+03 -0.37129593739E+03  0.40170628412E+03  0.47000000000E+01 0. -1.
        -11    1    4    4    0    0  0.39473120574E+02 -0.35421105086E+02 -0.86354649093E+02  0.10134055138E+03  0.00000000000E+00 0.  1.
         11    1    4    4    0    0  0.53056020460E+02 -0.82897812741E+02 -0.56737140719E+03  0.57584485963E+03  0.00000000000E+00 0. -1.
<mgrwt>
<rscale>  0 0.19055490E+03</rscale>
<asrwt>0</asrwt>
<pdfrwt beam="2">  1        1 0.16250374E+00 0.19541112E+03</pdfrwt>
<pdfrwt beam="1">  1       -1 0.55625073E-02 0.19541112E+03</pdfrwt>
<totfact> 0.21684245E+03</totfact>
</mgrwt>
</event>
<event>
 8    1  0.1033707E-005  0.1444976E+03  0.7546771E-02  0.1217810E+00
         -3   -1    0    0    0  501 -0.00000000000E+00  0.00000000000E+00  0.10159661179E+04  0.10159661179E+04  0.00000000000E+00 0.  1.
          3   -1    0    0  501    0  0.00000000000E+00 -0.00000000000E+00 -0.18509460740E+02  0.18509460740E+02  0.00000000000E+00 0. -1.
         23    2    1    2    0    0 -0.57696884400E+02 -0.43856275498E+02  0.71019864438E+03  0.72474937801E+03  0.12500897201E+03 0.  0.
         23    2    1    2    0    0  0.57696884400E+02  0.43856275498E+02  0.28725801282E+03  0.30972620066E+03  0.90337423472E+02 0.  0.
          5    1    3    3  502    0 -0.18429267626E+02  0.31314460493E+02  0.70648916901E+02  0.79583872741E+02  0.47000000000E+01 0.  1.
         -5    1    3    3    0  502 -0.39267616774E+02 -0.75170735991E+02  0.63954972748E+03  0.64516550527E+03  0.47000000000E+01 0.  1.
        -11    1    4    4    0    0  0.72259967636E+02  0.54439705908E+02  0.27012831127E+03  0.28487626973E+03  0.00000000000E+00 0.  1.
         11    1    4    4    0    0 -0.14563083236E+02 -0.10583430410E+02  0.17129701544E+02  0.24849930937E+02  0.00000000000E+00 0. -1.
<mgrwt>
<rscale>  0 0.13672148E+03</rscale>
<asrwt>0</asrwt>
<pdfrwt beam="2">  1        3 0.28476101E-02 0.14449757E+03</pdfrwt>
<pdfrwt beam="1">  1       -3 0.15630244E+00 0.14449757E+03</pdfrwt>
<totfact> 0.40073587E+02</totfact>
</mgrwt>
</event>
<event>
 8    1  0.1033707E-005  0.1450046E+03  0.7546771E-02  0.1216751E+00
         -2   -1    0    0    0  501 -0.00000000000E+00  0.00000000000E+00  0.20003632708E+02  0.20003632708E+02  0.00000000000E+00 0. -1.
          2   -1    0    0  501    0  0.00000000000E+00 -0.00000000000E+00 -0.87008410185E+03  0.87008410185E+03  0.00000000000E+00 0.  1.
         23    2    1    2    0    0 -0.72063900422E+02 -0.14404715363E+02 -0.42004467188E+03  0.44436906701E+03  0.12500255909E+03 0.  0.
         23    2    1    2    0    0  0.72063900422E+02  0.14404715363E+02 -0.43003579727E+03  0.44571866755E+03  0.91288784085E+02 0.  0.
          5    1    3    3  502    0 -0.14356862156E+02  0.36821835648E+02 -0.39582514029E+02  0.56132276707E+02  0.47000000000E+01 0.  1.
         -5    1    3    3    0  502 -0.57707038265E+02 -0.51226551011E+02 -0.38046215785E+03  0.38823679031E+03  0.47000000000E+01 0.  1.
        -11    1    4    4    0    0  0.57140626859E+02 -0.29786472991E+02 -0.31617419344E+03  0.32267383812E+03  0.00000000000E+00 0.  1.
         11    1    4    4    0    0  0.14923273563E+02  0.44191188354E+02 -0.11386160382E+03  0.12304482942E+03  0.00000000000E+00 0. -1.
<mgrwt>
<rscale>  0 0.13748724E+03</rscale>
<asrwt>0</asrwt>
<pdfrwt beam="2">  1        2 0.13385906E+00 0.14500463E+03</pdfrwt>
<pdfrwt beam="1">  1       -2 0.30774828E-02 0.14500463E+03</pdfrwt>
<totfact> 0.12467530E+04</totfact>
</mgrwt>
</event>
<event>
 8    1  0.1033707E-005  0.1766868E+03  0.7546771E-02  0.1176613E+00
          2   -1    0    0  501    0  0.00000000000E+00  0.00000000000E+00  0.41326233191E+03  0.41326233191E+03  0.00000000000E+00 0. -1.
         -2   -1    0    0    0  501 -0.00000000000E+00 -0.00000000000E+00 -0.73716216279E+02  0.73716216279E+02  0.00000000000E+00 0.  1.
         23    2    1    2    0    0 -0.62085918577E+02  0.10835534681E+03  0.10523434716E+03  0.20565136714E+03  0.12499069773E+03 0.  0.
         23    2    1    2    0    0  0.62085918577E+02 -0.10835534681E+03  0.23431176847E+03  0.28132718105E+03  0.92991588247E+02 0.  0.
          5    1    3    3  502    0 -0.14936706265E+02 -0.12356172322E+02  0.67807327069E+02  0.70680292818E+02  0.47000000000E+01 0. -1.
         -5    1    3    3    0  502 -0.47149212312E+02  0.12071151913E+03  0.37427020091E+02  0.13497107433E+03  0.47000000000E+01 0. -1.
        -11    1    4    4    0    0  0.32069844038E+01 -0.80146348878E+02  0.77796263287E+02  0.11174068448E+03  0.00000000000E+00 0.  1.
         11    1    4    4    0    0  0.58878934173E+02 -0.28208997927E+02  0.15651550519E+03  0.16958649657E+03  0.00000000000E+00 0. -1.
<mgrwt>
<rscale>  0 0.17118917E+03</rscale>
<asrwt>0</asrwt>
<pdfrwt beam="1">  1        2 0.63578819E-01 0.17668678E+03</pdfrwt>
<pdfrwt beam="2">  1       -2 0.11340957E-01 0.17668678E+03</pdfrwt>
<totfact> 0.40805283E+03</totfact>
</mgrwt>
</event>
<event>
 8    1  0.1033707E-005  0.1426151E+03  0.7546771E-02  0.1220107E+00
         -1   -1    0    0    0  501 -0.00000000000E+00  0.00000000000E+00  0.98508533567E+02  0.98508533567E+02  0.00000000000E+00 0.  1.
          1   -1    0    0  501    0  0.00000000000E+00 -0.00000000000E+00 -0.16893881872E+03  0.16893881872E+03  0.00000000000E+00 0. -1.
         23    2    1    2    0    0 -0.63024606219E+02 -0.27255345244E+02 -0.48163469586E+02  0.15052832068E+03  0.12499640271E+03 0.  0.
         23    2    1    2    0    0  0.63024606219E+02  0.27255345244E+02 -0.22266815562E+02  0.11691903160E+03  0.91974420583E+02 0.  0.
          5    1    3    3  502    0 -0.34699545439E+02  0.85910339777E+01  0.38314277999E+02  0.52611198590E+02  0.47000000000E+01 0. -1.
         -5    1    3    3    0  502 -0.28325060781E+02 -0.35846379222E+02 -0.86477747586E+02  0.97917122093E+02  0.47000000000E+01 0. -1.
        -11    1    4    4    0    0 -0.16593970068E+02  0.24199714542E+02  0.99375118729E+01  0.30979673477E+02  0.00000000000E+00 0.  1.
         11    1    4    4    0    0  0.79618576287E+02  0.30556307020E+01 -0.32204327435E+02  0.85939358123E+02  0.00000000000E+00 0. -1.
<mgrwt>
<rscale>  0 0.13507960E+03</rscale>
<asrwt>0</asrwt>
<pdfrwt beam="2">  1        1 0.25990587E-01 0.14261506E+03</pdfrwt>
<pdfrwt beam="1">  1       -1 0.15155159E-01 0.14261506E+03</pdfrwt>
<totfact> 0.55047177E+03</totfact>
</mgrwt>
</event>
<event>
 8    1  0.1033707E-005  0.2157742E+03  0.7546771E-02  0.1139848E+00
          1   -1    0    0  501    0  0.00000000000E+00  0.00000000000E+00  0.57576570227E+03  0.57576570227E+03  0.00000000000E+00 0. -1.
         -1   -1    0    0    0  501 -0.00000000000E+00 -0.00000000000E+00 -0.84689947300E+02  0.84689947300E+02  0.00000000000E+00 0.  1.
         23    2    1    2    0    0 -0.17244501537E+03 -0.34548644722E+02  0.14536051669E+03  0.26016955562E+03  0.12501050229E+03 0.  0.
         23    2    1    2    0    0  0.17244501537E+03  0.34548644722E+02  0.34571523828E+03  0.40028609395E+03  0.98889022925E+02 0.  0.
          5    1    3    3  502    0 -0.78787982128E+02 -0.77906642411E+02  0.59614832297E+02  0.12590873397E+03  0.47000000000E+01 0. -1.
         -5    1    3    3    0  502 -0.93657033237E+02  0.43357997689E+02  0.85745684393E+02  0.13426082165E+03  0.47000000000E+01 0. -1.
        -11    1    4    4    0    0  0.13429755762E+03  0.62514037689E+02  0.29962387895E+03  0.33424288733E+03  0.00000000000E+00 0. -1.
         11    1    4    4    0    0  0.38147457749E+02 -0.27965392967E+02  0.46091359324E+02  0.66043206622E+02  0.00000000000E+00 0.  1.
<mgrwt>
<rscale>  0 0.21218380E+03</rscale>
<asrwt>0</asrwt>
<pdfrwt beam="1">  1        1 0.88579336E-01 0.21577423E+03</pdfrwt>
<pdfrwt beam="2">  1       -1 0.13029223E-01 0.21577423E+03</pdfrwt>
<totfact> 0.14943813E+03</totfact>
</mgrwt>
</event>
<event>
 7    1  0.1033707E-005  0.1784980E+03  0.7546771E-02  0.1181254E+00
          2   -1    0    0  501    0  0.00000000000E+00  0.00000000000E+00  0.34349181071E+03  0.34349181071E+03  0.00000000000E+00 0. -1.
         -2   -1    0    0    0  501 -0.00000000000E+00 -0.00000000000E+00 -0.87498447365E+02  0.87498447365E+02  0.00000000000E+00 0.  1.
         23    2    1    2    0    0  0.59974432273E+02 -0.43716704644E+02  0.23759497744E+02  0.13808393341E+03  0.11399375484E+03 0.  0.
          5    1    3    3  502    0  0.84677295545E+02 -0.38921062767E+02  0.46125823455E+02  0.10409022575E+03  0.47000000000E+01 0. -1.
         -5    1    3    3    0  502 -0.24702863272E+02 -0.47956418770E+01 -0.22366325711E+02  0.33993707662E+02  0.47000000000E+01 0.  1.
        -11    1    1    2    0    0 -0.20682769881E+02 -0.12910224390E+02 -0.19931364652E+02  0.31491429955E+02  0.00000000000E+00 0.  1.
         11    1    1    2    0    0 -0.39291662393E+02  0.56626929034E+02  0.25216523025E+03  0.26141489471E+03  0.00000000000E+00 0. -1.
<mgrwt>
<rscale>  0 0.16677438E+03</rscale>
<asrwt>0</asrwt>
<pdfrwt beam="1">  1        2 0.52844893E-01 0.17849803E+03</pdfrwt>
<pdfrwt beam="2">  1       -2 0.13461300E-01 0.17849803E+03</pdfrwt>
<totfact> 0.37785807E+03</totfact>
</mgrwt>
</event>
<event>
 8    1  0.1033707E-005  0.1371855E+03  0.7546771E-02  0.1229244E+00
          2   -1    0    0  501    0  0.00000000000E+00  0.00000000000E+00  0.24923496177E+03  0.24923496177E+03  0.00000000000E+00 0. -1.
         -2   -1    0    0    0  501 -0.00000000000E+00 -0.00000000000E+00 -0.79246300933E+02  0.79246300933E+02  0.00000000000E+00 0.  1.
         23    2    1    2    0    0 -0.55043088775E+02 -0.13029580728E+02  0.11754933675E+02  0.13768824303E+03  0.12498144745E+03 0.  0.
         23    2    1    2    0    0  0.55043088775E+02  0.13029580728E+02  0.15823372717E+03  0.19079301967E+03  0.90357912480E+02 0.  0.
          5    1    3    3  502    0  0.94608991388E+00 -0.31183767978E+02 -0.45547919435E+02  0.55407810246E+02  0.47000000000E+01 0.  1.
         -5    1    3    3    0  502 -0.55989178688E+02  0.18154187250E+02  0.57302853110E+02  0.82280432786E+02  0.47000000000E+01 0.  1.
        -11    1    4    4    0    0 -0.16491985907E+02 -0.40374950471E+01  0.76376902464E+00  0.16996185117E+02  0.00000000000E+00 0.  1.
         11    1    4    4    0    0  0.71535074681E+02  0.17067075775E+02  0.15746995814E+03  0.17379683456E+03  0.00000000000E+00 0. -1.
<mgrwt>
<rscale>  0 0.12880211E+03</rscale>
<asrwt>0</asrwt>
<pdfrwt beam="1">  1        2 0.38343840E-01 0.13718555E+03</pdfrwt>
<pdfrwt beam="2">  1       -2 0.12191739E-01 0.13718555E+03</pdfrwt>
<totfact> 0.61520403E+03</totfact>
</mgrwt>
</event>
<event>
 8    1  0.1033707E-005  0.1322101E+03  0.7546771E-02  0.1238198E+00
         -2   -1    0    0    0  501 -0.00000000000E+00  0.00000000000E+00  0.23818333658E+02  0.23818333658E+02  0.00000000000E+00 0.  1.
          2   -1    0    0  501    0  0.00000000000E+00 -0.00000000000E+00 -0.65786788207E+03  0.65786788207E+03  0.00000000000E+00 0. -1.
         23    2    1    2    0    0 -0.42682384825E+02  0.57084507472E+01 -0.22652603541E+03  0.26228525064E+03  0.12500054240E+03 0.  0.
         23    2    1    2    0    0  0.42682384825E+02 -0.57084507472E+01 -0.40752351300E+03  0.41940096509E+03  0.89260200989E+02 0.  0.
          5    1    3    3  502    0 -0.40343881127E+02 -0.25905774160E+02 -0.22510967354E+03  0.23020684829E+03  0.47000000000E+01 0.  1.
         -5    1    3    3    0  502 -0.23385036972E+01  0.31614224907E+02 -0.14163618641E+01  0.32078402344E+02  0.47000000000E+01 0.  1.
        -11    1    4    4    0    0  0.26557757913E+02  0.40223095087E+02 -0.15860817062E+03  0.16577021346E+03  0.00000000000E+00 0.  1.
         11    1    4    4    0    0  0.16124626911E+02 -0.45931545835E+02 -0.24891534239E+03  0.25363075163E+03  0.00000000000E+00 0. -1.
<mgrwt>
<rscale>  0 0.12301897E+03</rscale>
<asrwt>0</asrwt>
<pdfrwt beam="2">  1        2 0.10121046E+00 0.13221009E+03</pdfrwt>
<pdfrwt beam="1">  1       -2 0.36643583E-02 0.13221009E+03</pdfrwt>
<totfact> 0.13475492E+04</totfact>
</mgrwt>
</event>
<event>
 8    1  0.1033707E-005  0.1691643E+03  0.7546771E-02  0.1187076E+00
          1   -1    0    0  501    0  0.00000000000E+00  0.00000000000E+00  0.44673234307E+02  0.44673234307E+02  0.00000000000E+00 0. -1.
         -1   -1    0    0    0  501 -0.00000000000E+00 -0.00000000000E+00 -0.55922589172E+03  0.55922589172E+03  0.00000000000E+00 0.  1.
         23    2    1    2    0    0 -0.11140861579E+03 -0.24105196198E+02 -0.34145729543E+03  0.38106382509E+03  0.12499445599E+03 0.  0.
         23    2    1    2    0    0  0.11140861579E+03  0.24105196198E+02 -0.17309536197E+03  0.22283530094E+03  0.81857356736E+02 0.  0.
          5    1    3    3  502    0 -0.12507157185E+03 -0.42392648571E+02 -0.21413957773E+03  0.25163045024E+03  0.47000000000E+01 0. -1.
         -5    1    3    3    0  502  0.13662956059E+02  0.18287452373E+02 -0.12731771771E+03  0.12943337485E+03  0.47000000000E+01 0. -1.
        -11    1    4    4    0    0  0.19484413240E+02 -0.17343296422E+02 -0.85081213181E+02  0.88990140613E+02  0.00000000000E+00 0.  1.
         11    1    4    4    0    0  0.91924202548E+02  0.41448492620E+02 -0.88014148792E+02  0.13384516032E+03  0.00000000000E+00 0. -1.
<mgrwt>
<rscale>  0 0.16144405E+03</rscale>
<asrwt>0</asrwt>
<pdfrwt beam="1">  1        1 0.68728052E-02 0.16916428E+03</pdfrwt>
<pdfrwt beam="2">  1       -1 0.86034754E-01 0.16916428E+03</pdfrwt>
<totfact> 0.14762857E+03</totfact>
</mgrwt>
</event>
<event>
 8    1  0.1033707E-005  0.1862127E+03  0.7546771E-02  0.1167162E+00
         -1   -1    0    0    0  501 -0.00000000000E+00  0.00000000000E+00  0.34084384729E+03  0.34084384729E+03  0.00000000000E+00 0.  1.
          1   -1    0    0  501    0  0.00000000000E+00 -0.00000000000E+00 -0.96498223172E+02  0.96498223172E+02  0.00000000000E+00 0. -1.
         23    2    1    2    0    0  0.69724716978E+02 -0.11914720704E+03  0.18365914397E+03  0.26154509670E+03  0.12497024983E+03 0.  0.
         23    2    1    2    0    0 -0.69724716978E+02  0.11914720704E+03  0.60686480153E+02  0.17579697376E+03  0.90355597544E+02 0.  0.
          5    1    3    3  502    0  0.89284348481E+02 -0.10622766747E+03  0.19136241584E+03  0.23642689444E+03  0.47000000000E+01 0. -1.
         -5    1    3    3    0  502 -0.19559631503E+02 -0.12919539573E+02 -0.77032718728E+01  0.25118202262E+02  0.47000000000E+01 0. -1.
        -11    1    4    4    0    0 -0.14453441677E+02  0.28522377734E+02 -0.24019799452E+02  0.39992233916E+02  0.00000000000E+00 0.  1.
         11    1    4    4    0    0 -0.55271275301E+02  0.90624829305E+02  0.84706279605E+02  0.13580473985E+03  0.00000000000E+00 0. -1.
<mgrwt>
<rscale>  0 0.18066390E+03</rscale>
<asrwt>0</asrwt>
<pdfrwt beam="2">  1        1 0.14845881E-01 0.18621266E+03</pdfrwt>
<pdfrwt beam="1">  1       -1 0.52437514E-01 0.18621266E+03</pdfrwt>
<totfact> 0.14050974E+03</totfact>
</mgrwt>
</event>
<event>
 8    1  0.1033707E-005  0.1618339E+03  0.7546771E-02  0.1195099E+00
         -2   -1    0    0    0  501 -0.00000000000E+00  0.00000000000E+00  0.54038476169E+02  0.54038476169E+02  0.00000000000E+00 0. -1.
          2   -1    0    0  501    0  0.00000000000E+00 -0.00000000000E+00 -0.44655125550E+03  0.44655125550E+03  0.00000000000E+00 0.  1.
         23    2    1    2    0    0 -0.77661117919E+02 -0.67336230971E+02 -0.13741542833E+03  0.21230453316E+03  0.12499919047E+03 0.  0.
         23    2    1    2    0    0  0.77661117919E+02  0.67336230971E+02 -0.25509735100E+03  0.28828519851E+03  0.86419210569E+02 0.  0.
          5    1    3    3  502    0 -0.94833875661E+01 -0.46837248661E+02  0.95290825473E+01  0.48954631201E+02  0.47000000000E+01 0. -1.
         -5    1    3    3    0  502 -0.68177730353E+02 -0.20498982310E+02 -0.14694451088E+03  0.16334990196E+03  0.47000000000E+01 0. -1.
        -11    1    4    4    0    0  0.38824377319E+02  0.58255835607E+02 -0.23169853912E+03  0.24204397883E+03  0.00000000000E+00 0.  1.
         11    1    4    4    0    0  0.38836740600E+02  0.90803953642E+01 -0.23398811881E+02  0.46241219684E+02  0.00000000000E+00 0. -1.
<mgrwt>
<rscale>  0 0.15445883E+03</rscale>
<asrwt>0</asrwt>
<pdfrwt beam="2">  1        2 0.68700193E-01 0.16183391E+03</pdfrwt>
<pdfrwt beam="1">  1       -2 0.83136118E-02 0.16183391E+03</pdfrwt>
<totfact> 0.60944263E+03</totfact>
</mgrwt>
</event>
<event>
 8    1  0.1033707E-005  0.1647163E+03  0.7546771E-02  0.1190619E+00
          2   -1    0    0  501    0  0.00000000000E+00  0.00000000000E+00  0.51242726284E+03  0.51242726284E+03  0.00000000000E+00 0. -1.
         -2   -1    0    0    0  501 -0.00000000000E+00 -0.00000000000E+00 -0.48809235447E+02  0.48809235447E+02  0.00000000000E+00 0.  1.
         23    2    1    2    0    0  0.49713477369E+02  0.95050932424E+02  0.17563714694E+03  0.24079005798E+03  0.12500134020E+03 0.  0.
         23    2    1    2    0    0 -0.49713477369E+02 -0.95050932424E+02  0.28798088045E+03  0.32044644030E+03  0.90812025682E+02 0.  0.
          5    1    3    3  502    0  0.61918848479E+02 -0.48312311217E+01  0.50769723918E+02  0.80355083584E+02  0.47000000000E+01 0. -1.
         -5    1    3    3    0  502 -0.12205371110E+02  0.99882163546E+02  0.12486742302E+03  0.16043497440E+03  0.47000000000E+01 0. -1.
        -11    1    4    4    0    0 -0.44308415727E+01 -0.39799378878E+02  0.21358167150E+03  0.21730336701E+03  0.00000000000E+00 0. -1.
         11    1    4    4    0    0 -0.45282635797E+02 -0.55251553546E+02  0.74399208955E+02  0.10314307329E+03  0.00000000000E+00 0.  1.
<mgrwt>
<rscale>  0 0.15830925E+03</rscale>
<asrwt>0</asrwt>
<pdfrwt beam="1">  1        2 0.78834960E-01 0.16471625E+03</pdfrwt>
<pdfrwt beam="2">  1       -2 0.75091135E-02 0.16471625E+03</pdfrwt>
<totfact> 0.61403695E+03</totfact>
</mgrwt>
</event>
<event>
 8    1  0.1965897E-005  0.3449466E+03  0.7546771E-02  0.1065600E+00
         -1   -1    0    0    0  501 -0.00000000000E+00  0.00000000000E+00  0.24297635129E+03  0.24297635129E+03  0.00000000000E+00 0.  1.
          1   -1    0    0  501    0  0.00000000000E+00 -0.00000000000E+00 -0.50022993231E+03  0.50022993231E+03  0.00000000000E+00 0. -1.
         23    2    1    2    0    0  0.25905494832E+02 -0.32045680985E+03 -0.51526299110E+02  0.34877372179E+03  0.12499795147E+03 0.  0.
         23    2    1    2    0    0 -0.25905494832E+02  0.32045680985E+03 -0.20572728191E+03  0.39443256182E+03  0.99446818252E+02 0.  0.
          5    1    3    3  502    0  0.33650809218E+02 -0.11585886164E+02 -0.36599000625E+01  0.36084547769E+02  0.47000000000E+01 0. -1.
         -5    1    3    3    0  502 -0.77453143859E+01 -0.30887092368E+03 -0.47866399048E+02  0.31268917402E+03  0.47000000000E+01 0. -1.
        -11    1    4    4    0    0  0.19786303252E+02  0.72565166967E+02 -0.11225039950E+02  0.76047371915E+02  0.00000000000E+00 0.  1.
         11    1    4    4    0    0 -0.45691798084E+02  0.24789164288E+03 -0.19450224196E+03  0.31838518990E+03  0.00000000000E+00 0. -1.
<mgrwt>
<rscale>  0 0.34282325E+03</rscale>
<asrwt>0</asrwt>
<pdfrwt beam="2">  1        1 0.76958451E-01 0.34494659E+03</pdfrwt>
<pdfrwt beam="1">  1       -1 0.37380977E-01 0.34494659E+03</pdfrwt>
<totfact> 0.31490914E+02</totfact>
</mgrwt>
</event>
<event>
 8    1  0.1033707E-005  0.2750337E+03  0.7546771E-02  0.1100347E+00
          1   -1    0    0  501    0  0.00000000000E+00  0.00000000000E+00  0.21678139433E+03  0.21678139433E+03  0.00000000000E+00 0. -1.
         -1   -1    0    0    0  501 -0.00000000000E+00 -0.00000000000E+00 -0.36686427562E+03  0.36686427562E+03  0.00000000000E+00 0.  1.
         23    2    1    2    0    0  0.39885767576E+02  0.24171416995E+03 -0.16638598627E+03  0.32144647330E+03  0.12500769721E+03 0.  0.
         23    2    1    2    0    0 -0.39885767576E+02 -0.24171416995E+03  0.16303104978E+02  0.26219919665E+03  0.92010940035E+02 0.  0.
          5    1    3    3  502    0  0.58035709479E+02  0.13619126589E+03 -0.15381642453E+03  0.21353638316E+03  0.47000000000E+01 0.  1.
         -5    1    3    3    0  502 -0.18149941903E+02  0.10552290406E+03 -0.12569561742E+02  0.10791009014E+03  0.47000000000E+01 0.  1.
        -11    1    4    4    0    0 -0.29095428684E+02 -0.43238880812E+02 -0.27108611092E+02  0.58745396241E+02  0.00000000000E+00 0.  1.
         11    1    4    4    0    0 -0.10790338892E+02 -0.19847528913E+03  0.43411716070E+02  0.20345380041E+03  0.00000000000E+00 0. -1.
<mgrwt>
<rscale>  0 0.27163579E+03</rscale>
<asrwt>0</asrwt>
<pdfrwt beam="1">  1        1 0.33350984E-01 0.27503370E+03</pdfrwt>
<pdfrwt beam="2">  1       -1 0.56440657E-01 0.27503370E+03</pdfrwt>
<totfact> 0.43463596E+02</totfact>
</mgrwt>
</event>
<event>
 8    1  0.1033707E-005  0.1707370E+03  0.7546771E-02  0.1183659E+00
         -2   -1    0    0    0  501 -0.00000000000E+00  0.00000000000E+00  0.85323411499E+02  0.85323411499E+02  0.00000000000E+00 0.  1.
          2   -1    0    0  501    0  0.00000000000E+00 -0.00000000000E+00 -0.29723967886E+03  0.29723967886E+03  0.00000000000E+00 0. -1.
         23    2    1    2    0    0  0.46281538973E+02 -0.10678809559E+03 -0.10323234124E+03  0.19951954323E+03  0.12492179011E+03 0.  0.
         23    2    1    2    0    0 -0.46281538973E+02  0.10678809559E+03 -0.10868392611E+03  0.18304354713E+03  0.90261099815E+02 0.  0.
          5    1    3    3  502    0  0.57708994136E+02 -0.62545130135E+02 -0.12289049833E+03  0.14955395644E+03  0.47000000000E+01 0.  1.
         -5    1    3    3    0  502 -0.11427455163E+02 -0.44242965452E+02  0.19658157082E+02  0.49965586791E+02  0.47000000000E+01 0.  1.
        -11    1    4    4    0    0 -0.40009565884E+02  0.11511675767E+03 -0.11757481114E+03  0.16934128107E+03  0.00000000000E+00 0. -1.
         11    1    4    4    0    0 -0.62719730893E+01 -0.83286620840E+01  0.88908850268E+01  0.13702266057E+02  0.00000000000E+00 0.  1.
<mgrwt>
<rscale>  0 0.16454515E+03</rscale>
<asrwt>0</asrwt>
<pdfrwt beam="2">  1        2 0.45729181E-01 0.17073703E+03</pdfrwt>
<pdfrwt beam="1">  1       -2 0.13126679E-01 0.17073703E+03</pdfrwt>
<totfact> 0.45845155E+03</totfact>
</mgrwt>
</event>
<event>
 8    1  0.1033707E-005  0.1256561E+03  0.7546771E-02  0.1250102E+00
          1   -1    0    0  501    0  0.00000000000E+00  0.00000000000E+00  0.39595430388E+03  0.39595430388E+03  0.00000000000E+00 0. -1.
         -1   -1    0    0    0  501 -0.00000000000E+00 -0.00000000000E+00 -0.29722903594E+02  0.29722903594E+02  0.00000000000E+00 0.  1.
         23    2    1    2    0    0 -0.97284882783E+01 -0.80858786865E+01  0.19794306918E+03  0.23445876729E+03  0.12501771875E+03 0.  0.
         23    2    1    2    0    0  0.97284882783E+01  0.80858786865E+01  0.16828833110E+03  0.19121844018E+03  0.89908311977E+02 0.  0.
          5    1    3    3  502    0 -0.66238474029E+02 -0.16146902961E+02  0.10470258905E+03  0.12503191621E+03  0.47000000000E+01 0. -1.
         -5    1    3    3    0  502  0.56509985751E+02  0.80610242749E+01  0.93240480127E+02  0.10942685108E+03  0.47000000000E+01 0. -1.
        -11    1    4    4    0    0 -0.25826480497E+02 -0.23567714044E+02  0.11287194161E+03  0.11816310526E+03  0.00000000000E+00 0. -1.
         11    1    4    4    0    0  0.35554968775E+02  0.31653592730E+02  0.55416389489E+02  0.73055334928E+02  0.00000000000E+00 0.  1.
<mgrwt>
<rscale>  0 0.11585154E+03</rscale>
<asrwt>0</asrwt>
<pdfrwt beam="1">  1        1 0.60916043E-01 0.12565610E+03</pdfrwt>
<pdfrwt beam="2">  1       -1 0.45727547E-02 0.12565610E+03</pdfrwt>
<totfact> 0.11625013E+04</totfact>
</mgrwt>
</event>
<event>
 8    1  0.1033707E-005  0.1920381E+03  0.7546771E-02  0.1161401E+00
         -1   -1    0    0    0  501 -0.00000000000E+00  0.00000000000E+00  0.21913304477E+03  0.21913304477E+03  0.00000000000E+00 0.  1.
          1   -1    0    0  501    0  0.00000000000E+00 -0.00000000000E+00 -0.16171135424E+03  0.16171135424E+03  0.00000000000E+00 0. -1.
         23    2    1    2    0    0  0.11193896288E+03 -0.93379632700E+02  0.78997032567E+02  0.20765152923E+03  0.12501415610E+03 0.  0.
         23    2    1    2    0    0 -0.11193896288E+03  0.93379632700E+02 -0.21575342031E+02  0.17319286978E+03  0.90995535854E+02 0.  0.
          5    1    3    3  502    0  0.20072623338E+02 -0.81500471640E+02 -0.26140449512E+01  0.84108027657E+02  0.47000000000E+01 0. -1.
         -5    1    3    3    0  502  0.91866339538E+02 -0.11879161060E+02  0.81611077518E+02  0.12354350157E+03  0.47000000000E+01 0. -1.
        -11    1    4    4    0    0 -0.71306984058E+01  0.40354927293E+02  0.23666489664E+02  0.47323036141E+02  0.00000000000E+00 0. -1.
         11    1    4    4    0    0 -0.10480826447E+03  0.53024705407E+02 -0.45241831695E+02  0.12586983364E+03  0.00000000000E+00 0.  1.
<mgrwt>
<rscale>  0 0.18677724E+03</rscale>
<asrwt>0</asrwt>
<pdfrwt beam="2">  1        1 0.24878670E-01 0.19203809E+03</pdfrwt>
<pdfrwt beam="1">  1       -1 0.33712776E-01 0.19203809E+03</pdfrwt>
<totfact> 0.15918740E+03</totfact>
</mgrwt>
</event>
<event>
 8    1  0.1033707E-005  0.1494690E+03  0.7546771E-02  0.1210508E+00
          2   -1    0    0  501    0  0.00000000000E+00  0.00000000000E+00  0.31734383473E+03  0.31734383473E+03  0.00000000000E+00 0.  1.
         -2   -1    0    0    0  501 -0.00000000000E+00 -0.00000000000E+00 -0.65656246244E+02  0.65656246244E+02  0.00000000000E+00 0. -1.
         23    2    1    2    0    0 -0.72496487315E+02  0.38218774783E+02  0.72480092634E+02  0.16611542574E+03  0.12499822167E+03 0.  0.
         23    2    1    2    0    0  0.72496487315E+02 -0.38218774783E+02  0.17920749585E+03  0.21688465524E+03  0.90593662519E+02 0.  0.
          5    1    3    3  502    0  0.58230763357E+01  0.41625992471E+02  0.76570727979E+02  0.87474555446E+02  0.47000000000E+01 0. -1.
         -5    1    3    3    0  502 -0.78319563651E+02 -0.34072176883E+01 -0.40906353445E+01  0.78640870292E+02  0.47000000000E+01 0. -1.
        -11    1    4    4    0    0  0.21931536248E+02 -0.15714163623E+02  0.15351029156E+03  0.15586319911E+03  0.00000000000E+00 0.  1.
         11    1    4    4    0    0  0.50564951067E+02 -0.22504611160E+02  0.25697204290E+02  0.61021456130E+02  0.00000000000E+00 0. -1.
<mgrwt>
<rscale>  0 0.14211750E+03</rscale>
<asrwt>0</asrwt>
<pdfrwt beam="1">  1        2 0.48822128E-01 0.14946896E+03</pdfrwt>
<pdfrwt beam="2">  1       -2 0.10100961E-01 0.14946896E+03</pdfrwt>
<totfact> 0.64496677E+03</totfact>
</mgrwt>
</event>
<event>
 8    1  0.1033707E-005  0.1884071E+03  0.7546771E-02  0.1164763E+00
         -1   -1    0    0    0  501 -0.00000000000E+00  0.00000000000E+00  0.40415825822E+02  0.40415825822E+02  0.00000000000E+00 0.  1.
          1   -1    0    0  501    0  0.00000000000E+00 -0.00000000000E+00 -0.81056017048E+03  0.81056017048E+03  0.00000000000E+00 0. -1.
         23    2    1    2    0    0  0.13951177520E+03 -0.20199925142E+02 -0.33407248167E+03  0.38353833578E+03  0.12500263842E+03 0.  0.
         23    2    1    2    0    0 -0.13951177520E+03  0.20199925142E+02 -0.43607186299E+03  0.46743766052E+03  0.92020238990E+02 0.  0.
          5    1    3    3  502    0  0.91659111064E+02  0.42896137347E+02 -0.23984826463E+03  0.26036657099E+03  0.47000000000E+01 0.  1.
         -5    1    3    3    0  502  0.47852664139E+02 -0.63096062489E+02 -0.94224217034E+02  0.12317176479E+03  0.47000000000E+01 0.  1.
        -11    1    4    4    0    0 -0.12715121264E+03  0.43064495436E+02 -0.40636366830E+03  0.42796426551E+03  0.00000000000E+00 0.  1.
         11    1    4    4    0    0 -0.12360562559E+02 -0.22864570294E+02 -0.29708194698E+02  0.39473395011E+02  0.00000000000E+00 0. -1.
<mgrwt>
<rscale>  0 0.18317726E+03</rscale>
<asrwt>0</asrwt>
<pdfrwt beam="2">  1        1 0.12470157E+00 0.18840709E+03</pdfrwt>
<pdfrwt beam="1">  1       -1 0.62178193E-02 0.18840709E+03</pdfrwt>
<totfact> 0.28308985E+03</totfact>
</mgrwt>
</event>
<event>
 8    1  0.1033707E-005  0.1494274E+03  0.7546771E-02  0.1210532E+00
         -4   -1    0    0    0  501 -0.00000000000E+00  0.00000000000E+00  0.10190839785E+04  0.10190839785E+04  0.00000000000E+00 0. -1.
          4   -1    0    0  501    0  0.00000000000E+00 -0.00000000000E+00 -0.18335877838E+02  0.18335877838E+02  0.00000000000E+00 0.  1.
         23    2    1    2    0    0  0.81169773656E+02  0.10750109422E+02  0.60840496924E+03  0.62648636362E+03  0.12499784079E+03 0.  0.
         23    2    1    2    0    0 -0.81169773656E+02 -0.10750109422E+02  0.39234313145E+03  0.41093349274E+03  0.90714418116E+02 0.  0.
          5    1    3    3  502    0  0.91129915725E+02  0.86188111262E+01  0.60840322897E+03  0.61526866040E+03  0.47000000000E+01 0.  1.
         -5    1    3    3    0  502 -0.99601420698E+01  0.21312982960E+01  0.17402630603E-02  0.11217703219E+02  0.47000000000E+01 0.  1.
        -11    1    4    4    0    0 -0.66268625511E+02 -0.44440400912E+02  0.20455208908E+03  0.21956328725E+03  0.00000000000E+00 0. -1.
         11    1    4    4    0    0 -0.14901148145E+02  0.33690291490E+02  0.18779104237E+03  0.19137020549E+03  0.00000000000E+00 0.  1.
<mgrwt>
<rscale>  0 0.14209928E+03</rscale>
<asrwt>0</asrwt>
<pdfrwt beam="2">  1        4 0.28209051E-02 0.14942743E+03</pdfrwt>
<pdfrwt beam="1">  1       -4 0.15678211E+00 0.14942743E+03</pdfrwt>
<totfact> 0.28668676E+02</totfact>
</mgrwt>
</event>
<event>
 8    1  0.1033707E-005  0.1262576E+03  0.7546771E-02  0.1247366E+00
          1   -1    0    0  501    0  0.00000000000E+00  0.00000000000E+00  0.25296674459E+03  0.25296674459E+03  0.00000000000E+00 0. -1.
         -1   -1    0    0    0  501 -0.00000000000E+00 -0.00000000000E+00 -0.50683807998E+02  0.50683807998E+02  0.00000000000E+00 0.  1.
         23    2    1    2    0    0  0.14807304359E+02 -0.96188386280E+01  0.81541568730E+02  0.15029969838E+03  0.12501677320E+03 0.  0.
         23    2    1    2    0    0 -0.14807304359E+02  0.96188386280E+01  0.12074136786E+03  0.15335085421E+03  0.92877490574E+02 0.  0.
          5    1    3    3  502    0  0.22272484837E+02 -0.45911231649E+02 -0.92984459697E+01  0.52081242975E+02  0.47000000000E+01 0. -1.
         -5    1    3    3    0  502 -0.74651804780E+01  0.36292393021E+02  0.90840014700E+02  0.98218455401E+02  0.47000000000E+01 0. -1.
        -11    1    4    4    0    0  0.23567212532E+00 -0.15353765842E+02 -0.10699579097E+02  0.18715626084E+02  0.00000000000E+00 0.  1.
         11    1    4    4    0    0 -0.15042976484E+02  0.24972604470E+02  0.13144094696E+03  0.13463522812E+03  0.00000000000E+00 0. -1.
<mgrwt>
<rscale>  0 0.11744868E+03</rscale>
<asrwt>0</asrwt>
<pdfrwt beam="1">  1        1 0.38917960E-01 0.12625756E+03</pdfrwt>
<pdfrwt beam="2">  1       -1 0.77975091E-02 0.12625756E+03</pdfrwt>
<totfact> 0.91652861E+03</totfact>
</mgrwt>
</event>
<event>
 8    1  0.1033707E-005  0.1294119E+03  0.7546771E-02  0.1242631E+00
          1   -1    0    0  501    0  0.00000000000E+00  0.00000000000E+00  0.21365834013E+03  0.21365834013E+03  0.00000000000E+00 0. -1.
         -1   -1    0    0    0  501 -0.00000000000E+00 -0.00000000000E+00 -0.59848238034E+02  0.59848238034E+02  0.00000000000E+00 0.  1.
         23    2    1    2    0    0  0.12790349629E+02 -0.31006681247E+02  0.93258631137E+02  0.15951368316E+03  0.12498974161E+03 0.  0.
         23    2    1    2    0    0 -0.12790349629E+02  0.31006681247E+02  0.60551470959E+02  0.11399289501E+03  0.90569819207E+02 0.  0.
          5    1    3    3  502    0  0.68020795396E+02 -0.13893031881E+02  0.37478958671E+02  0.79035481173E+02  0.47000000000E+01 0.  1.
         -5    1    3    3    0  502 -0.55230445767E+02 -0.17113649366E+02  0.55779672465E+02  0.80478201984E+02  0.47000000000E+01 0.  1.
        -11    1    4    4    0    0  0.36096940111E+02  0.10428604319E+02  0.62588859900E+01  0.38090924473E+02  0.00000000000E+00 0.  1.
         11    1    4    4    0    0 -0.48887289740E+02  0.20578076929E+02  0.54292584969E+02  0.75901970533E+02  0.00000000000E+00 0. -1.
<mgrwt>
<rscale>  0 0.12028284E+03</rscale>
<asrwt>0</asrwt>
<pdfrwt beam="1">  1        1 0.32870514E-01 0.12941191E+03</pdfrwt>
<pdfrwt beam="2">  1       -1 0.92074213E-02 0.12941191E+03</pdfrwt>
<totfact> 0.88019394E+03</totfact>
</mgrwt>
</event>
<event>
 8    1  0.1033707E-005  0.1291922E+03  0.7546771E-02  0.1242710E+00
         -1   -1    0    0    0  501 -0.00000000000E+00  0.00000000000E+00  0.28191442586E+02  0.28191442586E+02  0.00000000000E+00 0.  1.
          1   -1    0    0  501    0  0.00000000000E+00 -0.00000000000E+00 -0.45515692647E+03  0.45515692647E+03  0.00000000000E+00 0. -1.
         23    2    1    2    0    0 -0.47094976490E+01  0.32302236359E+02 -0.22891946646E+03  0.26285879899E+03  0.12500004895E+03 0.  0.
         23    2    1    2    0    0  0.47094976490E+01 -0.32302236359E+02 -0.19804601742E+03  0.22048957007E+03  0.91256844402E+02 0.  0.
          5    1    3    3  502    0 -0.56171282774E+02  0.48770161555E+02 -0.12195155406E+03  0.14292660076E+03  0.47000000000E+01 0. -1.
         -5    1    3    3    0  502  0.51461785125E+02 -0.16467925196E+02 -0.10696791240E+03  0.11993219823E+03  0.47000000000E+01 0. -1.
        -11    1    4    4    0    0  0.17456991315E+02 -0.54172377528E+02 -0.18158074116E+03  0.19029177227E+03  0.00000000000E+00 0. -1.
         11    1    4    4    0    0 -0.12747493666E+02  0.21870141169E+02 -0.16465276260E+02  0.30197797798E+02  0.00000000000E+00 0.  1.
<mgrwt>
<rscale>  0 0.12023481E+03</rscale>
<asrwt>0</asrwt>
<pdfrwt beam="2">  1        1 0.70024139E-01 0.12919221E+03</pdfrwt>
<pdfrwt beam="1">  1       -1 0.43371452E-02 0.12919221E+03</pdfrwt>
<totfact> 0.10554177E+04</totfact>
</mgrwt>
</event>
<event>
 8    1  0.1033707E-005  0.1284355E+03  0.7546771E-02  0.1244301E+00
          3   -1    0    0  501    0  0.00000000000E+00  0.00000000000E+00  0.27179528926E+03  0.27179528926E+03  0.00000000000E+00 0. -1.
         -3   -1    0    0    0  501 -0.00000000000E+00 -0.00000000000E+00 -0.49359103748E+02  0.49359103748E+02  0.00000000000E+00 0.  1.
         23    2    1    2    0    0 -0.27761604863E+02  0.99252058420E+01  0.85877941180E+02  0.15450145462E+03  0.12500584900E+03 0.  0.
         23    2    1    2    0    0  0.27761604863E+02 -0.99252058420E+01  0.13655824433E+03  0.16665293839E+03  0.90861605546E+02 0.  0.
          5    1    3    3  502    0  0.53504192821E+01  0.54699863017E+02  0.39170925747E+01  0.55300412429E+02  0.47000000000E+01 0. -1.
         -5    1    3    3    0  502 -0.33112024145E+02 -0.44774657175E+02  0.81960848605E+02  0.99201042193E+02  0.47000000000E+01 0. -1.
        -11    1    4    4    0    0 -0.15248878543E+02  0.29537881672E+02  0.28282522337E+02  0.43645341335E+02  0.00000000000E+00 0.  1.
         11    1    4    4    0    0  0.43010483406E+02 -0.39463087514E+02  0.10827572200E+03  0.12300759705E+03  0.00000000000E+00 0. -1.
<mgrwt>
<rscale>  0 0.11927329E+03</rscale>
<asrwt>0</asrwt>
<pdfrwt beam="1">  1        3 0.41814659E-01 0.12843550E+03</pdfrwt>
<pdfrwt beam="2">  1       -3 0.75937084E-02 0.12843550E+03</pdfrwt>
<totfact> 0.15072122E+03</totfact>
</mgrwt>
</event>
<event>
 7    1  0.1033707E-005  0.1904709E+03  0.7546771E-02  0.1193049E+00
          3   -1    0    0  501    0  0.00000000000E+00  0.00000000000E+00  0.14453131707E+02  0.14453131707E+02  0.00000000000E+00 0. -1.
         -3   -1    0    0    0  501 -0.00000000000E+00 -0.00000000000E+00 -0.16221205063E+04  0.16221205063E+04  0.00000000000E+00 0.  1.
         23    2    1    2    0    0  0.17287856142E+02 -0.11808101100E+02 -0.22647240136E+03  0.24230726336E+03  0.83574877083E+02 0.  0.
          5    1    1    2  502    0 -0.30704468198E+02  0.13891184682E+02 -0.38052893118E+02  0.51047449044E+02  0.47000000000E+01 0. -1.
         -5    1    1    2    0  502  0.13416612056E+02 -0.20830835821E+01 -0.13431420801E+04  0.13432189256E+04  0.47000000000E+01 0.  1.
        -11    1    3    3    0    0 -0.54559237627E+01  0.33507281841E+02 -0.11372350554E+03  0.11868252084E+03  0.00000000000E+00 0. -1.
         11    1    3    3    0    0  0.22743779905E+02 -0.45315382941E+02 -0.11274889581E+03  0.12362474252E+03  0.00000000000E+00 0.  1.
<mgrwt>
<rscale>  0 0.15620480E+03</rscale>
<asrwt>0</asrwt>
<pdfrwt beam="1">  1        3 0.22235576E-02 0.19047091E+03</pdfrwt>
<pdfrwt beam="2">  1       -3 0.24955712E+00 0.19047091E+03</pdfrwt>
<totfact> 0.16399036E+02</totfact>
</mgrwt>
</event>
<event>
 8    1  0.1033707E-005  0.1598128E+03  0.7546771E-02  0.1196529E+00
          1   -1    0    0  501    0  0.00000000000E+00  0.00000000000E+00  0.68611341558E+02  0.68611341558E+02  0.00000000000E+00 0. -1.
         -1   -1    0    0    0  501 -0.00000000000E+00 -0.00000000000E+00 -0.34158682337E+03  0.34158682337E+03  0.00000000000E+00 0.  1.
         23    2    1    2    0    0 -0.57512616640E+01  0.99406697058E+02 -0.20189824145E+03  0.25749377156E+03  0.12500149623E+03 0.  0.
         23    2    1    2    0    0  0.57512616640E+01 -0.99406697058E+02 -0.71077240368E+02  0.15270439338E+03  0.91388671223E+02 0.  0.
          5    1    3    3  502    0 -0.18328661090E+02 -0.19228701066E+02 -0.89649692731E+02  0.93620725103E+02  0.47000000000E+01 0.  1.
         -5    1    3    3    0  502  0.12577399426E+02  0.11863539812E+03 -0.11224854872E+03  0.16387304645E+03  0.47000000000E+01 0.  1.
        -11    1    4    4    0    0 -0.95943649273E+01 -0.96938657132E+01  0.19828489187E+02  0.24066405096E+02  0.00000000000E+00 0. -1.
         11    1    4    4    0    0  0.15345626591E+02 -0.89712831345E+02 -0.90905729554E+02  0.12863798828E+03  0.00000000000E+00 0.  1.
<mgrwt>
<rscale>  0 0.15325552E+03</rscale>
<asrwt>0</asrwt>
<pdfrwt beam="1">  1        1 0.10555591E-01 0.15981284E+03</pdfrwt>
<pdfrwt beam="2">  1       -1 0.52551820E-01 0.15981284E+03</pdfrwt>
<totfact> 0.21822173E+03</totfact>
</mgrwt>
</event>
<event>
 8    1  0.1033707E-005  0.1279745E+03  0.7546771E-02  0.1241538E+00
          1   -1    0    0  501    0  0.00000000000E+00  0.00000000000E+00  0.53133688988E+03  0.53133688988E+03  0.00000000000E+00 0. -1.
         -1   -1    0    0    0  501 -0.00000000000E+00 -0.00000000000E+00 -0.26867678034E+02  0.26867678034E+02  0.00000000000E+00 0.  1.
         23    2    1    2    0    0  0.24173411238E+02  0.12984228075E+02  0.20358353055E+03  0.24046566141E+03  0.12499814566E+03 0.  0.
         23    2    1    2    0    0 -0.24173411238E+02 -0.12984228075E+02  0.30088568130E+03  0.31773890650E+03  0.98350777858E+02 0.  0.
          5    1    3    3  502    0 -0.39700940053E+02 -0.25489839811E+02  0.11616808253E+03  0.12547115196E+03  0.47000000000E+01 0.  1.
         -5    1    3    3    0  502  0.63874351291E+02  0.38474067887E+02  0.87415448018E+02  0.11499450945E+03  0.47000000000E+01 0.  1.
        -11    1    4    4    0    0 -0.30029448336E+02  0.35243456917E+02  0.20599714847E+03  0.21113667185E+03  0.00000000000E+00 0. -1.
         11    1    4    4    0    0  0.58560370975E+01 -0.48227684992E+02  0.94888532830E+02  0.10660223465E+03  0.00000000000E+00 0.  1.
<mgrwt>
<rscale>  0 0.12095016E+03</rscale>
<asrwt>0</asrwt>
<pdfrwt beam="1">  1        1 0.81744129E-01 0.12797453E+03</pdfrwt>
<pdfrwt beam="2">  1       -1 0.41334893E-02 0.12797453E+03</pdfrwt>
<totfact> 0.92591984E+03</totfact>
</mgrwt>
</event>
<event>
 8    1  0.1033707E-005  0.1554105E+03  0.7546771E-02  0.1204680E+00
          3   -1    0    0  501    0  0.00000000000E+00  0.00000000000E+00  0.85952839795E+02  0.85952839795E+02  0.00000000000E+00 0. -1.
         -3   -1    0    0    0  501 -0.00000000000E+00 -0.00000000000E+00 -0.22817165439E+03  0.22817165439E+03  0.00000000000E+00 0.  1.
         23    2    1    2    0    0  0.70485837044E+02 -0.59657914988E+02 -0.95542861709E+02  0.18243047167E+03  0.12500047410E+03 0.  0.
         23    2    1    2    0    0 -0.70485837044E+02  0.59657914988E+02 -0.46675952887E+02  0.13169402252E+03  0.81469938905E+02 0.  0.
          5    1    3    3  502    0  0.87506333053E+01  0.37876536409E+02 -0.32081822047E+02  0.50621526048E+02  0.47000000000E+01 0. -1.
         -5    1    3    3    0  502  0.61735203738E+02 -0.97534451397E+02 -0.63461039661E+02  0.13180894562E+03  0.47000000000E+01 0. -1.
        -11    1    4    4    0    0  0.39135033721E+01  0.39772972409E+02  0.29576440450E+01  0.40074337190E+02  0.00000000000E+00 0.  1.
         11    1    4    4    0    0 -0.74399340416E+02  0.19884942579E+02 -0.49633596932E+02  0.91619685330E+02  0.00000000000E+00 0. -1.
<mgrwt>
<rscale>  0 0.14662718E+03</rscale>
<asrwt>0</asrwt>
<pdfrwt beam="1">  1        3 0.13223514E-01 0.15541055E+03</pdfrwt>
<pdfrwt beam="2">  1       -3 0.35103331E-01 0.15541055E+03</pdfrwt>
<totfact> 0.86693770E+02</totfact>
</mgrwt>
</event>
<event>
 8    1  0.1033707E-005  0.1699936E+03  0.7546771E-02  0.1184131E+00
          1   -1    0    0  501    0  0.00000000000E+00  0.00000000000E+00  0.27822819623E+03  0.27822819623E+03  0.00000000000E+00 0.  1.
         -1   -1    0    0    0  501 -0.00000000000E+00 -0.00000000000E+00 -0.90756430088E+02  0.90756430088E+02  0.00000000000E+00 0. -1.
         23    2    1    2    0    0 -0.11484577572E+03  0.90304866391E+01  0.94524484141E+02  0.19450631754E+03  0.12500691010E+03 0.  0.
         23    2    1    2    0    0  0.11484577572E+03 -0.90304866391E+01  0.92947282003E+02  0.17447830878E+03  0.92370888881E+02 0.  0.
          5    1    3    3  502    0 -0.19933453843E+02 -0.68776050891E+01 -0.30055539326E+02  0.37014449585E+02  0.47000000000E+01 0. -1.
         -5    1    3    3    0  502 -0.94912321874E+02  0.15908091728E+02  0.12458002347E+03  0.15749186796E+03  0.47000000000E+01 0. -1.
        -11    1    4    4    0    0  0.18461009031E+02 -0.40465998578E+02  0.41314995552E+02  0.60706134392E+02  0.00000000000E+00 0.  1.
         11    1    4    4    0    0  0.96384766686E+02  0.31435511938E+02  0.51632286451E+02  0.11377217438E+03  0.00000000000E+00 0. -1.
<mgrwt>
<rscale>  0 0.16411195E+03</rscale>
<asrwt>0</asrwt>
<pdfrwt beam="1">  1        1 0.42804337E-01 0.16999362E+03</pdfrwt>
<pdfrwt beam="2">  1       -1 0.13962528E-01 0.16999362E+03</pdfrwt>
<totfact> 0.33930708E+03</totfact>
</mgrwt>
</event>
<event>
 8    1  0.1033707E-005  0.1582800E+03  0.7546771E-02  0.1198880E+00
          2   -1    0    0  501    0  0.00000000000E+00  0.00000000000E+00  0.74318610863E+02  0.74318610863E+02  0.00000000000E+00 0. -1.
         -2   -1    0    0    0  501 -0.00000000000E+00 -0.00000000000E+00 -0.28808037146E+03  0.28808037146E+03  0.00000000000E+00 0.  1.
         23    2    1    2    0    0 -0.87294214733E+02  0.42481272896E+02 -0.13840193337E+03  0.21025614189E+03  0.12501044584E+03 0.  0.
         23    2    1    2    0    0  0.87294214733E+02 -0.42481272896E+02 -0.75359827226E+02  0.15214284043E+03  0.89685014704E+02 0.  0.
          5    1    3    3  502    0 -0.17655058528E+02  0.62090842126E+02 -0.11858283521E+03  0.13509608645E+03  0.47000000000E+01 0. -1.
         -5    1    3    3    0  502 -0.69639156205E+02 -0.19609569230E+02 -0.19819098161E+02  0.75160055443E+02  0.47000000000E+01 0. -1.
        -11    1    4    4    0    0  0.32035599113E+02  0.18768097888E+02 -0.56360206733E+02  0.67490695742E+02  0.00000000000E+00 0.  1.
         11    1    4    4    0    0  0.55258615620E+02 -0.61249370783E+02 -0.18999620494E+02  0.84652144689E+02  0.00000000000E+00 0. -1.
<mgrwt>
<rscale>  0 0.15130418E+03</rscale>
<asrwt>0</asrwt>
<pdfrwt beam="1">  1        2 0.11433633E-01 0.15827997E+03</pdfrwt>
<pdfrwt beam="2">  1       -2 0.44320057E-01 0.15827997E+03</pdfrwt>
<totfact> 0.25708050E+03</totfact>
</mgrwt>
</event>
<event>
 8    1  0.1033707E-005  0.1501666E+03  0.7546771E-02  0.1209175E+00
         -1   -1    0    0    0  501 -0.00000000000E+00  0.00000000000E+00  0.22819858792E+02  0.22819858792E+02  0.00000000000E+00 0.  1.
          1   -1    0    0  501    0  0.00000000000E+00 -0.00000000000E+00 -0.85201990515E+03  0.85201990515E+03  0.00000000000E+00 0. -1.
         23    2    1    2    0    0  0.25440988480E+02  0.79223783288E+02 -0.37277025266E+03  0.40188016609E+03  0.12500541946E+03 0.  0.
         23    2    1    2    0    0 -0.25440988480E+02 -0.79223783288E+02 -0.45642979370E+03  0.47295959785E+03  0.91863882416E+02 0.  0.
          5    1    3    3  502    0  0.68957149153E+02  0.38648426397E+02 -0.28458079825E+03  0.29539314483E+03  0.47000000000E+01 0.  1.
         -5    1    3    3    0  502 -0.43516160673E+02  0.40575356892E+02 -0.88189454412E+02  0.10648702126E+03  0.47000000000E+01 0.  1.
        -11    1    4    4    0    0 -0.51694734242E+02 -0.27310605376E+02 -0.14872782196E+03  0.15980669491E+03  0.00000000000E+00 0.  1.
         11    1    4    4    0    0  0.26253745762E+02 -0.51913177912E+02 -0.30770197174E+03  0.31315290294E+03  0.00000000000E+00 0. -1.
<mgrwt>
<rscale>  0 0.14313247E+03</rscale>
<asrwt>0</asrwt>
<pdfrwt beam="2">  1        1 0.13107999E+00 0.15016660E+03</pdfrwt>
<pdfrwt beam="1">  1       -1 0.35107474E-02 0.15016660E+03</pdfrwt>
<totfact> 0.60739154E+03</totfact>
</mgrwt>
</event>
<event>
 8    1  0.1033707E-005  0.1685408E+03  0.7546771E-02  0.1186382E+00
         -1   -1    0    0    0  501 -0.00000000000E+00  0.00000000000E+00  0.45641023836E+03  0.45641023836E+03  0.00000000000E+00 0.  1.
          1   -1    0    0  501    0  0.00000000000E+00 -0.00000000000E+00 -0.53974742451E+02  0.53974742451E+02  0.00000000000E+00 0. -1.
         23    2    1    2    0    0 -0.10623138541E+03 -0.38675199133E+02  0.23963443006E+03  0.29296870091E+03  0.12500048548E+03 0.  0.
         23    2    1    2    0    0  0.10623138541E+03  0.38675199133E+02  0.16280106585E+03  0.21741627990E+03  0.89357559569E+02 0.  0.
          5    1    3    3  502    0 -0.62060168069E+02 -0.46188171223E+02  0.37917906956E+02  0.86282497006E+02  0.47000000000E+01 0. -1.
         -5    1    3    3    0  502 -0.44171217337E+02  0.75129720904E+01  0.20171652311E+03  0.20668620390E+03  0.47000000000E+01 0. -1.
        -11    1    4    4    0    0  0.30629595326E+02  0.38502009869E+02  0.12191203537E+03  0.13146528531E+03  0.00000000000E+00 0.  1.
         11    1    4    4    0    0  0.75601790080E+02  0.17318926352E+00  0.40889030478E+02  0.85950994591E+02  0.00000000000E+00 0. -1.
<mgrwt>
<rscale>  0 0.16206789E+03</rscale>
<asrwt>0</asrwt>
<pdfrwt beam="2">  1        1 0.83038068E-02 0.16854080E+03</pdfrwt>
<pdfrwt beam="1">  1       -1 0.70216957E-01 0.16854080E+03</pdfrwt>
<totfact> 0.17302805E+03</totfact>
</mgrwt>
</event>
<event>
 8    1  0.1033707E-005  0.1542480E+03  0.7546771E-02  0.1204754E+00
         -2   -1    0    0    0  501 -0.00000000000E+00  0.00000000000E+00  0.15959514965E+03  0.15959514965E+03  0.00000000000E+00 0.  1.
          2   -1    0    0  501    0  0.00000000000E+00 -0.00000000000E+00 -0.12443342268E+03  0.12443342268E+03  0.00000000000E+00 0. -1.
         23    2    1    2    0    0 -0.51551360465E+02  0.74224743315E+02  0.35493778132E+02  0.15827905363E+03  0.12500238096E+03 0.  0.
         23    2    1    2    0    0  0.51551360465E+02 -0.74224743315E+02 -0.33205116368E+00  0.12574951871E+03  0.87441271211E+02 0.  0.
          5    1    3    3  502    0 -0.14938742659E+02 -0.34032913788E+02 -0.30355726876E+01  0.37586034037E+02  0.47000000000E+01 0. -1.
         -5    1    3    3    0  502 -0.36612617806E+02  0.10825765710E+03  0.38529350819E+02  0.12069301959E+03  0.47000000000E+01 0. -1.
        -11    1    4    4    0    0  0.72904322667E+02 -0.46194528817E+02 -0.14964619674E+02  0.87595174514E+02  0.00000000000E+00 0. -1.
         11    1    4    4    0    0 -0.21352962201E+02 -0.28030214498E+02  0.14632568510E+02  0.38154344193E+02  0.00000000000E+00 0.  1.
<mgrwt>
<rscale>  0 0.14656858E+03</rscale>
<asrwt>0</asrwt>
<pdfrwt beam="2">  1        2 0.19143603E-01 0.15424802E+03</pdfrwt>
<pdfrwt beam="1">  1       -2 0.24553100E-01 0.15424802E+03</pdfrwt>
<totfact> 0.41369393E+03</totfact>
</mgrwt>
</event>
<event>
 8    1  0.1033707E-005  0.1268916E+03  0.7546771E-02  0.1246748E+00
         -3   -1    0    0    0  501 -0.00000000000E+00  0.00000000000E+00  0.21141519016E+03  0.21141519016E+03  0.00000000000E+00 0.  1.
          3   -1    0    0  501    0  0.00000000000E+00 -0.00000000000E+00 -0.57853123323E+02  0.57853123323E+02  0.00000000000E+00 0. -1.
         23    2    1    2    0    0 -0.19140434544E+02 -0.10484468481E+02  0.87491352534E+02  0.15413049981E+03  0.12500077555E+03 0.  0.
         23    2    1    2    0    0  0.19140434544E+02  0.10484468481E+02  0.66070714300E+02  0.11513781367E+03  0.91733835279E+02 0.  0.
          5    1    3    3  502    0 -0.60609643580E+01 -0.29570588158E+02 -0.24822132272E+02  0.39362205521E+02  0.47000000000E+01 0.  1.
         -5    1    3    3    0  502 -0.13079470186E+02  0.19086119677E+02  0.11231348481E+03  0.11476829429E+03  0.47000000000E+01 0.  1.
        -11    1    4    4    0    0 -0.35084142374E+02 -0.66707838732E+01  0.36384787195E+02  0.50982831843E+02  0.00000000000E+00 0.  1.
         11    1    4    4    0    0  0.54224576918E+02  0.17155252354E+02  0.29685927106E+02  0.64154981828E+02  0.00000000000E+00 0. -1.
<mgrwt>
<rscale>  0 0.11781369E+03</rscale>
<asrwt>0</asrwt>
<pdfrwt beam="2">  1        3 0.89004806E-02 0.12689158E+03</pdfrwt>
<pdfrwt beam="1">  1       -3 0.32525414E-01 0.12689158E+03</pdfrwt>
<totfact> 0.18720049E+03</totfact>
</mgrwt>
</event>
<event>
 8    1  0.1033707E-005  0.1383447E+03  0.7546771E-02  0.1228592E+00
          4   -1    0    0  501    0  0.00000000000E+00  0.00000000000E+00  0.44503892571E+02  0.44503892571E+02  0.00000000000E+00 0. -1.
         -4   -1    0    0    0  501 -0.00000000000E+00 -0.00000000000E+00 -0.43975151350E+03  0.43975151350E+03  0.00000000000E+00 0.  1.
         23    2    1    2    0    0 -0.53013579449E+02 -0.75156898659E+01 -0.33603643482E+03  0.36340024094E+03  0.12756302125E+03 0.  0.
         23    2    1    2    0    0  0.53013579449E+02  0.75156898659E+01 -0.59211186110E+02  0.12085516513E+03  0.90736327772E+02 0.  0.
          5    1    3    3  502    0 -0.40838064876E+01  0.41142695445E+02 -0.34559756622E+02  0.54091271400E+02  0.47000000000E+01 0. -1.
         -5    1    3    3    0  502 -0.48929772961E+02 -0.48658385311E+02 -0.30147667820E+03  0.30930896954E+03  0.47000000000E+01 0.  1.
        -11    1    4    4    0    0  0.33342936656E+02 -0.34166268998E+02 -0.57497220320E+02  0.74732962651E+02  0.00000000000E+00 0.  1.
         11    1    4    4    0    0  0.19670642793E+02  0.41681958864E+02 -0.17139657895E+01  0.46122202477E+02  0.00000000000E+00 0. -1.
<mgrwt>
<rscale>  0 0.12923711E+03</rscale>
<asrwt>0</asrwt>
<pdfrwt beam="1">  1        4 0.68467524E-02 0.13834468E+03</pdfrwt>
<pdfrwt beam="2">  1       -4 0.67654082E-01 0.13834468E+03</pdfrwt>
<totfact> 0.48904030E+02</totfact>
</mgrwt>
</event>
<event>
 8    1  0.1033707E-005  0.2453441E+03  0.7546771E-02  0.1119024E+00
         -2   -1    0    0    0  501 -0.00000000000E+00  0.00000000000E+00  0.24018079328E+03  0.24018079328E+03  0.00000000000E+00 0.  1.
          2   -1    0    0  501    0  0.00000000000E+00 -0.00000000000E+00 -0.23763941779E+03  0.23763941779E+03  0.00000000000E+00 0. -1.
         23    2    1    2    0    0 -0.18019552960E+03 -0.10999118003E+03 -0.27304909879E+02  0.24685885949E+03  0.12500099932E+03 0.  0.
         23    2    1    2    0    0  0.18019552960E+03  0.10999118003E+03  0.29846285370E+02  0.23096135158E+03  0.88791084013E+02 0.  0.
          5    1    3    3  502    0 -0.15363728252E+03 -0.13110748141E+03  0.16057205738E+01  0.20203528058E+03  0.47000000000E+01 0.  1.
         -5    1    3    3    0  502 -0.26558247085E+02  0.21116301387E+02 -0.28910630453E+02  0.44823578903E+02  0.47000000000E+01 0.  1.
        -11    1    4    4    0    0  0.39142577106E+02  0.71059042234E+02  0.23647766130E+02  0.84502932900E+02  0.00000000000E+00 0.  1.
         11    1    4    4    0    0  0.14105295250E+03  0.38932137793E+02  0.61985192395E+01  0.14645841868E+03  0.00000000000E+00 0. -1.
<mgrwt>
<rscale>  0 0.24115838E+03</rscale>
<asrwt>0</asrwt>
<pdfrwt beam="2">  1        2 0.36559910E-01 0.24534412E+03</pdfrwt>
<pdfrwt beam="1">  1       -2 0.36950891E-01 0.24534412E+03</pdfrwt>
<totfact> 0.97720638E+02</totfact>
</mgrwt>
</event>
<event>
 8    1  0.1033707E-005  0.1364856E+03  0.7546771E-02  0.1224526E+00
          2   -1    0    0  501    0  0.00000000000E+00  0.00000000000E+00  0.61760906896E+03  0.61760906896E+03  0.00000000000E+00 0. -1.
         -2   -1    0    0    0  501 -0.00000000000E+00 -0.00000000000E+00 -0.26897480802E+02  0.26897480802E+02  0.00000000000E+00 0.  1.
         23    2    1    2    0    0 -0.18504313855E+02  0.74734758878E+02  0.27581296300E+03  0.30773544721E+03  0.11269703234E+03 0.  0.
         23    2    1    2    0    0  0.18504313855E+02 -0.74734758878E+02  0.31489862516E+03  0.33677110255E+03  0.91246575647E+02 0.  0.
          5    1    3    3  502    0 -0.51345275116E+02  0.62013636838E+02  0.25292291889E+03  0.26546962412E+03  0.47000000000E+01 0. -1.
         -5    1    3    3    0  502  0.32840961261E+02  0.12721122040E+02  0.22890044108E+02  0.42265823093E+02  0.47000000000E+01 0.  1.
        -11    1    4    4    0    0 -0.36321742511E+02 -0.26442005789E+02  0.14576001394E+03  0.15252681834E+03  0.00000000000E+00 0. -1.
         11    1    4    4    0    0  0.54826056366E+02 -0.48292753089E+02  0.16913861122E+03  0.18424428421E+03  0.00000000000E+00 0.  1.
<mgrwt>
<rscale>  0 0.13199448E+03</rscale>
<asrwt>0</asrwt>
<pdfrwt beam="1">  1        2 0.95016769E-01 0.13648559E+03</pdfrwt>
<pdfrwt beam="2">  1       -2 0.41380744E-02 0.13648559E+03</pdfrwt>
<totfact> 0.12129636E+04</totfact>
</mgrwt>
</event>
<event>
 8    1  0.1033707E-005  0.1817655E+03  0.7546771E-02  0.1171624E+00
          1   -1    0    0  501    0  0.00000000000E+00  0.00000000000E+00  0.25958748798E+02  0.25958748798E+02  0.00000000000E+00 0. -1.
         -1   -1    0    0    0  501 -0.00000000000E+00 -0.00000000000E+00 -0.13824207014E+04  0.13824207014E+04  0.00000000000E+00 0.  1.
         23    2    1    2    0    0 -0.66695761056E+02 -0.11382888367E+03 -0.10159046176E+04  0.10320372520E+04  0.12503342861E+03 0.  0.
         23    2    1    2    0    0  0.66695761056E+02  0.11382888367E+03 -0.34055733504E+03  0.37634219818E+03  0.90822972770E+02 0.  0.
          5    1    3    3  502    0 -0.33382287988E+02 -0.13262894496E+03 -0.65905224877E+03  0.67310977618E+03  0.47000000000E+01 0.  1.
         -5    1    3    3    0  502 -0.33313473068E+02  0.18800061291E+02 -0.35685236882E+03  0.35892747586E+03  0.47000000000E+01 0.  1.
        -11    1    4    4    0    0  0.63952154185E+02  0.68411263545E+02 -0.30362607793E+03  0.31774010480E+03  0.00000000000E+00 0.  1.
         11    1    4    4    0    0  0.27436068715E+01  0.45417620122E+02 -0.36931257118E+02  0.58602093380E+02  0.00000000000E+00 0. -1.
<mgrwt>
<rscale>  0 0.17610768E+03</rscale>
<asrwt>0</asrwt>
<pdfrwt beam="1">  1        1 0.39936534E-02 0.18176550E+03</pdfrwt>
<pdfrwt beam="2">  1       -1 0.21268012E+00 0.18176550E+03</pdfrwt>
<totfact> 0.31422782E+02</totfact>
</mgrwt>
</event>
<event>
 8    1  0.1033707E-005  0.1838935E+03  0.7546771E-02  0.1168997E+00
         -1   -1    0    0    0  501 -0.00000000000E+00  0.00000000000E+00  0.10358279254E+03  0.10358279254E+03  0.00000000000E+00 0.  1.
          1   -1    0    0  501    0  0.00000000000E+00 -0.00000000000E+00 -0.29269643395E+03  0.29269643395E+03  0.00000000000E+00 0. -1.
         23    2    1    2    0    0  0.12911851786E+03 -0.38999860301E+02 -0.10473150721E+03  0.21162584487E+03  0.12499691538E+03 0.  0.
         23    2    1    2    0    0 -0.12911851786E+03  0.38999860301E+02 -0.84382134201E+02  0.18465338162E+03  0.93722708104E+02 0.  0.
          5    1    3    3  502    0 -0.22445986418E+02 -0.31199203125E+01 -0.32437909651E+02  0.39848013646E+02  0.47000000000E+01 0.  1.
         -5    1    3    3    0  502  0.15156450428E+03 -0.35879939988E+02 -0.72293597557E+02  0.17177783122E+03  0.47000000000E+01 0.  1.
        -11    1    4    4    0    0 -0.85752179059E+02  0.51185089457E+02 -0.13649655828E+02  0.10079515217E+03  0.00000000000E+00 0.  1.
         11    1    4    4    0    0 -0.43366338802E+02 -0.12185229156E+02 -0.70732478374E+02  0.83858229456E+02  0.00000000000E+00 0. -1.
<mgrwt>
<rscale>  0 0.17877138E+03</rscale>
<asrwt>0</asrwt>
<pdfrwt beam="2">  1        1 0.45030220E-01 0.18389347E+03</pdfrwt>
<pdfrwt beam="1">  1       -1 0.15935815E-01 0.18389347E+03</pdfrwt>
<totfact> 0.25939869E+03</totfact>
</mgrwt>
</event>
<event>
 8    1  0.1033707E-005  0.3629997E+03  0.7546771E-02  0.1058414E+00
          2   -1    0    0  501    0  0.00000000000E+00  0.00000000000E+00  0.18236186714E+04  0.18236186714E+04  0.00000000000E+00 0. -1.
         -2   -1    0    0    0  501 -0.00000000000E+00 -0.00000000000E+00 -0.70432875756E+02  0.70432875756E+02  0.00000000000E+00 0.  1.
         23    2    1    2    0    0 -0.44990015188E+01 -0.34077193053E+03  0.93777662057E+03  0.10055812989E+04  0.12499203583E+03 0.  0.
         23    2    1    2    0    0  0.44990015188E+01  0.34077193053E+03  0.81540917509E+03  0.88847024824E+03  0.91331864875E+02 0.  0.
          5    1    3    3  502    0  0.24595516409E+02 -0.58866333236E+01  0.89321705685E+02  0.92951863810E+02  0.47000000000E+01 0.  1.
         -5    1    3    3    0  502 -0.29094517928E+02 -0.33488529720E+03  0.84845491489E+03  0.91262943512E+03  0.47000000000E+01 0.  1.
        -11    1    4    4    0    0 -0.76913942276E+01  0.17806150934E+03  0.53661536373E+03  0.56543886252E+03  0.00000000000E+00 0.  1.
         11    1    4    4    0    0  0.12190395746E+02  0.16271042118E+03  0.27879381136E+03  0.32303138572E+03  0.00000000000E+00 0. -1.
<mgrwt>
<rscale>  0 0.36042946E+03</rscale>
<asrwt>0</asrwt>
<pdfrwt beam="1">  1        2 0.28055668E+00 0.36299967E+03</pdfrwt>
<pdfrwt beam="2">  1       -2 0.10835828E-01 0.36299967E+03</pdfrwt>
<totfact> 0.53099109E+02</totfact>
</mgrwt>
</event>
<event>
 8    1  0.1033707E-005  0.1458278E+03  0.7546771E-02  0.1212328E+00
         -2   -1    0    0    0  501 -0.00000000000E+00  0.00000000000E+00  0.48479969524E+03  0.48479969524E+03  0.00000000000E+00 0.  1.
          2   -1    0    0  501    0  0.00000000000E+00 -0.00000000000E+00 -0.76813470160E+02  0.76813470160E+02  0.00000000000E+00 0. -1.
         23    2    1    2    0    0 -0.43227891534E+02  0.77163022688E+02  0.40989061591E+03  0.43505870730E+03  0.11594386190E+03 0.  0.
         23    2    1    2    0    0  0.43227891534E+02 -0.77163022688E+02 -0.19043908237E+01  0.12655445810E+03  0.90496527475E+02 0.  0.
          5    1    3    3  502    0 -0.33577133594E+02  0.33648854524E+02  0.39549566848E+02  0.62015542802E+02  0.47000000000E+01 0. -1.
         -5    1    3    3    0  502 -0.96507579398E+01  0.43514168164E+02  0.37034104906E+03  0.37304316450E+03  0.47000000000E+01 0.  1.
        -11    1    4    4    0    0 -0.24100554578E+00  0.20049317194E+02 -0.12355381986E+00  0.20051146330E+02  0.00000000000E+00 0.  1.
         11    1    4    4    0    0  0.43468897080E+02 -0.97212339881E+02 -0.17808370039E+01  0.10650331177E+03  0.00000000000E+00 0. -1.
<mgrwt>
<rscale>  0 0.14074644E+03</rscale>
<asrwt>0</asrwt>
<pdfrwt beam="2">  1        2 0.11817457E-01 0.14582785E+03</pdfrwt>
<pdfrwt beam="1">  1       -2 0.74584566E-01 0.14582785E+03</pdfrwt>
<totfact> 0.85033067E+02</totfact>
</mgrwt>
</event>
<event>
 8    1  0.1033707E-005  0.1654347E+03  0.7546771E-02  0.1189472E+00
         -1   -1    0    0    0  501 -0.00000000000E+00  0.00000000000E+00  0.18372917129E+03  0.18372917129E+03  0.00000000000E+00 0.  1.
          1   -1    0    0  501    0  0.00000000000E+00 -0.00000000000E+00 -0.13004213827E+03  0.13004213827E+03  0.00000000000E+00 0. -1.
         23    2    1    2    0    0 -0.10828607667E+03 -0.42736449567E+01  0.43862104889E+02  0.17115054578E+03  0.12499794651E+03 0.  0.
         23    2    1    2    0    0  0.10828607667E+03  0.42736449567E+01  0.98249281304E+01  0.14262076379E+03  0.92195523805E+02 0.  0.
          5    1    3    3  502    0  0.18280086611E+02  0.26530340746E+02 -0.28588432284E+01  0.32684606946E+02  0.47000000000E+01 0. -1.
         -5    1    3    3    0  502 -0.12656616328E+03 -0.30803985703E+02  0.46720948118E+02  0.13846593883E+03  0.47000000000E+01 0. -1.
        -11    1    4    4    0    0  0.10740770461E+03 -0.15477935225E+02 -0.16430171367E+02  0.10975396129E+03  0.00000000000E+00 0. -1.
         11    1    4    4    0    0  0.87837206561E+00  0.19751580181E+02  0.26255099497E+02  0.32866802502E+02  0.00000000000E+00 0.  1.
<mgrwt>
<rscale>  0 0.15931524E+03</rscale>
<asrwt>0</asrwt>
<pdfrwt beam="2">  1        1 0.20006483E-01 0.16543465E+03</pdfrwt>
<pdfrwt beam="1">  1       -1 0.28266026E-01 0.16543465E+03</pdfrwt>
<totfact> 0.28187122E+03</totfact>
</mgrwt>
</event>
<event>
 8    1  0.1033707E-005  0.1256365E+03  0.7546771E-02  0.1248816E+00
          2   -1    0    0  501    0  0.00000000000E+00  0.00000000000E+00  0.27341760116E+03  0.27341760116E+03  0.00000000000E+00 0. -1.
         -2   -1    0    0    0  501 -0.00000000000E+00 -0.00000000000E+00 -0.61160864564E+02  0.61160864564E+02  0.00000000000E+00 0.  1.
         23    2    1    2    0    0 -0.76522286113E+01 -0.10004829281E+02  0.28936892136E+02  0.12892583961E+03  0.12500350067E+03 0.  0.
         23    2    1    2    0    0  0.76522286113E+01  0.10004829281E+02  0.18331984446E+03  0.20565262611E+03  0.92348167517E+02 0.  0.
          5    1    3    3  502    0  0.31695281993E+02 -0.54881865165E+02  0.28335657996E+01  0.63613906654E+02  0.47000000000E+01 0.  1.
         -5    1    3    3    0  502 -0.39347510604E+02  0.44877035884E+02  0.26103326337E+02  0.65311932955E+02  0.47000000000E+01 0.  1.
        -11    1    4    4    0    0  0.31372321150E+02 -0.32020429588E+02  0.83119422700E+02  0.94437115983E+02  0.00000000000E+00 0.  1.
         11    1    4    4    0    0 -0.23720092539E+02  0.42025258869E+02  0.10020042176E+03  0.11121551013E+03  0.00000000000E+00 0. -1.
<mgrwt>
<rscale>  0 0.11659893E+03</rscale>
<asrwt>0</asrwt>
<pdfrwt beam="1">  1        2 0.42064246E-01 0.12563649E+03</pdfrwt>
<pdfrwt beam="2">  1       -2 0.94093639E-02 0.12563649E+03</pdfrwt>
<totfact> 0.83443390E+03</totfact>
</mgrwt>
</event>
<event>
 8    1  0.1033707E-005  0.1306774E+03  0.7546771E-02  0.1239951E+00
          2   -1    0    0  501    0  0.00000000000E+00  0.00000000000E+00  0.13909447153E+03  0.13909447153E+03  0.00000000000E+00 0.  1.
         -2   -1    0    0    0  501 -0.00000000000E+00 -0.00000000000E+00 -0.13326423224E+03  0.13326423224E+03  0.00000000000E+00 0. -1.
         23    2    1    2    0    0 -0.14343709310E+02 -0.35251784932E+02 -0.69423019364E+02  0.14797346072E+03  0.12501263585E+03 0.  0.
         23    2    1    2    0    0  0.14343709310E+02  0.35251784932E+02  0.75253258656E+02  0.12438524304E+03  0.91434158884E+02 0.  0.
          5    1    3    3  502    0 -0.39045408611E+02 -0.76454536153E+00 -0.91735173768E+02  0.99812627304E+02  0.47000000000E+01 0. -1.
         -5    1    3    3    0  502  0.24701699302E+02 -0.34487239570E+02  0.22312154403E+02  0.48160833420E+02  0.47000000000E+01 0. -1.
        -11    1    4    4    0    0  0.47667811657E+02  0.11799548337E+02  0.66567599350E+02  0.82720583245E+02  0.00000000000E+00 0.  1.
         11    1    4    4    0    0 -0.33324102347E+02  0.23452236595E+02  0.86856593064E+01  0.41664659798E+02  0.00000000000E+00 0. -1.
<mgrwt>
<rscale>  0 0.12192745E+03</rscale>
<asrwt>0</asrwt>
<pdfrwt beam="1">  1        2 0.21399149E-01 0.13067743E+03</pdfrwt>
<pdfrwt beam="2">  1       -2 0.20502190E-01 0.13067743E+03</pdfrwt>
<totfact> 0.49247825E+03</totfact>
</mgrwt>
</event>
<event>
 7    1  0.1033707E-005  0.2864621E+03  0.7546771E-02  0.1092211E+00
         -3   -1    0    0    0  501 -0.00000000000E+00  0.00000000000E+00  0.95842020643E+03  0.95842020643E+03  0.00000000000E+00 0.  1.
          3   -1    0    0  501    0  0.00000000000E+00 -0.00000000000E+00 -0.21405152031E+02  0.21405152031E+02  0.00000000000E+00 0. -1.
         23    2    1    2    0    0 -0.58413261057E+02 -0.19425836280E+01  0.16486150499E+03  0.18583977523E+03  0.62779164779E+02 0.  0.
          5    1    1    2  502    0 -0.70020897778E+01  0.10851081912E+02 -0.45428824315E+01  0.14474219174E+02  0.47000000000E+01 0. -1.
         -5    1    1    2    0  502  0.65415350835E+02 -0.89084982841E+01  0.77669643184E+03  0.77951136406E+03  0.47000000000E+01 0.  1.
        -11    1    3    3    0    0 -0.30879623740E+02 -0.83354978870E+01  0.18868450866E+02  0.37135564160E+02  0.00000000000E+00 0. -1.
         11    1    3    3    0    0 -0.27533637316E+02  0.63929142590E+01  0.14599305413E+03  0.14870421107E+03  0.00000000000E+00 0.  1.
<mgrwt>
<rscale>  0 0.28646208E+03</rscale>
<asrwt>0</asrwt>
<pdfrwt beam="2">  1        3 0.32931011E-02 0.28646208E+03</pdfrwt>
<pdfrwt beam="1">  1       -3 0.14744923E+00 0.28646208E+03</pdfrwt>
<totfact> 0.40005714E+02</totfact>
</mgrwt>
</event>
<event>
 8    1  0.1033707E-005  0.1675758E+03  0.7546771E-02  0.1188265E+00
         -1   -1    0    0    0  501 -0.00000000000E+00  0.00000000000E+00  0.80743344608E+02  0.80743344608E+02  0.00000000000E+00 0.  1.
          1   -1    0    0  501    0  0.00000000000E+00 -0.00000000000E+00 -0.34159748627E+03  0.34159748627E+03  0.00000000000E+00 0. -1.
         23    2    1    2    0    0  0.10441365975E+03 -0.39342620997E+02 -0.61742194415E+02  0.17858819317E+03  0.12502635721E+03 0.  0.
         23    2    1    2    0    0 -0.10441365975E+03  0.39342620997E+02 -0.19911194725E+03  0.24375263772E+03  0.85555401267E+02 0.  0.
          5    1    3    3  502    0  0.65061168609E+02 -0.51087474530E+02 -0.94621610186E+02  0.12577052448E+03  0.47000000000E+01 0. -1.
         -5    1    3    3    0  502  0.39352491142E+02  0.11744853534E+02  0.32879415771E+02  0.52817668682E+02  0.47000000000E+01 0. -1.
        -11    1    4    4    0    0 -0.74432496991E+02 -0.14355007934E+01 -0.59667582681E+02  0.95406905902E+02  0.00000000000E+00 0.  1.
         11    1    4    4    0    0 -0.29981162761E+02  0.40778121790E+02 -0.13944436457E+03  0.14834573181E+03  0.00000000000E+00 0. -1.
<mgrwt>
<rscale>  0 0.16038313E+03</rscale>
<asrwt>0</asrwt>
<pdfrwt beam="2">  1        1 0.52553460E-01 0.16757579E+03</pdfrwt>
<pdfrwt beam="1">  1       -1 0.12422053E-01 0.16757579E+03</pdfrwt>
<totfact> 0.31503947E+03</totfact>
</mgrwt>
</event>
<event>
 8    1  0.1033707E-005  0.1313281E+03  0.7546771E-02  0.1241564E+00
         -1   -1    0    0    0  501 -0.00000000000E+00  0.00000000000E+00  0.11486216729E+03  0.11486216729E+03  0.00000000000E+00 0.  1.
          1   -1    0    0  501    0  0.00000000000E+00 -0.00000000000E+00 -0.11390430260E+03  0.11390430260E+03  0.00000000000E+00 0. -1.
         23    2    1    2    0    0  0.39044198853E+02 -0.10218980367E+02  0.18787724600E+02  0.13266515898E+03  0.12497275218E+03 0.  0.
         23    2    1    2    0    0 -0.39044198853E+02  0.10218980367E+02 -0.17829859910E+02  0.96101310918E+02  0.85373772507E+02 0.  0.
          5    1    3    3  502    0  0.30761885789E+02 -0.62542478107E+02 -0.12493003760E+02  0.70964923223E+02  0.47000000000E+01 0. -1.
         -5    1    3    3    0  502  0.82823130639E+01  0.52323497740E+02  0.31280728360E+02  0.61700235754E+02  0.47000000000E+01 0. -1.
        -11    1    4    4    0    0  0.14534050489E+02 -0.39742548882E+01 -0.34975986643E+02  0.38083499933E+02  0.00000000000E+00 0. -1.
         11    1    4    4    0    0 -0.53578249342E+02  0.14193235255E+02  0.17146126733E+02  0.58017810985E+02  0.00000000000E+00 0.  1.
<mgrwt>
<rscale>  0 0.12093415E+03</rscale>
<asrwt>0</asrwt>
<pdfrwt beam="2">  1        1 0.17523739E-01 0.13132808E+03</pdfrwt>
<pdfrwt beam="1">  1       -1 0.17671103E-01 0.13132808E+03</pdfrwt>
<totfact> 0.70786450E+03</totfact>
</mgrwt>
</event>
<event>
 7    1  0.1033707E-005  0.1527246E+03  0.7546771E-02  0.1214114E+00
         -1   -1    0    0    0  501 -0.00000000000E+00  0.00000000000E+00  0.47952664963E+02  0.47952664963E+02  0.00000000000E+00 0.  1.
          1   -1    0    0  501    0  0.00000000000E+00 -0.00000000000E+00 -0.36348188507E+03  0.36348188507E+03  0.00000000000E+00 0. -1.
         23    2    1    2    0    0  0.33465682116E+02  0.39932038928E+02 -0.17065661674E+03  0.20092831647E+03  0.92379585996E+02 0.  0.
          5    1    1    2  502    0 -0.48138765605E+01 -0.82332606247E+02 -0.35991452151E+02  0.90107192204E+02  0.47000000000E+01 0. -1.
         -5    1    1    2    0  502 -0.28651805556E+02  0.42400567318E+02 -0.10888115121E+03  0.12039904135E+03  0.47000000000E+01 0.  1.
        -11    1    3    3    0    0  0.57263243953E+02 -0.73366708530E+00 -0.11106312890E+03  0.12495853703E+03  0.00000000000E+00 0. -1.
         11    1    3    3    0    0 -0.23797561837E+02  0.40665706014E+02 -0.59593487842E+02  0.75969779440E+02  0.00000000000E+00 0.  1.
<mgrwt>
<rscale>  0 0.13941792E+03</rscale>
<asrwt>0</asrwt>
<pdfrwt beam="2">  1        1 0.55920290E-01 0.15272460E+03</pdfrwt>
<pdfrwt beam="1">  1       -1 0.73773331E-02 0.15272460E+03</pdfrwt>
<totfact> 0.64363338E+03</totfact>
</mgrwt>
</event>
<event>
 8    1  0.1033707E-005  0.1899810E+03  0.7546771E-02  0.1163598E+00
          2   -1    0    0  501    0  0.00000000000E+00  0.00000000000E+00  0.91622225194E+03  0.91622225194E+03  0.00000000000E+00 0. -1.
         -2   -1    0    0    0  501 -0.00000000000E+00 -0.00000000000E+00 -0.45853749509E+02  0.45853749509E+02  0.00000000000E+00 0.  1.
         23    2    1    2    0    0 -0.13437885223E+03  0.49089988593E+02  0.22232290890E+03  0.29243846802E+03  0.12500111538E+03 0.  0.
         23    2    1    2    0    0  0.13437885223E+03 -0.49089988593E+02  0.64804559353E+03  0.66963753343E+03  0.89352291415E+02 0.  0.
          5    1    3    3  502    0 -0.26995324111E+02 -0.37386272701E+02  0.28091546638E+02  0.54200607956E+02  0.47000000000E+01 0.  1.
         -5    1    3    3    0  502 -0.10738352812E+03  0.86476261293E+02  0.19423136227E+03  0.23823786006E+03  0.47000000000E+01 0.  1.
        -11    1    4    4    0    0  0.46119617069E+02 -0.38178258469E+02  0.11946654109E+03  0.13362953617E+03  0.00000000000E+00 0. -1.
         11    1    4    4    0    0  0.88259235163E+02 -0.10911730123E+02  0.52857905244E+03  0.53600799726E+03  0.00000000000E+00 0.  1.
<mgrwt>
<rscale>  0 0.18441467E+03</rscale>
<asrwt>0</asrwt>
<pdfrwt beam="1">  1        2 0.14095726E+00 0.18998100E+03</pdfrwt>
<pdfrwt beam="2">  1       -2 0.70544237E-02 0.18998100E+03</pdfrwt>
<totfact> 0.33809210E+03</totfact>
</mgrwt>
</event>
<event>
 8    1  0.1033707E-005  0.1655481E+03  0.7546771E-02  0.1189373E+00
          3   -1    0    0  501    0  0.00000000000E+00  0.00000000000E+00  0.65320302757E+02  0.65320302757E+02  0.00000000000E+00 0. -1.
         -3   -1    0    0    0  501 -0.00000000000E+00 -0.00000000000E+00 -0.36697430796E+03  0.36697430796E+03  0.00000000000E+00 0.  1.
         23    2    1    2    0    0 -0.44392698449E+02  0.99050135085E+02 -0.18529279544E+03  0.24847450022E+03  0.12499806511E+03 0.  0.
         23    2    1    2    0    0  0.44392698449E+02 -0.99050135085E+02 -0.11636120977E+03  0.18382011050E+03  0.92023154421E+02 0.  0.
          5    1    3    3  502    0  0.86691603406E+01  0.68008285606E+02 -0.19265260683E+02  0.71368911448E+02  0.47000000000E+01 0.  1.
         -5    1    3    3    0  502 -0.53061858789E+02  0.31041849480E+02 -0.16602753475E+03  0.17710558877E+03  0.47000000000E+01 0.  1.
        -11    1    4    4    0    0  0.13832156408E+02 -0.16825055887E+00  0.12429598918E+02  0.18597090859E+02  0.00000000000E+00 0. -1.
         11    1    4    4    0    0  0.30560542041E+02 -0.98881884527E+02 -0.12879080869E+03  0.16522301964E+03  0.00000000000E+00 0.  1.
<mgrwt>
<rscale>  0 0.15940279E+03</rscale>
<asrwt>0</asrwt>
<pdfrwt beam="1">  1        3 0.10049278E-01 0.16554805E+03</pdfrwt>
<pdfrwt beam="2">  1       -3 0.56457585E-01 0.16554805E+03</pdfrwt>
<totfact> 0.54428032E+02</totfact>
</mgrwt>
</event>
<event>
 8    1  0.1033707E-005  0.1357025E+03  0.7546771E-02  0.1231653E+00
         -2   -1    0    0    0  501 -0.00000000000E+00  0.00000000000E+00  0.93917183314E+02  0.93917183314E+02  0.00000000000E+00 0.  1.
          2   -1    0    0  501    0  0.00000000000E+00 -0.00000000000E+00 -0.15441178476E+03  0.15441178476E+03  0.00000000000E+00 0. -1.
         23    2    1    2    0    0  0.40418553763E+01  0.52668978087E+02 -0.27492070977E+02  0.13845931341E+03  0.12499923862E+03 0.  0.
         23    2    1    2    0    0 -0.40418553763E+01 -0.52668978087E+02 -0.33002530465E+02  0.10986965466E+03  0.90508652355E+02 0.  0.
          5    1    3    3  502    0 -0.38158512315E+02  0.77206874697E+02 -0.12326116444E+02  0.87126326154E+02  0.47000000000E+01 0. -1.
         -5    1    3    3    0  502  0.42200367691E+02 -0.24537896611E+02 -0.15165954533E+02  0.51332987252E+02  0.47000000000E+01 0. -1.
        -11    1    4    4    0    0  0.83781363582E+01  0.24806536152E+02 -0.57511524778E+01  0.26807334063E+02  0.00000000000E+00 0.  1.
         11    1    4    4    0    0 -0.12419991734E+02 -0.77475514239E+02 -0.27251377987E+02  0.83062320600E+02  0.00000000000E+00 0. -1.
<mgrwt>
<rscale>  0 0.12721166E+03</rscale>
<asrwt>0</asrwt>
<pdfrwt beam="2">  1        2 0.23755659E-01 0.13570250E+03</pdfrwt>
<pdfrwt beam="1">  1       -2 0.14448798E-01 0.13570250E+03</pdfrwt>
<totfact> 0.78561453E+03</totfact>
</mgrwt>
</event>
<event>
 8    1  0.1033707E-005  0.1432452E+03  0.7546771E-02  0.1219284E+00
          2   -1    0    0  501    0  0.00000000000E+00  0.00000000000E+00  0.61988251009E+03  0.61988251009E+03  0.00000000000E+00 0.  1.
         -2   -1    0    0    0  501 -0.00000000000E+00 -0.00000000000E+00 -0.31219426840E+02  0.31219426840E+02  0.00000000000E+00 0. -1.
         23    2    1    2    0    0 -0.59340606906E+02 -0.37045055186E+02  0.20204058407E+03  0.24766832232E+03  0.12500222610E+03 0.  0.
         23    2    1    2    0    0  0.59340606906E+02  0.37045055186E+02  0.38662249918E+03  0.40343361461E+03  0.91586466137E+02 0.  0.
          5    1    3    3  502    0 -0.39581076526E+02 -0.37502117475E+02  0.21612573572E+03  0.22294728990E+03  0.47000000000E+01 0.  1.
         -5    1    3    3    0  502 -0.19759530380E+02  0.45706228862E+00 -0.14085151654E+02  0.24721032420E+02  0.47000000000E+01 0.  1.
        -11    1    4    4    0    0  0.37792072944E+02  0.67591389741E+02  0.27648407667E+03  0.28712415677E+03  0.00000000000E+00 0.  1.
         11    1    4    4    0    0  0.21548533962E+02 -0.30546334555E+02  0.11013842251E+03  0.11630945784E+03  0.00000000000E+00 0. -1.
<mgrwt>
<rscale>  0 0.13566473E+03</rscale>
<asrwt>0</asrwt>
<pdfrwt beam="1">  1        2 0.95366531E-01 0.14324525E+03</pdfrwt>
<pdfrwt beam="2">  1       -2 0.48029892E-02 0.14324525E+03</pdfrwt>
<totfact> 0.96982994E+03</totfact>
</mgrwt>
</event>
<event>
 8    1  0.1033707E-005  0.1365277E+03  0.7546771E-02  0.1229494E+00
         -2   -1    0    0    0  501 -0.00000000000E+00  0.00000000000E+00  0.32147299009E+02  0.32147299009E+02  0.00000000000E+00 0.  1.
          2   -1    0    0  501    0  0.00000000000E+00 -0.00000000000E+00 -0.46363183366E+03  0.46363183366E+03  0.00000000000E+00 0. -1.
         23    2    1    2    0    0  0.32235155909E+02 -0.44431728287E+02 -0.24613735761E+03  0.28146652908E+03  0.12500609754E+03 0.  0.
         23    2    1    2    0    0 -0.32235155909E+02  0.44431728287E+02 -0.18534717704E+03  0.21431260360E+03  0.92536653651E+02 0.  0.
          5    1    3    3  502    0  0.33415122508E+02 -0.78236919327E+02 -0.22667455533E+03  0.24215910058E+03  0.47000000000E+01 0.  1.
         -5    1    3    3    0  502 -0.11799665984E+01  0.33805191040E+02 -0.19462802285E+02  0.39307428499E+02  0.47000000000E+01 0.  1.
        -11    1    4    4    0    0 -0.61588386184E+02  0.17138018489E+02 -0.13927043103E+03  0.15324194579E+03  0.00000000000E+00 0. -1.
         11    1    4    4    0    0  0.29353230275E+02  0.27293709798E+02 -0.46076746011E+02  0.61070657807E+02  0.00000000000E+00 0.  1.
<mgrwt>
<rscale>  0 0.12863580E+03</rscale>
<asrwt>0</asrwt>
<pdfrwt beam="2">  1        2 0.71327973E-01 0.13652768E+03</pdfrwt>
<pdfrwt beam="1">  1       -2 0.49457384E-02 0.13652768E+03</pdfrwt>
<totfact> 0.12785317E+04</totfact>
</mgrwt>
</event>
<event>
 8    1  0.1033707E-005  0.1266936E+03  0.7546771E-02  0.1247348E+00
          2   -1    0    0  501    0  0.00000000000E+00  0.00000000000E+00  0.43256480150E+03  0.43256480150E+03  0.00000000000E+00 0. -1.
         -2   -1    0    0    0  501 -0.00000000000E+00 -0.00000000000E+00 -0.36377264611E+02  0.36377264611E+02  0.00000000000E+00 0.  1.
         23    2    1    2    0    0  0.20288554593E+02 -0.38234861642E+01  0.10982016749E+03  0.16766558689E+03  0.12500014138E+03 0.  0.
         23    2    1    2    0    0 -0.20288554593E+02  0.38234861642E+01  0.28636736940E+03  0.30127647922E+03  0.91296233119E+02 0.  0.
          5    1    3    3  502    0  0.68061394956E+02  0.14120669839E+02  0.87289293449E+02  0.11168373897E+03  0.47000000000E+01 0. -1.
         -5    1    3    3    0  502 -0.47772840363E+02 -0.17944156003E+02  0.22530874038E+02  0.55981847915E+02  0.47000000000E+01 0. -1.
        -11    1    4    4    0    0  0.15933640784E+02  0.36919786823E+02  0.85208041109E+02  0.94219752904E+02  0.00000000000E+00 0.  1.
         11    1    4    4    0    0 -0.36222195377E+02 -0.33096300659E+02  0.20115932829E+03  0.20705672632E+03  0.00000000000E+00 0. -1.
<mgrwt>
<rscale>  0 0.11745915E+03</rscale>
<asrwt>0</asrwt>
<pdfrwt beam="1">  1        2 0.66548427E-01 0.12669365E+03</pdfrwt>
<pdfrwt beam="2">  1       -2 0.55965025E-02 0.12669365E+03</pdfrwt>
<totfact> 0.11376742E+04</totfact>
</mgrwt>
</event>
<event>
 8    1  0.1033707E-005  0.1313730E+03  0.7546771E-02  0.1238919E+00
         -3   -1    0    0    0  501 -0.00000000000E+00  0.00000000000E+00  0.11619177174E+03  0.11619177174E+03  0.00000000000E+00 0.  1.
          3   -1    0    0  501    0  0.00000000000E+00 -0.00000000000E+00 -0.13176506185E+03  0.13176506185E+03  0.00000000000E+00 0. -1.
         23    2    1    2    0    0  0.35419205836E+02 -0.18605183487E+02  0.35492199487E+02  0.13608291496E+03  0.12513269167E+03 0.  0.
         23    2    1    2    0    0 -0.35419205836E+02  0.18605183487E+02 -0.51065489588E+02  0.11187391863E+03  0.91145029751E+02 0.  0.
          5    1    3    3  502    0  0.60495699681E+02 -0.28827426889E+02  0.66583878230E+02  0.94584634381E+02  0.47000000000E+01 0.  1.
         -5    1    3    3    0  502 -0.25076493845E+02  0.10222243402E+02 -0.31091678743E+02  0.41498280577E+02  0.47000000000E+01 0.  1.
        -11    1    4    4    0    0 -0.45173756013E+02  0.39078620801E+02 -0.42831447894E+01  0.59884490191E+02  0.00000000000E+00 0.  1.
         11    1    4    4    0    0  0.97545501778E+01 -0.20473437315E+02 -0.46782344799E+02  0.51989428440E+02  0.00000000000E+00 0. -1.
<mgrwt>
<rscale>  0 0.12256834E+03</rscale>
<asrwt>0</asrwt>
<pdfrwt beam="2">  1        3 0.20271548E-01 0.13137299E+03</pdfrwt>
<pdfrwt beam="1">  1       -3 0.17875657E-01 0.13137299E+03</pdfrwt>
<totfact> 0.13712175E+03</totfact>
</mgrwt>
</event>
<event>
 8    1  0.1033707E-005  0.1236729E+03  0.7546771E-02  0.1252995E+00
         -2   -1    0    0    0  501 -0.00000000000E+00  0.00000000000E+00  0.35654096742E+03  0.35654096742E+03  0.00000000000E+00 0. -1.
          2   -1    0    0  501    0  0.00000000000E+00 -0.00000000000E+00 -0.34712573267E+02  0.34712573267E+02  0.00000000000E+00 0.  1.
         23    2    1    2    0    0 -0.75617095746E+01 -0.16604151871E+02  0.23858794509E+03  0.26873627966E+03  0.12231967608E+03 0.  0.
         23    2    1    2    0    0  0.75617095746E+01  0.16604151871E+02  0.83240449063E+02  0.12251726102E+03  0.88026300483E+02 0.  0.
          5    1    3    3  502    0  0.34178606732E+02 -0.46088456764E+02  0.18822630142E+03  0.19683382217E+03  0.47000000000E+01 0. -1.
         -5    1    3    3    0  502 -0.41740316306E+02  0.29484304892E+02  0.50361643666E+02  0.71902457490E+02  0.47000000000E+01 0.  1.
        -11    1    4    4    0    0 -0.82093016306E+01  0.97369196957E+01 -0.16759043201E+02  0.21049127475E+02  0.00000000000E+00 0.  1.
         11    1    4    4    0    0  0.15771011205E+02  0.68672321754E+01  0.99999492264E+02  0.10146813355E+03  0.00000000000E+00 0. -1.
<mgrwt>
<rscale>  0 0.11419376E+03</rscale>
<asrwt>0</asrwt>
<pdfrwt beam="2">  1        2 0.53403961E-02 0.12367288E+03</pdfrwt>
<pdfrwt beam="1">  1       -2 0.54852454E-01 0.12367288E+03</pdfrwt>
<totfact> 0.43275177E+03</totfact>
</mgrwt>
</event>
<event>
 8    1  0.1033707E-005  0.1345960E+03  0.7546771E-02  0.1233250E+00
         -4   -1    0    0    0  501 -0.00000000000E+00  0.00000000000E+00  0.88088302483E+02  0.88088302483E+02  0.00000000000E+00 0.  1.
          4   -1    0    0  501    0  0.00000000000E+00 -0.00000000000E+00 -0.16181065500E+03  0.16181065500E+03  0.00000000000E+00 0. -1.
         23    2    1    2    0    0  0.49939265052E+02  0.70086582735E+00 -0.35923639274E+02  0.13930755721E+03  0.12498666421E+03 0.  0.
         23    2    1    2    0    0 -0.49939265052E+02 -0.70086582735E+00 -0.37798713247E+02  0.11059140028E+03  0.91144356300E+02 0.  0.
          5    1    3    3  502    0  0.73457823183E+01 -0.37936307500E+02 -0.64179752028E+02  0.75061671411E+02  0.47000000000E+01 0.  1.
         -5    1    3    3    0  502  0.42593482733E+02  0.38637173327E+02  0.28256112755E+02  0.64245885799E+02  0.47000000000E+01 0.  1.
        -11    1    4    4    0    0 -0.45655253529E+02  0.30888810687E+02 -0.51920344710E+02  0.75724784551E+02  0.00000000000E+00 0. -1.
         11    1    4    4    0    0 -0.42840115223E+01 -0.31589676515E+02  0.14121631463E+02  0.34866615726E+02  0.00000000000E+00 0.  1.
<mgrwt>
<rscale>  0 0.12617135E+03</rscale>
<asrwt>0</asrwt>
<pdfrwt beam="2">  1        4 0.24893947E-01 0.13459602E+03</pdfrwt>
<pdfrwt beam="1">  1       -4 0.13552047E-01 0.13459602E+03</pdfrwt>
<totfact> 0.11194092E+03</totfact>
</mgrwt>
</event>
<event>
 8    1  0.1033707E-005  0.1450259E+03  0.7546771E-02  0.1212670E+00
         -2   -1    0    0    0  501 -0.00000000000E+00  0.00000000000E+00  0.20143076890E+03  0.20143076890E+03  0.00000000000E+00 0.  1.
          2   -1    0    0  501    0  0.00000000000E+00 -0.00000000000E+00 -0.12669487835E+03  0.12669487835E+03  0.00000000000E+00 0. -1.
         23    2    1    2    0    0 -0.64904678932E+02 -0.34561276258E+02  0.12441991526E+03  0.19108330803E+03  0.12500166451E+03 0.  0.
         23    2    1    2    0    0  0.64904678932E+02  0.34561276258E+02 -0.49684024706E+02  0.13704233922E+03  0.10442701406E+03 0.  0.
          5    1    3    3  502    0 -0.27907528891E+02 -0.73578506388E+02  0.34159901799E+02  0.85916329426E+02  0.47000000000E+01 0. -1.
         -5    1    3    3    0  502 -0.36997150040E+02  0.39017230130E+02  0.90260013461E+02  0.10516697860E+03  0.47000000000E+01 0. -1.
        -11    1    4    4    0    0  0.67859104032E+02 -0.16401778356E+02 -0.50205433252E+02  0.85991056868E+02  0.00000000000E+00 0. -1.
         11    1    4    4    0    0 -0.29544251005E+01  0.50963054614E+02  0.52140854632E+00  0.51051282355E+02  0.00000000000E+00 0.  1.
<mgrwt>
<rscale>  0 0.14049082E+03</rscale>
<asrwt>0</asrwt>
<pdfrwt beam="2">  1        2 0.19491520E-01 0.14502591E+03</pdfrwt>
<pdfrwt beam="1">  1       -2 0.30989349E-01 0.14502591E+03</pdfrwt>
<totfact> 0.26705950E+03</totfact>
</mgrwt>
</event>
<event>
 8    1  0.1033707E-005  0.1632847E+03  0.7546771E-02  0.1192321E+00
         -2   -1    0    0    0  501 -0.00000000000E+00  0.00000000000E+00  0.26066491141E+03  0.26066491141E+03  0.00000000000E+00 0.  1.
          2   -1    0    0  501    0  0.00000000000E+00 -0.00000000000E+00 -0.98501711223E+02  0.98501711223E+02  0.00000000000E+00 0. -1.
         23    2    1    2    0    0  0.85284370467E+02 -0.61342893809E+02  0.14641375273E+03  0.21931456012E+03  0.12500205928E+03 0.  0.
         23    2    1    2    0    0 -0.85284370467E+02  0.61342893809E+02  0.15749447454E+02  0.13985206251E+03  0.90962518803E+02 0.  0.
          5    1    3    3  502    0  0.10304523213E+03 -0.81934818449E+02  0.13724092467E+03  0.19023352950E+03  0.47000000000E+01 0. -1.
         -5    1    3    3    0  502 -0.17760861667E+02  0.20591924640E+02  0.91728280638E+01  0.29081030625E+02  0.47000000000E+01 0. -1.
        -11    1    4    4    0    0  0.35681788872E+01  0.29955396364E+02  0.32277316363E+02  0.44180117966E+02  0.00000000000E+00 0.  1.
         11    1    4    4    0    0 -0.88852549354E+02  0.31387497445E+02 -0.16527868909E+02  0.95671944547E+02  0.00000000000E+00 0. -1.
<mgrwt>
<rscale>  0 0.15683155E+03</rscale>
<asrwt>0</asrwt>
<pdfrwt beam="2">  1        2 0.15154109E-01 0.16328469E+03</pdfrwt>
<pdfrwt beam="1">  1       -2 0.40102294E-01 0.16328469E+03</pdfrwt>
<totfact> 0.22276366E+03</totfact>
</mgrwt>
</event>
<event>
 8    1  0.1033707E-005  0.1236206E+03  0.7546771E-02  0.1245962E+00
          1   -1    0    0  501    0  0.00000000000E+00  0.00000000000E+00  0.68164491818E+02  0.68164491818E+02  0.00000000000E+00 0. -1.
         -1   -1    0    0    0  501 -0.00000000000E+00 -0.00000000000E+00 -0.24371073351E+03  0.24371073351E+03  0.00000000000E+00 0.  1.
         23    2    1    2    0    0 -0.43590469597E+02  0.13387396055E+01 -0.16720010686E+03  0.20793734380E+03  0.11567256352E+03 0.  0.
         23    2    1    2    0    0  0.43590469597E+02 -0.13387396055E+01 -0.83461348395E+01  0.10393788153E+03  0.93976081991E+02 0.  0.
          5    1    3    3  502    0 -0.52881841661E+02 -0.47769665512E+02 -0.11607783601E+03  0.13628860603E+03  0.47000000000E+01 0. -1.
         -5    1    3    3    0  502  0.92913720640E+01  0.49108405117E+02 -0.51122270841E+02  0.71648737769E+02  0.47000000000E+01 0.  1.
        -11    1    4    4    0    0 -0.18460036506E+02 -0.14989808672E+02  0.23007782374E+02  0.33088145333E+02  0.00000000000E+00 0. -1.
         11    1    4    4    0    0  0.62050506103E+02  0.13651069066E+02 -0.31353917213E+02  0.70849736195E+02  0.00000000000E+00 0.  1.
<mgrwt>
<rscale>  0 0.11827979E+03</rscale>
<asrwt>0</asrwt>
<pdfrwt beam="1">  1        1 0.10486845E-01 0.12362064E+03</pdfrwt>
<pdfrwt beam="2">  1       -1 0.37493959E-01 0.12362064E+03</pdfrwt>
<totfact> 0.39720779E+03</totfact>
</mgrwt>
</event>
<event>
 8    1  0.1033707E-005  0.1800598E+03  0.7546771E-02  0.1175240E+00
          2   -1    0    0  501    0  0.00000000000E+00  0.00000000000E+00  0.27169346035E+02  0.27169346035E+02  0.00000000000E+00 0. -1.
         -2   -1    0    0    0  501 -0.00000000000E+00 -0.00000000000E+00 -0.10865289927E+04  0.10865289927E+04  0.00000000000E+00 0.  1.
         23    2    1    2    0    0 -0.12490317779E+03 -0.34701434022E+02 -0.71605103117E+03  0.73834314772E+03  0.12496612025E+03 0.  0.
         23    2    1    2    0    0  0.12490317779E+03  0.34701434022E+02 -0.34330861550E+03  0.37535519102E+03  0.78903235672E+02 0.  0.
          5    1    3    3  502    0 -0.80062557306E+02  0.40478466835E+02 -0.42431551954E+03  0.43372141921E+03  0.47000000000E+01 0.  1.
         -5    1    3    3    0  502 -0.44840620481E+02 -0.75179900856E+02 -0.29173551163E+03  0.30462172852E+03  0.47000000000E+01 0.  1.
        -11    1    4    4    0    0  0.62268958239E+02 -0.20690314703E+02 -0.18551154822E+03  0.19677410095E+03  0.00000000000E+00 0. -1.
         11    1    4    4    0    0  0.62634219548E+02  0.55391748725E+02 -0.15779706729E+03  0.17858109007E+03  0.00000000000E+00 0.  1.
<mgrwt>
<rscale>  0 0.17252457E+03</rscale>
<asrwt>0</asrwt>
<pdfrwt beam="1">  1        2 0.41798987E-02 0.18005978E+03</pdfrwt>
<pdfrwt beam="2">  1       -2 0.16715833E+00 0.18005978E+03</pdfrwt>
<totfact> 0.47067953E+02</totfact>
</mgrwt>
</event>
<event>
 8    1  0.1033707E-005  0.2295122E+03  0.7546771E-02  0.1129932E+00
          1   -1    0    0  501    0  0.00000000000E+00  0.00000000000E+00  0.63697546364E+03  0.63697546364E+03  0.00000000000E+00 0. -1.
         -1   -1    0    0    0  501 -0.00000000000E+00 -0.00000000000E+00 -0.80577330224E+02  0.80577330224E+02  0.00000000000E+00 0.  1.
         23    2    1    2    0    0  0.19074964442E+03  0.25783790455E+02  0.21235749514E+03  0.31268446221E+03  0.12500254585E+03 0.  0.
         23    2    1    2    0    0 -0.19074964442E+03 -0.25783790455E+02  0.34404063828E+03  0.40486833166E+03  0.92218081179E+02 0.  0.
          5    1    3    3  502    0  0.78957740949E+02  0.67902424486E+02  0.64689163552E+02  0.12268594862E+03  0.47000000000E+01 0. -1.
         -5    1    3    3    0  502  0.11179190347E+03 -0.42118634031E+02  0.14766833159E+03  0.18999851360E+03  0.47000000000E+01 0. -1.
        -11    1    4    4    0    0 -0.96645022611E+02  0.15096266042E+02  0.23799755723E+03  0.25731497214E+03  0.00000000000E+00 0. -1.
         11    1    4    4    0    0 -0.94104621807E+02 -0.40880056496E+02  0.10604308105E+03  0.14755335951E+03  0.00000000000E+00 0.  1.
<mgrwt>
<rscale>  0 0.22538275E+03</rscale>
<asrwt>0</asrwt>
<pdfrwt beam="1">  1        1 0.97996222E-01 0.22951224E+03</pdfrwt>
<pdfrwt beam="2">  1       -1 0.12396513E-01 0.22951224E+03</pdfrwt>
<totfact> 0.14049916E+03</totfact>
</mgrwt>
</event>
<event>
 8    1  0.1033707E-005  0.1854569E+03  0.7546771E-02  0.1168082E+00
          1   -1    0    0  501    0  0.00000000000E+00  0.00000000000E+00  0.73869420710E+03  0.73869420710E+03  0.00000000000E+00 0.  1.
         -1   -1    0    0    0  501 -0.00000000000E+00 -0.00000000000E+00 -0.49841533817E+02  0.49841533817E+02  0.00000000000E+00 0. -1.
         23    2    1    2    0    0  0.10264818411E+03  0.90730848004E+02  0.19858898080E+03  0.27172016502E+03  0.12500211319E+03 0.  0.
         23    2    1    2    0    0 -0.10264818411E+03 -0.90730848004E+02  0.49026369249E+03  0.51681557590E+03  0.89281100139E+02 0.  0.
          5    1    3    3  502    0 -0.15001759076E+02  0.13738796239E+02  0.94339408776E+02  0.96622054138E+02  0.47000000000E+01 0. -1.
         -5    1    3    3    0  502  0.11764994319E+03  0.76992051765E+02  0.10424957202E+03  0.17509811088E+03  0.47000000000E+01 0. -1.
        -11    1    4    4    0    0 -0.13257177093E+02 -0.27384116051E+02  0.26693725734E+02  0.40474653179E+02  0.00000000000E+00 0. -1.
         11    1    4    4    0    0 -0.89391007019E+02 -0.63346731953E+02  0.46356996675E+03  0.47634092272E+03  0.00000000000E+00 0.  1.
<mgrwt>
<rscale>  0 0.17971202E+03</rscale>
<asrwt>0</asrwt>
<pdfrwt beam="1">  1        1 0.11364526E+00 0.18545691E+03</pdfrwt>
<pdfrwt beam="2">  1       -1 0.76679288E-02 0.18545691E+03</pdfrwt>
<totfact> 0.23707062E+03</totfact>
</mgrwt>
</event>
<event>
 8    1  0.1033707E-005  0.1269885E+03  0.7546771E-02  0.1246828E+00
          1   -1    0    0  501    0  0.00000000000E+00  0.00000000000E+00  0.68081307993E+02  0.68081307993E+02  0.00000000000E+00 0. -1.
         -1   -1    0    0    0  501 -0.00000000000E+00 -0.00000000000E+00 -0.24518117288E+03  0.24518117288E+03  0.00000000000E+00 0.  1.
         23    2    1    2    0    0  0.22134364313E+02 -0.29482642064E+01 -0.17881635994E+03  0.21932025302E+03  0.12500984144E+03 0.  0.
         23    2    1    2    0    0 -0.22134364313E+02  0.29482642064E+01  0.17164950580E+01  0.93942227849E+02  0.91233620298E+02 0.  0.
          5    1    3    3  502    0 -0.26637738348E+02 -0.51201650232E+02 -0.74126095668E+02  0.94063521886E+02  0.47000000000E+01 0. -1.
         -5    1    3    3    0  502  0.48772102661E+02  0.48253386025E+02 -0.10469026428E+03  0.12525673114E+03  0.47000000000E+01 0. -1.
        -11    1    4    4    0    0 -0.25748777943E+02  0.20520751578E+02  0.39913708365E+02  0.51741713601E+02  0.00000000000E+00 0. -1.
         11    1    4    4    0    0  0.36144136302E+01 -0.17572487372E+02 -0.38197213307E+02  0.42200514248E+02  0.00000000000E+00 0.  1.
<mgrwt>
<rscale>  0 0.11776613E+03</rscale>
<asrwt>0</asrwt>
<pdfrwt beam="1">  1        1 0.10474047E-01 0.12698851E+03</pdfrwt>
<pdfrwt beam="2">  1       -1 0.37720181E-01 0.12698851E+03</pdfrwt>
<totfact> 0.39438687E+03</totfact>
</mgrwt>
</event>
<event>
 8    1  0.1033707E-005  0.1326709E+03  0.7546771E-02  0.1239729E+00
          2   -1    0    0  501    0  0.00000000000E+00  0.00000000000E+00  0.23923119104E+03  0.23923119104E+03  0.00000000000E+00 0. -1.
         -2   -1    0    0    0  501 -0.00000000000E+00 -0.00000000000E+00 -0.56921277367E+02  0.56921277367E+02  0.00000000000E+00 0.  1.
         23    2    1    2    0    0  0.32187336305E+01  0.44407905798E+02  0.13744049297E+03  0.19102735177E+03  0.12497654849E+03 0.  0.
         23    2    1    2    0    0 -0.32187336305E+01 -0.44407905798E+02  0.44869420706E+02  0.10512511664E+03  0.83997636217E+02 0.  0.
          5    1    3    3  502    0  0.49776260886E+01 -0.41092338371E+02  0.72222114325E+02  0.83375540969E+02  0.47000000000E+01 0. -1.
         -5    1    3    3    0  502 -0.17588924580E+01  0.85500244169E+02  0.65218378642E+02  0.10765181080E+03  0.47000000000E+01 0. -1.
        -11    1    4    4    0    0  0.18290922044E+01 -0.15862233943E+02 -0.24896187421E+02  0.29576615629E+02  0.00000000000E+00 0.  1.
         11    1    4    4    0    0 -0.50478258350E+01 -0.28545671855E+02  0.69765608127E+02  0.75548501009E+02  0.00000000000E+00 0. -1.
<mgrwt>
<rscale>  0 0.12206492E+03</rscale>
<asrwt>0</asrwt>
<pdfrwt beam="1">  1        2 0.36804798E-01 0.13267087E+03</pdfrwt>
<pdfrwt beam="2">  1       -2 0.87571197E-02 0.13267087E+03</pdfrwt>
<totfact> 0.10800057E+04</totfact>
</mgrwt>
</event>
<event>
 8    1  0.1033707E-005  0.1272619E+03  0.7546771E-02  0.1246193E+00
         -4   -1    0    0    0  501 -0.00000000000E+00  0.00000000000E+00  0.23438716590E+02  0.23438716590E+02  0.00000000000E+00 0.  1.
          4   -1    0    0  501    0  0.00000000000E+00 -0.00000000000E+00 -0.54520769097E+03  0.54520769097E+03  0.00000000000E+00 0. -1.
         23    2    1    2    0    0 -0.12837622566E+02 -0.20136182734E+02 -0.24331097210E+03  0.27458300699E+03  0.12500131271E+03 0.  0.
         23    2    1    2    0    0  0.12837622566E+02  0.20136182734E+02 -0.27845800228E+03  0.29406340056E+03  0.91455749462E+02 0.  0.
          5    1    3    3  502    0  0.29980871975E+02 -0.32108452632E+02 -0.23052548282E+02  0.49832874662E+02  0.47000000000E+01 0. -1.
         -5    1    3    3    0  502 -0.42818494541E+02  0.11972269898E+02 -0.22025842382E+03  0.22475013233E+03  0.47000000000E+01 0. -1.
        -11    1    4    4    0    0 -0.12657624220E+02  0.49198333794E+02 -0.10907926484E+03  0.12032862301E+03  0.00000000000E+00 0.  1.
         11    1    4    4    0    0  0.25495246786E+02 -0.29062151060E+02 -0.16937873744E+03  0.17373477755E+03  0.00000000000E+00 0. -1.
<mgrwt>
<rscale>  0 0.11814278E+03</rscale>
<asrwt>0</asrwt>
<pdfrwt beam="2">  1        4 0.83878100E-01 0.12726193E+03</pdfrwt>
<pdfrwt beam="1">  1       -4 0.36059567E-02 0.12726193E+03</pdfrwt>
<totfact> 0.84242167E+02</totfact>
</mgrwt>
</event>
<event>
 8    1  0.1033707E-005  0.1975350E+03  0.7546771E-02  0.1156350E+00
          2   -1    0    0  501    0  0.00000000000E+00  0.00000000000E+00  0.25984159260E+03  0.25984159260E+03  0.00000000000E+00 0. -1.
         -2   -1    0    0    0  501 -0.00000000000E+00 -0.00000000000E+00 -0.17703967295E+03  0.17703967295E+03  0.00000000000E+00 0.  1.
         23    2    1    2    0    0 -0.13356583758E+03 -0.74532381680E+02 -0.62716693527E+02  0.20725219308E+03  0.12500071601E+03 0.  0.
         23    2    1    2    0    0  0.13356583758E+03  0.74532381680E+02  0.14551861317E+03  0.22962907247E+03  0.90326824692E+02 0.  0.
          5    1    3    3  502    0 -0.81087812905E+02 -0.91238635560E+02  0.19650882333E+01  0.12217067403E+03  0.47000000000E+01 0. -1.
         -5    1    3    3    0  502 -0.52478024672E+02  0.16706253879E+02 -0.64681781761E+02  0.85081519051E+02  0.47000000000E+01 0. -1.
        -11    1    4    4    0    0  0.11756677881E+02  0.28774353853E+02  0.75981614120E+02  0.82093779294E+02  0.00000000000E+00 0.  1.
         11    1    4    4    0    0  0.12180915970E+03  0.45758027828E+02  0.69536999052E+02  0.14753529318E+03  0.00000000000E+00 0. -1.
<mgrwt>
<rscale>  0 0.19235994E+03</rscale>
<asrwt>0</asrwt>
<pdfrwt beam="1">  1        2 0.39975630E-01 0.19753503E+03</pdfrwt>
<pdfrwt beam="2">  1       -2 0.27236873E-01 0.19753503E+03</pdfrwt>
<totfact> 0.15454662E+03</totfact>
</mgrwt>
</event>
<event>
 8    1  0.1033707E-005  0.1300931E+03  0.7546771E-02  0.1241390E+00
         -1   -1    0    0    0  501 -0.00000000000E+00  0.00000000000E+00  0.31214227785E+02  0.31214227785E+02  0.00000000000E+00 0.  1.
          1   -1    0    0  501    0  0.00000000000E+00 -0.00000000000E+00 -0.41593841577E+03  0.41593841577E+03  0.00000000000E+00 0. -1.
         23    2    1    2    0    0 -0.31454943372E+02 -0.17628384586E+02 -0.23128568927E+03  0.26536254471E+03  0.12499614661E+03 0.  0.
         23    2    1    2    0    0  0.31454943372E+02  0.17628384586E+02 -0.15343849871E+03  0.18179009884E+03  0.90576452483E+02 0.  0.
          5    1    3    3  502    0 -0.57841409374E+02  0.20509913597E+02 -0.53448182276E+02  0.81517380863E+02  0.47000000000E+01 0.  1.
         -5    1    3    3    0  502  0.26386466002E+02 -0.38138298183E+02 -0.17783750699E+03  0.18384516384E+03  0.47000000000E+01 0.  1.
        -11    1    4    4    0    0  0.46862638547E+02  0.44378664719E+01 -0.15446815504E+03  0.16148130688E+03  0.00000000000E+00 0. -1.
         11    1    4    4    0    0 -0.15407695174E+02  0.13190518114E+02  0.10296563299E+01  0.20308791960E+02  0.00000000000E+00 0.  1.
<mgrwt>
<rscale>  0 0.12104044E+03</rscale>
<asrwt>0</asrwt>
<pdfrwt beam="2">  1        1 0.63990525E-01 0.13009308E+03</pdfrwt>
<pdfrwt beam="1">  1       -1 0.48021889E-02 0.13009308E+03</pdfrwt>
<totfact> 0.10192448E+04</totfact>
</mgrwt>
</event>
<event>
 8    1  0.1033707E-005  0.1500336E+03  0.7546771E-02  0.1209634E+00
          2   -1    0    0  501    0  0.00000000000E+00  0.00000000000E+00  0.27589698213E+03  0.27589698213E+03  0.00000000000E+00 0. -1.
         -2   -1    0    0    0  501 -0.00000000000E+00 -0.00000000000E+00 -0.68117126336E+02  0.68117126336E+02  0.00000000000E+00 0.  1.
         23    2    1    2    0    0  0.82490885260E+02  0.89814791186E+01  0.12926065590E+03  0.19803632822E+03  0.12499862804E+03 0.  0.
         23    2    1    2    0    0 -0.82490885260E+02 -0.89814791186E+01  0.78519199890E+02  0.14597778025E+03  0.90878129694E+02 0.  0.
          5    1    3    3  502    0  0.47908049737E+02 -0.40767871578E+02  0.12133208969E+03  0.13675074615E+03  0.47000000000E+01 0. -1.
         -5    1    3    3    0  502  0.34582835523E+02  0.49749350697E+02  0.79285662101E+01  0.61285582070E+02  0.47000000000E+01 0. -1.
        -11    1    4    4    0    0 -0.54258167631E+01  0.16468427583E+02 -0.14447769929E+02  0.22569595710E+02  0.00000000000E+00 0.  1.
         11    1    4    4    0    0 -0.77065068496E+02 -0.25449906702E+02  0.92966969819E+02  0.12340818454E+03  0.00000000000E+00 0. -1.
<mgrwt>
<rscale>  0 0.14278161E+03</rscale>
<asrwt>0</asrwt>
<pdfrwt beam="1">  1        2 0.42445689E-01 0.15003356E+03</pdfrwt>
<pdfrwt beam="2">  1       -2 0.10479558E-01 0.15003356E+03</pdfrwt>
<totfact> 0.70635895E+03</totfact>
</mgrwt>
</event>
<event>
 8    1  0.1033707E-005  0.1260439E+03  0.7546771E-02  0.1248735E+00
          2   -1    0    0  501    0  0.00000000000E+00  0.00000000000E+00  0.40102708753E+03  0.40102708753E+03  0.00000000000E+00 0. -1.
         -2   -1    0    0    0  501 -0.00000000000E+00 -0.00000000000E+00 -0.35264222470E+02  0.35264222470E+02  0.00000000000E+00 0.  1.
         23    2    1    2    0    0  0.11539853204E+02  0.11322853675E+02  0.12130123840E+03  0.17493157899E+03  0.12500276662E+03 0.  0.
         23    2    1    2    0    0 -0.11539853204E+02 -0.11322853675E+02  0.24446162666E+03  0.26135973102E+03  0.91027725765E+02 0.  0.
          5    1    3    3  502    0  0.16209341500E+02 -0.34807689089E+02 -0.62026241476E+01  0.39177551199E+02  0.47000000000E+01 0.  1.
         -5    1    3    3    0  502 -0.46694882954E+01  0.46130542765E+02  0.12750386255E+03  0.13575402779E+03  0.47000000000E+01 0.  1.
        -11    1    4    4    0    0 -0.47311070985E+02  0.10612070580E+01  0.18430908888E+03  0.19028742429E+03  0.00000000000E+00 0. -1.
         11    1    4    4    0    0  0.35771217781E+02 -0.12384060733E+02  0.60152537781E+02  0.71072306725E+02  0.00000000000E+00 0.  1.
<mgrwt>
<rscale>  0 0.11664625E+03</rscale>
<asrwt>0</asrwt>
<pdfrwt beam="1">  1        2 0.61696472E-01 0.12604391E+03</pdfrwt>
<pdfrwt beam="2">  1       -2 0.54252652E-02 0.12604391E+03</pdfrwt>
<totfact> 0.12922452E+04</totfact>
</mgrwt>
</event>
<event>
 8    1  0.1033707E-005  0.1319253E+03  0.7546771E-02  0.1237799E+00
          3   -1    0    0  501    0  0.00000000000E+00  0.00000000000E+00  0.18508745298E+03  0.18508745298E+03  0.00000000000E+00 0. -1.
         -3   -1    0    0    0  501 -0.00000000000E+00 -0.00000000000E+00 -0.82330393032E+02  0.82330393032E+02  0.00000000000E+00 0.  1.
         23    2    1    2    0    0 -0.39632027406E+02  0.14111076357E+02  0.12893335489E+02  0.13255382939E+03  0.12503783233E+03 0.  0.
         23    2    1    2    0    0  0.39632027406E+02 -0.14111076357E+02  0.89863724458E+02  0.13486401663E+03  0.91339990884E+02 0.  0.
          5    1    3    3  502    0 -0.45810701199E+02 -0.21478278242E+02 -0.42508650308E+02  0.66249619860E+02  0.47000000000E+01 0.  1.
         -5    1    3    3    0  502  0.61786737926E+01  0.35589354599E+02  0.55401985797E+02  0.66304209526E+02  0.47000000000E+01 0.  1.
        -11    1    4    4    0    0  0.23053500648E+02 -0.49320475947E+02  0.26611268732E+02  0.60598125906E+02  0.00000000000E+00 0.  1.
         11    1    4    4    0    0  0.16578526758E+02  0.35209399590E+02  0.63252455726E+02  0.74265890720E+02  0.00000000000E+00 0. -1.
<mgrwt>
<rscale>  0 0.12326933E+03</rscale>
<asrwt>0</asrwt>
<pdfrwt beam="1">  1        3 0.28474993E-01 0.13192528E+03</pdfrwt>
<pdfrwt beam="2">  1       -3 0.12666214E-01 0.13192528E+03</pdfrwt>
<totfact> 0.13428781E+03</totfact>
</mgrwt>
</event>
<event>
 8    1  0.1033707E-005  0.1583720E+03  0.7546771E-02  0.1198564E+00
         -2   -1    0    0    0  501 -0.00000000000E+00  0.00000000000E+00  0.37985325740E+02  0.37985325740E+02  0.00000000000E+00 0.  1.
          2   -1    0    0  501    0  0.00000000000E+00 -0.00000000000E+00 -0.59000004288E+03  0.59000004288E+03  0.00000000000E+00 0. -1.
         23    2    1    2    0    0  0.45945576491E+02  0.85708375865E+02 -0.37156031008E+03  0.40390438080E+03  0.12499905246E+03 0.  0.
         23    2    1    2    0    0 -0.45945576491E+02 -0.85708375865E+02 -0.18045440707E+03  0.22408098782E+03  0.90507316720E+02 0.  0.
          5    1    3    3  502    0  0.53513695960E+02  0.11023076436E+03 -0.23706221885E+03  0.26689908706E+03  0.47000000000E+01 0. -1.
         -5    1    3    3    0  502 -0.75681194686E+01 -0.24522388499E+02 -0.13449809123E+03  0.13700529375E+03  0.47000000000E+01 0. -1.
        -11    1    4    4    0    0 -0.29336529268E+02 -0.47976406671E+01 -0.11474844082E+03  0.11853629814E+03  0.00000000000E+00 0. -1.
         11    1    4    4    0    0 -0.16609047223E+02 -0.80910735198E+02 -0.65705966249E+02  0.10554468968E+03  0.00000000000E+00 0.  1.
<mgrwt>
<rscale>  0 0.15156441E+03</rscale>
<asrwt>0</asrwt>
<pdfrwt beam="2">  1        2 0.90769237E-01 0.15837198E+03</pdfrwt>
<pdfrwt beam="1">  1       -2 0.58438963E-02 0.15837198E+03</pdfrwt>
<totfact> 0.76781061E+03</totfact>
</mgrwt>
</event>
<event>
 8    1  0.1033707E-005  0.1704000E+03  0.7546771E-02  0.1183943E+00
          2   -1    0    0  501    0  0.00000000000E+00  0.00000000000E+00  0.81437060484E+03  0.81437060484E+03  0.00000000000E+00 0. -1.
         -2   -1    0    0    0  501 -0.00000000000E+00 -0.00000000000E+00 -0.31136237750E+02  0.31136237750E+02  0.00000000000E+00 0.  1.
         23    2    1    2    0    0 -0.41221617796E+02  0.10822477081E+03  0.45083857262E+03  0.48196636878E+03  0.12499735711E+03 0.  0.
         23    2    1    2    0    0  0.41221617796E+02 -0.10822477081E+03  0.33239579447E+03  0.36354047381E+03  0.90900435226E+02 0.  0.
          5    1    3    3  502    0 -0.19840338161E+02 -0.23447067203E+02  0.14462459776E+03  0.14792487369E+03  0.47000000000E+01 0.  1.
         -5    1    3    3    0  502 -0.21381279635E+02  0.13167183801E+03  0.30621397486E+03  0.33404149509E+03  0.47000000000E+01 0.  1.
        -11    1    4    4    0    0  0.64747596662E+01 -0.55583678779E+02  0.52864639908E+02  0.76981413418E+02  0.00000000000E+00 0.  1.
         11    1    4    4    0    0  0.34746858130E+02 -0.52641092031E+02  0.27953115457E+03  0.28655906039E+03  0.00000000000E+00 0. -1.
<mgrwt>
<rscale>  0 0.16428442E+03</rscale>
<asrwt>0</asrwt>
<pdfrwt beam="1">  1        2 0.12528777E+00 0.17040001E+03</pdfrwt>
<pdfrwt beam="2">  1       -2 0.47901910E-02 0.17040001E+03</pdfrwt>
<totfact> 0.70813646E+03</totfact>
</mgrwt>
</event>
<event>
 8    1  0.1033707E-005  0.1266963E+03  0.7546771E-02  0.1239843E+00
          2   -1    0    0  501    0  0.00000000000E+00  0.00000000000E+00  0.63446221916E+02  0.63446221916E+02  0.00000000000E+00 0. -1.
         -2   -1    0    0    0  501 -0.00000000000E+00 -0.00000000000E+00 -0.22380876366E+03  0.22380876366E+03  0.00000000000E+00 0.  1.
         23    2    1    2    0    0  0.22967836673E+01  0.20557910256E+02 -0.10767201504E+03  0.16626848951E+03  0.12499617951E+03 0.  0.
         23    2    1    2    0    0 -0.22967836673E+01 -0.20557910256E+02 -0.52690526704E+02  0.12098649606E+03  0.10692772202E+03 0.  0.
          5    1    3    3  502    0  0.21961770367E+02 -0.33508422132E+02  0.40236652850E+01  0.40539037899E+02  0.47000000000E+01 0.  1.
         -5    1    3    3    0  502 -0.19664986699E+02  0.54066332389E+02 -0.11169568032E+03  0.12572945161E+03  0.47000000000E+01 0.  1.
        -11    1    4    4    0    0 -0.30353896386E+02 -0.46487502717E+02 -0.60370124645E+02  0.82018283842E+02  0.00000000000E+00 0.  1.
         11    1    4    4    0    0  0.28057112719E+02  0.25929592460E+02  0.76795979407E+01  0.38968212222E+02  0.00000000000E+00 0. -1.
<mgrwt>
<rscale>  0 0.12199445E+03</rscale>
<asrwt>0</asrwt>
<pdfrwt beam="1">  1        2 0.97609572E-02 0.12669628E+03</pdfrwt>
<pdfrwt beam="2">  1       -2 0.34432117E-01 0.12669628E+03</pdfrwt>
<totfact> 0.49513096E+03</totfact>
</mgrwt>
</event>
<event>
 8    1  0.1033707E-005  0.1750235E+03  0.7546771E-02  0.1178633E+00
         -1   -1    0    0    0  501 -0.00000000000E+00  0.00000000000E+00  0.73491535774E+02  0.73491535774E+02  0.00000000000E+00 0.  1.
          1   -1    0    0  501    0  0.00000000000E+00 -0.00000000000E+00 -0.37750432600E+03  0.37750432600E+03  0.00000000000E+00 0. -1.
         23    2    1    2    0    0  0.92068307266E+02 -0.80807790714E+02 -0.12282077353E+03  0.21381805479E+03  0.12500698341E+03 0.  0.
         23    2    1    2    0    0 -0.92068307266E+02  0.80807790714E+02 -0.18119201669E+03  0.23717780698E+03  0.91740356260E+02 0.  0.
          5    1    3    3  502    0  0.77555376101E+02  0.40312374467E+01 -0.21353915451E+02  0.80679408418E+02  0.47000000000E+01 0. -1.
         -5    1    3    3    0  502  0.14512931165E+02 -0.84839028160E+02 -0.10146685808E+03  0.13313864637E+03  0.47000000000E+01 0. -1.
        -11    1    4    4    0    0 -0.45466761208E+02  0.93311849834E+02 -0.11068135950E+03  0.15173889098E+03  0.00000000000E+00 0.  1.
         11    1    4    4    0    0 -0.46601546058E+02 -0.12504059121E+02 -0.70510657196E+02  0.85438916002E+02  0.00000000000E+00 0. -1.
<mgrwt>
<rscale>  0 0.16924935E+03</rscale>
<asrwt>0</asrwt>
<pdfrwt beam="2">  1        1 0.58077590E-01 0.17502348E+03</pdfrwt>
<pdfrwt beam="1">  1       -1 0.11306390E-01 0.17502348E+03</pdfrwt>
<totfact> 0.32197579E+03</totfact>
</mgrwt>
</event>
<event>
 8    1  0.1033707E-005  0.1267514E+03  0.7546771E-02  0.1245764E+00
         -1   -1    0    0    0  501 -0.00000000000E+00  0.00000000000E+00  0.48427212636E+02  0.48427212636E+02  0.00000000000E+00 0.  1.
          1   -1    0    0  501    0  0.00000000000E+00 -0.00000000000E+00 -0.33860846872E+03  0.33860846872E+03  0.00000000000E+00 0. -1.
         23    2    1    2    0    0  0.18153519108E+02 -0.10545036123E+02 -0.65862502880E+02  0.14284183246E+03  0.12500068709E+03 0.  0.
         23    2    1    2    0    0 -0.18153519108E+02  0.10545036123E+02 -0.22431875320E+03  0.24419384889E+03  0.94185905284E+02 0.  0.
          5    1    3    3  502    0  0.29080679491E+02  0.40822526636E+02  0.91359494185E+01  0.51163660662E+02  0.47000000000E+01 0. -1.
         -5    1    3    3    0  502 -0.10927160382E+02 -0.51367562759E+02 -0.74998452299E+02  0.91678171802E+02  0.47000000000E+01 0. -1.
        -11    1    4    4    0    0 -0.28562595693E+02 -0.33080087278E+02 -0.15944360056E+03  0.16532506103E+03  0.00000000000E+00 0. -1.
         11    1    4    4    0    0  0.10409076584E+02  0.43625123401E+02 -0.64875152643E+02  0.78868787854E+02  0.00000000000E+00 0.  1.
<mgrwt>
<rscale>  0 0.11839774E+03</rscale>
<asrwt>0</asrwt>
<pdfrwt beam="2">  1        1 0.52093610E-01 0.12675141E+03</pdfrwt>
<pdfrwt beam="1">  1       -1 0.74503405E-02 0.12675141E+03</pdfrwt>
<totfact> 0.68480314E+03</totfact>
</mgrwt>
</event>
<event>
 8    1  0.1033707E-005  0.1354109E+03  0.7546771E-02  0.1229394E+00
          4   -1    0    0  501    0  0.00000000000E+00  0.00000000000E+00  0.90875777110E+03  0.90875777110E+03  0.00000000000E+00 0. -1.
         -4   -1    0    0    0  501 -0.00000000000E+00 -0.00000000000E+00 -0.16658544269E+02  0.16658544269E+02  0.00000000000E+00 0.  1.
         23    2    1    2    0    0 -0.18097936916E+02  0.59108575926E+02  0.47447863077E+03  0.49342281328E+03  0.12047714528E+03 0.  0.
         23    2    1    2    0    0  0.18097936916E+02 -0.59108575926E+02  0.41762059605E+03  0.43199350209E+03  0.91597295421E+02 0.  0.
          5    1    3    3  502    0  0.39096702955E+02 -0.12075006250E+02  0.19726439952E+03  0.20151846386E+03  0.47000000000E+01 0. -1.
         -5    1    3    3    0  502 -0.57194639871E+02  0.71183582175E+02  0.27721423125E+03  0.29190434942E+03  0.47000000000E+01 0.  1.
        -11    1    4    4    0    0  0.11966426688E+02 -0.69868541826E+02  0.41257578283E+03  0.41862105189E+03  0.00000000000E+00 0. -1.
         11    1    4    4    0    0  0.61315102277E+01  0.10759965901E+02  0.50448132205E+01  0.13372450197E+02  0.00000000000E+00 0.  1.
<mgrwt>
<rscale>  0 0.12870218E+03</rscale>
<asrwt>0</asrwt>
<pdfrwt beam="1">  1        4 0.13980885E+00 0.13541086E+03</pdfrwt>
<pdfrwt beam="2">  1       -4 0.25628537E-02 0.13541086E+03</pdfrwt>
<totfact> 0.43798708E+02</totfact>
</mgrwt>
</event>
<event>
 7    1  0.1033707E-005  0.1644537E+03  0.7546771E-02  0.1193989E+00
         -1   -1    0    0    0  501 -0.00000000000E+00  0.00000000000E+00  0.73650992631E+02  0.73650992631E+02  0.00000000000E+00 0.  1.
          1   -1    0    0  501    0  0.00000000000E+00 -0.00000000000E+00 -0.34029336019E+03  0.34029336019E+03  0.00000000000E+00 0. -1.
         23    2    1    2    0    0 -0.50283820488E+02 -0.79442328367E+02 -0.19400931983E+03  0.23416508047E+03  0.91400889446E+02 0.  0.
          5    1    1    2  502    0 -0.13561747551E+02 -0.29627168546E+02 -0.34498192352E+02  0.47685484041E+02  0.47000000000E+01 0. -1.
         -5    1    1    2    0  502  0.63845568039E+02  0.10906949691E+03 -0.38134855377E+02  0.13209378831E+03  0.47000000000E+01 0.  1.
        -11    1    3    3    0    0 -0.29000475240E+02 -0.89939182456E+01 -0.13901902652E+03  0.14229619764E+03  0.00000000000E+00 0. -1.
         11    1    3    3    0    0 -0.21283345248E+02 -0.70448410121E+02 -0.54990293314E+02  0.91868882829E+02  0.00000000000E+00 0.  1.
<mgrwt>
<rscale>  0 0.15540102E+03</rscale>
<asrwt>0</asrwt>
<pdfrwt beam="2">  1        1 0.52352824E-01 0.16445372E+03</pdfrwt>
<pdfrwt beam="1">  1       -1 0.11330922E-01 0.16445372E+03</pdfrwt>
<totfact> 0.36473740E+03</totfact>
</mgrwt>
</event>
<event>
 8    1  0.1033707E-005  0.2221977E+03  0.7546771E-02  0.1135537E+00
          1   -1    0    0  501    0  0.00000000000E+00  0.00000000000E+00  0.46209597562E+03  0.46209597562E+03  0.00000000000E+00 0. -1.
         -1   -1    0    0    0  501 -0.00000000000E+00 -0.00000000000E+00 -0.15541559309E+03  0.15541559309E+03  0.00000000000E+00 0.  1.
         23    2    1    2    0    0 -0.14737155329E+03 -0.10967561184E+03 -0.29046616897E+02  0.22408824497E+03  0.12499888410E+03 0.  0.
         23    2    1    2    0    0  0.14737155329E+03  0.10967561184E+03  0.33572699943E+03  0.39342332374E+03  0.91225977485E+02 0.  0.
          5    1    3    3  502    0 -0.32097791364E+02 -0.90821515797E+01 -0.59168740616E+02  0.68086588648E+02  0.47000000000E+01 0.  1.
         -5    1    3    3    0  502 -0.11527376193E+03 -0.10059346026E+03  0.30122123718E+02  0.15600165632E+03  0.47000000000E+01 0.  1.
        -11    1    4    4    0    0  0.10809925807E+02  0.31174983830E+02  0.13111705982E+03  0.13520509417E+03  0.00000000000E+00 0. -1.
         11    1    4    4    0    0  0.13656162749E+03  0.78500628010E+02  0.20460993961E+03  0.25821822958E+03  0.00000000000E+00 0.  1.
<mgrwt>
<rscale>  0 0.21779624E+03</rscale>
<asrwt>0</asrwt>
<pdfrwt beam="1">  1        1 0.71091688E-01 0.22219774E+03</pdfrwt>
<pdfrwt beam="2">  1       -1 0.23910091E-01 0.22219774E+03</pdfrwt>
<totfact> 0.75526898E+02</totfact>
</mgrwt>
</event>
<event>
 8    1  0.1033707E-005  0.1321213E+03  0.7546771E-02  0.1238813E+00
         -1   -1    0    0    0  501 -0.00000000000E+00  0.00000000000E+00  0.61886017587E+02  0.61886017587E+02  0.00000000000E+00 0.  1.
          1   -1    0    0  501    0  0.00000000000E+00 -0.00000000000E+00 -0.21837304623E+03  0.21837304623E+03  0.00000000000E+00 0. -1.
         23    2    1    2    0    0  0.28343221314E+01 -0.42702549978E+02 -0.70093412826E+02  0.14956307531E+03  0.12499794326E+03 0.  0.
         23    2    1    2    0    0 -0.28343221314E+01  0.42702549978E+02 -0.86393615814E+02  0.13069598850E+03  0.88238559600E+02 0.  0.
          5    1    3    3  502    0 -0.58346341166E+02 -0.35708268615E+02 -0.49099552693E+02  0.84334050357E+02  0.47000000000E+01 0. -1.
         -5    1    3    3    0  502  0.61180663298E+02 -0.69942813628E+01 -0.20993860133E+02  0.65229024955E+02  0.47000000000E+01 0. -1.
        -11    1    4    4    0    0  0.24452686449E+02  0.25738938579E+02  0.30726214405E+01  0.35635205013E+02  0.00000000000E+00 0.  1.
         11    1    4    4    0    0 -0.27287008581E+02  0.16963611399E+02 -0.89466237254E+02  0.95060783488E+02  0.00000000000E+00 0. -1.
<mgrwt>
<rscale>  0 0.12263453E+03</rscale>
<asrwt>0</asrwt>
<pdfrwt beam="2">  1        1 0.33595853E-01 0.13212126E+03</pdfrwt>
<pdfrwt beam="1">  1       -1 0.95209258E-02 0.13212126E+03</pdfrwt>
<totfact> 0.81551444E+03</totfact>
</mgrwt>
</event>
<event>
 8    1  0.1033707E-005  0.1277383E+03  0.7546771E-02  0.1245962E+00
         -2   -1    0    0    0  501 -0.00000000000E+00  0.00000000000E+00  0.74931537763E+02  0.74931537763E+02  0.00000000000E+00 0.  1.
          2   -1    0    0  501    0  0.00000000000E+00 -0.00000000000E+00 -0.19192088522E+03  0.19192088522E+03  0.00000000000E+00 0. -1.
         23    2    1    2    0    0  0.13558988547E+02  0.22536118250E+02 -0.15648278951E+02  0.12869324973E+03  0.12500144437E+03 0.  0.
         23    2    1    2    0    0 -0.13558988547E+02 -0.22536118250E+02 -0.10134106851E+03  0.13815917326E+03  0.90145561137E+02 0.  0.
          5    1    3    3  502    0  0.23076764302E+02 -0.38919680616E+02 -0.41125409467E+02  0.61324284699E+02  0.47000000000E+01 0. -1.
         -5    1    3    3    0  502 -0.95177757551E+01  0.61455798866E+02  0.25477130516E+02  0.67368965028E+02  0.47000000000E+01 0. -1.
        -11    1    4    4    0    0 -0.47056516668E+02 -0.29976568114E+02 -0.80720637816E+02  0.98126101350E+02  0.00000000000E+00 0.  1.
         11    1    4    4    0    0  0.33497528121E+02  0.74404498639E+01 -0.20620430689E+02  0.40033071905E+02  0.00000000000E+00 0. -1.
<mgrwt>
<rscale>  0 0.11828015E+03</rscale>
<asrwt>0</asrwt>
<pdfrwt beam="2">  1        2 0.29526290E-01 0.12773834E+03</pdfrwt>
<pdfrwt beam="1">  1       -2 0.11527929E-01 0.12773834E+03</pdfrwt>
<totfact> 0.88595767E+03</totfact>
</mgrwt>
</event>
<event>
 8    1  0.1033707E-005  0.2282281E+03  0.7546771E-02  0.1130874E+00
         -1   -1    0    0    0  501 -0.00000000000E+00  0.00000000000E+00  0.34642087190E+03  0.34642087190E+03  0.00000000000E+00 0. -1.
          1   -1    0    0  501    0  0.00000000000E+00 -0.00000000000E+00 -0.14027892150E+03  0.14027892150E+03  0.00000000000E+00 0.  1.
         23    2    1    2    0    0  0.18956134669E+03 -0.22904267596E+02  0.94572394904E+02  0.24704656359E+03  0.12501982670E+03 0.  0.
         23    2    1    2    0    0 -0.18956134669E+03  0.22904267596E+02  0.11156955549E+03  0.23965322982E+03  0.92346062255E+02 0.  0.
          5    1    3    3  502    0  0.67100004002E+02 -0.90109147001E+01 -0.27767021990E+02  0.73326016058E+02  0.47000000000E+01 0.  1.
         -5    1    3    3    0  502  0.12246134269E+03 -0.13893352896E+02  0.12233941689E+03  0.17372054753E+03  0.47000000000E+01 0.  1.
        -11    1    4    4    0    0 -0.11499492869E+03  0.40114055910E+02  0.25406225951E+02  0.12441240864E+03  0.00000000000E+00 0.  1.
         11    1    4    4    0    0 -0.74566417999E+02 -0.17209788314E+02  0.86163329543E+02  0.11524082117E+03  0.00000000000E+00 0. -1.
<mgrwt>
<rscale>  0 0.22408428E+03</rscale>
<asrwt>0</asrwt>
<pdfrwt beam="2">  1        1 0.21581373E-01 0.22822810E+03</pdfrwt>
<pdfrwt beam="1">  1       -1 0.53295519E-01 0.22822810E+03</pdfrwt>
<totfact> 0.84279755E+02</totfact>
</mgrwt>
</event>
<event>
 8    1  0.1033707E-005  0.1316761E+03  0.7546771E-02  0.1235853E+00
          2   -1    0    0  501    0  0.00000000000E+00  0.00000000000E+00  0.11730919227E+03  0.11730919227E+03  0.00000000000E+00 0.  1.
         -2   -1    0    0    0  501 -0.00000000000E+00 -0.00000000000E+00 -0.13329168592E+03  0.13329168592E+03  0.00000000000E+00 0. -1.
         23    2    1    2    0    0  0.39868098475E+02  0.72006987577E+01 -0.48707240227E+02  0.14039579981E+03  0.12528874656E+03 0.  0.
         23    2    1    2    0    0 -0.39868098475E+02 -0.72006987577E+01  0.32724746575E+02  0.11020507838E+03  0.97123297536E+02 0.  0.
          5    1    3    3  502    0  0.19610376402E+02  0.64183423851E+02 -0.89512028390E+01  0.67869675055E+02  0.47000000000E+01 0. -1.
         -5    1    3    3    0  502  0.20257722073E+02 -0.56982725093E+02 -0.39756037388E+02  0.72526124752E+02  0.47000000000E+01 0. -1.
        -11    1    4    4    0    0 -0.43169755105E+02  0.25005421103E+02  0.52375414596E+02  0.72333138287E+02  0.00000000000E+00 0.  1.
         11    1    4    4    0    0  0.33016566295E+01 -0.32206119861E+02 -0.19650668021E+02  0.37871940096E+02  0.00000000000E+00 0. -1.
<mgrwt>
<rscale>  0 0.12450002E+03</rscale>
<asrwt>0</asrwt>
<pdfrwt beam="1">  1        2 0.18047568E-01 0.13167606E+03</pdfrwt>
<pdfrwt beam="2">  1       -2 0.20506413E-01 0.13167606E+03</pdfrwt>
<totfact> 0.59731148E+03</totfact>
</mgrwt>
</event>
<event>
 8    1  0.1033707E-005  0.1363512E+03  0.7546771E-02  0.1230263E+00
         -1   -1    0    0    0  501 -0.00000000000E+00  0.00000000000E+00  0.14761826004E+03  0.14761826004E+03  0.00000000000E+00 0.  1.
          1   -1    0    0  501    0  0.00000000000E+00 -0.00000000000E+00 -0.12238989231E+03  0.12238989231E+03  0.00000000000E+00 0. -1.
         23    2    1    2    0    0  0.41969018999E+02  0.34712267109E+02  0.71621290723E+02  0.15401705764E+03  0.12500121886E+03 0.  0.
         23    2    1    2    0    0 -0.41969018999E+02 -0.34712267109E+02 -0.46392922989E+02  0.11599109471E+03  0.91297813249E+02 0.  0.
          5    1    3    3  502    0  0.32477021637E+02 -0.42967939418E+02  0.11639688184E+02  0.55304367760E+02  0.47000000000E+01 0. -1.
         -5    1    3    3    0  502  0.94919973613E+01  0.77680206528E+02  0.59981602540E+02  0.98712689880E+02  0.47000000000E+01 0. -1.
        -11    1    4    4    0    0 -0.27469827231E+02 -0.62386813583E+02 -0.11456883895E+02  0.69122833461E+02  0.00000000000E+00 0. -1.
         11    1    4    4    0    0 -0.14499191768E+02  0.27674546474E+02 -0.34936039094E+02  0.46868261244E+02  0.00000000000E+00 0.  1.
<mgrwt>
<rscale>  0 0.12812587E+03</rscale>
<asrwt>0</asrwt>
<pdfrwt beam="2">  1        1 0.18829214E-01 0.13635118E+03</pdfrwt>
<pdfrwt beam="1">  1       -1 0.22710502E-01 0.13635118E+03</pdfrwt>
<totfact> 0.43268493E+03</totfact>
</mgrwt>
</event>
<event>
 8    1  0.1033707E-005  0.2913146E+03  0.7546771E-02  0.1090525E+00
         -1   -1    0    0    0  501 -0.00000000000E+00  0.00000000000E+00  0.11220831085E+03  0.11220831085E+03  0.00000000000E+00 0.  1.
          1   -1    0    0  501    0  0.00000000000E+00 -0.00000000000E+00 -0.74155118122E+03  0.74155118122E+03  0.00000000000E+00 0. -1.
         23    2    1    2    0    0  0.23821169760E+03  0.11178069793E+03 -0.34118942615E+03  0.44863615167E+03  0.12499773902E+03 0.  0.
         23    2    1    2    0    0 -0.23821169760E+03 -0.11178069793E+03 -0.28815344421E+03  0.40512334041E+03  0.10887045618E+03 0.  0.
          5    1    3    3  502    0  0.36273751277E+02 -0.24084393244E+02 -0.82588779642E+02  0.93481760533E+02  0.47000000000E+01 0. -1.
         -5    1    3    3    0  502  0.20193794632E+03  0.13586509118E+03 -0.25860064651E+03  0.35515439113E+03  0.47000000000E+01 0. -1.
        -11    1    4    4    0    0 -0.12289399020E+03 -0.99269862006E+02 -0.21915079936E+03  0.27015645687E+03  0.00000000000E+00 0. -1.
         11    1    4    4    0    0 -0.11531770739E+03 -0.12510835927E+02 -0.69002644853E+02  0.13496688353E+03  0.00000000000E+00 0.  1.
<mgrwt>
<rscale>  0 0.28966381E+03</rscale>
<asrwt>0</asrwt>
<pdfrwt beam="2">  1        1 0.11408480E+00 0.29131456E+03</pdfrwt>
<pdfrwt beam="1">  1       -1 0.17262817E-01 0.29131456E+03</pdfrwt>
<totfact> 0.66508050E+02</totfact>
</mgrwt>
</event>
<event>
 8    1  0.1033707E-005  0.1959405E+03  0.7546771E-02  0.1157884E+00
          1   -1    0    0  501    0  0.00000000000E+00  0.00000000000E+00  0.79980439728E+03  0.79980439728E+03  0.00000000000E+00 0. -1.
         -1   -1    0    0    0  501 -0.00000000000E+00 -0.00000000000E+00 -0.45608030314E+02  0.45608030314E+02  0.00000000000E+00 0.  1.
         23    2    1    2    0    0 -0.12270866941E+03  0.87798451383E+02  0.29856819945E+03  0.35712134514E+03  0.12500679909E+03 0.  0.
         23    2    1    2    0    0  0.12270866941E+03 -0.87798451383E+02  0.45562816751E+03  0.48829108245E+03  0.89806283495E+02 0.  0.
          5    1    3    3  502    0 -0.74562425653E+02  0.11730021799E+03  0.21945530622E+03  0.25981073474E+03  0.47000000000E+01 0. -1.
         -5    1    3    3    0  502 -0.48146243760E+02 -0.29501766604E+02  0.79112893237E+02  0.97310610404E+02  0.47000000000E+01 0. -1.
        -11    1    4    4    0    0  0.10943148763E+03 -0.35866679415E+02  0.24143941397E+03  0.26749702764E+03  0.00000000000E+00 0.  1.
         11    1    4    4    0    0  0.13277181780E+02 -0.51931771968E+02  0.21418875354E+03  0.22079405481E+03  0.00000000000E+00 0. -1.
<mgrwt>
<rscale>  0 0.19064126E+03</rscale>
<asrwt>0</asrwt>
<pdfrwt beam="1">  1        1 0.12304682E+00 0.19594052E+03</pdfrwt>
<pdfrwt beam="2">  1       -1 0.70166206E-02 0.19594052E+03</pdfrwt>
<totfact> 0.24098449E+03</totfact>
</mgrwt>
</event>
<event>
 8    1  0.1033707E-005  0.1412564E+03  0.7546771E-02  0.1223435E+00
         -1   -1    0    0    0  501 -0.00000000000E+00  0.00000000000E+00  0.10429334342E+03  0.10429334342E+03  0.00000000000E+00 0.  1.
          1   -1    0    0  501    0  0.00000000000E+00 -0.00000000000E+00 -0.23571937181E+03  0.23571937181E+03  0.00000000000E+00 0. -1.
         23    2    1    2    0    0 -0.64704392798E+02  0.11894736098E+02  0.30159813972E+02  0.14444025282E+03  0.12500091624E+03 0.  0.
         23    2    1    2    0    0  0.64704392798E+02 -0.11894736098E+02 -0.16158584236E+03  0.19557246242E+03  0.88376809227E+02 0.  0.
          5    1    3    3  502    0 -0.19135008703E+02 -0.35411388955E+01  0.75532739351E+02  0.78140725212E+02  0.47000000000E+01 0. -1.
         -5    1    3    3    0  502 -0.45569384096E+02  0.15435874994E+02 -0.45372925380E+02  0.66299527609E+02  0.47000000000E+01 0. -1.
        -11    1    4    4    0    0  0.22684345628E+02  0.23214683705E+02 -0.12636265870E+03  0.13046464115E+03  0.00000000000E+00 0.  1.
         11    1    4    4    0    0  0.42020047170E+02 -0.35109419803E+02 -0.35223183666E+02  0.65107821271E+02  0.00000000000E+00 0. -1.
<mgrwt>
<rscale>  0 0.13274776E+03</rscale>
<asrwt>0</asrwt>
<pdfrwt beam="2">  1        1 0.36264519E-01 0.14125641E+03</pdfrwt>
<pdfrwt beam="1">  1       -1 0.16045130E-01 0.14125641E+03</pdfrwt>
<totfact> 0.33218236E+03</totfact>
</mgrwt>
</event>
<event>
 8    1  0.1033707E-005  0.1480073E+03  0.7546771E-02  0.1212191E+00
          3   -1    0    0  501    0  0.00000000000E+00  0.00000000000E+00  0.24581134762E+02  0.24581134762E+02  0.00000000000E+00 0. -1.
         -3   -1    0    0    0  501 -0.00000000000E+00 -0.00000000000E+00 -0.77746927140E+03  0.77746927140E+03  0.00000000000E+00 0.  1.
         23    2    1    2    0    0 -0.25700191496E+02  0.74966598943E+02 -0.50158467584E+03  0.52296592464E+03  0.12500272195E+03 0.  0.
         23    2    1    2    0    0  0.25700191496E+02 -0.74966598943E+02 -0.25130346080E+03  0.27908448153E+03  0.91946873887E+02 0.  0.
          5    1    3    3  502    0 -0.34727287406E+02  0.87500096821E+02 -0.20159252431E+03  0.22253963083E+03  0.47000000000E+01 0.  1.
         -5    1    3    3    0  502  0.90270959100E+01 -0.12533497878E+02 -0.29999215153E+03  0.30042629380E+03  0.47000000000E+01 0.  1.
        -11    1    4    4    0    0 -0.55962788641E+01 -0.82100279766E+02 -0.13209980397E+03  0.15563461210E+03  0.00000000000E+00 0. -1.
         11    1    4    4    0    0  0.31296470360E+02  0.71336808232E+01 -0.11920365683E+03  0.12344986942E+03  0.00000000000E+00 0.  1.
<mgrwt>
<rscale>  0 0.14084945E+03</rscale>
<asrwt>0</asrwt>
<pdfrwt beam="1">  1        3 0.37817127E-02 0.14800734E+03</pdfrwt>
<pdfrwt beam="2">  1       -3 0.11961067E+00 0.14800734E+03</pdfrwt>
<totfact> 0.49684323E+02</totfact>
</mgrwt>
</event>
<event>
 8    1  0.1033707E-005  0.1267666E+03  0.7546771E-02  0.1247935E+00
         -3   -1    0    0    0  501 -0.00000000000E+00  0.00000000000E+00  0.66370785132E+02  0.66370785132E+02  0.00000000000E+00 0.  1.
          3   -1    0    0  501    0  0.00000000000E+00 -0.00000000000E+00 -0.20545107323E+03  0.20545107323E+03  0.00000000000E+00 0. -1.
         23    2    1    2    0    0  0.20962212330E+02  0.75871911113E+00 -0.32632456005E+02  0.13089938037E+03  0.12501912092E+03 0.  0.
         23    2    1    2    0    0 -0.20962212330E+02 -0.75871911113E+00 -0.10644783209E+03  0.14092247798E+03  0.89933385593E+02 0.  0.
          5    1    3    3  502    0  0.79975932425E+01 -0.61825833882E+02 -0.19430959797E+02  0.65467911465E+02  0.47000000000E+01 0.  1.
         -5    1    3    3    0  502  0.12964619088E+02  0.62584552993E+02 -0.13201496207E+02  0.65431468909E+02  0.47000000000E+01 0.  1.
        -11    1    4    4    0    0 -0.56170496762E+02 -0.50359423151E+01 -0.72241773618E+02  0.91648018402E+02  0.00000000000E+00 0.  1.
         11    1    4    4    0    0  0.35208284432E+02  0.42772232040E+01 -0.34206058471E+02  0.49274459582E+02  0.00000000000E+00 0. -1.
<mgrwt>
<rscale>  0 0.11711420E+03</rscale>
<asrwt>0</asrwt>
<pdfrwt beam="2">  1        3 0.31607857E-01 0.12676660E+03</pdfrwt>
<pdfrwt beam="1">  1       -3 0.10210890E-01 0.12676660E+03</pdfrwt>
<totfact> 0.15753329E+03</totfact>
</mgrwt>
</event>
<event>
 8    1  0.1033707E-005  0.2156688E+03  0.7546771E-02  0.1139731E+00
          1   -1    0    0  501    0  0.00000000000E+00  0.00000000000E+00  0.43136417012E+03  0.43136417012E+03  0.00000000000E+00 0. -1.
         -1   -1    0    0    0  501 -0.00000000000E+00 -0.00000000000E+00 -0.10147689190E+03  0.10147689190E+03  0.00000000000E+00 0.  1.
         23    2    1    2    0    0  0.83333562251E+02  0.15473609132E+03  0.17691833174E+03  0.27895004148E+03  0.12500115593E+03 0.  0.
         23    2    1    2    0    0 -0.83333562251E+02 -0.15473609132E+03  0.15296894649E+03  0.25389102054E+03  0.10086332916E+03 0.  0.
          5    1    3    3  502    0 -0.15756538655E+02  0.96205905967E+02  0.58677107399E+02  0.11388124422E+03  0.47000000000E+01 0.  1.
         -5    1    3    3    0  502  0.99090100906E+02  0.58530185348E+02  0.11824122434E+03  0.16506879725E+03  0.47000000000E+01 0.  1.
        -11    1    4    4    0    0 -0.40490863162E+02 -0.13276010511E+03  0.64248045252E+02  0.15294628739E+03  0.00000000000E+00 0.  1.
         11    1    4    4    0    0 -0.42842699089E+02 -0.21975986206E+02  0.88720901237E+02  0.10094473315E+03  0.00000000000E+00 0. -1.
<mgrwt>
<rscale>  0 0.21233392E+03</rscale>
<asrwt>0</asrwt>
<pdfrwt beam="1">  1        1 0.66363717E-01 0.21566880E+03</pdfrwt>
<pdfrwt beam="2">  1       -1 0.15611830E-01 0.21566880E+03</pdfrwt>
<totfact> 0.16472267E+03</totfact>
</mgrwt>
</event>
<event>
 8    1  0.1033707E-005  0.1263893E+03  0.7546771E-02  0.1248411E+00
         -2   -1    0    0    0  501 -0.00000000000E+00  0.00000000000E+00  0.39703945647E+02  0.39703945647E+02  0.00000000000E+00 0.  1.
          2   -1    0    0  501    0  0.00000000000E+00 -0.00000000000E+00 -0.32914888523E+03  0.32914888523E+03  0.00000000000E+00 0. -1.
         23    2    1    2    0    0  0.60881858279E+01 -0.17682982133E+02 -0.11214327288E+03  0.16896851734E+03  0.12499796933E+03 0.  0.
         23    2    1    2    0    0 -0.60881858279E+01  0.17682982133E+02 -0.17730166671E+03  0.19988431354E+03  0.90377563133E+02 0.  0.
          5    1    3    3  502    0  0.35300535591E+02 -0.53440400716E+02 -0.22542097392E+02  0.68060564181E+02  0.47000000000E+01 0. -1.
         -5    1    3    3    0  502 -0.29212349764E+02  0.35757418583E+02 -0.89601175488E+02  0.10090795316E+03  0.47000000000E+01 0. -1.
        -11    1    4    4    0    0 -0.16902478135E+02 -0.29567722376E+02 -0.12045565171E+03  0.12517790541E+03  0.00000000000E+00 0. -1.
         11    1    4    4    0    0  0.10814292307E+02  0.47250704509E+02 -0.56846014997E+02  0.74706408130E+02  0.00000000000E+00 0.  1.
<mgrwt>
<rscale>  0 0.11683526E+03</rscale>
<asrwt>0</asrwt>
<pdfrwt beam="2">  1        2 0.50638289E-01 0.12638926E+03</pdfrwt>
<pdfrwt beam="1">  1       -2 0.61082994E-02 0.12638926E+03</pdfrwt>
<totfact> 0.13326646E+04</totfact>
</mgrwt>
</event>
<event>
 7    1  0.1033707E-005  0.1495498E+03  0.7546771E-02  0.1220795E+00
          1   -1    0    0  501    0  0.00000000000E+00  0.00000000000E+00  0.61281839457E+02  0.61281839457E+02  0.00000000000E+00 0. -1.
         -1   -1    0    0    0  501 -0.00000000000E+00 -0.00000000000E+00 -0.28568500087E+03  0.28568500087E+03  0.00000000000E+00 0.  1.
         23    2    1    2    0    0 -0.32218781978E+02 -0.16100160668E+02 -0.31842077661E+02  0.10315357647E+03  0.91265970350E+02 0.  0.
          5    1    1    2  502    0  0.37992184194E+02  0.57961377660E+02 -0.18874880213E+03  0.20112465703E+03  0.47000000000E+01 0. -1.
         -5    1    1    2    0  502 -0.57734022158E+01 -0.41861216993E+02 -0.38122816221E+01  0.42688606822E+02  0.47000000000E+01 0.  1.
        -11    1    3    3    0    0 -0.48279738384E+02 -0.27358624379E+02  0.10510998399E+02  0.56479275435E+02  0.00000000000E+00 0. -1.
         11    1    3    3    0    0  0.16060956406E+02  0.11258463711E+02 -0.42353076059E+02  0.46674301039E+02  0.00000000000E+00 0.  1.
<mgrwt>
<rscale>  0 0.13459355E+03</rscale>
<asrwt>0</asrwt>
<pdfrwt beam="1">  1        1 0.94279755E-02 0.14954978E+03</pdfrwt>
<pdfrwt beam="2">  1       -1 0.43951538E-01 0.14954978E+03</pdfrwt>
<totfact> 0.34983300E+03</totfact>
</mgrwt>
</event>
<event>
 8    1  0.1033707E-005  0.1527868E+03  0.7546771E-02  0.1205459E+00
         -2   -1    0    0    0  501 -0.00000000000E+00  0.00000000000E+00  0.44274298192E+03  0.44274298192E+03  0.00000000000E+00 0.  1.
          2   -1    0    0  501    0  0.00000000000E+00 -0.00000000000E+00 -0.58585139247E+02  0.58585139247E+02  0.00000000000E+00 0. -1.
         23    2    1    2    0    0 -0.58577379436E+02 -0.65473266489E+02  0.32843924090E+03  0.36223766680E+03  0.12500293709E+03 0.  0.
         23    2    1    2    0    0  0.58577379436E+02  0.65473266489E+02  0.55718601778E+02  0.13909045437E+03  0.92322986877E+02 0.  0.
          5    1    3    3  502    0 -0.33990611638E+02 -0.51969277590E+02  0.43693182030E+02  0.76074645242E+02  0.47000000000E+01 0. -1.
         -5    1    3    3    0  502 -0.24586767798E+02 -0.13503988899E+02  0.28474605887E+03  0.28616302156E+03  0.47000000000E+01 0. -1.
        -11    1    4    4    0    0  0.28437797387E+02 -0.21333850810E+02  0.15838126229E+02  0.38918989620E+02  0.00000000000E+00 0. -1.
         11    1    4    4    0    0  0.30139582049E+02  0.86807117299E+02  0.39880475548E+02  0.10017146475E+03  0.00000000000E+00 0.  1.
<mgrwt>
<rscale>  0 0.14601345E+03</rscale>
<asrwt>0</asrwt>
<pdfrwt beam="2">  1        2 0.90130986E-02 0.15278675E+03</pdfrwt>
<pdfrwt beam="1">  1       -2 0.68114303E-01 0.15278675E+03</pdfrwt>
<totfact> 0.14414105E+03</totfact>
</mgrwt>
</event>
<event>
 8    1  0.1033707E-005  0.1873112E+03  0.7546771E-02  0.1165996E+00
          1   -1    0    0  501    0  0.00000000000E+00  0.00000000000E+00  0.10088176736E+04  0.10088176736E+04  0.00000000000E+00 0. -1.
         -1   -1    0    0    0  501 -0.00000000000E+00 -0.00000000000E+00 -0.31024862584E+02  0.31024862584E+02  0.00000000000E+00 0.  1.
         23    2    1    2    0    0 -0.40598250829E+02 -0.13347275111E+03  0.51581523152E+03  0.54877210532E+03  0.12498910851E+03 0.  0.
         23    2    1    2    0    0  0.40598250829E+02  0.13347275111E+03  0.46197757951E+03  0.49107043088E+03  0.90904845090E+02 0.  0.
          5    1    3    3  502    0 -0.41346019834E+01  0.25574444357E+01 -0.55201185244E+01  0.87290987007E+01  0.47000000000E+01 0.  1.
         -5    1    3    3    0  502 -0.36463648846E+02 -0.13603019554E+03  0.52133535005E+03  0.54004300662E+03  0.47000000000E+01 0.  1.
        -11    1    4    4    0    0 -0.15727876009E+02  0.99016541749E+02  0.29094294647E+03  0.30773274074E+03  0.00000000000E+00 0.  1.
         11    1    4    4    0    0  0.56326126838E+02  0.34456209358E+02  0.17103463304E+03  0.18333769015E+03  0.00000000000E+00 0. -1.
<mgrwt>
<rscale>  0 0.18188018E+03</rscale>
<asrwt>0</asrwt>
<pdfrwt beam="1">  1        1 0.15520269E+00 0.18731116E+03</pdfrwt>
<pdfrwt beam="2">  1       -1 0.47730565E-02 0.18731116E+03</pdfrwt>
<totfact> 0.29503051E+03</totfact>
</mgrwt>
</event>
<event>
 8    1  0.1033707E-005  0.1711175E+03  0.7546771E-02  0.1183122E+00
         -1   -1    0    0    0  501 -0.00000000000E+00  0.00000000000E+00  0.38123889472E+02  0.38123889472E+02  0.00000000000E+00 0.  1.
          1   -1    0    0  501    0  0.00000000000E+00 -0.00000000000E+00 -0.79655716527E+03  0.79655716527E+03  0.00000000000E+00 0. -1.
         23    2    1    2    0    0 -0.96703652599E+02  0.65607706142E+02 -0.23494935818E+03  0.29065856840E+03  0.12500093978E+03 0.  0.
         23    2    1    2    0    0  0.96703652599E+02 -0.65607706142E+02 -0.52348391763E+03  0.54402248635E+03  0.90934515476E+02 0.  0.
          5    1    3    3  502    0 -0.11889762984E+02 -0.25638865516E+02 -0.11184283213E+03  0.11545400377E+03  0.47000000000E+01 0. -1.
         -5    1    3    3    0  502 -0.84813889615E+02  0.91246571658E+02 -0.12310652605E+03  0.17520456463E+03  0.47000000000E+01 0. -1.
        -11    1    4    4    0    0 -0.71693359144E+01 -0.32422325964E+02 -0.19780893903E+03  0.20057662615E+03  0.00000000000E+00 0. -1.
         11    1    4    4    0    0  0.10387298851E+03 -0.33185380178E+02 -0.32567497860E+03  0.34344586019E+03  0.00000000000E+00 0.  1.
<mgrwt>
<rscale>  0 0.16503970E+03</rscale>
<asrwt>0</asrwt>
<pdfrwt beam="2">  1        1 0.12254726E+00 0.17111751E+03</pdfrwt>
<pdfrwt beam="1">  1       -1 0.58652135E-02 0.17111751E+03</pdfrwt>
<totfact> 0.31653124E+03</totfact>
</mgrwt>
</event>
<event>
 8    1  0.1033707E-005  0.1448567E+03  0.7546771E-02  0.1217250E+00
         -1   -1    0    0    0  501 -0.00000000000E+00  0.00000000000E+00  0.16114043355E+03  0.16114043355E+03  0.00000000000E+00 0.  1.
          1   -1    0    0  501    0  0.00000000000E+00 -0.00000000000E+00 -0.13709247137E+03  0.13709247137E+03  0.00000000000E+00 0. -1.
         23    2    1    2    0    0 -0.63108786512E+02  0.36952792684E+02  0.83919023732E+02  0.16740925995E+03  0.12504091311E+03 0.  0.
         23    2    1    2    0    0  0.63108786512E+02 -0.36952792684E+02 -0.59871061548E+02  0.13082364497E+03  0.90454708279E+02 0.  0.
          5    1    3    3  502    0 -0.43891326264E+02  0.80602892023E+02  0.75096732483E+02  0.11867975376E+03  0.47000000000E+01 0. -1.
         -5    1    3    3    0  502 -0.19217460248E+02 -0.43650099340E+02  0.88222912487E+01  0.48729506191E+02  0.47000000000E+01 0. -1.
        -11    1    4    4    0    0  0.11370913498E+02 -0.43378875116E+02 -0.64418192664E+02  0.78490305301E+02  0.00000000000E+00 0. -1.
         11    1    4    4    0    0  0.51737873014E+02  0.64260824319E+01  0.45471311160E+01  0.52333339668E+02  0.00000000000E+00 0.  1.
<mgrwt>
<rscale>  0 0.13712519E+03</rscale>
<asrwt>0</asrwt>
<pdfrwt beam="2">  1        1 0.21091149E-01 0.14485668E+03</pdfrwt>
<pdfrwt beam="1">  1       -1 0.24790836E-01 0.14485668E+03</pdfrwt>
<totfact> 0.32558021E+03</totfact>
</mgrwt>
</event>
<event>
 8    1  0.1033707E-005  0.1414748E+03  0.7546771E-02  0.1223129E+00
         -3   -1    0    0    0  501 -0.00000000000E+00  0.00000000000E+00  0.60954840312E+02  0.60954840312E+02  0.00000000000E+00 0.  1.
          3   -1    0    0  501    0  0.00000000000E+00 -0.00000000000E+00 -0.27239856453E+03  0.27239856453E+03  0.00000000000E+00 0. -1.
         23    2    1    2    0    0 -0.62288275614E+02 -0.22596262354E+02 -0.83075393168E+02  0.16406294937E+03  0.12499884022E+03 0.  0.
         23    2    1    2    0    0  0.62288275614E+02  0.22596262354E+02 -0.12836833104E+03  0.16929045546E+03  0.88263296702E+02 0.  0.
          5    1    3    3  502    0 -0.94192699758E+02 -0.33198639208E+02 -0.83267865757E+02  0.13011549408E+03  0.47000000000E+01 0.  1.
         -5    1    3    3    0  502  0.31904424144E+02  0.10602376854E+02  0.19247258905E+00  0.33947455289E+02  0.47000000000E+01 0.  1.
        -11    1    4    4    0    0 -0.22768187521E+02  0.69430762803E+01 -0.25127207619E+02  0.34611749940E+02  0.00000000000E+00 0.  1.
         11    1    4    4    0    0  0.85056463135E+02  0.15653186074E+02 -0.10324112343E+03  0.13467870552E+03  0.00000000000E+00 0. -1.
<mgrwt>
<rscale>  0 0.13295939E+03</rscale>
<asrwt>0</asrwt>
<pdfrwt beam="2">  1        3 0.41907472E-01 0.14147484E+03</pdfrwt>
<pdfrwt beam="1">  1       -3 0.93776676E-02 0.14147484E+03</pdfrwt>
<totfact> 0.10804222E+03</totfact>
</mgrwt>
</event>
<event>
 8    1  0.1033707E-005  0.1299694E+03  0.7546771E-02  0.1241209E+00
         -1   -1    0    0    0  501 -0.00000000000E+00  0.00000000000E+00  0.15450444827E+03  0.15450444827E+03  0.00000000000E+00 0.  1.
          1   -1    0    0  501    0  0.00000000000E+00 -0.00000000000E+00 -0.12287272622E+03  0.12287272622E+03  0.00000000000E+00 0. -1.
         23    2    1    2    0    0  0.19969780908E+02 -0.29469166318E+02  0.94627109203E+02  0.16076793474E+03  0.12499926053E+03 0.  0.
         23    2    1    2    0    0 -0.19969780908E+02  0.29469166318E+02 -0.62995387153E+02  0.11660923974E+03  0.91444366028E+02 0.  0.
          5    1    3    3  502    0  0.16332680474E+02 -0.13923221583E+02 -0.28800152810E+02  0.36223629754E+02  0.47000000000E+01 0. -1.
         -5    1    3    3    0  502  0.36371004346E+01 -0.15545944736E+02  0.12342726201E+03  0.12454430499E+03  0.47000000000E+01 0. -1.
        -11    1    4    4    0    0 -0.24048391292E+02  0.65960386302E+01  0.19022631057E+02  0.31363885947E+02  0.00000000000E+00 0. -1.
         11    1    4    4    0    0  0.40786103833E+01  0.22873127688E+02 -0.82018018211E+02  0.85245353798E+02  0.00000000000E+00 0.  1.
<mgrwt>
<rscale>  0 0.12115186E+03</rscale>
<asrwt>0</asrwt>
<pdfrwt beam="2">  1        1 0.18903496E-01 0.12996938E+03</pdfrwt>
<pdfrwt beam="1">  1       -1 0.23769915E-01 0.12996938E+03</pdfrwt>
<totfact> 0.39858907E+03</totfact>
</mgrwt>
</event>
<event>
 8    1  0.1033707E-005  0.1404089E+03  0.7546771E-02  0.1221600E+00
          2   -1    0    0  501    0  0.00000000000E+00  0.00000000000E+00  0.24475793785E+03  0.24475793785E+03  0.00000000000E+00 0. -1.
         -2   -1    0    0    0  501 -0.00000000000E+00 -0.00000000000E+00 -0.80346248072E+02  0.80346248072E+02  0.00000000000E+00 0.  1.
         23    2    1    2    0    0 -0.63511372339E+02 -0.75222064686E+01  0.23725327177E+02  0.14239922856E+03  0.12499748453E+03 0.  0.
         23    2    1    2    0    0  0.63511372339E+02  0.75222064686E+01  0.14068636260E+03  0.18270495736E+03  0.97458559482E+02 0.  0.
          5    1    3    3  502    0  0.19663246756E+01  0.10777935534E+02 -0.44439439082E+02  0.46010695203E+02  0.47000000000E+01 0. -1.
         -5    1    3    3    0  502 -0.65477697014E+02 -0.18300142002E+02  0.68164766259E+02  0.96388533357E+02  0.47000000000E+01 0. -1.
        -11    1    4    4    0    0  0.46230596993E+02 -0.16608262560E+02  0.14464796156E+03  0.15276169437E+03  0.00000000000E+00 0. -1.
         11    1    4    4    0    0  0.17280775346E+02  0.24130469029E+02 -0.39615989617E+01  0.29943262989E+02  0.00000000000E+00 0.  1.
<mgrwt>
<rscale>  0 0.13402695E+03</rscale>
<asrwt>0</asrwt>
<pdfrwt beam="1">  1        2 0.37655067E-01 0.14040886E+03</pdfrwt>
<pdfrwt beam="2">  1       -2 0.12360961E-01 0.14040886E+03</pdfrwt>
<totfact> 0.61442605E+03</totfact>
</mgrwt>
</event>
<event>
 8    1  0.1033707E-005  0.2686687E+03  0.7546771E-02  0.1103983E+00
          3   -1    0    0  501    0  0.00000000000E+00  0.00000000000E+00  0.13958019980E+03  0.13958019980E+03  0.00000000000E+00 0. -1.
         -3   -1    0    0    0  501 -0.00000000000E+00 -0.00000000000E+00 -0.54087574872E+03  0.54087574872E+03  0.00000000000E+00 0.  1.
         23    2    1    2    0    0 -0.23302571451E+03 -0.47497975836E+02 -0.30724282950E+03  0.40814340496E+03  0.12500336556E+03 0.  0.
         23    2    1    2    0    0  0.23302571451E+03  0.47497975836E+02 -0.94052719410E+02  0.27231254356E+03  0.93547667118E+02 0.  0.
          5    1    3    3  502    0  0.11177098586E+01  0.23396497125E+02 -0.24363929694E+02  0.34122374231E+02  0.47000000000E+01 0.  1.
         -5    1    3    3    0  502 -0.23414342437E+03 -0.70894472961E+02 -0.28287889981E+03  0.37402103073E+03  0.47000000000E+01 0.  1.
        -11    1    4    4    0    0  0.21232943107E+03  0.45418198812E+02 -0.11246804146E+03  0.24453151214E+03  0.00000000000E+00 0.  1.
         11    1    4    4    0    0  0.20696283441E+02  0.20797770239E+01  0.18415322049E+02  0.27781031422E+02  0.00000000000E+00 0. -1.
<mgrwt>
<rscale>  0 0.26532844E+03</rscale>
<asrwt>0</asrwt>
<pdfrwt beam="1">  1        3 0.21473877E-01 0.26866872E+03</pdfrwt>
<pdfrwt beam="2">  1       -3 0.83211654E-01 0.26866872E+03</pdfrwt>
<totfact> 0.67497469E+01</totfact>
</mgrwt>
</event>
<event>
 8    1  0.1033707E-005  0.1255327E+03  0.7546771E-02  0.1250050E+00
         -2   -1    0    0    0  501 -0.00000000000E+00  0.00000000000E+00  0.25301628216E+02  0.25301628216E+02  0.00000000000E+00 0.  1.
          2   -1    0    0  501    0  0.00000000000E+00 -0.00000000000E+00 -0.46398588326E+03  0.46398588326E+03  0.00000000000E+00 0. -1.
         23    2    1    2    0    0 -0.35578075278E+01 -0.11007991047E+02 -0.25645418522E+03  0.28552970180E+03  0.12499851050E+03 0.  0.
         23    2    1    2    0    0  0.35578075278E+01  0.11007991047E+02 -0.18223006982E+03  0.20375780968E+03  0.90419095312E+02 0.  0.
          5    1    3    3  502    0 -0.91042759839E+01  0.28754799236E+02 -0.23992453551E+03  0.24185863445E+03  0.47000000000E+01 0. -1.
         -5    1    3    3    0  502  0.55464684562E+01 -0.39762790282E+02 -0.16529649717E+02  0.43671067346E+02  0.47000000000E+01 0. -1.
        -11    1    4    4    0    0 -0.20302313296E+02 -0.18011923833E+02 -0.12430800706E+02  0.29851936813E+02  0.00000000000E+00 0.  1.
         11    1    4    4    0    0  0.23860120823E+02  0.29019914879E+02 -0.16979926911E+03  0.17390587286E+03  0.00000000000E+00 0. -1.
<mgrwt>
<rscale>  0 0.11588152E+03</rscale>
<asrwt>0</asrwt>
<pdfrwt beam="2">  1        2 0.71382438E-01 0.12553271E+03</pdfrwt>
<pdfrwt beam="1">  1       -2 0.38925585E-02 0.12553271E+03</pdfrwt>
<totfact> 0.18130686E+04</totfact>
</mgrwt>
</event>
<event>
 8    1  0.1033707E-005  0.1258990E+03  0.7546771E-02  0.1248960E+00
         -2   -1    0    0    0  501 -0.00000000000E+00  0.00000000000E+00  0.26128643377E+02  0.26128643377E+02  0.00000000000E+00 0.  1.
          2   -1    0    0  501    0  0.00000000000E+00 -0.00000000000E+00 -0.47294936714E+03  0.47294936714E+03  0.00000000000E+00 0. -1.
         23    2    1    2    0    0 -0.83445431421E+01 -0.12491002230E+02 -0.30351309630E+03  0.32858904836E+03  0.12499962614E+03 0.  0.
         23    2    1    2    0    0  0.83445431421E+01  0.12491002230E+02 -0.14330762747E+03  0.17048896216E+03  0.91124933981E+02 0.  0.
          5    1    3    3  502    0  0.41972849031E+02 -0.38269410700E+02 -0.81562441561E+02  0.99502712147E+02  0.47000000000E+01 0.  1.
         -5    1    3    3    0  502 -0.50317392174E+02  0.25778408470E+02 -0.22195065474E+03  0.22908633621E+03  0.47000000000E+01 0.  1.
        -11    1    4    4    0    0  0.31254326787E+02  0.36931965822E+02 -0.42976775376E+02  0.64713261887E+02  0.00000000000E+00 0.  1.
         11    1    4    4    0    0 -0.22909783645E+02 -0.24440963592E+02 -0.10033085209E+03  0.10577570028E+03  0.00000000000E+00 0. -1.
<mgrwt>
<rscale>  0 0.11651495E+03</rscale>
<asrwt>0</asrwt>
<pdfrwt beam="2">  1        2 0.72761436E-01 0.12589902E+03</pdfrwt>
<pdfrwt beam="1">  1       -2 0.40197916E-02 0.12589902E+03</pdfrwt>
<totfact> 0.16935891E+04</totfact>
</mgrwt>
</event>
<event>
 8    1  0.1033707E-005  0.1698535E+03  0.7546771E-02  0.1184544E+00
         -2   -1    0    0    0  501 -0.00000000000E+00  0.00000000000E+00  0.39914577279E+02  0.39914577279E+02  0.00000000000E+00 0.  1.
          2   -1    0    0  501    0  0.00000000000E+00 -0.00000000000E+00 -0.67508266585E+03  0.67508266585E+03  0.00000000000E+00 0. -1.
         23    2    1    2    0    0 -0.11364488690E+02 -0.11444671304E+03 -0.24453460829E+03  0.29773709550E+03  0.12499200639E+03 0.  0.
         23    2    1    2    0    0  0.11364488690E+02  0.11444671304E+03 -0.39063348028E+03  0.41726014762E+03  0.91018202276E+02 0.  0.
          5    1    3    3  502    0  0.23862992833E+02 -0.91164543949E+02 -0.68366712208E+02  0.11651829830E+03  0.47000000000E+01 0. -1.
         -5    1    3    3    0  502 -0.35227481522E+02 -0.23282169093E+02 -0.17616789608E+03  0.18121879721E+03  0.47000000000E+01 0. -1.
        -11    1    4    4    0    0 -0.14535783565E+02  0.18444109968E+02 -0.13180735867E+02  0.26929648983E+02  0.00000000000E+00 0.  1.
         11    1    4    4    0    0  0.25900272255E+02  0.96002603074E+02 -0.37745274442E+03  0.39033049864E+03  0.00000000000E+00 0. -1.
<mgrwt>
<rscale>  0 0.16373431E+03</rscale>
<asrwt>0</asrwt>
<pdfrwt beam="2">  1        2 0.10385885E+00 0.16985348E+03</pdfrwt>
<pdfrwt beam="1">  1       -2 0.61407054E-02 0.16985348E+03</pdfrwt>
<totfact> 0.61103569E+03</totfact>
</mgrwt>
</event>
<event>
 8    1  0.1033707E-005  0.1252963E+03  0.7546771E-02  0.1249160E+00
         -2   -1    0    0    0  501 -0.00000000000E+00  0.00000000000E+00  0.36650671087E+02  0.36650671087E+02  0.00000000000E+00 0. -1.
          2   -1    0    0  501    0  0.00000000000E+00 -0.00000000000E+00 -0.51851886568E+03  0.51851886568E+03  0.00000000000E+00 0.  1.
         23    2    1    2    0    0  0.67356970467E+01 -0.53333227506E+01 -0.95092391058E+02  0.15729501423E+03  0.12500137886E+03 0.  0.
         23    2    1    2    0    0 -0.67356970467E+01  0.53333227506E+01 -0.38677580353E+03  0.39787452254E+03  0.92923622074E+02 0.  0.
          5    1    3    3  502    0 -0.48137895298E+02 -0.11613410056E+02 -0.30311321740E+01  0.49833783913E+02  0.47000000000E+01 0. -1.
         -5    1    3    3    0  502  0.54873592344E+02  0.62800873058E+01 -0.92061258884E+02  0.10746123031E+03  0.47000000000E+01 0. -1.
        -11    1    4    4    0    0 -0.64831449282E+01  0.49096868556E+02 -0.20006855253E+03  0.20610666991E+03  0.00000000000E+00 0.  1.
         11    1    4    4    0    0 -0.25255211850E+00 -0.43763545805E+02 -0.18670725100E+03  0.19176785262E+03  0.00000000000E+00 0. -1.
<mgrwt>
<rscale>  0 0.11639847E+03</rscale>
<asrwt>0</asrwt>
<pdfrwt beam="2">  1        2 0.79772126E-01 0.12529628E+03</pdfrwt>
<pdfrwt beam="1">  1       -2 0.56385653E-02 0.12529628E+03</pdfrwt>
<totfact> 0.92307045E+03</totfact>
</mgrwt>
</event>
<event>
 7    1  0.1033707E-005  0.4729593E+03  0.7546771E-02  0.1073113E+00
          1   -1    0    0  501    0  0.00000000000E+00  0.00000000000E+00  0.53457963735E+03  0.53457963735E+03  0.00000000000E+00 0. -1.
         -1   -1    0    0    0  501 -0.00000000000E+00 -0.00000000000E+00 -0.16129323638E+03  0.16129323638E+03  0.00000000000E+00 0.  1.
         23    2    1    2    0    0 -0.32072811783E+02  0.44153892307E+02  0.11672836585E+03  0.15780922285E+03  0.91104379479E+02 0.  0.
          5    1    1    2  502    0 -0.21687579191E+03  0.11929947208E+02  0.10599017212E+03  0.24173009607E+03  0.47000000000E+01 0. -1.
         -5    1    1    2    0  502  0.24894860370E+03 -0.56083839514E+02  0.15056786301E+03  0.29633355481E+03  0.47000000000E+01 0.  1.
        -11    1    3    3    0    0  0.93354760512E+01 -0.97616986124E+01 -0.80424830907E+01  0.15720159260E+02  0.00000000000E+00 0.  1.
         11    1    3    3    0    0 -0.41408287834E+02  0.53915590919E+02  0.12477084895E+03  0.14208906359E+03  0.00000000000E+00 0. -1.
<mgrwt>
<rscale>  0 0.32557269E+03</rscale>
<asrwt>0</asrwt>
<pdfrwt beam="1">  1        1 0.82243020E-01 0.47295927E+03</pdfrwt>
<pdfrwt beam="2">  1       -1 0.24814344E-01 0.47295927E+03</pdfrwt>
<totfact> 0.58015888E+02</totfact>
</mgrwt>
</event>
<event>
 8    1  0.1105501E-005  0.1299642E+03  0.7546771E-02  0.1259193E+00
          1   -1    0    0  501    0  0.00000000000E+00  0.00000000000E+00  0.10371467796E+03  0.10371467796E+03  0.00000000000E+00 0. -1.
         -1   -1    0    0    0  501 -0.00000000000E+00 -0.00000000000E+00 -0.10979022536E+03  0.10979022536E+03  0.00000000000E+00 0.  1.
         23    2    1    2    0    0 -0.32163771835E+02 -0.15211428831E+02 -0.41414558256E+02  0.13640333694E+03  0.12499923563E+03 0.  0.
         23    2    1    2    0    0  0.32163771835E+02  0.15211428831E+02  0.35339010856E+02  0.77101566377E+02  0.58565434036E+02 0.  0.
          5    1    3    3  502    0  0.48242361358E+02 -0.38971154888E+01 -0.15935133866E+02  0.51171588112E+02  0.47000000000E+01 0. -1.
         -5    1    3    3    0  502 -0.80406133193E+02 -0.11314313342E+02 -0.25479424390E+02  0.85231748830E+02  0.47000000000E+01 0. -1.
        -11    1    4    4    0    0  0.21880593227E+02  0.50361366274E+01 -0.13477148485E+02  0.26186954068E+02  0.00000000000E+00 0.  1.
         11    1    4    4    0    0  0.10283178608E+02  0.10175292204E+02  0.48816159342E+02  0.50914612309E+02  0.00000000000E+00 0. -1.
<mgrwt>
<rscale>  0 0.11074693E+03</rscale>
<asrwt>0</asrwt>
<pdfrwt beam="1">  1        1 0.15956104E-01 0.12996424E+03</pdfrwt>
<pdfrwt beam="2">  1       -1 0.16890804E-01 0.12996424E+03</pdfrwt>
<totfact> 0.85686970E+03</totfact>
</mgrwt>
</event>
<event>
 8    1  0.1033707E-005  0.1438842E+03  0.7546771E-02  0.1214591E+00
         -1   -1    0    0    0  501 -0.00000000000E+00  0.00000000000E+00  0.16190664514E+03  0.16190664514E+03  0.00000000000E+00 0.  1.
          1   -1    0    0  501    0  0.00000000000E+00 -0.00000000000E+00 -0.11953393794E+03  0.11953393794E+03  0.00000000000E+00 0. -1.
         23    2    1    2    0    0  0.35039472147E+02  0.79237212167E+02  0.57553057237E+02  0.15496777199E+03  0.11487539144E+03 0.  0.
         23    2    1    2    0    0 -0.35039472147E+02 -0.79237212167E+02 -0.15180350040E+02  0.12647281109E+03  0.90876996641E+02 0.  0.
          5    1    3    3  502    0 -0.24280107459E+02  0.10261273417E+01 -0.18334868955E+02  0.30803148786E+02  0.47000000000E+01 0. -1.
         -5    1    3    3    0  502  0.59319579606E+02  0.78211084826E+02  0.75887926192E+02  0.12416462321E+03  0.47000000000E+01 0.  1.
        -11    1    4    4    0    0 -0.62740343250E+02 -0.35836016640E+02 -0.19399035950E+02  0.74812387714E+02  0.00000000000E+00 0.  1.
         11    1    4    4    0    0  0.27700871103E+02 -0.43401195527E+02  0.42186859103E+01  0.51660423380E+02  0.00000000000E+00 0. -1.
<mgrwt>
<rscale>  0 0.13906610E+03</rscale>
<asrwt>0</asrwt>
<pdfrwt beam="2">  1        1 0.18389837E-01 0.14388418E+03</pdfrwt>
<pdfrwt beam="1">  1       -1 0.24908715E-01 0.14388418E+03</pdfrwt>
<totfact> 0.38457717E+03</totfact>
</mgrwt>
</event>
<event>
 8    1  0.1033707E-005  0.1841787E+03  0.7546771E-02  0.1169022E+00
          3   -1    0    0  501    0  0.00000000000E+00  0.00000000000E+00  0.12970308256E+03  0.12970308256E+03  0.00000000000E+00 0. -1.
         -3   -1    0    0    0  501 -0.00000000000E+00 -0.00000000000E+00 -0.29229550617E+03  0.29229550617E+03  0.00000000000E+00 0.  1.
         23    2    1    2    0    0 -0.13378828923E+03  0.20046570897E+02 -0.18019097652E+03  0.25766366711E+03  0.12498242272E+03 0.  0.
         23    2    1    2    0    0  0.13378828923E+03 -0.20046570897E+02  0.17598552911E+02  0.16433492163E+03  0.91624702248E+02 0.  0.
          5    1    3    3  502    0 -0.64013424742E+02  0.65983507560E+02 -0.13255443395E+03  0.16138249526E+03  0.47000000000E+01 0. -1.
         -5    1    3    3    0  502 -0.69774864486E+02 -0.45936936664E+02 -0.47636542568E+02  0.96281171845E+02  0.47000000000E+01 0. -1.
        -11    1    4    4    0    0  0.54511713133E+02 -0.29329999509E+02 -0.32682719031E+02  0.69999541878E+02  0.00000000000E+00 0.  1.
         11    1    4    4    0    0  0.79276576095E+02  0.92834286121E+01  0.50281271942E+02  0.94335379748E+02  0.00000000000E+00 0. -1.
<mgrwt>
<rscale>  0 0.17874577E+03</rscale>
<asrwt>0</asrwt>
<pdfrwt beam="1">  1        3 0.19954321E-01 0.18417866E+03</pdfrwt>
<pdfrwt beam="2">  1       -3 0.44968539E-01 0.18417866E+03</pdfrwt>
<totfact> 0.26914662E+02</totfact>
</mgrwt>
</event>
<event>
 8    1  0.1033707E-005  0.1323066E+03  0.7546771E-02  0.1236397E+00
          1   -1    0    0  501    0  0.00000000000E+00  0.00000000000E+00  0.44768910285E+03  0.44768910285E+03  0.00000000000E+00 0. -1.
         -1   -1    0    0    0  501 -0.00000000000E+00 -0.00000000000E+00 -0.35340320113E+02  0.35340320113E+02  0.00000000000E+00 0.  1.
         23    2    1    2    0    0 -0.27462461405E+02  0.32336958140E+02  0.14306610699E+03  0.19486648005E+03  0.12532026345E+03 0.  0.
         23    2    1    2    0    0  0.27462461405E+02 -0.32336958140E+02  0.26928267575E+03  0.28816294291E+03  0.93406940634E+02 0.  0.
          5    1    3    3  502    0 -0.24024164426E+01  0.50350106486E+02  0.22978394777E+01  0.50678150067E+02  0.47000000000E+01 0.  1.
         -5    1    3    3    0  502 -0.25060044962E+02 -0.18013148346E+02  0.14076826751E+03  0.14418832999E+03  0.47000000000E+01 0.  1.
        -11    1    4    4    0    0  0.51898941525E+02 -0.61397050654E+01  0.22606615350E+03  0.23202823506E+03  0.00000000000E+00 0. -1.
         11    1    4    4    0    0 -0.24436480120E+02 -0.26197253075E+02  0.43216522258E+02  0.56134707850E+02  0.00000000000E+00 0.  1.
<mgrwt>
<rscale>  0 0.12415449E+03</rscale>
<asrwt>0</asrwt>
<pdfrwt beam="1">  1        1 0.68875243E-01 0.13230659E+03</pdfrwt>
<pdfrwt beam="2">  1       -1 0.54369726E-02 0.13230659E+03</pdfrwt>
<totfact> 0.77345148E+03</totfact>
</mgrwt>
</event>
<event>
 8    1  0.1033707E-005  0.1391278E+03  0.7546771E-02  0.1226151E+00
          1   -1    0    0  501    0  0.00000000000E+00  0.00000000000E+00  0.49768000114E+03  0.49768000114E+03  0.00000000000E+00 0. -1.
         -1   -1    0    0    0  501 -0.00000000000E+00 -0.00000000000E+00 -0.31494762978E+02  0.31494762978E+02  0.00000000000E+00 0.  1.
         23    2    1    2    0    0 -0.39837646499E+02  0.46328063993E+02  0.22540168988E+03  0.26488199125E+03  0.12499287936E+03 0.  0.
         23    2    1    2    0    0  0.39837646499E+02 -0.46328063993E+02  0.24078354828E+03  0.26429277287E+03  0.90225412601E+02 0.  0.
          5    1    3    3  502    0 -0.21208605810E+02 -0.32432294223E+02  0.14703037147E+03  0.15212389294E+03  0.47000000000E+01 0.  1.
         -5    1    3    3    0  502 -0.18629040689E+02  0.78760358216E+02  0.78371318416E+02  0.11275809831E+03  0.47000000000E+01 0.  1.
        -11    1    4    4    0    0  0.29875405378E+02  0.73589687598E+01  0.19627579575E+02  0.36495700400E+02  0.00000000000E+00 0.  1.
         11    1    4    4    0    0  0.99622411217E+01 -0.53687032753E+02  0.22115596870E+03  0.22779707247E+03  0.00000000000E+00 0. -1.
<mgrwt>
<rscale>  0 0.13088349E+03</rscale>
<asrwt>0</asrwt>
<pdfrwt beam="1">  1        1 0.76566148E-01 0.13912781E+03</pdfrwt>
<pdfrwt beam="2">  1       -1 0.48453485E-02 0.13912781E+03</pdfrwt>
<totfact> 0.80273187E+03</totfact>
</mgrwt>
</event>
<event>
 8    1  0.1033707E-005  0.1404691E+03  0.7546771E-02  0.1229329E+00
          1   -1    0    0  501    0  0.00000000000E+00  0.00000000000E+00  0.54187857564E+02  0.54187857564E+02  0.00000000000E+00 0. -1.
         -1   -1    0    0    0  501 -0.00000000000E+00 -0.00000000000E+00 -0.26485031394E+03  0.26485031394E+03  0.00000000000E+00 0.  1.
         23    2    1    2    0    0  0.58418594674E+02 -0.26338877363E+02 -0.12419510719E+03  0.18749933982E+03  0.12500043647E+03 0.  0.
         23    2    1    2    0    0 -0.58418594674E+02  0.26338877363E+02 -0.86467349187E+02  0.13153883169E+03  0.75626669249E+02 0.  0.
          5    1    3    3  502    0  0.58279226566E+02  0.10421841002E+02 -0.13616559319E+03  0.14855383464E+03  0.47000000000E+01 0.  1.
         -5    1    3    3    0  502  0.13936810848E+00 -0.36760718366E+02  0.11970485999E+02  0.38945505174E+02  0.47000000000E+01 0.  1.
        -11    1    4    4    0    0  0.14886780402E+02 -0.17570897778E+01 -0.33880253955E+02  0.37048282056E+02  0.00000000000E+00 0.  1.
         11    1    4    4    0    0 -0.73305375076E+02  0.28095967141E+02 -0.52587095232E+02  0.94490549631E+02  0.00000000000E+00 0. -1.
<mgrwt>
<rscale>  0 0.12874549E+03</rscale>
<asrwt>0</asrwt>
<pdfrwt beam="1">  1        1 0.83365935E-02 0.14046913E+03</pdfrwt>
<pdfrwt beam="2">  1       -1 0.40746202E-01 0.14046913E+03</pdfrwt>
<totfact> 0.46986305E+03</totfact>
</mgrwt>
</event>
<event>
 8    1  0.1033707E-005  0.1463286E+03  0.7546771E-02  0.1214972E+00
          2   -1    0    0  501    0  0.00000000000E+00  0.00000000000E+00  0.29531861011E+03  0.29531861011E+03  0.00000000000E+00 0. -1.
         -2   -1    0    0    0  501 -0.00000000000E+00 -0.00000000000E+00 -0.67307592414E+02  0.67307592414E+02  0.00000000000E+00 0.  1.
         23    2    1    2    0    0  0.54543989897E+02 -0.53034224192E+02  0.62494451531E+02  0.15911509983E+03  0.12499753099E+03 0.  0.
         23    2    1    2    0    0 -0.54543989897E+02  0.53034224192E+02  0.16551656617E+03  0.20351110269E+03  0.90737861303E+02 0.  0.
          5    1    3    3  502    0  0.87549770864E+02 -0.64367491971E+02  0.34427316934E+02  0.11408534767E+03  0.47000000000E+01 0. -1.
         -5    1    3    3    0  502 -0.33005780967E+02  0.11333267779E+02  0.28067134597E+02  0.45029752168E+02  0.47000000000E+01 0. -1.
        -11    1    4    4    0    0 -0.59853673638E+02 -0.10130585013E+01  0.59542981392E+02  0.84432548040E+02  0.00000000000E+00 0.  1.
         11    1    4    4    0    0  0.53096837414E+01  0.54047282694E+02  0.10597358478E+03  0.11907855465E+03  0.00000000000E+00 0. -1.
<mgrwt>
<rscale>  0 0.13878560E+03</rscale>
<asrwt>0</asrwt>
<pdfrwt beam="1">  1        2 0.45433632E-01 0.14632860E+03</pdfrwt>
<pdfrwt beam="2">  1       -2 0.10355014E-01 0.14632860E+03</pdfrwt>
<totfact> 0.66855261E+03</totfact>
</mgrwt>
</event>
<event>
 8    1  0.1033707E-005  0.1633480E+03  0.7546771E-02  0.1191949E+00
         -1   -1    0    0    0  501 -0.00000000000E+00  0.00000000000E+00  0.46416502836E+02  0.46416502836E+02  0.00000000000E+00 0.  1.
          1   -1    0    0  501    0  0.00000000000E+00 -0.00000000000E+00 -0.50912320197E+03  0.50912320197E+03  0.00000000000E+00 0. -1.
         23    2    1    2    0    0 -0.24912273231E+02  0.10216205110E+03 -0.20331293402E+03  0.26080400756E+03  0.12499950071E+03 0.  0.
         23    2    1    2    0    0  0.24912273231E+02 -0.10216205110E+03 -0.25939376511E+03  0.29473569724E+03  0.92337965158E+02 0.  0.
          5    1    3    3  502    0 -0.25071699035E+02  0.38682245666E+02  0.14671853257E+01  0.46358913437E+02  0.47000000000E+01 0.  1.
         -5    1    3    3    0  502  0.15942580357E+00  0.63479805431E+02 -0.20478011935E+03  0.21444509412E+03  0.47000000000E+01 0.  1.
        -11    1    4    4    0    0  0.59724209530E+02 -0.54100390630E+02 -0.14733132063E+03  0.16792960283E+03  0.00000000000E+00 0. -1.
         11    1    4    4    0    0 -0.34811936299E+02 -0.48061660467E+02 -0.11206244449E+03  0.12680609441E+03  0.00000000000E+00 0.  1.
<mgrwt>
<rscale>  0 0.15715316E+03</rscale>
<asrwt>0</asrwt>
<pdfrwt beam="2">  1        1 0.78326644E-01 0.16334804E+03</pdfrwt>
<pdfrwt beam="1">  1       -1 0.71410007E-02 0.16334804E+03</pdfrwt>
<totfact> 0.44055573E+03</totfact>
</mgrwt>
</event>
<event>
 8    1  0.1033707E-005  0.1534846E+03  0.7546771E-02  0.1204788E+00
         -3   -1    0    0    0  501 -0.00000000000E+00  0.00000000000E+00  0.31792334255E+02  0.31792334255E+02  0.00000000000E+00 0.  1.
          3   -1    0    0  501    0  0.00000000000E+00 -0.00000000000E+00 -0.71142895510E+03  0.71142895510E+03  0.00000000000E+00 0. -1.
         23    2    1    2    0    0 -0.88543194424E+02 -0.97463074789E+01 -0.23522606988E+03  0.28087152128E+03  0.12499047855E+03 0.  0.
         23    2    1    2    0    0  0.88543194424E+02  0.97463074789E+01 -0.44441055096E+03  0.46234976807E+03  0.91278050150E+02 0.  0.
          5    1    3    3  502    0 -0.33696763746E+02 -0.35768819575E+02 -0.20869474095E+03  0.21445387672E+03  0.47000000000E+01 0.  1.
         -5    1    3    3    0  502 -0.54846430678E+02  0.26022512096E+02 -0.26531328927E+02  0.66417644557E+02  0.47000000000E+01 0.  1.
        -11    1    4    4    0    0  0.59114758216E+02 -0.24443404837E+02 -0.36878493408E+03  0.37429181434E+03  0.00000000000E+00 0. -1.
         11    1    4    4    0    0  0.29428436208E+02  0.34189712316E+02 -0.75625616883E+02  0.88057953728E+02  0.00000000000E+00 0.  1.
<mgrwt>
<rscale>  0 0.14654146E+03</rscale>
<asrwt>0</asrwt>
<pdfrwt beam="2">  1        3 0.10945060E+00 0.15348455E+03</pdfrwt>
<pdfrwt beam="1">  1       -3 0.48911287E-02 0.15348455E+03</pdfrwt>
<totfact> 0.41080226E+02</totfact>
</mgrwt>
</event>
<event>
 8    1  0.1033707E-005  0.1253641E+03  0.7546771E-02  0.1247733E+00
         -1   -1    0    0    0  501 -0.00000000000E+00  0.00000000000E+00  0.83929610807E+02  0.83929610807E+02  0.00000000000E+00 0.  1.
          1   -1    0    0  501    0  0.00000000000E+00 -0.00000000000E+00 -0.14767219662E+03  0.14767219662E+03  0.00000000000E+00 0. -1.
         23    2    1    2    0    0 -0.91496602803E+01 -0.26757725075E+01 -0.49023803464E+02  0.13460863434E+03  0.12500110036E+03 0.  0.
         23    2    1    2    0    0  0.91496602803E+01  0.26757725075E+01 -0.14718782354E+02  0.96993173090E+02  0.95394743201E+02 0.  0.
          5    1    3    3  502    0  0.34179522188E+02  0.47144552989E+02 -0.30339380189E+02  0.65828691342E+02  0.47000000000E+01 0.  1.
         -5    1    3    3    0  502 -0.43329182468E+02 -0.49820325497E+02 -0.18684423275E+02  0.68779943000E+02  0.47000000000E+01 0.  1.
        -11    1    4    4    0    0 -0.41023948723E+02 -0.16956968608E+01  0.78521584808E+01  0.41803063876E+02  0.00000000000E+00 0.  1.
         11    1    4    4    0    0  0.50173609003E+02  0.43714693683E+01 -0.22570940834E+02  0.55190109213E+02  0.00000000000E+00 0. -1.
<mgrwt>
<rscale>  0 0.11723313E+03</rscale>
<asrwt>0</asrwt>
<pdfrwt beam="2">  1        1 0.22718799E-01 0.12536407E+03</pdfrwt>
<pdfrwt beam="1">  1       -1 0.12912248E-01 0.12536407E+03</pdfrwt>
<totfact> 0.82921332E+03</totfact>
</mgrwt>
</event>
<event>
 8    1  0.1174819E-005  0.1715905E+03  0.7546771E-02  0.1182171E+00
          2   -1    0    0  501    0  0.00000000000E+00  0.00000000000E+00  0.32573769743E+03  0.32573769743E+03  0.00000000000E+00 0.  1.
         -2   -1    0    0    0  501 -0.00000000000E+00 -0.00000000000E+00 -0.80367978001E+02  0.80367978001E+02  0.00000000000E+00 0. -1.
         23    2    1    2    0    0  0.60508009209E+01  0.11739652736E+03  0.15330879590E+03  0.23010188297E+03  0.12499893128E+03 0.  0.
         23    2    1    2    0    0 -0.60508009209E+01 -0.11739652736E+03  0.92060923530E+02  0.17600379246E+03  0.93185645312E+02 0.  0.
          5    1    3    3  502    0  0.54321214192E+02  0.29337810288E+02  0.96428230002E+02  0.11459491684E+03  0.47000000000E+01 0.  1.
         -5    1    3    3    0  502 -0.48270413271E+02  0.88058717067E+02  0.56880565899E+02  0.11550696614E+03  0.47000000000E+01 0.  1.
        -11    1    4    4    0    0  0.39052791814E+02 -0.45446793536E+02  0.61203874434E+02  0.85653055035E+02  0.00000000000E+00 0. -1.
         11    1    4    4    0    0 -0.45103592735E+02 -0.71949733819E+02  0.30857049096E+02  0.90350737424E+02  0.00000000000E+00 0.  1.
<mgrwt>
<rscale>  0 0.16591964E+03</rscale>
<asrwt>0</asrwt>
<pdfrwt beam="1">  1        2 0.50113491E-01 0.17159047E+03</pdfrwt>
<pdfrwt beam="2">  1       -2 0.12364304E-01 0.17159047E+03</pdfrwt>
<totfact> 0.45804736E+03</totfact>
</mgrwt>
</event>
<event>
 7    1  0.1033707E-005  0.3237875E+03  0.7546771E-02  0.1073919E+00
          3   -1    0    0  501    0  0.00000000000E+00  0.00000000000E+00  0.13339182315E+03  0.13339182315E+03  0.00000000000E+00 0. -1.
         -3   -1    0    0    0  501 -0.00000000000E+00 -0.00000000000E+00 -0.19648566056E+03  0.19648566056E+03  0.00000000000E+00 0.  1.
         23    2    1    2    0    0 -0.43949946414E+02  0.35899304577E+01 -0.67899048590E+02  0.14412523081E+03  0.11923638692E+03 0.  0.
          5    1    3    3  502    0 -0.62974764481E+02  0.21175128764E+02  0.48263653635E+01  0.66780168031E+02  0.47000000000E+01 0. -1.
         -5    1    3    3    0  502  0.19024818067E+02 -0.17585198306E+02 -0.72725413954E+02  0.77345062782E+02  0.47000000000E+01 0.  1.
        -11    1    1    2    0    0  0.11407052542E+03  0.69502110483E+01 -0.36584218136E+01  0.11434060632E+03  0.00000000000E+00 0.  1.
         11    1    1    2    0    0 -0.70120579006E+02 -0.10540141506E+02  0.84636329936E+01  0.71411646575E+02  0.00000000000E+00 0. -1.
<mgrwt>
<rscale>  0 0.32378746E+03</rscale>
<asrwt>0</asrwt>
<pdfrwt beam="1">  1        3 0.20521819E-01 0.32378746E+03</pdfrwt>
<pdfrwt beam="2">  1       -3 0.30228563E-01 0.32378746E+03</pdfrwt>
<totfact> 0.58505468E+02</totfact>
</mgrwt>
</event>
<event>
 8    1  0.1033707E-005  0.3772962E+03  0.7546771E-02  0.1052545E+00
         -2   -1    0    0    0  501 -0.00000000000E+00  0.00000000000E+00  0.63896787260E+02  0.63896787260E+02  0.00000000000E+00 0.  1.
          2   -1    0    0  501    0  0.00000000000E+00 -0.00000000000E+00 -0.23757813202E+04  0.23757813202E+04  0.00000000000E+00 0. -1.
         23    2    1    2    0    0  0.76825353272E+02  0.34760464442E+03 -0.82392968175E+03  0.90620777539E+03  0.12498515105E+03 0.  0.
         23    2    1    2    0    0 -0.76825353272E+02 -0.34760464442E+03 -0.14879548512E+04  0.15334703320E+04  0.10387731428E+03 0.  0.
          5    1    3    3  502    0  0.24360139444E+02  0.30284511927E+03 -0.71882204815E+03  0.78040746380E+03  0.47000000000E+01 0.  1.
         -5    1    3    3    0  502  0.52465213828E+02  0.44759525152E+02 -0.10510763360E+03  0.12580031159E+03  0.47000000000E+01 0.  1.
        -11    1    4    4    0    0 -0.18221768551E+02 -0.27357283226E+02 -0.55667103081E+02  0.64647352305E+02  0.00000000000E+00 0.  1.
         11    1    4    4    0    0 -0.58603584722E+02 -0.32024736120E+03 -0.14322877481E+04  0.14688229797E+04  0.00000000000E+00 0. -1.
<mgrwt>
<rscale>  0 0.37567144E+03</rscale>
<asrwt>0</asrwt>
<pdfrwt beam="2">  1        2 0.36550483E+00 0.37729619E+03</pdfrwt>
<pdfrwt beam="1">  1       -2 0.98302747E-02 0.37729619E+03</pdfrwt>
<totfact> 0.31345318E+02</totfact>
</mgrwt>
</event>
<event>
 8    1  0.1033707E-005  0.1275863E+03  0.7546771E-02  0.1243085E+00
         -4   -1    0    0    0  501 -0.00000000000E+00  0.00000000000E+00  0.28450792598E+03  0.28450792598E+03  0.00000000000E+00 0.  1.
          4   -1    0    0  501    0  0.00000000000E+00 -0.00000000000E+00 -0.45662205080E+02  0.45662205080E+02  0.00000000000E+00 0. -1.
         23    2    1    2    0    0 -0.24793573741E+02 -0.62834876342E+01  0.12300866580E+03  0.17722694023E+03  0.12499621180E+03 0.  0.
         23    2    1    2    0    0  0.24793573741E+02  0.62834876342E+01  0.11583705510E+03  0.15294319083E+03  0.96535966214E+02 0.  0.
          5    1    3    3  502    0  0.27214280882E+02 -0.19158264630E+02  0.11859110448E+03  0.12326230669E+03  0.47000000000E+01 0. -1.
         -5    1    3    3    0  502 -0.52007854623E+02  0.12874776995E+02  0.44175613214E+01  0.53964633541E+02  0.47000000000E+01 0. -1.
        -11    1    4    4    0    0  0.21917112549E+02 -0.93662599015E+01  0.12968023591E+03  0.13185238046E+03  0.00000000000E+00 0.  1.
         11    1    4    4    0    0  0.28764611923E+01  0.15649747536E+02 -0.13843180817E+02  0.21090810370E+02  0.00000000000E+00 0. -1.
<mgrwt>
<rscale>  0 0.12000749E+03</rscale>
<asrwt>0</asrwt>
<pdfrwt beam="2">  1        4 0.70249548E-02 0.12758627E+03</pdfrwt>
<pdfrwt beam="1">  1       -4 0.43770449E-01 0.12758627E+03</pdfrwt>
<totfact> 0.11337943E+03</totfact>
</mgrwt>
</event>
<event>
 8    1  0.1033707E-005  0.1657346E+03  0.7546771E-02  0.1193943E+00
         -2   -1    0    0    0  501 -0.00000000000E+00  0.00000000000E+00  0.38443847543E+02  0.38443847543E+02  0.00000000000E+00 0. -1.
          2   -1    0    0  501    0  0.00000000000E+00 -0.00000000000E+00 -0.65699313611E+03  0.65699313611E+03  0.00000000000E+00 0.  1.
         23    2    1    2    0    0 -0.10762384742E+03 -0.16075973290E+02 -0.21171428125E+03  0.26886963635E+03  0.12500645989E+03 0.  0.
         23    2    1    2    0    0  0.10762384742E+03  0.16075973290E+02 -0.40683500732E+03  0.42656734731E+03  0.67850196446E+02 0.  0.
          5    1    3    3  502    0  0.11325497847E+02  0.23265927650E+02 -0.45046833869E+01  0.26682437357E+02  0.47000000000E+01 0.  1.
         -5    1    3    3    0  502 -0.11894934527E+03 -0.39341900940E+02 -0.20720959786E+03  0.24218719899E+03  0.47000000000E+01 0.  1.
        -11    1    4    4    0    0  0.77067052071E+02  0.40199227958E+02 -0.31609639576E+03  0.32782958966E+03  0.00000000000E+00 0.  1.
         11    1    4    4    0    0  0.30556795348E+02 -0.24123254669E+02 -0.90738611561E+02  0.98737757650E+02  0.00000000000E+00 0. -1.
<mgrwt>
<rscale>  0 0.15544042E+03</rscale>
<asrwt>0</asrwt>
<pdfrwt beam="2">  1        2 0.10107587E+00 0.16573456E+03</pdfrwt>
<pdfrwt beam="1">  1       -2 0.59144380E-02 0.16573456E+03</pdfrwt>
<totfact> 0.66731204E+03</totfact>
</mgrwt>
</event>
<event>
 8    1  0.1033707E-005  0.1539273E+03  0.7546771E-02  0.1204909E+00
          1   -1    0    0  501    0  0.00000000000E+00  0.00000000000E+00  0.50746444764E+03  0.50746444764E+03  0.00000000000E+00 0. -1.
         -1   -1    0    0    0  501 -0.00000000000E+00 -0.00000000000E+00 -0.42798552091E+02  0.42798552091E+02  0.00000000000E+00 0.  1.
         23    2    1    2    0    0  0.46083760224E+02  0.77104285191E+02  0.16773411361E+03  0.22765840410E+03  0.12499932934E+03 0.  0.
         23    2    1    2    0    0 -0.46083760224E+02 -0.77104285191E+02  0.29693178194E+03  0.32260459564E+03  0.88523772226E+02 0.  0.
          5    1    3    3  502    0 -0.26486242614E+02  0.43433235295E+02  0.11946297971E+02  0.52466856311E+02  0.47000000000E+01 0.  1.
         -5    1    3    3    0  502  0.72570002838E+02  0.33671049896E+02  0.15578781564E+03  0.17519154778E+03  0.47000000000E+01 0.  1.
        -11    1    4    4    0    0 -0.35938604740E+02 -0.74443356208E+02  0.30039329610E+03  0.31155983203E+03  0.00000000000E+00 0. -1.
         11    1    4    4    0    0 -0.10145155484E+02 -0.26609289831E+01 -0.34615141586E+01  0.11044763607E+02  0.00000000000E+00 0.  1.
<mgrwt>
<rscale>  0 0.14644660E+03</rscale>
<asrwt>0</asrwt>
<pdfrwt beam="1">  1        1 0.78071450E-01 0.15392731E+03</pdfrwt>
<pdfrwt beam="2">  1       -1 0.65843930E-02 0.15392731E+03</pdfrwt>
<totfact> 0.49848609E+03</totfact>
</mgrwt>
</event>
<event>
 8    1  0.1033707E-005  0.1433572E+03  0.7546771E-02  0.1217651E+00
         -1   -1    0    0    0  501 -0.00000000000E+00  0.00000000000E+00  0.75381650475E+02  0.75381650475E+02  0.00000000000E+00 0.  1.
          1   -1    0    0  501    0  0.00000000000E+00 -0.00000000000E+00 -0.23477139168E+03  0.23477139168E+03  0.00000000000E+00 0. -1.
         23    2    1    2    0    0  0.70094719965E+02 -0.35651243807E+01 -0.61200329690E+02  0.15587421573E+03  0.12500124358E+03 0.  0.
         23    2    1    2    0    0 -0.70094719965E+02  0.35651243807E+01 -0.98189411514E+02  0.15427882643E+03  0.96097949359E+02 0.  0.
          5    1    3    3  502    0  0.53245113035E+02 -0.60196288271E+02 -0.17894157366E+02  0.82467727333E+02  0.47000000000E+01 0. -1.
         -5    1    3    3    0  502  0.16849606930E+02  0.56631163890E+02 -0.43306172324E+02  0.73406488396E+02  0.47000000000E+01 0. -1.
        -11    1    4    4    0    0 -0.89036790853E+02 -0.14734045237E+02 -0.61886724122E+02  0.10942855586E+03  0.00000000000E+00 0.  1.
         11    1    4    4    0    0  0.18942070887E+02  0.18299169618E+02 -0.36302687392E+02  0.44850270569E+02  0.00000000000E+00 0. -1.
<mgrwt>
<rscale>  0 0.13683608E+03</rscale>
<asrwt>0</asrwt>
<pdfrwt beam="2">  1        1 0.36118675E-01 0.14335721E+03</pdfrwt>
<pdfrwt beam="1">  1       -1 0.11597177E-01 0.14335721E+03</pdfrwt>
<totfact> 0.55414428E+03</totfact>
</mgrwt>
</event>
<event>
 8    1  0.1033707E-005  0.1724646E+03  0.7546771E-02  0.1181841E+00
         -2   -1    0    0    0  501 -0.00000000000E+00  0.00000000000E+00  0.66377508100E+02  0.66377508100E+02  0.00000000000E+00 0.  1.
          2   -1    0    0  501    0  0.00000000000E+00 -0.00000000000E+00 -0.42396641627E+03  0.42396641627E+03  0.00000000000E+00 0. -1.
         23    2    1    2    0    0 -0.87128691005E+02 -0.80799139348E+02 -0.12042971003E+03  0.21035056217E+03  0.12499653688E+03 0.  0.
         23    2    1    2    0    0  0.87128691005E+02  0.80799139348E+02 -0.23715919814E+03  0.27999336220E+03  0.89620800588E+02 0.  0.
          5    1    3    3  502    0 -0.80798850090E+02 -0.96070019802E+02 -0.13742037738E+03  0.18618365395E+03  0.47000000000E+01 0. -1.
         -5    1    3    3    0  502 -0.63298409147E+01  0.15270880454E+02  0.16990667348E+02  0.24166908217E+02  0.47000000000E+01 0. -1.
        -11    1    4    4    0    0  0.27556354458E+02  0.74127729908E+02 -0.18238383666E+03  0.19879169220E+03  0.00000000000E+00 0. -1.
         11    1    4    4    0    0  0.59572336547E+02  0.66714094407E+01 -0.54775361475E+02  0.81201669997E+02  0.00000000000E+00 0.  1.
<mgrwt>
<rscale>  0 0.16622683E+03</rscale>
<asrwt>0</asrwt>
<pdfrwt beam="2">  1        2 0.65225603E-01 0.17246462E+03</pdfrwt>
<pdfrwt beam="1">  1       -2 0.10211924E-01 0.17246462E+03</pdfrwt>
<totfact> 0.46843955E+03</totfact>
</mgrwt>
</event>
<event>
 8    1  0.1033707E-005  0.1338553E+03  0.7546771E-02  0.1234035E+00
          3   -1    0    0  501    0  0.00000000000E+00  0.00000000000E+00  0.34079672607E+02  0.34079672607E+02  0.00000000000E+00 0. -1.
         -3   -1    0    0    0  501 -0.00000000000E+00 -0.00000000000E+00 -0.51223425502E+03  0.51223425502E+03  0.00000000000E+00 0.  1.
         23    2    1    2    0    0  0.27801678244E+02  0.38974469629E+02 -0.38169068089E+03  0.40448117997E+03  0.12500122589E+03 0.  0.
         23    2    1    2    0    0 -0.27801678244E+02 -0.38974469629E+02 -0.96463901520E+02  0.14183274766E+03  0.92300061837E+02 0.  0.
          5    1    3    3  502    0  0.69040304412E+02  0.19272903071E+01 -0.13641793922E+03  0.15297784880E+03  0.47000000000E+01 0. -1.
         -5    1    3    3    0  502 -0.41238626169E+02  0.37047179322E+02 -0.24527274167E+03  0.25150333117E+03  0.47000000000E+01 0. -1.
        -11    1    4    4    0    0 -0.35968430569E+01 -0.55295321506E+02 -0.18236986354E+02  0.58336074017E+02  0.00000000000E+00 0. -1.
         11    1    4    4    0    0 -0.24204835187E+02  0.16320851877E+02 -0.78226915166E+02  0.83496673639E+02  0.00000000000E+00 0.  1.
<mgrwt>
<rscale>  0 0.12566409E+03</rscale>
<asrwt>0</asrwt>
<pdfrwt beam="1">  1        3 0.52430263E-02 0.13385533E+03</pdfrwt>
<pdfrwt beam="2">  1       -3 0.78805274E-01 0.13385533E+03</pdfrwt>
<totfact> 0.75138478E+02</totfact>
</mgrwt>
</event>
<event>
 8    1  0.1033707E-005  0.1804543E+03  0.7546771E-02  0.1172825E+00
          1   -1    0    0  501    0  0.00000000000E+00  0.00000000000E+00  0.57305910516E+03  0.57305910516E+03  0.00000000000E+00 0. -1.
         -1   -1    0    0    0  501 -0.00000000000E+00 -0.00000000000E+00 -0.50460095640E+02  0.50460095640E+02  0.00000000000E+00 0.  1.
         23    2    1    2    0    0 -0.82773621818E+02 -0.10042883316E+03  0.26293114376E+03  0.31889894913E+03  0.12500532147E+03 0.  0.
         23    2    1    2    0    0  0.82773621818E+02  0.10042883316E+03  0.25966786575E+03  0.30462025167E+03  0.91807811355E+02 0.  0.
          5    1    3    3  502    0  0.15644459533E+02 -0.54172465726E+02  0.35591315075E+02  0.66844871648E+02  0.47000000000E+01 0. -1.
         -5    1    3    3    0  502 -0.98418081351E+02 -0.46256367430E+02  0.22733982869E+03  0.25205407748E+03  0.47000000000E+01 0. -1.
        -11    1    4    4    0    0  0.30162474339E+02  0.10196482770E+03  0.18234232813E+03  0.21108132455E+03  0.00000000000E+00 0. -1.
         11    1    4    4    0    0  0.52611147479E+02 -0.15359945438E+01  0.77325537626E+02  0.93538927124E+02  0.00000000000E+00 0.  1.
<mgrwt>
<rscale>  0 0.17490697E+03</rscale>
<asrwt>0</asrwt>
<pdfrwt beam="1">  1        1 0.88162935E-01 0.18045430E+03</pdfrwt>
<pdfrwt beam="2">  1       -1 0.77630920E-02 0.18045430E+03</pdfrwt>
<totfact> 0.33275957E+03</totfact>
</mgrwt>
</event>
<event>
 8    1  0.1033707E-005  0.1601642E+03  0.7546771E-02  0.1197982E+00
          2   -1    0    0  501    0  0.00000000000E+00  0.00000000000E+00  0.20614601068E+02  0.20614601068E+02  0.00000000000E+00 0. -1.
         -2   -1    0    0    0  501 -0.00000000000E+00 -0.00000000000E+00 -0.10230507213E+04  0.10230507213E+04  0.00000000000E+00 0.  1.
         23    2    1    2    0    0  0.43220802806E+02  0.90369594153E+02 -0.53358363182E+03  0.55710326882E+03  0.12497143129E+03 0.  0.
         23    2    1    2    0    0 -0.43220802806E+02 -0.90369594153E+02 -0.46885248839E+03  0.48656205352E+03  0.82977555527E+02 0.  0.
          5    1    3    3  502    0  0.48840031480E+02  0.11930710400E+03 -0.40266483803E+03  0.42282454462E+03  0.47000000000E+01 0.  1.
         -5    1    3    3    0  502 -0.56192286732E+01 -0.28937509848E+02 -0.13091879379E+03  0.13427872420E+03  0.47000000000E+01 0.  1.
        -11    1    4    4    0    0 -0.66621019450E+02 -0.65376164970E+02 -0.29662258681E+03  0.31096199476E+03  0.00000000000E+00 0. -1.
         11    1    4    4    0    0  0.23400216644E+02 -0.24993429183E+02 -0.17222990158E+03  0.17560005877E+03  0.00000000000E+00 0.  1.
<mgrwt>
<rscale>  0 0.15204564E+03</rscale>
<asrwt>0</asrwt>
<pdfrwt beam="1">  1        2 0.31714772E-02 0.16016417E+03</pdfrwt>
<pdfrwt beam="2">  1       -2 0.15739242E+00 0.16016417E+03</pdfrwt>
<totfact> 0.79520232E+02</totfact>
</mgrwt>
</event>
<event>
 8    1  0.1033707E-005  0.1475653E+03  0.7546771E-02  0.1213024E+00
          3   -1    0    0  501    0  0.00000000000E+00  0.00000000000E+00  0.57605919768E+03  0.57605919768E+03  0.00000000000E+00 0. -1.
         -3   -1    0    0    0  501 -0.00000000000E+00 -0.00000000000E+00 -0.31148199790E+02  0.31148199790E+02  0.00000000000E+00 0.  1.
         23    2    1    2    0    0  0.78250884751E+02  0.52088423406E+01  0.29743550917E+03  0.33202922129E+03  0.12500075468E+03 0.  0.
         23    2    1    2    0    0 -0.78250884751E+02 -0.52088423406E+01  0.24747548872E+03  0.27517817618E+03  0.91261043865E+02 0.  0.
          5    1    3    3  502    0  0.69142370126E+02  0.28381915826E+02  0.29740681880E+03  0.30669057104E+03  0.47000000000E+01 0. -1.
         -5    1    3    3    0  502  0.91085146257E+01 -0.23173073486E+02  0.28690369682E-01  0.25338650252E+02  0.47000000000E+01 0. -1.
        -11    1    4    4    0    0 -0.19767312219E+02 -0.35872051633E+02  0.39233514180E+02  0.56717011166E+02  0.00000000000E+00 0.  1.
         11    1    4    4    0    0 -0.58483572533E+02  0.30663209292E+02  0.20824197454E+03  0.21846116502E+03  0.00000000000E+00 0. -1.
<mgrwt>
<rscale>  0 0.14022653E+03</rscale>
<asrwt>0</asrwt>
<pdfrwt beam="1">  1        3 0.88624484E-01 0.14756531E+03</pdfrwt>
<pdfrwt beam="2">  1       -3 0.47920311E-02 0.14756531E+03</pdfrwt>
<totfact> 0.68076016E+02</totfact>
</mgrwt>
</event>
<event>
 7    1  0.1033707E-005  0.1423280E+03  0.7546771E-02  0.1235136E+00
         -3   -1    0    0    0  501 -0.00000000000E+00  0.00000000000E+00  0.53915210735E+03  0.53915210735E+03  0.00000000000E+00 0.  1.
          3   -1    0    0  501    0  0.00000000000E+00 -0.00000000000E+00 -0.26165163175E+02  0.26165163175E+02  0.00000000000E+00 0. -1.
         23    2    1    2    0    0 -0.58303226959E+02 -0.35118252728E+02  0.39726288890E+03  0.42198942228E+03  0.12499884668E+03 0.  0.
          5    1    3    3  502    0  0.22578129779E+01  0.42999838817E+02  0.12654767224E+03  0.13375532590E+03  0.47000000000E+01 0. -1.
         -5    1    3    3    0  502 -0.60561039937E+02 -0.78118091545E+02  0.27071521666E+03  0.28823409638E+03  0.47000000000E+01 0. -1.
        -11    1    1    2    0    0  0.39472762897E+02  0.30352486288E+02  0.11329255161E+03  0.12375206942E+03  0.00000000000E+00 0.  1.
         11    1    1    2    0    0  0.18830464062E+02  0.47657664405E+01  0.24315036639E+01  0.19575778825E+02  0.00000000000E+00 0. -1.
<mgrwt>
<rscale>  0 0.12495749E+03</rscale>
<asrwt>0</asrwt>
<pdfrwt beam="2">  1        3 0.40254101E-02 0.14232804E+03</pdfrwt>
<pdfrwt beam="1">  1       -3 0.82946470E-01 0.14232804E+03</pdfrwt>
<totfact> 0.10289563E+03</totfact>
</mgrwt>
</event>
<event>
 8    1  0.1033707E-005  0.1431343E+03  0.7546771E-02  0.1219602E+00
          2   -1    0    0  501    0  0.00000000000E+00  0.00000000000E+00  0.18080907301E+03  0.18080907301E+03  0.00000000000E+00 0. -1.
         -2   -1    0    0    0  501 -0.00000000000E+00 -0.00000000000E+00 -0.91969347039E+02  0.91969347039E+02  0.00000000000E+00 0.  1.
         23    2    1    2    0    0  0.40702826633E+02  0.56620218495E+02  0.47391482537E+02  0.15077588874E+03  0.12499938708E+03 0.  0.
         23    2    1    2    0    0 -0.40702826633E+02 -0.56620218495E+02  0.41448243432E+02  0.12200253130E+03  0.91126788173E+02 0.  0.
          5    1    3    3  502    0  0.64583826178E+02 -0.95110282144E+01  0.46528418241E+02  0.80302639842E+02  0.47000000000E+01 0. -1.
         -5    1    3    3    0  502 -0.23880999546E+02  0.66131246709E+02  0.86306429553E+00  0.70473248900E+02  0.47000000000E+01 0. -1.
        -11    1    4    4    0    0  0.10174290388E+02 -0.21115500211E+02 -0.22793000449E+02  0.32694057618E+02  0.00000000000E+00 0.  1.
         11    1    4    4    0    0 -0.50877117021E+02 -0.35504718284E+02  0.64241243881E+02  0.89308473687E+02  0.00000000000E+00 0. -1.
<mgrwt>
<rscale>  0 0.13543850E+03</rscale>
<asrwt>0</asrwt>
<pdfrwt beam="1">  1        2 0.27816780E-01 0.14313426E+03</pdfrwt>
<pdfrwt beam="2">  1       -2 0.14149130E-01 0.14313426E+03</pdfrwt>
<totfact> 0.68577587E+03</totfact>
</mgrwt>
</event>
<event>
 8    1  0.1033707E-005  0.1585897E+03  0.7546771E-02  0.1198500E+00
          1   -1    0    0  501    0  0.00000000000E+00  0.00000000000E+00  0.98646685486E+02  0.98646685486E+02  0.00000000000E+00 0. -1.
         -1   -1    0    0    0  501 -0.00000000000E+00 -0.00000000000E+00 -0.31743948650E+03  0.31743948650E+03  0.00000000000E+00 0.  1.
         23    2    1    2    0    0  0.87297342746E+02 -0.43638439064E+02 -0.23405618002E+03  0.28272422518E+03  0.12500221071E+03 0.  0.
         23    2    1    2    0    0 -0.87297342746E+02  0.43638439064E+02  0.15263379001E+02  0.13336194681E+03  0.89595193537E+02 0.  0.
          5    1    3    3  502    0 -0.23032810123E+00  0.26335470178E+02 -0.11929234626E+03  0.12225532265E+03  0.47000000000E+01 0. -1.
         -5    1    3    3    0  502  0.87527670848E+02 -0.69973909242E+02 -0.11476383376E+03  0.16046890253E+03  0.47000000000E+01 0. -1.
        -11    1    4    4    0    0  0.83213722769E+01  0.26242124739E+02  0.22990094360E+02  0.35866959532E+02  0.00000000000E+00 0. -1.
         11    1    4    4    0    0 -0.95618715023E+02  0.17396314325E+02 -0.77267153596E+01  0.97494987282E+02  0.00000000000E+00 0.  1.
<mgrwt>
<rscale>  0 0.15161718E+03</rscale>
<asrwt>0</asrwt>
<pdfrwt beam="1">  1        1 0.15176413E-01 0.15858970E+03</pdfrwt>
<pdfrwt beam="2">  1       -1 0.48836844E-01 0.15858970E+03</pdfrwt>
<totfact> 0.15492047E+03</totfact>
</mgrwt>
</event>
<event>
 8    1  0.1033707E-005  0.1334263E+03  0.7546771E-02  0.1235639E+00
          3   -1    0    0  501    0  0.00000000000E+00  0.00000000000E+00  0.58730844782E+02  0.58730844782E+02  0.00000000000E+00 0. -1.
         -3   -1    0    0    0  501 -0.00000000000E+00 -0.00000000000E+00 -0.23659892838E+03  0.23659892838E+03  0.00000000000E+00 0.  1.
         23    2    1    2    0    0  0.45061590513E+02 -0.12103226664E+02 -0.11252069108E+03  0.17453787870E+03  0.12500212055E+03 0.  0.
         23    2    1    2    0    0 -0.45061590513E+02  0.12103226664E+02 -0.65347392513E+02  0.12079189446E+03  0.90240595213E+02 0.  0.
          5    1    3    3  502    0  0.76773917879E+02  0.20600292604E+02 -0.98464603357E+02  0.12663322880E+03  0.47000000000E+01 0.  1.
         -5    1    3    3    0  502 -0.31712327366E+02 -0.32703519268E+02 -0.14056087724E+02  0.47904649896E+02  0.47000000000E+01 0.  1.
        -11    1    4    4    0    0 -0.97113748500E+01  0.47042261202E+02 -0.48629270979E+02  0.68352696628E+02  0.00000000000E+00 0.  1.
         11    1    4    4    0    0 -0.35350215663E+02 -0.34939034538E+02 -0.16718121534E+02  0.52439197834E+02  0.00000000000E+00 0. -1.
<mgrwt>
<rscale>  0 0.12463587E+03</rscale>
<asrwt>0</asrwt>
<pdfrwt beam="1">  1        3 0.90355146E-02 0.13342625E+03</pdfrwt>
<pdfrwt beam="2">  1       -3 0.36399835E-01 0.13342625E+03</pdfrwt>
<totfact> 0.14906785E+03</totfact>
</mgrwt>
</event>
<event>
 8    1  0.1033707E-005  0.1293537E+03  0.7546771E-02  0.1241525E+00
         -2   -1    0    0    0  501 -0.00000000000E+00  0.00000000000E+00  0.49708421674E+02  0.49708421674E+02  0.00000000000E+00 0.  1.
          2   -1    0    0  501    0  0.00000000000E+00 -0.00000000000E+00 -0.35162120430E+03  0.35162120430E+03  0.00000000000E+00 0. -1.
         23    2    1    2    0    0 -0.29574508856E+02  0.15242909113E+02 -0.65348058215E+02  0.14492321044E+03  0.12500148142E+03 0.  0.
         23    2    1    2    0    0  0.29574508856E+02 -0.15242909113E+02 -0.23656472441E+03  0.25640641554E+03  0.93136369056E+02 0.  0.
          5    1    3    3  502    0 -0.27005659853E+02  0.64089908564E+02 -0.65691121126E+02  0.95782229242E+02  0.47000000000E+01 0.  1.
         -5    1    3    3    0  502 -0.25688490029E+01 -0.48846999451E+02  0.34306291063E+00  0.49140981194E+02  0.47000000000E+01 0.  1.
        -11    1    4    4    0    0  0.62601283505E+02 -0.37399708983E+01 -0.13181898035E+03  0.14597654490E+03  0.00000000000E+00 0.  1.
         11    1    4    4    0    0 -0.33026774650E+02 -0.11502938215E+02 -0.10474574406E+03  0.11042987064E+03  0.00000000000E+00 0. -1.
<mgrwt>
<rscale>  0 0.12095785E+03</rscale>
<asrwt>0</asrwt>
<pdfrwt beam="2">  1        2 0.54095570E-01 0.12935366E+03</pdfrwt>
<pdfrwt beam="1">  1       -2 0.76474494E-02 0.12935366E+03</pdfrwt>
<totfact> 0.88345377E+03</totfact>
</mgrwt>
</event>
<event>
 8    1  0.1033707E-005  0.1420948E+03  0.7546771E-02  0.1221246E+00
         -2   -1    0    0    0  501 -0.00000000000E+00  0.00000000000E+00  0.26085802661E+03  0.26085802661E+03  0.00000000000E+00 0.  1.
          2   -1    0    0  501    0  0.00000000000E+00 -0.00000000000E+00 -0.62941547559E+02  0.62941547559E+02  0.00000000000E+00 0. -1.
         23    2    1    2    0    0 -0.29492512590E+02 -0.60794671447E+02  0.12329674184E+03  0.18813031046E+03  0.12500050716E+03 0.  0.
         23    2    1    2    0    0  0.29492512590E+02  0.60794671447E+02  0.74619737210E+02  0.13566926371E+03  0.90951874962E+02 0.  0.
          5    1    3    3  502    0 -0.48317206386E+02 -0.80781953935E+02  0.43862245946E+02  0.10395317760E+03  0.47000000000E+01 0.  1.
         -5    1    3    3    0  502  0.18824693796E+02  0.19987282488E+02  0.79434495898E+02  0.84177132859E+02  0.47000000000E+01 0.  1.
        -11    1    4    4    0    0 -0.23902464317E+02  0.12401877622E+02 -0.59470582608E+01  0.27577198388E+02  0.00000000000E+00 0. -1.
         11    1    4    4    0    0  0.53394976907E+02  0.48392793825E+02  0.80566795471E+02  0.10809206532E+03  0.00000000000E+00 0.  1.
<mgrwt>
<rscale>  0 0.13427525E+03</rscale>
<asrwt>0</asrwt>
<pdfrwt beam="2">  1        2 0.96833151E-02 0.14209478E+03</pdfrwt>
<pdfrwt beam="1">  1       -2 0.40132004E-01 0.14209478E+03</pdfrwt>
<totfact> 0.37861748E+03</totfact>
</mgrwt>
</event>
<event>
 8    1  0.1033707E-005  0.1636435E+03  0.7546771E-02  0.1191793E+00
         -1   -1    0    0    0  501 -0.00000000000E+00  0.00000000000E+00  0.82699043133E+03  0.82699043133E+03  0.00000000000E+00 0.  1.
          1   -1    0    0  501    0  0.00000000000E+00 -0.00000000000E+00 -0.30726055429E+02  0.30726055429E+02  0.00000000000E+00 0. -1.
         23    2    1    2    0    0  0.10445575179E+03 -0.15600814806E+02  0.55835699632E+03  0.58184339121E+03  0.12499922824E+03 0.  0.
         23    2    1    2    0    0 -0.10445575179E+03  0.15600814806E+02  0.23790737959E+03  0.27587309555E+03  0.91387384688E+02 0.  0.
          5    1    3    3  502    0  0.46185439838E+00 -0.40181648327E+02  0.29235665834E+03  0.29514281941E+03  0.47000000000E+01 0. -1.
         -5    1    3    3    0  502  0.10399389739E+03  0.24580833521E+02  0.26600033798E+03  0.28670057181E+03  0.47000000000E+01 0. -1.
        -11    1    4    4    0    0 -0.76121546261E+02 -0.31202770172E+02  0.16835381020E+03  0.18737958288E+03  0.00000000000E+00 0.  1.
         11    1    4    4    0    0 -0.28334205530E+02  0.46803584978E+02  0.69553569393E+02  0.88493512672E+02  0.00000000000E+00 0. -1.
<mgrwt>
<rscale>  0 0.15728787E+03</rscale>
<asrwt>0</asrwt>
<pdfrwt beam="2">  1        1 0.47270861E-02 0.16364350E+03</pdfrwt>
<pdfrwt beam="1">  1       -1 0.12722928E+00 0.16364350E+03</pdfrwt>
<totfact> 0.10207333E+03</totfact>
</mgrwt>
</event>
<event>
 8    1  0.1033707E-005  0.1335791E+03  0.7546771E-02  0.1234979E+00
         -2   -1    0    0    0  501 -0.00000000000E+00  0.00000000000E+00  0.34520903188E+03  0.34520903188E+03  0.00000000000E+00 0.  1.
          2   -1    0    0  501    0  0.00000000000E+00 -0.00000000000E+00 -0.61542666569E+02  0.61542666569E+02  0.00000000000E+00 0. -1.
         23    2    1    2    0    0  0.34323314668E+02  0.32234110286E+02  0.27256126247E+03  0.30353421201E+03  0.12500499297E+03 0.  0.
         23    2    1    2    0    0 -0.34323314668E+02 -0.32234110286E+02  0.11105102841E+02  0.10321748644E+03  0.91177839421E+02 0.  0.
          5    1    3    3  502    0 -0.65263618861E+00  0.76188871884E+02  0.13938170737E+03  0.15891670926E+03  0.47000000000E+01 0. -1.
         -5    1    3    3    0  502  0.34975950856E+02 -0.43954761598E+02  0.13317955510E+03  0.14461750275E+03  0.47000000000E+01 0. -1.
        -11    1    4    4    0    0 -0.54011720910E+02 -0.51815818295E+02  0.84267655786E+01  0.75320351827E+02  0.00000000000E+00 0. -1.
         11    1    4    4    0    0  0.19688406243E+02  0.19581708009E+02  0.26783372621E+01  0.27897134610E+02  0.00000000000E+00 0.  1.
<mgrwt>
<rscale>  0 0.12505762E+03</rscale>
<asrwt>0</asrwt>
<pdfrwt beam="2">  1        2 0.94681028E-02 0.13357910E+03</pdfrwt>
<pdfrwt beam="1">  1       -2 0.53109080E-01 0.13357910E+03</pdfrwt>
<totfact> 0.22477040E+03</totfact>
</mgrwt>
</event>
<event>
 8    1  0.1033707E-005  0.1358248E+03  0.7546771E-02  0.1230771E+00
          1   -1    0    0  501    0  0.00000000000E+00  0.00000000000E+00  0.97823535904E+02  0.97823535904E+02  0.00000000000E+00 0. -1.
         -1   -1    0    0    0  501 -0.00000000000E+00 -0.00000000000E+00 -0.25135268145E+03  0.25135268145E+03  0.00000000000E+00 0.  1.
         23    2    1    2    0    0 -0.27771352559E+02 -0.45298483427E+02 -0.19270826965E+03  0.23576439799E+03  0.12500069418E+03 0.  0.
         23    2    1    2    0    0  0.27771352559E+02  0.45298483427E+02  0.39179124108E+02  0.11341181936E+03  0.92217332320E+02 0.  0.
          5    1    3    3  502    0 -0.57390982974E+02 -0.73412781440E+02 -0.11732476649E+03  0.14990114155E+03  0.47000000000E+01 0.  1.
         -5    1    3    3    0  502  0.29619630415E+02  0.28114298013E+02 -0.75383503159E+02  0.85863256444E+02  0.47000000000E+01 0.  1.
        -11    1    4    4    0    0  0.16689363200E+02  0.13393819415E+02  0.66570962641E+02  0.69925834350E+02  0.00000000000E+00 0. -1.
         11    1    4    4    0    0  0.11081989359E+02  0.31904664012E+02 -0.27391838533E+02  0.43485985007E+02  0.00000000000E+00 0.  1.
<mgrwt>
<rscale>  0 0.12779086E+03</rscale>
<asrwt>0</asrwt>
<pdfrwt beam="1">  1        1 0.15049775E-01 0.13582479E+03</pdfrwt>
<pdfrwt beam="2">  1       -1 0.38669643E-01 0.13582479E+03</pdfrwt>
<totfact> 0.23601898E+03</totfact>
</mgrwt>
</event>
<event>
 8    1  0.1033707E-005  0.1260478E+03  0.7546771E-02  0.1248657E+00
         -1   -1    0    0    0  501 -0.00000000000E+00  0.00000000000E+00  0.45040918324E+02  0.45040918324E+02  0.00000000000E+00 0. -1.
          1   -1    0    0  501    0  0.00000000000E+00 -0.00000000000E+00 -0.27601723990E+03  0.27601723990E+03  0.00000000000E+00 0.  1.
         23    2    1    2    0    0  0.82261334515E+01  0.13891462376E+02 -0.10123798384E+03  0.16166993331E+03  0.12500958349E+03 0.  0.
         23    2    1    2    0    0 -0.82261334515E+01 -0.13891462376E+02 -0.12973833773E+03  0.15938822492E+03  0.91169775502E+02 0.  0.
          5    1    3    3  502    0  0.25083147695E+02  0.74223288756E+01  0.23540964231E+02  0.35503834457E+02  0.47000000000E+01 0.  1.
         -5    1    3    3    0  502 -0.16857014244E+02  0.64691335003E+01 -0.12477894807E+03  0.12616609885E+03  0.47000000000E+01 0.  1.
        -11    1    4    4    0    0  0.21026374170E+02 -0.42653329689E+02 -0.46104499580E+02  0.66234732775E+02  0.00000000000E+00 0.  1.
         11    1    4    4    0    0 -0.29252507621E+02  0.28761867313E+02 -0.83633838155E+02  0.93153492141E+02  0.00000000000E+00 0. -1.
<mgrwt>
<rscale>  0 0.11669177E+03</rscale>
<asrwt>0</asrwt>
<pdfrwt beam="2">  1        1 0.42464191E-01 0.12604776E+03</pdfrwt>
<pdfrwt beam="1">  1       -1 0.69293720E-02 0.12604776E+03</pdfrwt>
<totfact> 0.98239909E+03</totfact>
</mgrwt>
</event>
<event>
 8    1  0.1033707E-005  0.1253138E+03  0.7546771E-02  0.1250691E+00
          2   -1    0    0  501    0  0.00000000000E+00  0.00000000000E+00  0.15143309384E+03  0.15143309384E+03  0.00000000000E+00 0. -1.
         -2   -1    0    0    0  501 -0.00000000000E+00 -0.00000000000E+00 -0.81431222667E+02  0.81431222667E+02  0.00000000000E+00 0.  1.
         23    2    1    2    0    0 -0.61719868814E+01 -0.63719976061E+01  0.13121989156E+02  0.12599897251E+03  0.12499943479E+03 0.  0.
         23    2    1    2    0    0  0.61719868814E+01  0.63719976061E+01  0.56879882015E+02  0.10686534400E+03  0.90034354523E+02 0.  0.
          5    1    3    3  502    0 -0.58095193501E+02 -0.81465180805E+01 -0.22309571413E+02  0.62938257375E+02  0.47000000000E+01 0.  1.
         -5    1    3    3    0  502  0.51923206619E+02  0.17745204744E+01  0.35431560569E+02  0.63060715132E+02  0.47000000000E+01 0.  1.
        -11    1    4    4    0    0  0.13124384083E+02 -0.31626664527E+02 -0.42999201095E+01  0.34510645888E+02  0.00000000000E+00 0.  1.
         11    1    4    4    0    0 -0.69523972013E+01  0.37998662133E+02  0.61179802124E+02  0.72354698111E+02  0.00000000000E+00 0. -1.
<mgrwt>
<rscale>  0 0.11551165E+03</rscale>
<asrwt>0</asrwt>
<pdfrwt beam="1">  1        2 0.23297399E-01 0.12531382E+03</pdfrwt>
<pdfrwt beam="2">  1       -2 0.12527880E-01 0.12531382E+03</pdfrwt>
<totfact> 0.10042880E+04</totfact>
</mgrwt>
</event>
<event>
 8    1  0.1033707E-005  0.1311401E+03  0.7546771E-02  0.1238615E+00
          2   -1    0    0  501    0  0.00000000000E+00  0.00000000000E+00  0.97459949164E+02  0.97459949164E+02  0.00000000000E+00 0. -1.
         -2   -1    0    0    0  501 -0.00000000000E+00 -0.00000000000E+00 -0.17606668215E+03  0.17606668215E+03  0.00000000000E+00 0.  1.
         23    2    1    2    0    0 -0.10940289274E+02 -0.38124959247E+02 -0.10661635200E+03  0.16901119895E+03  0.12499814563E+03 0.  0.
         23    2    1    2    0    0  0.10940289274E+02  0.38124959247E+02  0.28009619016E+02  0.10451543236E+03  0.92551252814E+02 0.  0.
          5    1    3    3  502    0 -0.58200457387E+02 -0.14466036960E+02 -0.98382853095E+02  0.11531624018E+03  0.47000000000E+01 0. -1.
         -5    1    3    3    0  502  0.47260168113E+02 -0.23658922286E+02 -0.82334989090E+01  0.53694958777E+02  0.47000000000E+01 0. -1.
        -11    1    4    4    0    0  0.25625480621E+02  0.54885302235E+02 -0.90769232134E+01  0.61249099533E+02  0.00000000000E+00 0.  1.
         11    1    4    4    0    0 -0.14685191347E+02 -0.16760342989E+02  0.37086542229E+02  0.43266332830E+02  0.00000000000E+00 0. -1.
<mgrwt>
<rscale>  0 0.12275828E+03</rscale>
<asrwt>0</asrwt>
<pdfrwt beam="1">  1        2 0.14993838E-01 0.13114015E+03</pdfrwt>
<pdfrwt beam="2">  1       -2 0.27087182E-01 0.13114015E+03</pdfrwt>
<totfact> 0.45712715E+03</totfact>
</mgrwt>
</event>
<event>
 8    1  0.1033707E-005  0.1256147E+03  0.7546771E-02  0.1248746E+00
          1   -1    0    0  501    0  0.00000000000E+00  0.00000000000E+00  0.40802097090E+03  0.40802097090E+03  0.00000000000E+00 0. -1.
         -1   -1    0    0    0  501 -0.00000000000E+00 -0.00000000000E+00 -0.35221963681E+02  0.35221963681E+02  0.00000000000E+00 0.  1.
         23    2    1    2    0    0  0.11133982161E+02  0.54298561199E+01  0.11989141572E+03  0.17364623220E+03  0.12500245397E+03 0.  0.
         23    2    1    2    0    0 -0.11133982161E+02 -0.54298561199E+01  0.25290759151E+03  0.26959670239E+03  0.92556378493E+02 0.  0.
          5    1    3    3  502    0  0.10734099550E+01  0.58430108924E+02  0.23655180319E+02  0.63220941101E+02  0.47000000000E+01 0.  1.
         -5    1    3    3    0  502  0.10060572206E+02 -0.53000252804E+02  0.96236235397E+02  0.11042529110E+03  0.47000000000E+01 0.  1.
        -11    1    4    4    0    0 -0.25080456383E+02  0.27762526344E+02  0.44663985828E+02  0.58263700461E+02  0.00000000000E+00 0.  1.
         11    1    4    4    0    0  0.13946474222E+02 -0.33192382464E+02  0.20824360568E+03  0.21133300193E+03  0.00000000000E+00 0. -1.
<mgrwt>
<rscale>  0 0.11663955E+03</rscale>
<asrwt>0</asrwt>
<pdfrwt beam="1">  1        1 0.62772453E-01 0.12561474E+03</pdfrwt>
<pdfrwt beam="2">  1       -1 0.54187640E-02 0.12561474E+03</pdfrwt>
<totfact> 0.87127938E+03</totfact>
</mgrwt>
</event>
<event>
 8    1  0.1033707E-005  0.1599106E+03  0.7546771E-02  0.1196180E+00
          1   -1    0    0  501    0  0.00000000000E+00  0.00000000000E+00  0.79148108679E+02  0.79148108679E+02  0.00000000000E+00 0. -1.
         -1   -1    0    0    0  501 -0.00000000000E+00 -0.00000000000E+00 -0.29297646409E+03  0.29297646409E+03  0.00000000000E+00 0.  1.
         23    2    1    2    0    0  0.97400185423E+02  0.21435069826E+02 -0.15912126185E+03  0.22559031882E+03  0.12500063052E+03 0.  0.
         23    2    1    2    0    0 -0.97400185423E+02 -0.21435069826E+02 -0.54707093555E+02  0.14653425395E+03  0.92375121956E+02 0.  0.
          5    1    3    3  502    0  0.79374386396E+02 -0.10436332617E+02 -0.21392075565E+02  0.82999525006E+02  0.47000000000E+01 0.  1.
         -5    1    3    3    0  502  0.18025799028E+02  0.31871402443E+02 -0.13772918629E+03  0.14259079381E+03  0.47000000000E+01 0.  1.
        -11    1    4    4    0    0 -0.63601385099E+02  0.60137493162E+01 -0.74979906578E+02  0.98505267665E+02  0.00000000000E+00 0.  1.
         11    1    4    4    0    0 -0.33798800324E+02 -0.27448819142E+02  0.20272813023E+02  0.48028986285E+02  0.00000000000E+00 0. -1.
<mgrwt>
<rscale>  0 0.15354797E+03</rscale>
<asrwt>0</asrwt>
<pdfrwt beam="1">  1        1 0.12176632E-01 0.15991065E+03</pdfrwt>
<pdfrwt beam="2">  1       -1 0.45073302E-01 0.15991065E+03</pdfrwt>
<totfact> 0.23901043E+03</totfact>
</mgrwt>
</event>
<event>
 8    1  0.1033707E-005  0.1274746E+03  0.7546771E-02  0.1246177E+00
          1   -1    0    0  501    0  0.00000000000E+00  0.00000000000E+00  0.16543164884E+03  0.16543164884E+03  0.00000000000E+00 0. -1.
         -1   -1    0    0    0  501 -0.00000000000E+00 -0.00000000000E+00 -0.77652363933E+02  0.77652363933E+02  0.00000000000E+00 0.  1.
         23    2    1    2    0    0 -0.10666440191E+01  0.24970106697E+02  0.24782701498E+02  0.12986134324E+03  0.12500056886E+03 0.  0.
         23    2    1    2    0    0  0.10666440191E+01 -0.24970106697E+02  0.62996583412E+02  0.11322266954E+03  0.90698177589E+02 0.  0.
          5    1    3    3  502    0 -0.83954592380E+01 -0.32828914666E+02  0.54455732996E+02  0.64309705567E+02  0.47000000000E+01 0.  1.
         -5    1    3    3    0  502  0.73288152189E+01  0.57799021363E+02 -0.29673031498E+02  0.65551637671E+02  0.47000000000E+01 0.  1.
        -11    1    4    4    0    0  0.85566026021E+01 -0.11899905865E+02 -0.22256384353E+02  0.26649012217E+02  0.00000000000E+00 0.  1.
         11    1    4    4    0    0 -0.74899585830E+01 -0.13070200832E+02  0.85252967765E+02  0.86573657322E+02  0.00000000000E+00 0. -1.
<mgrwt>
<rscale>  0 0.11815190E+03</rscale>
<asrwt>0</asrwt>
<pdfrwt beam="1">  1        1 0.25451023E-01 0.12747465E+03</pdfrwt>
<pdfrwt beam="2">  1       -1 0.11946518E-01 0.12747465E+03</pdfrwt>
<totfact> 0.81176983E+03</totfact>
</mgrwt>
</event>
<event>
 8    1  0.1033707E-005  0.1321334E+03  0.7546771E-02  0.1240534E+00
         -1   -1    0    0    0  501 -0.00000000000E+00  0.00000000000E+00  0.13091124498E+03  0.13091124498E+03  0.00000000000E+00 0.  1.
          1   -1    0    0  501    0  0.00000000000E+00 -0.00000000000E+00 -0.10890627039E+03  0.10890627039E+03  0.00000000000E+00 0. -1.
         23    2    1    2    0    0  0.39718330551E+02 -0.16029699475E+02  0.49708671457E+02  0.14117428235E+03  0.12499891572E+03 0.  0.
         23    2    1    2    0    0 -0.39718330551E+02  0.16029699475E+02 -0.27703696870E+02  0.98643233029E+02  0.84430418424E+02 0.  0.
          5    1    3    3  502    0  0.63889752626E+02  0.11353974758E+01  0.77300899796E+02  0.10040273267E+03  0.47000000000E+01 0.  1.
         -5    1    3    3    0  502 -0.24171422076E+02 -0.17165096951E+02 -0.27592228339E+02  0.40771549679E+02  0.47000000000E+01 0.  1.
        -11    1    4    4    0    0 -0.18968643944E+02 -0.18267682200E+02  0.22333276723E+02  0.34529594774E+02  0.00000000000E+00 0.  1.
         11    1    4    4    0    0 -0.20749686606E+02  0.34297381675E+02 -0.50036973593E+02  0.64113638256E+02  0.00000000000E+00 0. -1.
<mgrwt>
<rscale>  0 0.12156708E+03</rscale>
<asrwt>0</asrwt>
<pdfrwt beam="2">  1        1 0.16754811E-01 0.13213336E+03</pdfrwt>
<pdfrwt beam="1">  1       -1 0.20140191E-01 0.13213336E+03</pdfrwt>
<totfact> 0.60883373E+03</totfact>
</mgrwt>
</event>
<event>
 8    1  0.1033707E-005  0.2345506E+03  0.7546771E-02  0.1126437E+00
          1   -1    0    0  501    0  0.00000000000E+00  0.00000000000E+00  0.49246227093E+03  0.49246227093E+03  0.00000000000E+00 0. -1.
         -1   -1    0    0    0  501 -0.00000000000E+00 -0.00000000000E+00 -0.10406546218E+03  0.10406546218E+03  0.00000000000E+00 0.  1.
         23    2    1    2    0    0 -0.25407952752E+02  0.19683172034E+03  0.21123123328E+03  0.31564632575E+03  0.12500271536E+03 0.  0.
         23    2    1    2    0    0  0.25407952752E+02 -0.19683172034E+03  0.17716557547E+03  0.28088140736E+03  0.90102351090E+02 0.  0.
          5    1    3    3  502    0  0.30183522425E+02  0.11503755906E+02  0.53520794110E+01  0.33077427045E+02  0.47000000000E+01 0. -1.
         -5    1    3    3    0  502 -0.55591475177E+02  0.18532796444E+03  0.20587915387E+03  0.28256889870E+03  0.47000000000E+01 0. -1.
        -11    1    4    4    0    0 -0.42423143091E+01 -0.14627544067E+03  0.16586650627E+03  0.22119267545E+03  0.00000000000E+00 0. -1.
         11    1    4    4    0    0  0.29650267061E+02 -0.50556279676E+02  0.11299069200E+02  0.59688731903E+02  0.00000000000E+00 0.  1.
<mgrwt>
<rscale>  0 0.23028824E+03</rscale>
<asrwt>0</asrwt>
<pdfrwt beam="1">  1        1 0.75763425E-01 0.23455057E+03</pdfrwt>
<pdfrwt beam="2">  1       -1 0.16010071E-01 0.23455057E+03</pdfrwt>
<totfact> 0.13324253E+03</totfact>
</mgrwt>
</event>
<event>
 8    1  0.1033707E-005  0.1336903E+03  0.7546771E-02  0.1233352E+00
         -1   -1    0    0    0  501 -0.00000000000E+00  0.00000000000E+00  0.14846667975E+03  0.14846667975E+03  0.00000000000E+00 0.  1.
          1   -1    0    0  501    0  0.00000000000E+00 -0.00000000000E+00 -0.97123947069E+02  0.97123947069E+02  0.00000000000E+00 0. -1.
         23    2    1    2    0    0 -0.46547812552E+02  0.89695529600E+01  0.37526784044E+02  0.13885727651E+03  0.12500372788E+03 0.  0.
         23    2    1    2    0    0  0.46547812552E+02 -0.89695529600E+01  0.13815948635E+02  0.10673335031E+03  0.94625450581E+02 0.  0.
          5    1    3    3  502    0 -0.34036091467E+02  0.28034719066E+02 -0.38883638929E+02  0.58978202514E+02  0.47000000000E+01 0.  1.
         -5    1    3    3    0  502 -0.12511721086E+02 -0.19065166106E+02  0.76410422973E+02  0.79879073994E+02  0.47000000000E+01 0.  1.
        -11    1    4    4    0    0 -0.99212058291E+01 -0.14589458252E+02 -0.30159305105E+02  0.34940897264E+02  0.00000000000E+00 0. -1.
         11    1    4    4    0    0  0.56469018381E+02  0.56199052923E+01  0.43975253741E+02  0.71792453044E+02  0.00000000000E+00 0.  1.
<mgrwt>
<rscale>  0 0.12610506E+03</rscale>
<asrwt>0</asrwt>
<pdfrwt beam="2">  1        1 0.14942146E-01 0.13369025E+03</pdfrwt>
<pdfrwt beam="1">  1       -1 0.22841028E-01 0.13369025E+03</pdfrwt>
<totfact> 0.57630743E+03</totfact>
</mgrwt>
</event>
<event>
 8    1  0.1033707E-005  0.1623417E+03  0.7546771E-02  0.1193162E+00
         -2   -1    0    0    0  501 -0.00000000000E+00  0.00000000000E+00  0.72322702467E+02  0.72322702467E+02  0.00000000000E+00 0.  1.
          2   -1    0    0  501    0  0.00000000000E+00 -0.00000000000E+00 -0.31718294146E+03  0.31718294146E+03  0.00000000000E+00 0. -1.
         23    2    1    2    0    0  0.10081481489E+03 -0.23786126280E+02 -0.15282261781E+03  0.22295643327E+03  0.12500164766E+03 0.  0.
         23    2    1    2    0    0 -0.10081481489E+03  0.23786126280E+02 -0.92037621183E+02  0.16654921065E+03  0.92402971554E+02 0.  0.
          5    1    3    3  502    0  0.39106922457E+02 -0.53993908535E+02 -0.14426513377E+02  0.68373297648E+02  0.47000000000E+01 0.  1.
         -5    1    3    3    0  502  0.61707892433E+02  0.30207782255E+02 -0.13839610443E+03  0.15458313562E+03  0.47000000000E+01 0.  1.
        -11    1    4    4    0    0 -0.25249230679E+02  0.11173753039E+02  0.17639454506E+02  0.32764718252E+02  0.00000000000E+00 0.  1.
         11    1    4    4    0    0 -0.75565584211E+02  0.12612373242E+02 -0.10967707569E+03  0.13378449240E+03  0.00000000000E+00 0. -1.
<mgrwt>
<rscale>  0 0.15610841E+03</rscale>
<asrwt>0</asrwt>
<pdfrwt beam="2">  1        2 0.48797375E-01 0.16234167E+03</pdfrwt>
<pdfrwt beam="1">  1       -2 0.11126570E-01 0.16234167E+03</pdfrwt>
<totfact> 0.55634710E+03</totfact>
</mgrwt>
</event>
<event>
 8    1  0.1033707E-005  0.1365847E+03  0.7546771E-02  0.1229998E+00
          1   -1    0    0  501    0  0.00000000000E+00  0.00000000000E+00  0.27200439324E+02  0.27200439324E+02  0.00000000000E+00 0.  1.
         -1   -1    0    0    0  501 -0.00000000000E+00 -0.00000000000E+00 -0.55829656289E+03  0.55829656289E+03  0.00000000000E+00 0. -1.
         23    2    1    2    0    0 -0.27846516161E+02  0.47484979338E+02 -0.24865858521E+03  0.28370139292E+03  0.12500054647E+03 0.  0.
         23    2    1    2    0    0  0.27846516161E+02 -0.47484979338E+02 -0.28243753836E+03  0.30179560930E+03  0.90991070965E+02 0.  0.
          5    1    3    3  502    0  0.44384666524E+02  0.16391798875E+02 -0.15053899261E+03  0.15786946503E+03  0.47000000000E+01 0.  1.
         -5    1    3    3    0  502 -0.72231182685E+02  0.31093180462E+02 -0.98119592606E+02  0.12583192789E+03  0.47000000000E+01 0.  1.
        -11    1    4    4    0    0  0.35289526276E+02  0.16023135875E+02 -0.70856506303E+02  0.80763457291E+02  0.00000000000E+00 0.  1.
         11    1    4    4    0    0 -0.74430101153E+01 -0.63508115213E+02 -0.21158103205E+03  0.22103215201E+03  0.00000000000E+00 0. -1.
<mgrwt>
<rscale>  0 0.12830177E+03</rscale>
<asrwt>0</asrwt>
<pdfrwt beam="1">  1        1 0.41846829E-02 0.13658473E+03</pdfrwt>
<pdfrwt beam="2">  1       -1 0.85891781E-01 0.13658473E+03</pdfrwt>
<totfact> 0.28920436E+03</totfact>
</mgrwt>
</event>
<event>
 8    1  0.1033707E-005  0.1523670E+03  0.7546771E-02  0.1205910E+00
         -2   -1    0    0    0  501 -0.00000000000E+00  0.00000000000E+00  0.23998268046E+03  0.23998268046E+03  0.00000000000E+00 0.  1.
          2   -1    0    0  501    0  0.00000000000E+00 -0.00000000000E+00 -0.86114284481E+02  0.86114284481E+02  0.00000000000E+00 0. -1.
         23    2    1    2    0    0 -0.81422563191E+02  0.31000916518E+02  0.12125150531E+03  0.19472453568E+03  0.12500010653E+03 0.  0.
         23    2    1    2    0    0  0.81422563191E+02 -0.31000916518E+02  0.32616890666E+02  0.13137242926E+03  0.92758627588E+02 0.  0.
          5    1    3    3  502    0  0.13993610362E+02  0.48240676892E+01  0.89307477695E+02  0.90647715538E+02  0.47000000000E+01 0.  1.
         -5    1    3    3    0  502 -0.95416173552E+02  0.26176848829E+02  0.31944027616E+02  0.10407682014E+03  0.47000000000E+01 0.  1.
        -11    1    4    4    0    0  0.88979492257E+00 -0.21224526841E+02  0.44568945316E+02  0.49372696516E+02  0.00000000000E+00 0.  1.
         11    1    4    4    0    0  0.80532768268E+02 -0.97763896773E+01 -0.11952054651E+02  0.81999732746E+02  0.00000000000E+00 0. -1.
<mgrwt>
<rscale>  0 0.14566004E+03</rscale>
<asrwt>0</asrwt>
<pdfrwt beam="2">  1        2 0.13248352E-01 0.15236705E+03</pdfrwt>
<pdfrwt beam="1">  1       -2 0.36920412E-01 0.15236705E+03</pdfrwt>
<totfact> 0.30413518E+03</totfact>
</mgrwt>
</event>
<event>
 8    1  0.1033707E-005  0.1309082E+03  0.7546771E-02  0.1240068E+00
         -2   -1    0    0    0  501 -0.00000000000E+00  0.00000000000E+00  0.31740362758E+02  0.31740362758E+02  0.00000000000E+00 0.  1.
          2   -1    0    0  501    0  0.00000000000E+00 -0.00000000000E+00 -0.42047701110E+03  0.42047701110E+03  0.00000000000E+00 0. -1.
         23    2    1    2    0    0  0.26459129921E+01 -0.38807506724E+02 -0.19323746066E+03  0.23340453064E+03  0.12499574108E+03 0.  0.
         23    2    1    2    0    0 -0.26459129921E+01  0.38807506724E+02 -0.19549918768E+03  0.21881284322E+03  0.90255772887E+02 0.  0.
          5    1    3    3  502    0  0.25881709455E+02  0.38537614037E+02 -0.97324017114E+02  0.10793083381E+03  0.47000000000E+01 0.  1.
         -5    1    3    3    0  502 -0.23235796463E+02 -0.77345120761E+02 -0.95913443547E+02  0.12547369683E+03  0.47000000000E+01 0.  1.
        -11    1    4    4    0    0 -0.33189110101E+02  0.63490110354E+00 -0.25316581722E+02  0.41747448291E+02  0.00000000000E+00 0.  1.
         11    1    4    4    0    0  0.30543197109E+02  0.38172605620E+02 -0.17018260596E+03  0.17706539493E+03  0.00000000000E+00 0. -1.
<mgrwt>
<rscale>  0 0.12185473E+03</rscale>
<asrwt>0</asrwt>
<pdfrwt beam="2">  1        2 0.64688767E-01 0.13090821E+03</pdfrwt>
<pdfrwt beam="1">  1       -2 0.48831330E-02 0.13090821E+03</pdfrwt>
<totfact> 0.14433049E+04</totfact>
</mgrwt>
</event>
<event>
 8    1  0.1033707E-005  0.1365680E+03  0.7546771E-02  0.1229628E+00
          4   -1    0    0  501    0  0.00000000000E+00  0.00000000000E+00  0.47846051627E+02  0.47846051627E+02  0.00000000000E+00 0. -1.
         -4   -1    0    0    0  501 -0.00000000000E+00 -0.00000000000E+00 -0.41019184367E+03  0.41019184367E+03  0.00000000000E+00 0.  1.
         23    2    1    2    0    0  0.39825242970E+02 -0.37925497043E+02 -0.30997895100E+03  0.33872963521E+03  0.12500568948E+03 0.  0.
         23    2    1    2    0    0 -0.39825242970E+02  0.37925497043E+02 -0.52366841037E+02  0.11930826008E+03  0.92020549772E+02 0.  0.
          5    1    3    3  502    0 -0.35764551125E+01 -0.65882150898E+02 -0.84193929677E+02  0.10706986800E+03  0.47000000000E+01 0. -1.
         -5    1    3    3    0  502  0.43401698083E+02  0.27956653855E+02 -0.22578502133E+03  0.23165976722E+03  0.47000000000E+01 0. -1.
        -11    1    4    4    0    0 -0.19161989859E+02  0.27168177683E+02 -0.77928396543E+02  0.84723826175E+02  0.00000000000E+00 0.  1.
         11    1    4    4    0    0 -0.20663253111E+02  0.10757319360E+02  0.25561555505E+02  0.34584433909E+02  0.00000000000E+00 0. -1.
<mgrwt>
<rscale>  0 0.12854701E+03</rscale>
<asrwt>0</asrwt>
<pdfrwt beam="1">  1        4 0.73609314E-02 0.13656799E+03</pdfrwt>
<pdfrwt beam="2">  1       -4 0.63106435E-01 0.13656799E+03</pdfrwt>
<totfact> 0.50236077E+02</totfact>
</mgrwt>
</event>
<event>
 8    1  0.1033707E-005  0.1511497E+03  0.7546771E-02  0.1208136E+00
          2   -1    0    0  501    0  0.00000000000E+00  0.00000000000E+00  0.11724964676E+03  0.11724964676E+03  0.00000000000E+00 0. -1.
         -2   -1    0    0    0  501 -0.00000000000E+00 -0.00000000000E+00 -0.16230747796E+03  0.16230747796E+03  0.00000000000E+00 0.  1.
         23    2    1    2    0    0  0.53965417912E+02 -0.65642989162E+02 -0.32894773673E+02  0.15468772518E+03  0.12499983132E+03 0.  0.
         23    2    1    2    0    0 -0.53965417912E+02  0.65642989162E+02 -0.12163057523E+02  0.12486939954E+03  0.90681633294E+02 0.  0.
          5    1    3    3  502    0  0.67888668280E+02 -0.95757312963E+02 -0.22561164653E+02  0.11962203149E+03  0.47000000000E+01 0.  1.
         -5    1    3    3    0  502 -0.13923250368E+02  0.30114323801E+02 -0.10333609020E+02  0.35065693693E+02  0.47000000000E+01 0.  1.
        -11    1    4    4    0    0 -0.65554922572E+02  0.18806070724E+02 -0.28520607362E+02  0.73922535223E+02  0.00000000000E+00 0.  1.
         11    1    4    4    0    0  0.11589504660E+02  0.46836918438E+02  0.16357549839E+02  0.50946864317E+02  0.00000000000E+00 0. -1.
<mgrwt>
<rscale>  0 0.14393019E+03</rscale>
<asrwt>0</asrwt>
<pdfrwt beam="1">  1        2 0.18038407E-01 0.15114968E+03</pdfrwt>
<pdfrwt beam="2">  1       -2 0.24970381E-01 0.15114968E+03</pdfrwt>
<totfact> 0.42946262E+03</totfact>
</mgrwt>
</event>
<event>
 8    1  0.1033707E-005  0.1323336E+03  0.7546771E-02  0.1234956E+00
         -1   -1    0    0    0  501 -0.00000000000E+00  0.00000000000E+00  0.25495565137E+02  0.25495565137E+02  0.00000000000E+00 0.  1.
          1   -1    0    0  501    0  0.00000000000E+00 -0.00000000000E+00 -0.55984942985E+03  0.55984942985E+03  0.00000000000E+00 0. -1.
         23    2    1    2    0    0  0.35103837105E+02 -0.25599422092E+02 -0.27014418745E+03  0.30081566549E+03  0.12499829119E+03 0.  0.
         23    2    1    2    0    0 -0.35103837105E+02  0.25599422092E+02 -0.26420967726E+03  0.28452932950E+03  0.96242277582E+02 0.  0.
          5    1    3    3  502    0  0.44898166741E+02 -0.28780068504E+02 -0.28044577316E+03  0.28551017390E+03  0.47000000000E+01 0. -1.
         -5    1    3    3    0  502 -0.97943296363E+01  0.31806464130E+01  0.10301585708E+02  0.15305491587E+02  0.47000000000E+01 0. -1.
        -11    1    4    4    0    0 -0.43179558209E+02 -0.14205877459E+02 -0.54715349564E+02  0.71134033201E+02  0.00000000000E+00 0.  1.
         11    1    4    4    0    0  0.80757211047E+01  0.39805299550E+02 -0.20949432770E+03  0.21339529630E+03  0.00000000000E+00 0. -1.
<mgrwt>
<rscale>  0 0.12507280E+03</rscale>
<asrwt>0</asrwt>
<pdfrwt beam="2">  1        1 0.86130681E-01 0.13233360E+03</pdfrwt>
<pdfrwt beam="1">  1       -1 0.39223947E-02 0.13233360E+03</pdfrwt>
<totfact> 0.93509620E+03</totfact>
</mgrwt>
</event>
<event>
 8    1  0.1033707E-005  0.1443942E+03  0.7546771E-02  0.1217930E+00
         -1   -1    0    0    0  501 -0.00000000000E+00  0.00000000000E+00  0.12027591083E+04  0.12027591083E+04  0.00000000000E+00 0.  1.
          1   -1    0    0  501    0  0.00000000000E+00 -0.00000000000E+00 -0.16027306223E+02  0.16027306223E+02  0.00000000000E+00 0. -1.
         23    2    1    2    0    0  0.38849087322E+02  0.60958786012E+02  0.86256640957E+03  0.87456874935E+03  0.12499784495E+03 0.  0.
         23    2    1    2    0    0 -0.38849087322E+02 -0.60958786012E+02  0.32416539246E+03  0.34421766513E+03  0.90428834669E+02 0.  0.
          5    1    3    3  502    0  0.41271912279E+02  0.27332585157E+02  0.81253895236E+03  0.81405901509E+03  0.47000000000E+01 0.  1.
         -5    1    3    3    0  502 -0.24228249577E+01  0.33626200855E+02  0.50027457213E+02  0.60509734257E+02  0.47000000000E+01 0.  1.
        -11    1    4    4    0    0 -0.33286559456E+02  0.16115430712E+02  0.80413032853E+02  0.88509649192E+02  0.00000000000E+00 0. -1.
         11    1    4    4    0    0 -0.55625278660E+01 -0.77074216724E+02  0.24375235961E+03  0.25570801594E+03  0.00000000000E+00 0.  1.
<mgrwt>
<rscale>  0 0.13663468E+03</rscale>
<asrwt>0</asrwt>
<pdfrwt beam="2">  1        1 0.24657404E-02 0.14439420E+03</pdfrwt>
<pdfrwt beam="1">  1       -1 0.18503979E+00 0.14439420E+03</pdfrwt>
<totfact> 0.93380879E+02</totfact>
</mgrwt>
</event>
<event>
 8    1  0.1033707E-005  0.1518342E+03  0.7546771E-02  0.1207226E+00
          3   -1    0    0  501    0  0.00000000000E+00  0.00000000000E+00  0.36061031333E+03  0.36061031333E+03  0.00000000000E+00 0. -1.
         -3   -1    0    0    0  501 -0.00000000000E+00 -0.00000000000E+00 -0.61040989006E+02  0.61040989006E+02  0.00000000000E+00 0.  1.
         23    2    1    2    0    0  0.60250851142E+02 -0.61864051570E+02  0.86862714999E+02  0.17492500635E+03  0.12488514984E+03 0.  0.
         23    2    1    2    0    0 -0.60250851142E+02  0.61864051570E+02  0.21270660932E+03  0.24672629598E+03  0.90401535043E+02 0.  0.
          5    1    3    3  502    0  0.35683407802E+02 -0.77685546952E+02  0.26458774858E+01  0.85658860985E+02  0.47000000000E+01 0. -1.
         -5    1    3    3    0  502  0.24567443340E+02  0.15821495382E+02  0.84216837513E+02  0.89266145369E+02  0.47000000000E+01 0. -1.
        -11    1    4    4    0    0 -0.79193453962E+02  0.31130403380E+02  0.11889636951E+03  0.14620893218E+03  0.00000000000E+00 0.  1.
         11    1    4    4    0    0  0.18942602820E+02  0.30733648190E+02  0.93810239807E+02  0.10051736380E+03  0.00000000000E+00 0. -1.
<mgrwt>
<rscale>  0 0.14463429E+03</rscale>
<asrwt>0</asrwt>
<pdfrwt beam="1">  1        3 0.55478509E-01 0.15183421E+03</pdfrwt>
<pdfrwt beam="2">  1       -3 0.93909216E-02 0.15183421E+03</pdfrwt>
<totfact> 0.62392889E+02</totfact>
</mgrwt>
</event>
<event>
 8    1  0.1033707E-005  0.1268033E+03  0.7546771E-02  0.1246448E+00
         -2   -1    0    0    0  501 -0.00000000000E+00  0.00000000000E+00  0.33185602823E+02  0.33185602823E+02  0.00000000000E+00 0.  1.
          2   -1    0    0  501    0  0.00000000000E+00 -0.00000000000E+00 -0.41902352346E+03  0.41902352346E+03  0.00000000000E+00 0. -1.
         23    2    1    2    0    0  0.17406635843E+02 -0.12330169343E+02 -0.14135734619E+03  0.18989730157E+03  0.12499624705E+03 0.  0.
         23    2    1    2    0    0 -0.17406635843E+02  0.12330169343E+02 -0.24448057445E+03  0.26231182471E+03  0.92637562866E+02 0.  0.
          5    1    3    3  502    0  0.19185546504E+02 -0.66341714623E+02 -0.10029859090E+03  0.12186552273E+03  0.47000000000E+01 0. -1.
         -5    1    3    3    0  502 -0.17789106605E+01  0.54011545280E+02 -0.41058755294E+02  0.68031778846E+02  0.47000000000E+01 0. -1.
        -11    1    4    4    0    0 -0.39085598565E+02  0.99388662785E+01 -0.23516023909E+03  0.23859338450E+03  0.00000000000E+00 0. -1.
         11    1    4    4    0    0  0.21678962721E+02  0.23913030642E+01 -0.93203353617E+01  0.23718440216E+02  0.00000000000E+00 0.  1.
<mgrwt>
<rscale>  0 0.11799117E+03</rscale>
<asrwt>0</asrwt>
<pdfrwt beam="2">  1        2 0.64465158E-01 0.12680334E+03</pdfrwt>
<pdfrwt beam="1">  1       -2 0.51054773E-02 0.12680334E+03</pdfrwt>
<totfact> 0.13515662E+04</totfact>
</mgrwt>
</event>
<event>
 8    1  0.1033707E-005  0.1342398E+03  0.7546771E-02  0.1233946E+00
         -1   -1    0    0    0  501 -0.00000000000E+00  0.00000000000E+00  0.30934696885E+02  0.30934696885E+02  0.00000000000E+00 0.  1.
          1   -1    0    0  501    0  0.00000000000E+00 -0.00000000000E+00 -0.45590476591E+03  0.45590476591E+03  0.00000000000E+00 0. -1.
         23    2    1    2    0    0  0.47025796152E+02  0.13581561640E+02 -0.24084739571E+03  0.27573139768E+03  0.12499780529E+03 0.  0.
         23    2    1    2    0    0 -0.47025796152E+02 -0.13581561640E+02 -0.18412267331E+03  0.21110806511E+03  0.90937187151E+02 0.  0.
          5    1    3    3  502    0  0.41218047882E+02  0.67425528931E+02 -0.15651625076E+03  0.17539827871E+03  0.47000000000E+01 0.  1.
         -5    1    3    3    0  502  0.58077482705E+01 -0.53843967291E+02 -0.84331144945E+02  0.10033311897E+03  0.47000000000E+01 0.  1.
        -11    1    4    4    0    0 -0.58573644519E+02 -0.33821276635E+02 -0.81681759999E+02  0.10605027346E+03  0.00000000000E+00 0.  1.
         11    1    4    4    0    0  0.11547848367E+02  0.20239714996E+02 -0.10244091331E+03  0.10505779165E+03  0.00000000000E+00 0. -1.
<mgrwt>
<rscale>  0 0.12572120E+03</rscale>
<asrwt>0</asrwt>
<pdfrwt beam="2">  1        1 0.70139192E-01 0.13423984E+03</pdfrwt>
<pdfrwt beam="1">  1       -1 0.47591843E-02 0.13423984E+03</pdfrwt>
<totfact> 0.92107194E+03</totfact>
</mgrwt>
</event>
<event>
 8    1  0.1033707E-005  0.1314281E+03  0.7546771E-02  0.1238154E+00
          4   -1    0    0  501    0  0.00000000000E+00  0.00000000000E+00  0.22875034440E+03  0.22875034440E+03  0.00000000000E+00 0. -1.
         -4   -1    0    0    0  501 -0.00000000000E+00 -0.00000000000E+00 -0.62369336036E+02  0.62369336036E+02  0.00000000000E+00 0.  1.
         23    2    1    2    0    0 -0.36653613499E+02  0.17374413374E+02  0.60094796408E+02  0.14451548531E+03  0.12501193270E+03 0.  0.
         23    2    1    2    0    0  0.36653613499E+02 -0.17374413374E+02  0.10628621196E+03  0.14660419513E+03  0.92469852132E+02 0.  0.
          5    1    3    3  502    0 -0.48752547257E+02  0.41174225087E+02  0.85883784949E+02  0.10709921658E+03  0.47000000000E+01 0. -1.
         -5    1    3    3    0  502  0.12098933758E+02 -0.23799811713E+02 -0.25788988541E+02  0.37416268729E+02  0.47000000000E+01 0. -1.
        -11    1    4    4    0    0  0.56810233546E+01 -0.20808847953E+02 -0.11722755959E+02  0.24550054720E+02  0.00000000000E+00 0.  1.
         11    1    4    4    0    0  0.30972590144E+02  0.34344345794E+01  0.11800896792E+03  0.12205414041E+03  0.00000000000E+00 0. -1.
<mgrwt>
<rscale>  0 0.12304672E+03</rscale>
<asrwt>0</asrwt>
<pdfrwt beam="1">  1        4 0.35192360E-01 0.13142808E+03</pdfrwt>
<pdfrwt beam="2">  1       -4 0.95952826E-02 0.13142808E+03</pdfrwt>
<totfact> 0.10435529E+03</totfact>
</mgrwt>
</event>
<event>
 8    1  0.1033707E-005  0.1968117E+03  0.7546771E-02  0.1157210E+00
         -2   -1    0    0    0  501 -0.00000000000E+00  0.00000000000E+00  0.61150456002E+02  0.61150456002E+02  0.00000000000E+00 0.  1.
          2   -1    0    0  501    0  0.00000000000E+00 -0.00000000000E+00 -0.57131175377E+03  0.57131175377E+03  0.00000000000E+00 0. -1.
         23    2    1    2    0    0  0.10193617994E+03 -0.11277774694E+03 -0.29223727087E+03  0.35233150093E+03  0.12500023633E+03 0.  0.
         23    2    1    2    0    0 -0.10193617994E+03  0.11277774694E+03 -0.21792402690E+03  0.28013070884E+03  0.88727264963E+02 0.  0.
          5    1    3    3  502    0  0.11742488754E+03 -0.74502043792E+02 -0.15202120263E+03  0.20608661964E+03  0.47000000000E+01 0.  1.
         -5    1    3    3    0  502 -0.15488707603E+02 -0.38275703147E+02 -0.14021606824E+03  0.14624488130E+03  0.47000000000E+01 0.  1.
        -11    1    4    4    0    0  0.45286265857E+01  0.52227053851E+02 -0.80314698773E+02  0.95909459657E+02  0.00000000000E+00 0.  1.
         11    1    4    4    0    0 -0.10646480652E+03  0.60550693089E+02 -0.13760932813E+03  0.18422124918E+03  0.00000000000E+00 0. -1.
<mgrwt>
<rscale>  0 0.19139365E+03</rscale>
<asrwt>0</asrwt>
<pdfrwt beam="2">  1        2 0.87894114E-01 0.19681175E+03</pdfrwt>
<pdfrwt beam="1">  1       -2 0.94077626E-02 0.19681175E+03</pdfrwt>
<totfact> 0.38516996E+03</totfact>
</mgrwt>
</event>
<event>
 8    1  0.1033707E-005  0.1554062E+03  0.7546771E-02  0.1203081E+00
          1   -1    0    0  501    0  0.00000000000E+00  0.00000000000E+00  0.17552842367E+03  0.17552842367E+03  0.00000000000E+00 0. -1.
         -1   -1    0    0    0  501 -0.00000000000E+00 -0.00000000000E+00 -0.11483821921E+03  0.11483821921E+03  0.00000000000E+00 0.  1.
         23    2    1    2    0    0 -0.91351325928E+02  0.13485563478E+02  0.20797041786E+02  0.15679160516E+03  0.12499666128E+03 0.  0.
         23    2    1    2    0    0  0.91351325928E+02 -0.13485563478E+02  0.39893162678E+02  0.13357503772E+03  0.87885727524E+02 0.  0.
          5    1    3    3  502    0 -0.24276775846E+02  0.64269477267E+02 -0.39358955456E+01  0.68974697008E+02  0.47000000000E+01 0.  1.
         -5    1    3    3    0  502 -0.67074550081E+02 -0.50783913789E+02  0.24732937331E+02  0.87816908152E+02  0.47000000000E+01 0.  1.
        -11    1    4    4    0    0  0.21563927950E+02 -0.40672865010E+02 -0.49168277746E+01  0.46297517559E+02  0.00000000000E+00 0.  1.
         11    1    4    4    0    0  0.69787397978E+02  0.27187301532E+02  0.44809990452E+02  0.87277520161E+02  0.00000000000E+00 0. -1.
<mgrwt>
<rscale>  0 0.14789746E+03</rscale>
<asrwt>0</asrwt>
<pdfrwt beam="1">  1        1 0.27004373E-01 0.15540621E+03</pdfrwt>
<pdfrwt beam="2">  1       -1 0.17667418E-01 0.15540621E+03</pdfrwt>
<totfact> 0.41372257E+03</totfact>
</mgrwt>
</event>
<event>
 8    1  0.1033707E-005  0.2428358E+03  0.7546771E-02  0.1120607E+00
          1   -1    0    0  501    0  0.00000000000E+00  0.00000000000E+00  0.26526288911E+02  0.26526288911E+02  0.00000000000E+00 0. -1.
         -1   -1    0    0    0  501 -0.00000000000E+00 -0.00000000000E+00 -0.21547205939E+04  0.21547205939E+04  0.00000000000E+00 0.  1.
         23    2    1    2    0    0 -0.14719398867E+03 -0.14723360883E+03 -0.13008301708E+04  0.13233020703E+04  0.12500172073E+03 0.  0.
         23    2    1    2    0    0  0.14719398867E+03  0.14723360883E+03 -0.82736413422E+03  0.85794481252E+03  0.90521184629E+02 0.  0.
          5    1    3    3  502    0 -0.51326325535E+02 -0.66729002175E+02 -0.22635883648E+03  0.24155240483E+03  0.47000000000E+01 0. -1.
         -5    1    3    3    0  502 -0.95867663134E+02 -0.80504606655E+02 -0.10744713343E+04  0.10817496655E+04  0.47000000000E+01 0. -1.
        -11    1    4    4    0    0  0.14587528936E+03  0.98326586564E+02 -0.69198255469E+03  0.71399409918E+03  0.00000000000E+00 0.  1.
         11    1    4    4    0    0  0.13186993136E+01  0.48907022265E+02 -0.13538157953E+03  0.14395071334E+03  0.00000000000E+00 0. -1.
<mgrwt>
<rscale>  0 0.23878134E+03</rscale>
<asrwt>0</asrwt>
<pdfrwt beam="1">  1        1 0.40809680E-02 0.24283582E+03</pdfrwt>
<pdfrwt beam="2">  1       -1 0.33149544E+00 0.24283582E+03</pdfrwt>
<totfact> 0.54389364E+01</totfact>
</mgrwt>
</event>
<event>
 8    1  0.1033707E-005  0.1296744E+03  0.7546771E-02  0.1240169E+00
         -1   -1    0    0    0  501 -0.00000000000E+00  0.00000000000E+00  0.16450167571E+02  0.16450167571E+02  0.00000000000E+00 0.  1.
          1   -1    0    0  501    0  0.00000000000E+00 -0.00000000000E+00 -0.81476225881E+03  0.81476225881E+03  0.00000000000E+00 0. -1.
         23    2    1    2    0    0  0.67394823806E+01 -0.33662665194E+02 -0.41098212405E+03  0.43095447344E+03  0.12504741594E+03 0.  0.
         23    2    1    2    0    0 -0.67394823806E+01  0.33662665194E+02 -0.38732996719E+03  0.40025795295E+03  0.94885877584E+02 0.  0.
          5    1    3    3  502    0 -0.24089804827E+02 -0.64297226844E+02 -0.34504983033E+03  0.35184645442E+03  0.47000000000E+01 0. -1.
         -5    1    3    3    0  502  0.30829287208E+02  0.30634561651E+02 -0.65932293723E+02  0.79108019017E+02  0.47000000000E+01 0. -1.
        -11    1    4    4    0    0  0.42264746953E+02  0.20912535318E+02 -0.13788461366E+03  0.14572511676E+03  0.00000000000E+00 0.  1.
         11    1    4    4    0    0 -0.49004229334E+02  0.12750129876E+02 -0.24944535353E+03  0.25453283619E+03  0.00000000000E+00 0. -1.
<mgrwt>
<rscale>  0 0.12179219E+03</rscale>
<asrwt>0</asrwt>
<pdfrwt beam="2">  1        1 0.12534806E+00 0.12967441E+03</pdfrwt>
<pdfrwt beam="1">  1       -1 0.25307947E-02 0.12967441E+03</pdfrwt>
<totfact> 0.10397047E+04</totfact>
</mgrwt>
</event>
<event>
 8    1  0.1033707E-005  0.1516172E+03  0.7546771E-02  0.1206936E+00
         -1   -1    0    0    0  501 -0.00000000000E+00  0.00000000000E+00  0.67466397257E+02  0.67466397257E+02  0.00000000000E+00 0.  1.
          1   -1    0    0  501    0  0.00000000000E+00 -0.00000000000E+00 -0.56582852408E+03  0.56582852408E+03  0.00000000000E+00 0. -1.
         23    2    1    2    0    0  0.39809293948E+02 -0.75977423912E+02 -0.38549243089E+02  0.15644111095E+03  0.12502171101E+03 0.  0.
         23    2    1    2    0    0 -0.39809293948E+02  0.75977423912E+02 -0.45981288373E+03  0.47685381038E+03  0.92759471751E+02 0.  0.
          5    1    3    3  502    0  0.36205518291E+02  0.28886551364E+02 -0.10378880890E+02  0.47697836146E+02  0.47000000000E+01 0.  1.
         -5    1    3    3    0  502  0.36037756563E+01 -0.10486397528E+03 -0.28170362199E+02  0.10874327481E+03  0.47000000000E+01 0.  1.
        -11    1    4    4    0    0 -0.45075811548E+02 -0.24038434921E+01 -0.12359130240E+03  0.13157665933E+03  0.00000000000E+00 0. -1.
         11    1    4    4    0    0  0.52665176003E+01  0.78381267404E+02 -0.33622158133E+03  0.34527715105E+03  0.00000000000E+00 0.  1.
<mgrwt>
<rscale>  0 0.14485922E+03</rscale>
<asrwt>0</asrwt>
<pdfrwt beam="2">  1        1 0.87050548E-01 0.15161721E+03</pdfrwt>
<pdfrwt beam="1">  1       -1 0.10379445E-01 0.15161721E+03</pdfrwt>
<totfact> 0.21622643E+03</totfact>
</mgrwt>
</event>
<event>
 8    1  0.1033707E-005  0.1825693E+03  0.7546771E-02  0.1170634E+00
         -1   -1    0    0    0  501 -0.00000000000E+00  0.00000000000E+00  0.32751861802E+03  0.32751861802E+03  0.00000000000E+00 0.  1.
          1   -1    0    0  501    0  0.00000000000E+00 -0.00000000000E+00 -0.10496814854E+03  0.10496814854E+03  0.00000000000E+00 0. -1.
         23    2    1    2    0    0 -0.37866354905E+02 -0.12756005257E+03  0.19737046043E+03  0.26886176214E+03  0.12500448249E+03 0.  0.
         23    2    1    2    0    0  0.37866354905E+02  0.12756005257E+03  0.25180009052E+02  0.16362500443E+03  0.91835077032E+02 0.  0.
          5    1    3    3  502    0 -0.63061352994E+02 -0.13964379811E+03  0.15595319613E+03  0.21867924907E+03  0.47000000000E+01 0. -1.
         -5    1    3    3    0  502  0.25194998089E+02  0.12083745544E+02  0.41417264304E+02  0.50182513065E+02  0.47000000000E+01 0. -1.
        -11    1    4    4    0    0 -0.21570272726E+02  0.45200731549E+02 -0.18055532756E+02  0.53238943088E+02  0.00000000000E+00 0.  1.
         11    1    4    4    0    0  0.59436627631E+02  0.82359321018E+02  0.43235541808E+02  0.11038606134E+03  0.00000000000E+00 0. -1.
<mgrwt>
<rscale>  0 0.17710554E+03</rscale>
<asrwt>0</asrwt>
<pdfrwt beam="2">  1        1 0.16148946E-01 0.18256930E+03</pdfrwt>
<pdfrwt beam="1">  1       -1 0.50387479E-01 0.18256930E+03</pdfrwt>
<totfact> 0.13548674E+03</totfact>
</mgrwt>
</event>
<event>
 8    1  0.1033707E-005  0.1287869E+03  0.7546771E-02  0.1232172E+00
         -3   -1    0    0    0  501 -0.00000000000E+00  0.00000000000E+00  0.34870336343E+03  0.34870336343E+03  0.00000000000E+00 0.  1.
          3   -1    0    0  501    0  0.00000000000E+00 -0.00000000000E+00 -0.44988299056E+02  0.44988299056E+02  0.00000000000E+00 0. -1.
         23    2    1    2    0    0  0.26500389663E+02  0.15903782941E+02  0.16773215396E+03  0.21147135037E+03  0.12502342018E+03 0.  0.
         23    2    1    2    0    0 -0.26500389663E+02 -0.15903782941E+02  0.13598291042E+03  0.18222031211E+03  0.11729317652E+03 0.  0.
          5    1    3    3  502    0  0.15873506046E+02  0.23426256823E+02  0.18619725513E+03  0.18839391052E+03  0.47000000000E+01 0.  1.
         -5    1    3    3    0  502  0.10626883617E+02 -0.75224738824E+01 -0.18465101175E+02  0.23077439852E+02  0.47000000000E+01 0.  1.
        -11    1    4    4    0    0 -0.23958869213E+02  0.38775820564E+02  0.12677287521E+02  0.47310731269E+02  0.00000000000E+00 0. -1.
         11    1    4    4    0    0 -0.25415204497E+01 -0.54679603504E+02  0.12330562290E+03  0.13490958085E+03  0.00000000000E+00 0.  1.
<mgrwt>
<rscale>  0 0.12687204E+03</rscale>
<asrwt>0</asrwt>
<pdfrwt beam="2">  1        3 0.69212770E-02 0.12878686E+03</pdfrwt>
<pdfrwt beam="1">  1       -3 0.53646670E-01 0.12878686E+03</pdfrwt>
<totfact> 0.10699558E+03</totfact>
</mgrwt>
</event>
<event>
 7    1  0.1033707E-005  0.1552058E+03  0.7546771E-02  0.1210364E+00
          1   -1    0    0  501    0  0.00000000000E+00  0.00000000000E+00  0.26404852165E+03  0.26404852165E+03  0.00000000000E+00 0. -1.
         -1   -1    0    0    0  501 -0.00000000000E+00 -0.00000000000E+00 -0.87723858385E+02  0.87723858385E+02  0.00000000000E+00 0.  1.
         23    2    1    2    0    0 -0.15045447929E+02 -0.65030938878E+02  0.16254353707E+03  0.19595593986E+03  0.86734885755E+02 0.  0.
          5    1    1    2  502    0  0.51002206841E+02  0.77781616783E+02 -0.29727421551E+02  0.97759984677E+02  0.47000000000E+01 0. -1.
         -5    1    1    2    0  502 -0.35956758912E+02 -0.12750677905E+02  0.43508547743E+02  0.58056455500E+02  0.47000000000E+01 0.  1.
        -11    1    3    3    0    0 -0.46013993336E+02 -0.13176102959E+02  0.86340987907E+02  0.98720126949E+02  0.00000000000E+00 0.  1.
         11    1    3    3    0    0  0.30968545407E+02 -0.51854835919E+02  0.76202549162E+02  0.97235812907E+02  0.00000000000E+00 0. -1.
<mgrwt>
<rscale>  0 0.14222650E+03</rscale>
<asrwt>0</asrwt>
<pdfrwt beam="1">  1        1 0.40622849E-01 0.15520581E+03</pdfrwt>
<pdfrwt beam="2">  1       -1 0.13495978E-01 0.15520581E+03</pdfrwt>
<totfact> 0.38027049E+03</totfact>
</mgrwt>
</event>
<event>
 8    1  0.1033707E-005  0.1469197E+03  0.7546771E-02  0.1214774E+00
          2   -1    0    0  501    0  0.00000000000E+00  0.00000000000E+00  0.30885516837E+03  0.30885516837E+03  0.00000000000E+00 0. -1.
         -2   -1    0    0    0  501 -0.00000000000E+00 -0.00000000000E+00 -0.65056324240E+02  0.65056324240E+02  0.00000000000E+00 0.  1.
         23    2    1    2    0    0 -0.18596828757E+01  0.77180568914E+02  0.20080178166E+03  0.24881070758E+03  0.12500045620E+03 0.  0.
         23    2    1    2    0    0  0.18596828757E+01 -0.77180568914E+02  0.42997062463E+02  0.12510078502E+03  0.88550326905E+02 0.  0.
          5    1    3    3  502    0  0.43499318790E+02  0.25893834980E+02  0.16239292250E+03  0.17016530993E+03  0.47000000000E+01 0.  1.
         -5    1    3    3    0  502 -0.45359001666E+02  0.51286733933E+02  0.38408859162E+02  0.78645397652E+02  0.47000000000E+01 0.  1.
        -11    1    4    4    0    0  0.15067676233E+01 -0.97295516055E+02  0.37052087113E+02  0.10412273984E+03  0.00000000000E+00 0.  1.
         11    1    4    4    0    0  0.35291525246E+00  0.20114947141E+02  0.59449753503E+01  0.20978045180E+02  0.00000000000E+00 0. -1.
<mgrwt>
<rscale>  0 0.13893151E+03</rscale>
<asrwt>0</asrwt>
<pdfrwt beam="1">  1        2 0.47516179E-01 0.14691975E+03</pdfrwt>
<pdfrwt beam="2">  1       -2 0.10008665E-01 0.14691975E+03</pdfrwt>
<totfact> 0.67276977E+03</totfact>
</mgrwt>
</event>
<event>
 8    1  0.1033707E-005  0.1966963E+03  0.7546771E-02  0.1157041E+00
          1   -1    0    0  501    0  0.00000000000E+00  0.00000000000E+00  0.31531019710E+03  0.31531019710E+03  0.00000000000E+00 0. -1.
         -1   -1    0    0    0  501 -0.00000000000E+00 -0.00000000000E+00 -0.11403226809E+03  0.11403226809E+03  0.00000000000E+00 0.  1.
         23    2    1    2    0    0 -0.14968691435E+03  0.25644106794E+02  0.69351339631E+02  0.20856420013E+03  0.12500249889E+03 0.  0.
         23    2    1    2    0    0  0.14968691435E+03 -0.25644106794E+02  0.13192658938E+03  0.22077826506E+03  0.90964964655E+02 0.  0.
          5    1    3    3  502    0 -0.93488966072E+02  0.44801173899E+02 -0.15468191973E+02  0.10492228992E+03  0.47000000000E+01 0.  1.
         -5    1    3    3    0  502 -0.56197948275E+02 -0.19157067105E+02  0.84819531605E+02  0.10364191021E+03  0.47000000000E+01 0.  1.
        -11    1    4    4    0    0  0.17312128448E+02 -0.15682485284E+02 -0.10908193999E+02  0.25780590227E+02  0.00000000000E+00 0.  1.
         11    1    4    4    0    0  0.13237478590E+03 -0.99616215100E+01  0.14283478338E+03  0.19499767483E+03  0.00000000000E+00 0. -1.
<mgrwt>
<rscale>  0 0.19158288E+03</rscale>
<asrwt>0</asrwt>
<pdfrwt beam="1">  1        1 0.48509261E-01 0.19669626E+03</pdfrwt>
<pdfrwt beam="2">  1       -1 0.17543426E-01 0.19669626E+03</pdfrwt>
<totfact> 0.20320082E+03</totfact>
</mgrwt>
</event>
<event>
 8    1  0.1033707E-005  0.1265785E+03  0.7546771E-02  0.1247224E+00
          2   -1    0    0  501    0  0.00000000000E+00  0.00000000000E+00  0.85384843807E+02  0.85384843807E+02  0.00000000000E+00 0. -1.
         -2   -1    0    0    0  501 -0.00000000000E+00 -0.00000000000E+00 -0.14529868325E+03  0.14529868325E+03  0.00000000000E+00 0.  1.
         23    2    1    2    0    0  0.17095425549E+02 -0.10218701475E+02 -0.49903442695E+02  0.13606054988E+03  0.12500177681E+03 0.  0.
         23    2    1    2    0    0 -0.17095425549E+02  0.10218701475E+02 -0.10010396750E+02  0.94622977177E+02  0.91959906112E+02 0.  0.
          5    1    3    3  502    0  0.67290719371E+01  0.44619137566E+02  0.17321782263E+02  0.48562145619E+02  0.47000000000E+01 0.  1.
         -5    1    3    3    0  502  0.10366353612E+02 -0.54837839042E+02 -0.67225224958E+02  0.87498404263E+02  0.47000000000E+01 0.  1.
        -11    1    4    4    0    0  0.33264299642E+02 -0.10509285838E+02 -0.18531606216E+02  0.39501634757E+02  0.00000000000E+00 0. -1.
         11    1    4    4    0    0 -0.50359725191E+02  0.20727987314E+02  0.85212094656E+01  0.55121342420E+02  0.00000000000E+00 0.  1.
<mgrwt>
<rscale>  0 0.11753254E+03</rscale>
<asrwt>0</asrwt>
<pdfrwt beam="1">  1        2 0.13136130E-01 0.12657851E+03</pdfrwt>
<pdfrwt beam="2">  1       -2 0.22353644E-01 0.12657851E+03</pdfrwt>
<totfact> 0.74431657E+03</totfact>
</mgrwt>
</event>
<event>
 8    1  0.1033707E-005  0.2333354E+03  0.7546771E-02  0.1127327E+00
         -1   -1    0    0    0  501 -0.00000000000E+00  0.00000000000E+00  0.13395759121E+03  0.13395759121E+03  0.00000000000E+00 0.  1.
          1   -1    0    0  501    0  0.00000000000E+00 -0.00000000000E+00 -0.44977851708E+03  0.44977851708E+03  0.00000000000E+00 0. -1.
         23    2    1    2    0    0 -0.12230872244E+03 -0.15446823723E+03 -0.46132054003E+02  0.23785202617E+03  0.12500224018E+03 0.  0.
         23    2    1    2    0    0  0.12230872244E+03  0.15446823723E+03 -0.26968887186E+03  0.34588408211E+03  0.89910237206E+02 0.  0.
          5    1    3    3  502    0 -0.14576461468E+03 -0.12083614320E+03 -0.51395969284E+02  0.19624559118E+03  0.47000000000E+01 0.  1.
         -5    1    3    3    0  502  0.23455892238E+02 -0.33632094022E+02  0.52639152809E+01  0.41606434996E+02  0.47000000000E+01 0.  1.
        -11    1    4    4    0    0  0.25743204586E+02  0.46508559724E+01 -0.47802597411E+01  0.26593118035E+02  0.00000000000E+00 0.  1.
         11    1    4    4    0    0  0.96565517855E+02  0.14981738125E+03 -0.26490861212E+03  0.31929096408E+03  0.00000000000E+00 0. -1.
<mgrwt>
<rscale>  0 0.22902685E+03</rscale>
<asrwt>0</asrwt>
<pdfrwt beam="2">  1        1 0.69196696E-01 0.23333542E+03</pdfrwt>
<pdfrwt beam="1">  1       -1 0.20608860E-01 0.23333542E+03</pdfrwt>
<totfact> 0.99878826E+02</totfact>
</mgrwt>
</event>
<event>
 7    1  0.1033707E-005  0.1903170E+03  0.7546771E-02  0.1170010E+00
          1   -1    0    0  501    0  0.00000000000E+00  0.00000000000E+00  0.88747341796E+03  0.88747341796E+03  0.00000000000E+00 0. -1.
         -1   -1    0    0    0  501 -0.00000000000E+00 -0.00000000000E+00 -0.33893479325E+02  0.33893479325E+02  0.00000000000E+00 0.  1.
         23    2    1    2    0    0 -0.63187770713E+01 -0.11227950578E+03  0.49065622743E+03  0.51156916094E+03  0.91174878923E+02 0.  0.
          5    1    1    2  502    0 -0.69291980213E+02  0.55862968944E+02  0.12257250496E+03  0.15155249517E+03  0.47000000000E+01 0. -1.
         -5    1    1    2    0  502  0.75610757285E+02  0.56416536833E+02  0.24035120624E+03  0.25824524117E+03  0.47000000000E+01 0.  1.
        -11    1    3    3    0    0 -0.12302348545E+02 -0.28022041949E+02  0.28706345375E+02  0.41959943750E+02  0.00000000000E+00 0.  1.
         11    1    3    3    0    0  0.59835714732E+01 -0.84257463828E+02  0.46194988206E+03  0.46960921719E+03  0.00000000000E+00 0. -1.
<mgrwt>
<rscale>  0 0.17773819E+03</rscale>
<asrwt>0</asrwt>
<pdfrwt beam="1">  1        1 0.13653435E+00 0.19031701E+03</pdfrwt>
<pdfrwt beam="2">  1       -1 0.52143821E-02 0.19031701E+03</pdfrwt>
<totfact> 0.31982679E+03</totfact>
</mgrwt>
</event>
<event>
 8    1  0.1033707E-005  0.1519956E+03  0.7546771E-02  0.1207891E+00
         -2   -1    0    0    0  501 -0.00000000000E+00  0.00000000000E+00  0.24553333725E+02  0.24553333725E+02  0.00000000000E+00 0.  1.
          2   -1    0    0  501    0  0.00000000000E+00 -0.00000000000E+00 -0.78899490512E+03  0.78899490512E+03  0.00000000000E+00 0. -1.
         23    2    1    2    0    0 -0.16085707342E+02  0.84962596457E+02 -0.35761305897E+03  0.38857400026E+03  0.12500104383E+03 0.  0.
         23    2    1    2    0    0  0.16085707342E+02 -0.84962596457E+02 -0.40682851243E+03  0.42497423858E+03  0.87271256186E+02 0.  0.
          5    1    3    3  502    0 -0.10759289425E+02  0.11589486427E+03 -0.31173189829E+03  0.33278558906E+03  0.47000000000E+01 0. -1.
         -5    1    3    3    0  502 -0.53264179170E+01 -0.30932267811E+02 -0.45881160676E+02  0.55788411205E+02  0.47000000000E+01 0. -1.
        -11    1    4    4    0    0 -0.86576267911E+01 -0.76541652749E+02 -0.37918778137E+03  0.38693274952E+03  0.00000000000E+00 0. -1.
         11    1    4    4    0    0  0.24743334133E+02 -0.84209437083E+01 -0.27640731058E+02  0.38041489066E+02  0.00000000000E+00 0.  1.
<mgrwt>
<rscale>  0 0.14411943E+03</rscale>
<asrwt>0</asrwt>
<pdfrwt beam="2">  1        2 0.12138384E+00 0.15199557E+03</pdfrwt>
<pdfrwt beam="1">  1       -2 0.37774358E-02 0.15199557E+03</pdfrwt>
<totfact> 0.10449811E+04</totfact>
</mgrwt>
</event>
<event>
 8    1  0.1033707E-005  0.1330560E+03  0.7546771E-02  0.1235873E+00
          1   -1    0    0  501    0  0.00000000000E+00  0.00000000000E+00  0.27811609172E+02  0.27811609172E+02  0.00000000000E+00 0. -1.
         -1   -1    0    0    0  501 -0.00000000000E+00 -0.00000000000E+00 -0.61716141335E+03  0.61716141335E+03  0.00000000000E+00 0.  1.
         23    2    1    2    0    0  0.29120132628E+02 -0.35073475308E+02 -0.46765851144E+03  0.48621845769E+03  0.12500309787E+03 0.  0.
         23    2    1    2    0    0 -0.29120132628E+02  0.35073475308E+02 -0.12169129274E+03  0.15875456483E+03  0.91192709869E+02 0.  0.
          5    1    3    3  502    0  0.52441829290E+02 -0.55040380909E+02 -0.43312903718E+03  0.43977544479E+03  0.47000000000E+01 0. -1.
         -5    1    3    3    0  502 -0.23321696662E+02  0.19966905601E+02 -0.34529474263E+02  0.46443012901E+02  0.47000000000E+01 0. -1.
        -11    1    4    4    0    0 -0.12961528768E+02  0.34746143586E+02 -0.13361767548E+03  0.13866859386E+03  0.00000000000E+00 0.  1.
         11    1    4    4    0    0 -0.16158603860E+02  0.32733172173E+00  0.11926382742E+02  0.20085970977E+02  0.00000000000E+00 0. -1.
<mgrwt>
<rscale>  0 0.12448729E+03</rscale>
<asrwt>0</asrwt>
<pdfrwt beam="1">  1        1 0.42787090E-02 0.13305602E+03</pdfrwt>
<pdfrwt beam="2">  1       -1 0.94947911E-01 0.13305602E+03</pdfrwt>
<totfact> 0.22640945E+03</totfact>
</mgrwt>
</event>
<event>
 8    1  0.1033707E-005  0.1704311E+03  0.7546771E-02  0.1184239E+00
         -1   -1    0    0    0  501 -0.00000000000E+00  0.00000000000E+00  0.14706042184E+04  0.14706042184E+04  0.00000000000E+00 0.  1.
          1   -1    0    0  501    0  0.00000000000E+00 -0.00000000000E+00 -0.17695949862E+02  0.17695949862E+02  0.00000000000E+00 0. -1.
         23    2    1    2    0    0  0.64539087660E+02 -0.96204416332E+02  0.92287316793E+03  0.93847837307E+03  0.12500475622E+03 0.  0.
         23    2    1    2    0    0 -0.64539087660E+02  0.96204416332E+02  0.53003510065E+03  0.54982179523E+03  0.89141544942E+02 0.  0.
          5    1    3    3  502    0  0.22004369106E+00 -0.10241822432E+03  0.64883726999E+03  0.65688768753E+03  0.47000000000E+01 0. -1.
         -5    1    3    3    0  502  0.64319043969E+02  0.62138079883E+01  0.27403589794E+03  0.28159068554E+03  0.47000000000E+01 0. -1.
        -11    1    4    4    0    0 -0.39899000777E+02 -0.47996663884E+01  0.19197404136E+03  0.19613515650E+03  0.00000000000E+00 0.  1.
         11    1    4    4    0    0 -0.24640086883E+02  0.10100408272E+03  0.33806105929E+03  0.35368663873E+03  0.00000000000E+00 0. -1.
<mgrwt>
<rscale>  0 0.16401333E+03</rscale>
<asrwt>0</asrwt>
<pdfrwt beam="2">  1        1 0.27224550E-02 0.17043114E+03</pdfrwt>
<pdfrwt beam="1">  1       -1 0.22624671E+00 0.17043114E+03</pdfrwt>
<totfact> 0.43821422E+02</totfact>
</mgrwt>
</event>
<event>
 8    1  0.1033707E-005  0.1258425E+03  0.7546771E-02  0.1235864E+00
         -1   -1    0    0    0  501 -0.00000000000E+00  0.00000000000E+00  0.88512848629E+02  0.88512848629E+02  0.00000000000E+00 0.  1.
          1   -1    0    0  501    0  0.00000000000E+00 -0.00000000000E+00 -0.19939241484E+03  0.19939241484E+03  0.00000000000E+00 0. -1.
         23    2    1    2    0    0 -0.10417717444E+02 -0.10162763507E+02 -0.25827133519E+01  0.12586901146E+03  0.12499810814E+03 0.  0.
         23    2    1    2    0    0  0.10417717444E+02  0.10162763507E+02 -0.10829685286E+03  0.16203625201E+03  0.11964835154E+03 0.  0.
          5    1    3    3  502    0  0.21917890278E+02  0.49028004252E+02  0.15099581725E+02  0.55984162792E+02  0.47000000000E+01 0. -1.
         -5    1    3    3    0  502 -0.32335607722E+02 -0.59190767760E+02 -0.17682295077E+02  0.69884848672E+02  0.47000000000E+01 0. -1.
        -11    1    4    4    0    0  0.27613838651E+02 -0.47718855227E+02 -0.28782022334E+02  0.62193392244E+02  0.00000000000E+00 0.  1.
         11    1    4    4    0    0 -0.17196121207E+02  0.57881618734E+02 -0.79514830529E+02  0.99842859764E+02  0.00000000000E+00 0. -1.
<mgrwt>
<rscale>  0 0.12449289E+03</rscale>
<asrwt>0</asrwt>
<pdfrwt beam="2">  1        1 0.30675755E-01 0.12584251E+03</pdfrwt>
<pdfrwt beam="1">  1       -1 0.13617362E-01 0.12584251E+03</pdfrwt>
<totfact> 0.52498370E+03</totfact>
</mgrwt>
</event>
<event>
 8    1  0.1033707E-005  0.1405418E+03  0.7546771E-02  0.1223584E+00
          2   -1    0    0  501    0  0.00000000000E+00  0.00000000000E+00  0.21001157851E+03  0.21001157851E+03  0.00000000000E+00 0. -1.
         -2   -1    0    0    0  501 -0.00000000000E+00 -0.00000000000E+00 -0.75777359746E+02  0.75777359746E+02  0.00000000000E+00 0.  1.
         23    2    1    2    0    0  0.46258790967E+02  0.44581091493E+02  0.68577789412E+02  0.15638070257E+03  0.12499864589E+03 0.  0.
         23    2    1    2    0    0 -0.46258790967E+02 -0.44581091493E+02  0.65656429351E+02  0.12940823569E+03  0.91150289567E+02 0.  0.
          5    1    3    3  502    0  0.62564299571E+02 -0.22293253021E+02  0.54317084149E+02  0.85928553703E+02  0.47000000000E+01 0. -1.
         -5    1    3    3    0  502 -0.16305508604E+02  0.66874344515E+02  0.14260705263E+02  0.70452148865E+02  0.47000000000E+01 0. -1.
        -11    1    4    4    0    0  0.70881772622E+01 -0.18519756458E+02  0.67150212905E+02  0.70016960298E+02  0.00000000000E+00 0. -1.
         11    1    4    4    0    0 -0.53346968229E+02 -0.26061335036E+02 -0.14937835546E+01  0.59391275389E+02  0.00000000000E+00 0.  1.
<mgrwt>
<rscale>  0 0.13264416E+03</rscale>
<asrwt>0</asrwt>
<pdfrwt beam="1">  1        2 0.32309473E-01 0.14054185E+03</pdfrwt>
<pdfrwt beam="2">  1       -2 0.11658055E-01 0.14054185E+03</pdfrwt>
<totfact> 0.79515722E+03</totfact>
</mgrwt>
</event>
<event>
 7    1  0.1033707E-005  0.6876758E+03  0.7546771E-02  0.9738543E-01
          2   -1    0    0  501    0  0.00000000000E+00  0.00000000000E+00  0.84156756978E+03  0.84156756978E+03  0.00000000000E+00 0. -1.
         -2   -1    0    0    0  501 -0.00000000000E+00 -0.00000000000E+00 -0.14048130618E+03  0.14048130618E+03  0.00000000000E+00 0.  1.
         23    2    1    2    0    0 -0.14307271287E+03 -0.54392571760E+02 -0.19325223884E+02  0.19856055251E+03  0.12499790280E+03 0.  0.
          5    1    3    3  502    0 -0.20164510187E+02 -0.52665779370E+02 -0.45719405970E+02  0.72750572987E+02  0.47000000000E+01 0.  1.
         -5    1    3    3    0  502 -0.12290820268E+03 -0.17267923905E+01  0.26394182086E+02  0.12580997952E+03  0.47000000000E+01 0.  1.
        -11    1    1    2    0    0  0.32217691222E+02  0.13340883938E+03  0.54179806289E+03  0.55891058230E+03  0.00000000000E+00 0. -1.
         11    1    1    2    0    0  0.11085502165E+03 -0.79016267622E+02  0.17861342459E+03  0.22457774114E+03  0.00000000000E+00 0.  1.
<mgrwt>
<rscale>  0 0.68767583E+03</rscale>
<asrwt>0</asrwt>
<pdfrwt beam="1">  1        2 0.12947193E+00 0.68767583E+03</pdfrwt>
<pdfrwt beam="2">  1       -2 0.21612509E-01 0.68767583E+03</pdfrwt>
<totfact> 0.60238937E+02</totfact>
</mgrwt>
</event>
<event>
 8    1  0.1033707E-005  0.1320903E+03  0.7546771E-02  0.1234412E+00
          1   -1    0    0  501    0  0.00000000000E+00  0.00000000000E+00  0.23870832698E+03  0.23870832698E+03  0.00000000000E+00 0. -1.
         -1   -1    0    0    0  501 -0.00000000000E+00 -0.00000000000E+00 -0.75622483485E+02  0.75622483485E+02  0.00000000000E+00 0.  1.
         23    2    1    2    0    0 -0.56270123079E+02  0.18532444326E+02  0.17217929074E+02  0.13320779447E+03  0.11805965095E+03 0.  0.
         23    2    1    2    0    0  0.56270123079E+02 -0.18532444326E+02  0.14586791442E+03  0.18112301599E+03  0.89545073683E+02 0.  0.
          5    1    3    3  502    0 -0.74581009938E+02 -0.11478374985E+01  0.50476534035E+02  0.90186556994E+02  0.47000000000E+01 0. -1.
         -5    1    3    3    0  502  0.18310886859E+02  0.19680281824E+02 -0.33258604961E+02  0.43021237478E+02  0.47000000000E+01 0.  1.
        -11    1    4    4    0    0 -0.66366247083E+01 -0.33383947364E+02  0.88053618460E+02  0.94403243869E+02  0.00000000000E+00 0. -1.
         11    1    4    4    0    0  0.62906747787E+02  0.14851503039E+02  0.57814295959E+02  0.86719772122E+02  0.00000000000E+00 0.  1.
<mgrwt>
<rscale>  0 0.12542180E+03</rscale>
<asrwt>0</asrwt>
<pdfrwt beam="1">  1        1 0.36724358E-01 0.13209035E+03</pdfrwt>
<pdfrwt beam="2">  1       -1 0.11634228E-01 0.13209035E+03</pdfrwt>
<totfact> 0.53753741E+03</totfact>
</mgrwt>
</event>
<event>
 8    1  0.1033707E-005  0.1668651E+03  0.7546771E-02  0.1188178E+00
         -1   -1    0    0    0  501 -0.00000000000E+00  0.00000000000E+00  0.38625897447E+02  0.38625897447E+02  0.00000000000E+00 0.  1.
          1   -1    0    0  501    0  0.00000000000E+00 -0.00000000000E+00 -0.65192571120E+03  0.65192571120E+03  0.00000000000E+00 0. -1.
         23    2    1    2    0    0 -0.27566321600E+02  0.10708472640E+03 -0.25347252087E+03  0.30346708625E+03  0.12496764736E+03 0.  0.
         23    2    1    2    0    0  0.27566321600E+02 -0.10708472640E+03 -0.35982729288E+03  0.38708452240E+03  0.90175972732E+02 0.  0.
          5    1    3    3  502    0  0.24546506218E+02  0.11092180242E+03 -0.18594639826E+03  0.21795488121E+03  0.47000000000E+01 0. -1.
         -5    1    3    3    0  502 -0.52112827818E+02 -0.38370760197E+01 -0.67526122613E+02  0.85512205040E+02  0.47000000000E+01 0. -1.
        -11    1    4    4    0    0  0.40594135683E+02 -0.69499316272E+02 -0.12336011634E+03  0.14729479664E+03  0.00000000000E+00 0.  1.
         11    1    4    4    0    0 -0.13027814083E+02 -0.37585410130E+02 -0.23646717654E+03  0.23978972575E+03  0.00000000000E+00 0. -1.
<mgrwt>
<rscale>  0 0.16046044E+03</rscale>
<asrwt>0</asrwt>
<pdfrwt beam="2">  1        1 0.10029626E+00 0.16686508E+03</pdfrwt>
<pdfrwt beam="1">  1       -1 0.59424460E-02 0.16686508E+03</pdfrwt>
<totfact> 0.41536310E+03</totfact>
</mgrwt>
</event>
<event>
 8    1  0.1033707E-005  0.1375135E+03  0.7546771E-02  0.1228217E+00
          1   -1    0    0  501    0  0.00000000000E+00  0.00000000000E+00  0.43555934222E+02  0.43555934222E+02  0.00000000000E+00 0. -1.
         -1   -1    0    0    0  501 -0.00000000000E+00 -0.00000000000E+00 -0.37123938722E+03  0.37123938722E+03  0.00000000000E+00 0.  1.
         23    2    1    2    0    0 -0.91757422419E+01  0.56574445851E+02 -0.23553040772E+03  0.27273529381E+03  0.12500042143E+03 0.  0.
         23    2    1    2    0    0  0.91757422419E+01 -0.56574445851E+02 -0.92153045278E+02  0.14206002764E+03  0.91673363245E+02 0.  0.
          5    1    3    3  502    0  0.21615555292E+02  0.88223653081E+02 -0.17962362618E+03  0.20133897357E+03  0.47000000000E+01 0. -1.
         -5    1    3    3    0  502 -0.30791297534E+02 -0.31649207230E+02 -0.55906781535E+02  0.71396320239E+02  0.47000000000E+01 0. -1.
        -11    1    4    4    0    0 -0.87244733371E+01 -0.74934897883E+02 -0.43553593707E+02  0.87110681782E+02  0.00000000000E+00 0. -1.
         11    1    4    4    0    0  0.17900215579E+02  0.18360452032E+02 -0.48599451572E+02  0.54949345853E+02  0.00000000000E+00 0.  1.
<mgrwt>
<rscale>  0 0.12948832E+03</rscale>
<asrwt>0</asrwt>
<pdfrwt beam="1">  1        1 0.67009132E-02 0.13751352E+03</pdfrwt>
<pdfrwt beam="2">  1       -1 0.57113750E-01 0.13751352E+03</pdfrwt>
<totfact> 0.34108794E+03</totfact>
</mgrwt>
</event>
<event>
 8    1  0.1033707E-005  0.1292969E+03  0.7546771E-02  0.1242301E+00
         -1   -1    0    0    0  501 -0.00000000000E+00  0.00000000000E+00  0.32541949513E+03  0.32541949513E+03  0.00000000000E+00 0. -1.
          1   -1    0    0  501    0  0.00000000000E+00 -0.00000000000E+00 -0.41873778021E+02  0.41873778021E+02  0.00000000000E+00 0.  1.
         23    2    1    2    0    0 -0.25676907508E+02 -0.20843755513E+02  0.20375006024E+03  0.24131261339E+03  0.12499569836E+03 0.  0.
         23    2    1    2    0    0  0.25676907508E+02  0.20843755513E+02  0.79795656867E+02  0.12598065976E+03  0.91706128782E+02 0.  0.
          5    1    3    3  502    0  0.45906900451E+02  0.68474104508E+01  0.11369204995E+03  0.12289142672E+03  0.47000000000E+01 0. -1.
         -5    1    3    3    0  502 -0.71583807960E+02 -0.27691165964E+02  0.90058010291E+02  0.11842118667E+03  0.47000000000E+01 0. -1.
        -11    1    4    4    0    0 -0.25771889191E+02  0.29835272337E+02  0.56248477318E+02  0.68689336498E+02  0.00000000000E+00 0.  1.
         11    1    4    4    0    0  0.51448796700E+02 -0.89915168235E+01  0.23547179548E+02  0.57291323264E+02  0.00000000000E+00 0. -1.
<mgrwt>
<rscale>  0 0.12048366E+03</rscale>
<asrwt>0</asrwt>
<pdfrwt beam="2">  1        1 0.64421199E-02 0.12929691E+03</pdfrwt>
<pdfrwt beam="1">  1       -1 0.50064536E-01 0.12929691E+03</pdfrwt>
<totfact> 0.45726430E+03</totfact>
</mgrwt>
</event>
<event>
 8    1  0.1033707E-005  0.1324028E+03  0.7546771E-02  0.1238298E+00
          1   -1    0    0  501    0  0.00000000000E+00  0.00000000000E+00  0.49861124657E+02  0.49861124657E+02  0.00000000000E+00 0. -1.
         -1   -1    0    0    0  501 -0.00000000000E+00 -0.00000000000E+00 -0.53334880851E+03  0.53334880851E+03  0.00000000000E+00 0.  1.
         23    2    1    2    0    0 -0.31661900284E+02 -0.30043516199E+02 -0.46439978823E+03  0.48290543761E+03  0.12500163829E+03 0.  0.
         23    2    1    2    0    0  0.31661900284E+02  0.30043516199E+02 -0.19087895628E+02  0.10030449556E+03  0.88269786869E+02 0.  0.
          5    1    3    3  502    0 -0.13362531420E+02 -0.27954574704E+02 -0.46276710539E+03  0.46382701444E+03  0.47000000000E+01 0.  1.
         -5    1    3    3    0  502 -0.18299368864E+02 -0.20889414959E+01 -0.16326828328E+01  0.19078423170E+02  0.47000000000E+01 0.  1.
        -11    1    4    4    0    0  0.29265519688E+02  0.78946303866E+01 -0.52219457284E+02  0.60379363615E+02  0.00000000000E+00 0.  1.
         11    1    4    4    0    0  0.23963805959E+01  0.22148885813E+02  0.33131561656E+02  0.39925131940E+02  0.00000000000E+00 0. -1.
<mgrwt>
<rscale>  0 0.12295623E+03</rscale>
<asrwt>0</asrwt>
<pdfrwt beam="1">  1        1 0.76709424E-02 0.13240279E+03</pdfrwt>
<pdfrwt beam="2">  1       -1 0.82053662E-01 0.13240279E+03</pdfrwt>
<totfact> 0.13928951E+03</totfact>
</mgrwt>
</event>
<event>
 8    1  0.1033707E-005  0.1576372E+03  0.7546771E-02  0.1200173E+00
         -2   -1    0    0    0  501 -0.00000000000E+00  0.00000000000E+00  0.89954872330E+02  0.89954872330E+02  0.00000000000E+00 0.  1.
          2   -1    0    0  501    0  0.00000000000E+00 -0.00000000000E+00 -0.24775442351E+03  0.24775442351E+03  0.00000000000E+00 0. -1.
         23    2    1    2    0    0 -0.85144940731E+02 -0.44437491713E+02 -0.40991549627E+02  0.16287971194E+03  0.12500056728E+03 0.  0.
         23    2    1    2    0    0  0.85144940731E+02  0.44437491713E+02 -0.11680800155E+03  0.17482958390E+03  0.87732106880E+02 0.  0.
          5    1    3    3  502    0  0.10453425754E+02  0.29170320525E+02 -0.26924896936E+02  0.41318540446E+02  0.47000000000E+01 0. -1.
         -5    1    3    3    0  502 -0.95598366485E+02 -0.73607812239E+02 -0.14066652691E+02  0.12156117149E+03  0.47000000000E+01 0. -1.
        -11    1    4    4    0    0  0.73431221400E+02 -0.10259584729E+02 -0.66527112964E+02  0.99615561608E+02  0.00000000000E+00 0.  1.
         11    1    4    4    0    0  0.11713719331E+02  0.54697076443E+02 -0.50280888587E+02  0.75214022290E+02  0.00000000000E+00 0. -1.
<mgrwt>
<rscale>  0 0.15024437E+03</rscale>
<asrwt>0</asrwt>
<pdfrwt beam="2">  1        2 0.38116065E-01 0.15763722E+03</pdfrwt>
<pdfrwt beam="1">  1       -2 0.13839211E-01 0.15763722E+03</pdfrwt>
<totfact> 0.50894033E+03</totfact>
</mgrwt>
</event>
<event>
 8    1  0.1033707E-005  0.1274098E+03  0.7546771E-02  0.1242804E+00
          1   -1    0    0  501    0  0.00000000000E+00  0.00000000000E+00  0.15299594140E+03  0.15299594140E+03  0.00000000000E+00 0. -1.
         -1   -1    0    0    0  501 -0.00000000000E+00 -0.00000000000E+00 -0.90839042197E+02  0.90839042197E+02  0.00000000000E+00 0.  1.
         23    2    1    2    0    0 -0.24204223646E+02  0.47891339366E+01  0.41228744169E+01  0.12747644625E+03  0.12499786402E+03 0.  0.
         23    2    1    2    0    0  0.24204223646E+02 -0.47891339366E+01  0.58034024781E+02  0.11635853734E+03  0.97788449896E+02 0.  0.
          5    1    3    3  502    0  0.21599656967E+02 -0.26621825174E+02  0.46141276717E+02  0.57674727340E+02  0.47000000000E+01 0. -1.
         -5    1    3    3    0  502 -0.45803880613E+02  0.31410959110E+02 -0.42018402300E+02  0.69801718914E+02  0.47000000000E+01 0. -1.
        -11    1    4    4    0    0  0.17122549187E+02 -0.41234677805E+02 -0.31841456796E+01  0.44761804343E+02  0.00000000000E+00 0. -1.
         11    1    4    4    0    0  0.70816744588E+01  0.36445543868E+02  0.61218170461E+02  0.71596732995E+02  0.00000000000E+00 0.  1.
<mgrwt>
<rscale>  0 0.12017784E+03</rscale>
<asrwt>0</asrwt>
<pdfrwt beam="1">  1        1 0.23537837E-01 0.12740976E+03</pdfrwt>
<pdfrwt beam="2">  1       -1 0.13975237E-01 0.12740976E+03</pdfrwt>
<totfact> 0.70232273E+03</totfact>
</mgrwt>
</event>
<event>
 8    1  0.1033707E-005  0.1890176E+03  0.7546771E-02  0.1164136E+00
          1   -1    0    0  501    0  0.00000000000E+00  0.00000000000E+00  0.28287761650E+03  0.28287761650E+03  0.00000000000E+00 0. -1.
         -1   -1    0    0    0  501 -0.00000000000E+00 -0.00000000000E+00 -0.11338131957E+03  0.11338131957E+03  0.00000000000E+00 0.  1.
         23    2    1    2    0    0 -0.92355360683E+02 -0.10757983367E+03  0.87751689728E+02  0.20839384678E+03  0.12499881225E+03 0.  0.
         23    2    1    2    0    0  0.92355360683E+02  0.10757983367E+03  0.81744607196E+02  0.18786508929E+03  0.92239783766E+02 0.  0.
          5    1    3    3  502    0 -0.29510658260E+02 -0.80711836888E+02  0.10691805041E+03  0.13725465044E+03  0.47000000000E+01 0. -1.
         -5    1    3    3    0  502 -0.62844702423E+02 -0.26867996784E+02 -0.19166360677E+02  0.71139196337E+02  0.47000000000E+01 0. -1.
        -11    1    4    4    0    0  0.63792567272E+02  0.82593379813E+02  0.76784725895E+01  0.10464280658E+03  0.00000000000E+00 0.  1.
         11    1    4    4    0    0  0.28562793411E+02  0.24986453859E+02  0.74066134607E+02  0.83222282710E+02  0.00000000000E+00 0. -1.
<mgrwt>
<rscale>  0 0.18384145E+03</rscale>
<asrwt>0</asrwt>
<pdfrwt beam="1">  1        1 0.43519633E-01 0.18901756E+03</pdfrwt>
<pdfrwt beam="2">  1       -1 0.17443280E-01 0.18901756E+03</pdfrwt>
<totfact> 0.23462601E+03</totfact>
</mgrwt>
</event>
<event>
 7    1  0.1033707E-005  0.1919948E+03  0.7546771E-02  0.1163095E+00
         -3   -1    0    0    0  501 -0.00000000000E+00  0.00000000000E+00  0.23039644581E+03  0.23039644581E+03  0.00000000000E+00 0.  1.
          3   -1    0    0  501    0  0.00000000000E+00 -0.00000000000E+00 -0.17634525188E+03  0.17634525188E+03  0.00000000000E+00 0. -1.
         23    2    1    2    0    0  0.94079569902E+02  0.10056487676E+03 -0.68504613059E+02  0.17896561150E+03  0.91496164836E+02 0.  0.
          5    1    1    2  502    0  0.29649907287E+02 -0.27661555143E+02  0.31354316122E+01  0.40941416273E+02  0.47000000000E+01 0. -1.
         -5    1    1    2    0  502 -0.12372947719E+03 -0.72903321618E+02  0.11942037538E+03  0.18683466992E+03  0.47000000000E+01 0.  1.
        -11    1    3    3    0    0  0.63007388193E+02  0.56215832067E+02 -0.87481296494E+02  0.12158588725E+03  0.00000000000E+00 0. -1.
         11    1    3    3    0    0  0.31072181709E+02  0.44349044693E+02  0.18976683435E+02  0.57379724254E+02  0.00000000000E+00 0.  1.
<mgrwt>
<rscale>  0 0.18495184E+03</rscale>
<asrwt>0</asrwt>
<pdfrwt beam="2">  1        3 0.27130038E-01 0.19199484E+03</pdfrwt>
<pdfrwt beam="1">  1       -3 0.35445607E-01 0.19199484E+03</pdfrwt>
<totfact> 0.24649534E+02</totfact>
</mgrwt>
</event>
<event>
 8    1  0.1033707E-005  0.1439131E+03  0.7546771E-02  0.1218519E+00
          2   -1    0    0  501    0  0.00000000000E+00  0.00000000000E+00  0.60637086620E+02  0.60637086620E+02  0.00000000000E+00 0. -1.
         -2   -1    0    0    0  501 -0.00000000000E+00 -0.00000000000E+00 -0.33152932617E+03  0.33152932617E+03  0.00000000000E+00 0.  1.
         23    2    1    2    0    0  0.64774207048E+02  0.29809132068E+02 -0.22666921887E+03  0.26849563301E+03  0.12500675145E+03 0.  0.
         23    2    1    2    0    0 -0.64774207048E+02 -0.29809132068E+02 -0.44223020683E+02  0.12367077978E+03  0.90854300728E+02 0.  0.
          5    1    3    3  502    0  0.21909117579E+02 -0.49100068366E+02 -0.87110052219E+02  0.10247476443E+03  0.47000000000E+01 0. -1.
         -5    1    3    3    0  502  0.42865089469E+02  0.78909200434E+02 -0.13955916665E+03  0.16602086858E+03  0.47000000000E+01 0. -1.
        -11    1    4    4    0    0 -0.13817579558E+02 -0.21207029802E+02 -0.63622032685E+02  0.68472086728E+02  0.00000000000E+00 0.  1.
         11    1    4    4    0    0 -0.50956627490E+02 -0.86021022659E+01  0.19399012002E+02  0.55198693057E+02  0.00000000000E+00 0. -1.
<mgrwt>
<rscale>  0 0.13621179E+03</rscale>
<asrwt>0</asrwt>
<pdfrwt beam="1">  1        2 0.93287826E-02 0.14391306E+03</pdfrwt>
<pdfrwt beam="2">  1       -2 0.51004511E-01 0.14391306E+03</pdfrwt>
<totfact> 0.24916643E+03</totfact>
</mgrwt>
</event>
<event>
 8    1  0.1033707E-005  0.1854051E+03  0.7546771E-02  0.1167686E+00
          1   -1    0    0  501    0  0.00000000000E+00  0.00000000000E+00  0.47222059396E+03  0.47222059396E+03  0.00000000000E+00 0. -1.
         -1   -1    0    0    0  501 -0.00000000000E+00 -0.00000000000E+00 -0.70318019232E+02  0.70318019232E+02  0.00000000000E+00 0.  1.
         23    2    1    2    0    0  0.72108793949E+02 -0.11640835027E+03  0.13763218696E+03  0.23090619548E+03  0.12499788016E+03 0.  0.
         23    2    1    2    0    0 -0.72108793949E+02  0.11640835027E+03  0.26427038777E+03  0.31163241772E+03  0.92332788010E+02 0.  0.
          5    1    3    3  502    0  0.93600627879E+02 -0.34269319717E+02  0.83397437489E+02  0.13004878467E+03  0.47000000000E+01 0.  1.
         -5    1    3    3    0  502 -0.21491833930E+02 -0.82139030552E+02  0.54234749469E+02  0.10085741081E+03  0.47000000000E+01 0.  1.
        -11    1    4    4    0    0  0.12094560671E+02  0.62856490834E+01  0.48476902470E+00  0.13639016945E+02  0.00000000000E+00 0.  1.
         11    1    4    4    0    0 -0.84203354620E+02  0.11012270119E+03  0.26378561875E+03  0.29799340077E+03  0.00000000000E+00 0. -1.
<mgrwt>
<rscale>  0 0.18012073E+03</rscale>
<asrwt>0</asrwt>
<pdfrwt beam="1">  1        1 0.72649320E-01 0.18540510E+03</pdfrwt>
<pdfrwt beam="2">  1       -1 0.10818157E-01 0.18540510E+03</pdfrwt>
<totfact> 0.25923043E+03</totfact>
</mgrwt>
</event>
<event>
 8    1  0.1033707E-005  0.1321340E+03  0.7546771E-02  0.1236265E+00
         -1   -1    0    0    0  501 -0.00000000000E+00  0.00000000000E+00  0.26468010849E+02  0.26468010849E+02  0.00000000000E+00 0.  1.
          1   -1    0    0  501    0  0.00000000000E+00 -0.00000000000E+00 -0.57174110719E+03  0.57174110719E+03  0.00000000000E+00 0. -1.
         23    2    1    2    0    0 -0.42645999138E+02 -0.42761751240E+01 -0.21688455069E+03  0.25396514960E+03  0.12498968744E+03 0.  0.
         23    2    1    2    0    0  0.42645999138E+02  0.42761751240E+01 -0.32838854565E+03  0.34424396844E+03  0.93956936822E+02 0.  0.
          5    1    3    3  502    0  0.29299031349E+02  0.29409133236E+02 -0.31820119417E+02  0.52516096155E+02  0.47000000000E+01 0.  1.
         -5    1    3    3    0  502 -0.71945030487E+02 -0.33685308360E+02 -0.18506443128E+03  0.20144905345E+03  0.47000000000E+01 0.  1.
        -11    1    4    4    0    0  0.22956196012E+02 -0.42207407575E+02 -0.21204780183E+03  0.21742291151E+03  0.00000000000E+00 0. -1.
         11    1    4    4    0    0  0.19689803127E+02  0.46483582699E+02 -0.11634074383E+03  0.12682105693E+03  0.00000000000E+00 0.  1.
<mgrwt>
<rscale>  0 0.12423826E+03</rscale>
<asrwt>0</asrwt>
<pdfrwt beam="2">  1        1 0.87960169E-01 0.13213398E+03</pdfrwt>
<pdfrwt beam="1">  1       -1 0.40720018E-02 0.13213398E+03</pdfrwt>
<totfact> 0.86047484E+03</totfact>
</mgrwt>
</event>
<event>
 8    1  0.1033707E-005  0.1357024E+03  0.7546771E-02  0.1229171E+00
          1   -1    0    0  501    0  0.00000000000E+00  0.00000000000E+00  0.27666170167E+02  0.27666170167E+02  0.00000000000E+00 0. -1.
         -1   -1    0    0    0  501 -0.00000000000E+00 -0.00000000000E+00 -0.64041779997E+03  0.64041779997E+03  0.00000000000E+00 0.  1.
         23    2    1    2    0    0  0.29941968224E+02 -0.56721426657E+02 -0.46048066620E+03  0.48005998150E+03  0.11958804365E+03 0.  0.
         23    2    1    2    0    0 -0.29941968224E+02  0.56721426657E+02 -0.15227096360E+03  0.18802398864E+03  0.89737017143E+02 0.  0.
          5    1    3    3  502    0  0.34488887844E+02  0.25406850808E+02 -0.81120673858E+02  0.91856655610E+02  0.47000000000E+01 0. -1.
         -5    1    3    3    0  502 -0.45469196193E+01 -0.82128277465E+02 -0.37935999235E+03  0.38820332589E+03  0.47000000000E+01 0.  1.
        -11    1    4    4    0    0 -0.42679297609E+02  0.56835620837E+02 -0.15860174431E+03  0.17379966495E+03  0.00000000000E+00 0.  1.
         11    1    4    4    0    0  0.12737329385E+02 -0.11419417987E+00  0.63307807037E+01  0.14224323691E+02  0.00000000000E+00 0. -1.
<mgrwt>
<rscale>  0 0.12885067E+03</rscale>
<asrwt>0</asrwt>
<pdfrwt beam="1">  1        1 0.42563341E-02 0.13570240E+03</pdfrwt>
<pdfrwt beam="2">  1       -1 0.98525811E-01 0.13570240E+03</pdfrwt>
<totfact> 0.21064607E+03</totfact>
</mgrwt>
</event>
<event>
 8    1  0.1033707E-005  0.1697502E+03  0.7546771E-02  0.1184516E+00
         -1   -1    0    0    0  501 -0.00000000000E+00  0.00000000000E+00  0.26232396767E+02  0.26232396767E+02  0.00000000000E+00 0.  1.
          1   -1    0    0  501    0  0.00000000000E+00 -0.00000000000E+00 -0.95674780885E+03  0.95674780885E+03  0.00000000000E+00 0. -1.
         23    2    1    2    0    0  0.32421195379E+02 -0.11001207386E+03 -0.50876106180E+03  0.53633286500E+03  0.12514525067E+03 0.  0.
         23    2    1    2    0    0 -0.32421195379E+02  0.11001207386E+03 -0.42175435028E+03  0.44664734062E+03  0.91996329253E+02 0.  0.
          5    1    3    3  502    0  0.54459408299E+02 -0.44095739127E+02 -0.10318553568E+03  0.12481829247E+03  0.47000000000E+01 0. -1.
         -5    1    3    3    0  502 -0.22038212920E+02 -0.65916334737E+02 -0.40557552613E+03  0.41151457253E+03  0.47000000000E+01 0. -1.
        -11    1    4    4    0    0 -0.51577245511E+02  0.11422101543E+03 -0.38641231200E+03  0.40622792554E+03  0.00000000000E+00 0. -1.
         11    1    4    4    0    0  0.19156050132E+02 -0.42089415671E+01 -0.35342038279E+02  0.40419415081E+02  0.00000000000E+00 0.  1.
<mgrwt>
<rscale>  0 0.16375984E+03</rscale>
<asrwt>0</asrwt>
<pdfrwt beam="2">  1        1 0.14719196E+00 0.16975018E+03</pdfrwt>
<pdfrwt beam="1">  1       -1 0.40357535E-02 0.16975018E+03</pdfrwt>
<totfact> 0.41268570E+03</totfact>
</mgrwt>
</event>
<event>
 8    1  0.1033707E-005  0.2118189E+03  0.7546771E-02  0.1142141E+00
          1   -1    0    0  501    0  0.00000000000E+00  0.00000000000E+00  0.38326044725E+03  0.38326044725E+03  0.00000000000E+00 0. -1.
         -1   -1    0    0    0  501 -0.00000000000E+00 -0.00000000000E+00 -0.13459822254E+03  0.13459822254E+03  0.00000000000E+00 0.  1.
         23    2    1    2    0    0 -0.68079289086E+02  0.16717169451E+03  0.19838381545E+02  0.21274584179E+03  0.11084253140E+03 0.  0.
         23    2    1    2    0    0  0.68079289086E+02 -0.16717169451E+03  0.22882384316E+03  0.30511282799E+03  0.90290207427E+02 0.  0.
          5    1    3    3  502    0 -0.71941504694E+00  0.12263823469E+03  0.40538848275E+02  0.12925224325E+03  0.47000000000E+01 0. -1.
         -5    1    3    3    0  502 -0.67359874039E+02  0.44533459825E+02 -0.20700466730E+02  0.83493598541E+02  0.47000000000E+01 0.  1.
        -11    1    4    4    0    0  0.58480992509E+02 -0.66402540154E+02  0.15958182236E+03  0.18247104388E+03  0.00000000000E+00 0. -1.
         11    1    4    4    0    0  0.95982965767E+01 -0.10076915436E+03  0.69242020799E+02  0.12264178412E+03  0.00000000000E+00 0.  1.
<mgrwt>
<rscale>  0 0.20927504E+03</rscale>
<asrwt>0</asrwt>
<pdfrwt beam="1">  1        1 0.58963145E-01 0.21181887E+03</pdfrwt>
<pdfrwt beam="2">  1       -1 0.20707419E-01 0.21181887E+03</pdfrwt>
<totfact> 0.12167308E+03</totfact>
</mgrwt>
</event>
<event>
 8    1  0.1033707E-005  0.2524688E+03  0.7546771E-02  0.1114192E+00
         -1   -1    0    0    0  501 -0.00000000000E+00  0.00000000000E+00  0.26827535788E+03  0.26827535788E+03  0.00000000000E+00 0.  1.
          1   -1    0    0  501    0  0.00000000000E+00 -0.00000000000E+00 -0.22438566640E+03  0.22438566640E+03  0.00000000000E+00 0. -1.
         23    2    1    2    0    0 -0.21877163626E+03 -0.15899675464E+02  0.78548386439E+01  0.25259092253E+03  0.12500658840E+03 0.  0.
         23    2    1    2    0    0  0.21877163626E+03  0.15899675464E+02  0.36034852829E+02  0.24007010175E+03  0.90671465315E+02 0.  0.
          5    1    3    3  502    0 -0.17451625988E+03 -0.39937554918E+02  0.50890005587E+02  0.18617952606E+03  0.47000000000E+01 0. -1.
         -5    1    3    3    0  502 -0.44255376383E+02  0.24037879454E+02 -0.43035166943E+02  0.66411396471E+02  0.47000000000E+01 0. -1.
        -11    1    4    4    0    0  0.97635409238E+02 -0.33918142606E+02  0.34876730474E+02  0.10908482875E+03  0.00000000000E+00 0. -1.
         11    1    4    4    0    0  0.12113622703E+03  0.49817818070E+02  0.11581223546E+01  0.13098527300E+03  0.00000000000E+00 0.  1.
<mgrwt>
<rscale>  0 0.24860117E+03</rscale>
<asrwt>0</asrwt>
<pdfrwt beam="2">  1        1 0.34520872E-01 0.25246876E+03</pdfrwt>
<pdfrwt beam="1">  1       -1 0.41273132E-01 0.25246876E+03</pdfrwt>
<totfact> 0.74101030E+02</totfact>
</mgrwt>
</event>
<event>
 8    1  0.1033707E-005  0.1447738E+03  0.7546771E-02  0.1218025E+00
         -1   -1    0    0    0  501 -0.00000000000E+00  0.00000000000E+00  0.36237379911E+03  0.36237379911E+03  0.00000000000E+00 0.  1.
          1   -1    0    0  501    0  0.00000000000E+00 -0.00000000000E+00 -0.48189497712E+02  0.48189497712E+02  0.00000000000E+00 0. -1.
         23    2    1    2    0    0  0.23187344417E+02  0.69280267179E+02  0.21371608253E+03  0.25813568228E+03  0.12498823212E+03 0.  0.
         23    2    1    2    0    0 -0.23187344417E+02 -0.69280267179E+02  0.10046821887E+03  0.15242761455E+03  0.88334060887E+02 0.  0.
          5    1    3    3  502    0  0.36614922840E+02 -0.28052793643E+02  0.65594227912E+02  0.80326238186E+02  0.47000000000E+01 0. -1.
         -5    1    3    3    0  502 -0.13427578423E+02  0.97333060822E+02  0.14812185462E+03  0.17780944409E+03  0.47000000000E+01 0. -1.
        -11    1    4    4    0    0 -0.33115868201E+02 -0.81419946536E+02  0.53472588636E+02  0.10288433387E+03  0.00000000000E+00 0. -1.
         11    1    4    4    0    0  0.99285237841E+01  0.12139679356E+02  0.46995630231E+02  0.49543280677E+02  0.00000000000E+00 0.  1.
<mgrwt>
<rscale>  0 0.13656623E+03</rscale>
<asrwt>0</asrwt>
<pdfrwt beam="2">  1        1 0.74137691E-02 0.14477385E+03</pdfrwt>
<pdfrwt beam="1">  1       -1 0.55749814E-01 0.14477385E+03</pdfrwt>
<totfact> 0.31223607E+03</totfact>
</mgrwt>
</event>
<event>
 8    1  0.1033707E-005  0.1696350E+03  0.7546771E-02  0.1184963E+00
          2   -1    0    0  501    0  0.00000000000E+00  0.00000000000E+00  0.19418782441E+03  0.19418782441E+03  0.00000000000E+00 0. -1.
         -2   -1    0    0    0  501 -0.00000000000E+00 -0.00000000000E+00 -0.12967774745E+03  0.12967774745E+03  0.00000000000E+00 0.  1.
         23    2    1    2    0    0  0.31056471865E+02  0.11039696968E+03  0.17137662103E+02  0.17049849106E+03  0.12499616247E+03 0.  0.
         23    2    1    2    0    0 -0.31056471865E+02 -0.11039696968E+03  0.47372414863E+02  0.15336708080E+03  0.90140559253E+02 0.  0.
          5    1    3    3  502    0 -0.14966056857E+02 -0.18743505422E+02  0.22494408855E+02  0.33217319023E+02  0.47000000000E+01 0. -1.
         -5    1    3    3    0  502  0.46022528722E+02  0.12914047511E+03 -0.53567467521E+01  0.13728117204E+03  0.47000000000E+01 0. -1.
        -11    1    4    4    0    0  0.25176656075E+02 -0.57912091762E+02  0.22822501291E+00  0.63148447883E+02  0.00000000000E+00 0.  1.
         11    1    4    4    0    0 -0.56233127940E+02 -0.52484877923E+02  0.47144189850E+02  0.90218632915E+02  0.00000000000E+00 0. -1.
<mgrwt>
<rscale>  0 0.16335266E+03</rscale>
<asrwt>0</asrwt>
<pdfrwt beam="1">  1        2 0.29875050E-01 0.16963501E+03</pdfrwt>
<pdfrwt beam="2">  1       -2 0.19950423E-01 0.16963501E+03</pdfrwt>
<totfact> 0.36205689E+03</totfact>
</mgrwt>
</event>
<event>
 8    1  0.1033707E-005  0.1400085E+03  0.7546771E-02  0.1224126E+00
          2   -1    0    0  501    0  0.00000000000E+00  0.00000000000E+00  0.67560936696E+03  0.67560936696E+03  0.00000000000E+00 0. -1.
         -2   -1    0    0    0  501 -0.00000000000E+00 -0.00000000000E+00 -0.23550884540E+02  0.23550884540E+02  0.00000000000E+00 0.  1.
         23    2    1    2    0    0  0.61669111898E+02 -0.13103964491E+02  0.33609271944E+03  0.36408885307E+03  0.12501033404E+03 0.  0.
         23    2    1    2    0    0 -0.61669111898E+02  0.13103964491E+02  0.31596576298E+03  0.33507139843E+03  0.91998290344E+02 0.  0.
          5    1    3    3  502    0  0.69489333600E+02 -0.12355747862E+02  0.75960371248E+02  0.10379547191E+03  0.47000000000E+01 0. -1.
         -5    1    3    3    0  502 -0.78202217021E+01 -0.74821662878E+00  0.26013234819E+03  0.26029338115E+03  0.47000000000E+01 0. -1.
        -11    1    4    4    0    0 -0.22566965669E+02 -0.37977033613E+02  0.92106355040E+02  0.10215235514E+03  0.00000000000E+00 0. -1.
         11    1    4    4    0    0 -0.39102146228E+02  0.51080998105E+02  0.22385940794E+03  0.23291904329E+03  0.00000000000E+00 0.  1.
<mgrwt>
<rscale>  0 0.13227010E+03</rscale>
<asrwt>0</asrwt>
<pdfrwt beam="1">  1        2 0.10393989E+00 0.14000849E+03</pdfrwt>
<pdfrwt beam="2">  1       -2 0.36232135E-02 0.14000849E+03</pdfrwt>
<totfact> 0.13336505E+04</totfact>
</mgrwt>
</event>
<event>
 7    1  0.1033707E-005  0.1680060E+03  0.7546771E-02  0.1194085E+00
         -4   -1    0    0    0  501 -0.00000000000E+00  0.00000000000E+00  0.59462877068E+03  0.59462877068E+03  0.00000000000E+00 0.  1.
          4   -1    0    0  501    0  0.00000000000E+00 -0.00000000000E+00 -0.83599183127E+02  0.83599183127E+02  0.00000000000E+00 0. -1.
         23    2    1    2    0    0 -0.63988080207E+02 -0.48428951340E+02 -0.17200937644E+02  0.12392342301E+03  0.92850981573E+02 0.  0.
          5    1    1    2  502    0 -0.34554355946E+02  0.56105652405E+02  0.16225212254E+03  0.17518472826E+03  0.47000000000E+01 0. -1.
         -5    1    1    2    0  502  0.98542436152E+02 -0.76767010650E+01  0.36597840267E+03  0.37911980254E+03  0.47000000000E+01 0.  1.
        -11    1    3    3    0    0  0.93322920110E+01 -0.20210274896E+02  0.26030536795E+02  0.34251069055E+02  0.00000000000E+00 0.  1.
         11    1    3    3    0    0 -0.73320372218E+02 -0.28218676444E+02 -0.43231474439E+02  0.89672353959E+02  0.00000000000E+00 0. -1.
<mgrwt>
<rscale>  0 0.15531947E+03</rscale>
<asrwt>0</asrwt>
<pdfrwt beam="2">  1        4 0.12861413E-01 0.16800603E+03</pdfrwt>
<pdfrwt beam="1">  1       -4 0.91481347E-01 0.16800603E+03</pdfrwt>
<totfact> 0.89821926E+01</totfact>
</mgrwt>
</event>
<event>
 8    1  0.1033707E-005  0.1619668E+03  0.7546771E-02  0.1193339E+00
          1   -1    0    0  501    0  0.00000000000E+00  0.00000000000E+00  0.55506382556E+03  0.55506382556E+03  0.00000000000E+00 0. -1.
         -1   -1    0    0    0  501 -0.00000000000E+00 -0.00000000000E+00 -0.47389279923E+02  0.47389279923E+02  0.00000000000E+00 0.  1.
         23    2    1    2    0    0 -0.17592735703E+02  0.10149812441E+03  0.15882369650E+03  0.22684404296E+03  0.12498751797E+03 0.  0.
         23    2    1    2    0    0  0.17592735703E+02 -0.10149812441E+03  0.34885084913E+03  0.37560906252E+03  0.93668987919E+02 0.  0.
          5    1    3    3  502    0  0.10508193007E+02 -0.13698336255E+02 -0.99914413378E+01  0.20493546214E+02  0.47000000000E+01 0. -1.
         -5    1    3    3    0  502 -0.28100928710E+02  0.11519646066E+03  0.16881513784E+03  0.20635049675E+03  0.47000000000E+01 0. -1.
        -11    1    4    4    0    0 -0.21954972796E+02  0.64365463345E+01  0.40310159682E+02  0.46350393016E+02  0.00000000000E+00 0.  1.
         11    1    4    4    0    0  0.39547708499E+02 -0.10793467074E+03  0.30854068945E+03  0.32925866950E+03  0.00000000000E+00 0. -1.
<mgrwt>
<rscale>  0 0.15595650E+03</rscale>
<asrwt>0</asrwt>
<pdfrwt beam="1">  1        1 0.85394430E-01 0.16196683E+03</pdfrwt>
<pdfrwt beam="2">  1       -1 0.72906589E-02 0.16196683E+03</pdfrwt>
<totfact> 0.38051707E+03</totfact>
</mgrwt>
</event>
<event>
 8    1  0.1033707E-005  0.1490173E+03  0.7546771E-02  0.1211013E+00
         -2   -1    0    0    0  501 -0.00000000000E+00  0.00000000000E+00  0.61486577673E+02  0.61486577673E+02  0.00000000000E+00 0.  1.
          2   -1    0    0  501    0  0.00000000000E+00 -0.00000000000E+00 -0.32074253377E+03  0.32074253377E+03  0.00000000000E+00 0. -1.
         23    2    1    2    0    0  0.83689022942E+01  0.80694639895E+02 -0.19172078196E+03  0.24282303127E+03  0.12499801136E+03 0.  0.
         23    2    1    2    0    0 -0.83689022942E+01 -0.80694639895E+02 -0.67535174135E+02  0.13940608017E+03  0.91057081055E+02 0.  0.
          5    1    3    3  502    0 -0.11624731849E+01 -0.24558797791E+02 -0.99117178634E+02  0.10222911030E+03  0.47000000000E+01 0.  1.
         -5    1    3    3    0  502  0.95313754791E+01  0.10525343769E+03 -0.92603603326E+02  0.14059392096E+03  0.47000000000E+01 0.  1.
        -11    1    4    4    0    0 -0.19831409180E+02  0.15315788832E+02 -0.10690630925E+02  0.27242389161E+02  0.00000000000E+00 0. -1.
         11    1    4    4    0    0  0.11462506886E+02 -0.96010428728E+02 -0.56844543210E+02  0.11216369101E+03  0.00000000000E+00 0.  1.
<mgrwt>
<rscale>  0 0.14173517E+03</rscale>
<asrwt>0</asrwt>
<pdfrwt beam="2">  1        2 0.49345004E-01 0.14901734E+03</pdfrwt>
<pdfrwt beam="1">  1       -2 0.94594737E-02 0.14901734E+03</pdfrwt>
<totfact> 0.70685606E+03</totfact>
</mgrwt>
</event>
<event>
 8    1  0.1033707E-005  0.1938197E+03  0.7546771E-02  0.1159765E+00
         -1   -1    0    0    0  501 -0.00000000000E+00  0.00000000000E+00  0.13019802593E+03  0.13019802593E+03  0.00000000000E+00 0.  1.
          1   -1    0    0  501    0  0.00000000000E+00 -0.00000000000E+00 -0.44531925150E+03  0.44531925150E+03  0.00000000000E+00 0. -1.
         23    2    1    2    0    0 -0.14407953451E+03 -0.34389813141E+02  0.23240359325E+02  0.19520802907E+03  0.12499795518E+03 0.  0.
         23    2    1    2    0    0  0.14407953451E+03  0.34389813141E+02 -0.33836158490E+03  0.38030924836E+03  0.90581403918E+02 0.  0.
          5    1    3    3  502    0 -0.11139141409E+03 -0.61151598469E+02  0.58509264338E+02  0.13997495898E+03  0.47000000000E+01 0.  1.
         -5    1    3    3    0  502 -0.32688120418E+02  0.26761785329E+02 -0.35268905013E+02  0.55233070087E+02  0.47000000000E+01 0.  1.
        -11    1    4    4    0    0  0.15486526073E+03  0.20817004979E+02 -0.30229218243E+03  0.34028981800E+03  0.00000000000E+00 0.  1.
         11    1    4    4    0    0 -0.10785726216E+02  0.13572808162E+02 -0.36069402471E+02  0.40019430356E+02  0.00000000000E+00 0. -1.
<mgrwt>
<rscale>  0 0.18856153E+03</rscale>
<asrwt>0</asrwt>
<pdfrwt beam="2">  1        1 0.68510654E-01 0.19381966E+03</pdfrwt>
<pdfrwt beam="1">  1       -1 0.20030466E-01 0.19381966E+03</pdfrwt>
<totfact> 0.10583570E+03</totfact>
</mgrwt>
</event>
<event>
 7    1  0.1033707E-005  0.1650560E+03  0.7546771E-02  0.1198515E+00
          1   -1    0    0  501    0  0.00000000000E+00  0.00000000000E+00  0.81151636043E+02  0.81151636043E+02  0.00000000000E+00 0. -1.
         -1   -1    0    0    0  501 -0.00000000000E+00 -0.00000000000E+00 -0.25766110364E+03  0.25766110364E+03  0.00000000000E+00 0.  1.
         23    2    1    2    0    0  0.72482184477E+02 -0.17002113548E+02 -0.38391622396E+02  0.12359186941E+03  0.90875159319E+02 0.  0.
          5    1    1    2  502    0  0.11267150278E+01 -0.19797566324E+02  0.25122855557E+02  0.32349049297E+02  0.47000000000E+01 0. -1.
         -5    1    1    2    0  502 -0.73608899505E+02  0.36799679872E+02 -0.16324070076E+03  0.18287182099E+03  0.47000000000E+01 0.  1.
        -11    1    3    3    0    0 -0.13204058140E+02  0.16392710519E+02 -0.21502061861E+02  0.30089977963E+02  0.00000000000E+00 0.  1.
         11    1    3    3    0    0  0.85686242617E+02 -0.33394824067E+02 -0.16889560535E+02  0.93501891442E+02  0.00000000000E+00 0. -1.
<mgrwt>
<rscale>  0 0.15160462E+03</rscale>
<asrwt>0</asrwt>
<pdfrwt beam="1">  1        1 0.12484867E-01 0.16505600E+03</pdfrwt>
<pdfrwt beam="2">  1       -1 0.39640170E-01 0.16505600E+03</pdfrwt>
<totfact> 0.29099689E+03</totfact>
</mgrwt>
</event>
<event>
 7    1  0.1033707E-005  0.2065156E+03  0.7546771E-02  0.1173301E+00
          3   -1    0    0  501    0  0.00000000000E+00  0.00000000000E+00  0.30471032965E+03  0.30471032965E+03  0.00000000000E+00 0. -1.
         -3   -1    0    0    0  501 -0.00000000000E+00 -0.00000000000E+00 -0.10869206062E+03  0.10869206062E+03  0.00000000000E+00 0.  1.
         23    2    1    2    0    0  0.70559638135E+01  0.54054346468E+02  0.17719894662E+03  0.20603111564E+03  0.89875997532E+02 0.  0.
          5    1    1    2  502    0 -0.26171573810E+02 -0.23124118629E+02  0.10658308142E+03  0.11225738009E+03  0.47000000000E+01 0. -1.
         -5    1    1    2    0  502  0.19115609996E+02 -0.30930227839E+02 -0.87763759013E+02  0.95113894547E+02  0.47000000000E+01 0.  1.
        -11    1    3    3    0    0  0.36481884857E+02 -0.30115068627E+01  0.94441365772E+02  0.10128755434E+03  0.00000000000E+00 0.  1.
         11    1    3    3    0    0 -0.29425921043E+02  0.57065853330E+02  0.82757580846E+02  0.10474356130E+03  0.00000000000E+00 0. -1.
<mgrwt>
<rscale>  0 0.17443423E+03</rscale>
<asrwt>0</asrwt>
<pdfrwt beam="1">  1        3 0.46878512E-01 0.20651557E+03</pdfrwt>
<pdfrwt beam="2">  1       -3 0.16721856E-01 0.20651557E+03</pdfrwt>
<totfact> 0.34264895E+02</totfact>
</mgrwt>
</event>
<event>
 8    1  0.1033707E-005  0.1912665E+03  0.7546771E-02  0.1161951E+00
         -2   -1    0    0    0  501 -0.00000000000E+00  0.00000000000E+00  0.97355982446E+02  0.97355982446E+02  0.00000000000E+00 0.  1.
          2   -1    0    0  501    0  0.00000000000E+00 -0.00000000000E+00 -0.34563619788E+03  0.34563619788E+03  0.00000000000E+00 0. -1.
         23    2    1    2    0    0  0.11367877004E+03 -0.89646883597E+02 -0.98574031322E+02  0.21517369891E+03  0.12499381807E+03 0.  0.
         23    2    1    2    0    0 -0.11367877004E+03  0.89646883597E+02 -0.14970618411E+03  0.22781848142E+03  0.92357416687E+02 0.  0.
          5    1    3    3  502    0  0.10165890594E+03 -0.10267584578E+02 -0.23050179447E+02  0.10484921184E+03  0.47000000000E+01 0. -1.
         -5    1    3    3    0  502  0.12019864099E+02 -0.79379299019E+02 -0.75523851875E+02  0.11032448707E+03  0.47000000000E+01 0. -1.
        -11    1    4    4    0    0 -0.83568135251E+02  0.11498751111E+02 -0.98379700591E+02  0.12959328684E+03  0.00000000000E+00 0.  1.
         11    1    4    4    0    0 -0.30110634789E+02  0.78148132486E+02 -0.51326483524E+02  0.98225194576E+02  0.00000000000E+00 0. -1.
<mgrwt>
<rscale>  0 0.18618184E+03</rscale>
<asrwt>0</asrwt>
<pdfrwt beam="2">  1        2 0.53174799E-01 0.19126652E+03</pdfrwt>
<pdfrwt beam="1">  1       -2 0.14977844E-01 0.19126652E+03</pdfrwt>
<totfact> 0.31611270E+03</totfact>
</mgrwt>
</event>
<event>
 8    1  0.1033707E-005  0.1329727E+03  0.7546771E-02  0.1244302E+00
         -2   -1    0    0    0  501 -0.00000000000E+00  0.00000000000E+00  0.80054310802E+03  0.80054310802E+03  0.00000000000E+00 0.  1.
          2   -1    0    0  501    0  0.00000000000E+00 -0.00000000000E+00 -0.16150715690E+02  0.16150715690E+02  0.00000000000E+00 0. -1.
         23    2    1    2    0    0 -0.34078166424E+02 -0.29911423864E+02  0.57749587829E+03  0.59260713421E+03  0.12500284543E+03 0.  0.
         23    2    1    2    0    0  0.34078166424E+02  0.29911423864E+02  0.20689651404E+03  0.22408668950E+03  0.73161890255E+02 0.  0.
          5    1    3    3  502    0 -0.14810434826E+01 -0.39983726207E+02  0.51028778410E+02  0.65014752766E+02  0.47000000000E+01 0. -1.
         -5    1    3    3    0  502 -0.32597122942E+02  0.10072302342E+02  0.52646709988E+03  0.52759238145E+03  0.47000000000E+01 0. -1.
        -11    1    4    4    0    0  0.37366636974E+01  0.40305934124E+02  0.17196328067E+03  0.17666324145E+03  0.00000000000E+00 0.  1.
         11    1    4    4    0    0  0.30341502727E+02 -0.10394510259E+02  0.34933233363E+02  0.47423448045E+02  0.00000000000E+00 0. -1.
<mgrwt>
<rscale>  0 0.11927223E+03</rscale>
<asrwt>0</asrwt>
<pdfrwt beam="2">  1        2 0.24847261E-02 0.13297265E+03</pdfrwt>
<pdfrwt beam="1">  1       -2 0.12316045E+00 0.13297265E+03</pdfrwt>
<totfact> 0.20217681E+03</totfact>
</mgrwt>
</event>
<event>
 8    1  0.1033707E-005  0.1555272E+03  0.7546771E-02  0.1202046E+00
         -2   -1    0    0    0  501 -0.00000000000E+00  0.00000000000E+00  0.11246254585E+03  0.11246254585E+03  0.00000000000E+00 0.  1.
          2   -1    0    0  501    0  0.00000000000E+00 -0.00000000000E+00 -0.19317428331E+03  0.19317428331E+03  0.00000000000E+00 0. -1.
         23    2    1    2    0    0 -0.22477424336E+02 -0.89767721075E+02 -0.59929404503E+01  0.15564264631E+03  0.12500095865E+03 0.  0.
         23    2    1    2    0    0  0.22477424336E+02  0.89767721075E+02 -0.74718797004E+02  0.14999418285E+03  0.91388609313E+02 0.  0.
          5    1    3    3  502    0 -0.34298135864E+02 -0.72572421407E+02  0.50695053038E+02  0.95053652613E+02  0.47000000000E+01 0.  1.
         -5    1    3    3    0  502  0.11820711528E+02 -0.17195299667E+02 -0.56687993488E+02  0.60588993698E+02  0.47000000000E+01 0.  1.
        -11    1    4    4    0    0  0.41387163801E+02  0.28368792313E+02 -0.69249188331E+02  0.85516874295E+02  0.00000000000E+00 0. -1.
         11    1    4    4    0    0 -0.18909739466E+02  0.61398928762E+02 -0.54696086739E+01  0.64477308557E+02  0.00000000000E+00 0.  1.
<mgrwt>
<rscale>  0 0.14872705E+03</rscale>
<asrwt>0</asrwt>
<pdfrwt beam="2">  1        2 0.29719120E-01 0.15552723E+03</pdfrwt>
<pdfrwt beam="1">  1       -2 0.17301930E-01 0.15552723E+03</pdfrwt>
<totfact> 0.46064838E+03</totfact>
</mgrwt>
</event>
<event>
 8    1  0.1033707E-005  0.1309883E+03  0.7546771E-02  0.1235952E+00
         -3   -1    0    0    0  501 -0.00000000000E+00  0.00000000000E+00  0.26453458925E+03  0.26453458925E+03  0.00000000000E+00 0.  1.
          3   -1    0    0  501    0  0.00000000000E+00 -0.00000000000E+00 -0.63337109173E+02  0.63337109173E+02  0.00000000000E+00 0. -1.
         23    2    1    2    0    0  0.36309966346E+02 -0.14524068584E+02  0.17396815709E+03  0.21776790314E+03  0.12501431011E+03 0.  0.
         23    2    1    2    0    0 -0.36309966346E+02  0.14524068584E+02  0.27229322985E+02  0.11010379528E+03  0.99257480734E+02 0.  0.
          5    1    3    3  502    0  0.20385227331E+02 -0.44650960224E+02  0.17651656911E+03  0.18327426146E+03  0.47000000000E+01 0. -1.
         -5    1    3    3    0  502  0.15924739015E+02  0.30126891639E+02 -0.25484120196E+01  0.34493641680E+02  0.47000000000E+01 0. -1.
        -11    1    4    4    0    0 -0.86395950974E+01 -0.17654548911E+02 -0.31810713831E+02  0.37393143959E+02  0.00000000000E+00 0. -1.
         11    1    4    4    0    0 -0.27670371248E+02  0.32178617496E+02  0.59040036816E+02  0.72710651326E+02  0.00000000000E+00 0.  1.
<mgrwt>
<rscale>  0 0.12443683E+03</rscale>
<asrwt>0</asrwt>
<pdfrwt beam="2">  1        3 0.97441708E-02 0.13098832E+03</pdfrwt>
<pdfrwt beam="1">  1       -3 0.40697629E-01 0.13098832E+03</pdfrwt>
<totfact> 0.10601448E+03</totfact>
</mgrwt>
</event>
<event>
 7    1  0.1033707E-005  0.2081204E+03  0.7546771E-02  0.1148721E+00
          2   -1    0    0  501    0  0.00000000000E+00  0.00000000000E+00  0.22516149743E+03  0.22516149743E+03  0.00000000000E+00 0. -1.
         -2   -1    0    0    0  501 -0.00000000000E+00 -0.00000000000E+00 -0.22220048507E+03  0.22220048507E+03  0.00000000000E+00 0.  1.
         23    2    1    2    0    0 -0.15147587936E+03 -0.31794527494E+02  0.11083477191E+03  0.21294600366E+03  0.95424419344E+02 0.  0.
          5    1    1    2  502    0  0.87699471894E+00  0.28611747219E+02 -0.74654577108E+02  0.80092428368E+02  0.47000000000E+01 0. -1.
         -5    1    1    2    0  502  0.15059888464E+03  0.31827802745E+01 -0.33219182444E+02  0.15432355046E+03  0.47000000000E+01 0.  1.
        -11    1    3    3    0    0 -0.11932554217E+02  0.96932216631E+01  0.54863804606E+02  0.56977025652E+02  0.00000000000E+00 0. -1.
         11    1    3    3    0    0 -0.13954332514E+03 -0.41487749157E+02  0.55970967303E+02  0.15596897801E+03  0.00000000000E+00 0.  1.
<mgrwt>
<rscale>  0 0.20121093E+03</rscale>
<asrwt>0</asrwt>
<pdfrwt beam="1">  1        2 0.34640231E-01 0.20812041E+03</pdfrwt>
<pdfrwt beam="2">  1       -2 0.34184690E-01 0.20812041E+03</pdfrwt>
<totfact> 0.11949648E+03</totfact>
</mgrwt>
</event>
<event>
 8    1  0.1033707E-005  0.1262619E+03  0.7546771E-02  0.1250965E+00
         -2   -1    0    0    0  501 -0.00000000000E+00  0.00000000000E+00  0.78234302662E+02  0.78234302662E+02  0.00000000000E+00 0.  1.
          2   -1    0    0  501    0  0.00000000000E+00 -0.00000000000E+00 -0.20560723707E+03  0.20560723707E+03  0.00000000000E+00 0. -1.
         23    2    1    2    0    0 -0.11669613973E+02  0.13453287692E+02  0.33165968986E+01  0.12630542307E+03  0.12499955697E+03 0.  0.
         23    2    1    2    0    0  0.11669613973E+02 -0.13453287692E+02 -0.13068953130E+03  0.15753611666E+03  0.86143505957E+02 0.  0.
          5    1    3    3  502    0 -0.30492816558E+02  0.49876961562E+02 -0.36403218785E+02  0.69027585024E+02  0.47000000000E+01 0.  1.
         -5    1    3    3    0  502  0.18823202585E+02 -0.36423673870E+02  0.39719815684E+02  0.57277838050E+02  0.47000000000E+01 0.  1.
        -11    1    4    4    0    0  0.15763444585E+02  0.22485050706E+02 -0.65448356204E+01  0.28229391841E+02  0.00000000000E+00 0.  1.
         11    1    4    4    0    0 -0.40938306119E+01 -0.35938338398E+02 -0.12414469568E+03  0.12930672481E+03  0.00000000000E+00 0. -1.
<mgrwt>
<rscale>  0 0.11535379E+03</rscale>
<asrwt>0</asrwt>
<pdfrwt beam="2">  1        2 0.31631882E-01 0.12626187E+03</pdfrwt>
<pdfrwt beam="1">  1       -2 0.12036047E-01 0.12626187E+03</pdfrwt>
<totfact> 0.76724800E+03</totfact>
</mgrwt>
</event>
<event>
 8    1  0.1033707E-005  0.1331069E+03  0.7546771E-02  0.1235619E+00
         -2   -1    0    0    0  501 -0.00000000000E+00  0.00000000000E+00  0.25186085165E+03  0.25186085165E+03  0.00000000000E+00 0.  1.
          2   -1    0    0  501    0  0.00000000000E+00 -0.00000000000E+00 -0.63280207267E+02  0.63280207267E+02  0.00000000000E+00 0. -1.
         23    2    1    2    0    0  0.35773216399E+02  0.28557670855E+02  0.16144201844E+03  0.20923906158E+03  0.12498878347E+03 0.  0.
         23    2    1    2    0    0 -0.35773216399E+02 -0.28557670855E+02  0.27138625943E+02  0.10590199734E+03  0.91561260626E+02 0.  0.
          5    1    3    3  502    0  0.78821414333E+02  0.65498997109E+00  0.11727958298E+03  0.14138541280E+03  0.47000000000E+01 0.  1.
         -5    1    3    3    0  502 -0.43048197934E+02  0.27902680884E+02  0.44162435463E+02  0.67853648774E+02  0.47000000000E+01 0.  1.
        -11    1    4    4    0    0 -0.10728832485E+02 -0.53047935865E+02  0.41339966349E+02  0.68104215463E+02  0.00000000000E+00 0.  1.
         11    1    4    4    0    0 -0.25044383914E+02  0.24490265010E+02 -0.14201340407E+02  0.37797781882E+02  0.00000000000E+00 0. -1.
<mgrwt>
<rscale>  0 0.12464909E+03</rscale>
<asrwt>0</asrwt>
<pdfrwt beam="2">  1        2 0.97354166E-02 0.13310695E+03</pdfrwt>
<pdfrwt beam="1">  1       -2 0.38747823E-01 0.13310695E+03</pdfrwt>
<totfact> 0.40021495E+03</totfact>
</mgrwt>
</event>
<event>
 8    1  0.1033707E-005  0.1628738E+03  0.7546771E-02  0.1192713E+00
         -2   -1    0    0    0  501 -0.00000000000E+00  0.00000000000E+00  0.65811721427E+02  0.65811721427E+02  0.00000000000E+00 0. -1.
          2   -1    0    0  501    0  0.00000000000E+00 -0.00000000000E+00 -0.34578693812E+03  0.34578693812E+03  0.00000000000E+00 0.  1.
         23    2    1    2    0    0  0.35462237670E+02  0.98210063060E+02 -0.14881941877E+03  0.22062430410E+03  0.12500030947E+03 0.  0.
         23    2    1    2    0    0 -0.35462237670E+02 -0.98210063060E+02 -0.13115579792E+03  0.19097435545E+03  0.91468980121E+02 0.  0.
          5    1    3    3  502    0  0.71200250069E+02  0.90456537078E+02 -0.73212690715E+02  0.13650658882E+03  0.47000000000E+01 0. -1.
         -5    1    3    3    0  502 -0.35738012399E+02  0.77535259826E+01 -0.75606728058E+02  0.84117715275E+02  0.47000000000E+01 0. -1.
        -11    1    4    4    0    0 -0.44578484517E+02 -0.51107483844E+02 -0.12551825913E+03  0.14266761918E+03  0.00000000000E+00 0.  1.
         11    1    4    4    0    0  0.91162468471E+01 -0.47102579217E+02 -0.56375387868E+01  0.48306736270E+02  0.00000000000E+00 0. -1.
<mgrwt>
<rscale>  0 0.15649367E+03</rscale>
<asrwt>0</asrwt>
<pdfrwt beam="2">  1        2 0.53197991E-01 0.16287377E+03</pdfrwt>
<pdfrwt beam="1">  1       -2 0.10124880E-01 0.16287377E+03</pdfrwt>
<totfact> 0.58937438E+03</totfact>
</mgrwt>
</event>
<event>
 8    1  0.1033707E-005  0.2951156E+03  0.7546771E-02  0.1089356E+00
         -2   -1    0    0    0  501 -0.00000000000E+00  0.00000000000E+00  0.13598193916E+03  0.13598193916E+03  0.00000000000E+00 0.  1.
          2   -1    0    0  501    0  0.00000000000E+00 -0.00000000000E+00 -0.10297285995E+04  0.10297285995E+04  0.00000000000E+00 0. -1.
         23    2    1    2    0    0  0.29060369148E+02  0.26574011643E+03 -0.82126173225E+02  0.30632977872E+03  0.12502363964E+03 0.  0.
         23    2    1    2    0    0 -0.29060369148E+02 -0.26574011643E+03 -0.81162048707E+03  0.85938075989E+03  0.91351852204E+02 0.  0.
          5    1    3    3  502    0 -0.18599462496E+02  0.63554550189E+02  0.26962968473E+02  0.71653419484E+02  0.47000000000E+01 0. -1.
         -5    1    3    3    0  502  0.47659831644E+02  0.20218556624E+03 -0.10908914170E+03  0.23467635924E+03  0.47000000000E+01 0. -1.
        -11    1    4    4    0    0  0.79366786286E+01 -0.22285823429E+03 -0.69171171618E+03  0.72676948323E+03  0.00000000000E+00 0. -1.
         11    1    4    4    0    0 -0.36997047776E+02 -0.42881882141E+02 -0.11990877089E+03  0.13261127666E+03  0.00000000000E+00 0.  1.
<mgrwt>
<rscale>  0 0.29191041E+03</rscale>
<asrwt>0</asrwt>
<pdfrwt beam="2">  1        2 0.15841978E+00 0.29511561E+03</pdfrwt>
<pdfrwt beam="1">  1       -2 0.20920299E-01 0.29511561E+03</pdfrwt>
<totfact> 0.49106122E+02</totfact>
</mgrwt>
</event>
<event>
 8    1  0.1033707E-005  0.1345650E+03  0.7546771E-02  0.1232854E+00
         -1   -1    0    0    0  501 -0.00000000000E+00  0.00000000000E+00  0.62227810129E+03  0.62227810129E+03  0.00000000000E+00 0.  1.
          1   -1    0    0  501    0  0.00000000000E+00 -0.00000000000E+00 -0.23824262351E+02  0.23824262351E+02  0.00000000000E+00 0. -1.
         23    2    1    2    0    0  0.45073629897E+01  0.49612838540E+02  0.39371433328E+03  0.41607536217E+03  0.12500392277E+03 0.  0.
         23    2    1    2    0    0 -0.45073629897E+01 -0.49612838540E+02  0.20473950566E+03  0.23002700147E+03  0.92262701880E+02 0.  0.
          5    1    3    3  502    0  0.36028692456E+02  0.29830815720E+02  0.36706295656E+03  0.37006114134E+03  0.47000000000E+01 0.  1.
         -5    1    3    3    0  502 -0.31521329466E+02  0.19782022820E+02  0.26651376714E+02  0.46014220834E+02  0.47000000000E+01 0.  1.
        -11    1    4    4    0    0  0.12263286798E+02 -0.35566806995E+01 -0.56794556055E+01  0.13974777160E+02  0.00000000000E+00 0. -1.
         11    1    4    4    0    0 -0.16770649788E+02 -0.46056157840E+02  0.21041896126E+03  0.21605222431E+03  0.00000000000E+00 0.  1.
<mgrwt>
<rscale>  0 0.12642829E+03</rscale>
<asrwt>0</asrwt>
<pdfrwt beam="2">  1        1 0.36652716E-02 0.13456497E+03</pdfrwt>
<pdfrwt beam="1">  1       -1 0.95735080E-01 0.13456497E+03</pdfrwt>
<totfact> 0.27533714E+03</totfact>
</mgrwt>
</event>
<event>
 7    1  0.1033707E-005  0.1701248E+03  0.7546771E-02  0.1199855E+00
          1   -1    0    0  501    0  0.00000000000E+00  0.00000000000E+00  0.14241108076E+03  0.14241108076E+03  0.00000000000E+00 0. -1.
         -1   -1    0    0    0  501 -0.00000000000E+00 -0.00000000000E+00 -0.14572721450E+03  0.14572721450E+03  0.00000000000E+00 0.  1.
         23    2    1    2    0    0 -0.17106289950E+02 -0.55132050090E+02  0.41571220356E+02  0.11219139715E+03  0.86755836290E+02 0.  0.
          5    1    1    2  502    0 -0.42727928835E+01  0.67865961571E+02  0.45582613081E+02  0.81999451915E+02  0.47000000000E+01 0. -1.
         -5    1    1    2    0  502  0.21379082834E+02 -0.12733911481E+02 -0.90469967178E+02  0.93947446190E+02  0.47000000000E+01 0.  1.
        -11    1    3    3    0    0 -0.25929105797E+02 -0.69980055407E+02  0.87985781025E+01  0.75146135356E+02  0.00000000000E+00 0. -1.
         11    1    3    3    0    0  0.88228158471E+01  0.14848005317E+02  0.32772642254E+02  0.37045261798E+02  0.00000000000E+00 0.  1.
<mgrwt>
<rscale>  0 0.15050402E+03</rscale>
<asrwt>0</asrwt>
<pdfrwt beam="1">  1        1 0.21909397E-01 0.17012477E+03</pdfrwt>
<pdfrwt beam="2">  1       -1 0.22419572E-01 0.17012477E+03</pdfrwt>
<totfact> 0.36868150E+03</totfact>
</mgrwt>
</event>
<event>
 7    1  0.1033707E-005  0.1545094E+03  0.7546771E-02  0.1216510E+00
          1   -1    0    0  501    0  0.00000000000E+00  0.00000000000E+00  0.16128457444E+03  0.16128457444E+03  0.00000000000E+00 0. -1.
         -1   -1    0    0    0  501 -0.00000000000E+00 -0.00000000000E+00 -0.14590702141E+03  0.14590702141E+03  0.00000000000E+00 0.  1.
         23    2    1    2    0    0 -0.33595862701E+02  0.70173333751E+00  0.92682576041E+02  0.13442231333E+03  0.91379012905E+02 0.  0.
          5    1    1    2  502    0  0.66605934458E+02  0.41778097337E+02 -0.36056909626E+00  0.78765347281E+02  0.47000000000E+01 0. -1.
         -5    1    1    2    0  502 -0.33010071757E+02 -0.42479830675E+02 -0.76944453913E+02  0.94003935234E+02  0.47000000000E+01 0.  1.
        -11    1    3    3    0    0 -0.57210902672E+01  0.30434532441E+02  0.88130578023E+02  0.93413009915E+02  0.00000000000E+00 0.  1.
         11    1    3    3    0    0 -0.27874772434E+02 -0.29732799103E+02  0.45519980181E+01  0.41009303416E+02  0.00000000000E+00 0. -1.
<mgrwt>
<rscale>  0 0.13766173E+03</rscale>
<asrwt>0</asrwt>
<pdfrwt beam="1">  1        1 0.24813012E-01 0.15450941E+03</pdfrwt>
<pdfrwt beam="2">  1       -1 0.22447234E-01 0.15450941E+03</pdfrwt>
<totfact> 0.31284593E+03</totfact>
</mgrwt>
</event>
<event>
 8    1  0.1033707E-005  0.1289898E+03  0.7546771E-02  0.1243483E+00
          1   -1    0    0  501    0  0.00000000000E+00  0.00000000000E+00  0.24097355299E+03  0.24097355299E+03  0.00000000000E+00 0. -1.
         -1   -1    0    0    0  501 -0.00000000000E+00 -0.00000000000E+00 -0.55523206979E+02  0.55523206979E+02  0.00000000000E+00 0.  1.
         23    2    1    2    0    0 -0.31521948468E+02 -0.45357566212E+01  0.71140219248E+02  0.14730681064E+03  0.12499663733E+03 0.  0.
         23    2    1    2    0    0  0.31521948468E+02  0.45357566212E+01  0.11431012676E+03  0.14918994932E+03  0.90424717723E+02 0.  0.
          5    1    3    3  502    0 -0.13080795822E+02  0.20555936369E+02  0.10094301562E+03  0.10394823780E+03  0.47000000000E+01 0.  1.
         -5    1    3    3    0  502 -0.18441152646E+02 -0.25091692990E+02 -0.29802796368E+02  0.43358572848E+02  0.47000000000E+01 0.  1.
        -11    1    4    4    0    0  0.21603021583E+02 -0.36487166990E+02  0.92336680732E+02  0.10160741363E+03  0.00000000000E+00 0. -1.
         11    1    4    4    0    0  0.99189268854E+01  0.41022923612E+02  0.21973446026E+02  0.47582535688E+02  0.00000000000E+00 0.  1.
<mgrwt>
<rscale>  0 0.11976664E+03</rscale>
<asrwt>0</asrwt>
<pdfrwt beam="1">  1        1 0.37072854E-01 0.12898979E+03</pdfrwt>
<pdfrwt beam="2">  1       -1 0.85420320E-02 0.12898979E+03</pdfrwt>
<totfact> 0.84955573E+03</totfact>
</mgrwt>
</event>
<event>
 8    1  0.1033707E-005  0.1833141E+03  0.7546771E-02  0.1169934E+00
         -1   -1    0    0    0  501 -0.00000000000E+00  0.00000000000E+00  0.50881098072E+02  0.50881098072E+02  0.00000000000E+00 0.  1.
          1   -1    0    0  501    0  0.00000000000E+00 -0.00000000000E+00 -0.68367859132E+03  0.68367859132E+03  0.00000000000E+00 0. -1.
         23    2    1    2    0    0 -0.13398824822E+03  0.49666514813E+01 -0.19493525832E+03  0.26758890818E+03  0.12500620208E+03 0.  0.
         23    2    1    2    0    0  0.13398824822E+03 -0.49666514813E+01 -0.43786223493E+03  0.46697078121E+03  0.91437713434E+02 0.  0.
          5    1    3    3  502    0 -0.12919381761E+03  0.29018299994E+02 -0.91099578243E+02  0.16079280892E+03  0.47000000000E+01 0. -1.
         -5    1    3    3    0  502 -0.47944306022E+01 -0.24051648513E+02 -0.10383568007E+03  0.10679609926E+03  0.47000000000E+01 0. -1.
        -11    1    4    4    0    0  0.48615095193E+02  0.38082061736E+02 -0.23046172017E+03  0.23859227852E+03  0.00000000000E+00 0.  1.
         11    1    4    4    0    0  0.85373153023E+02 -0.43048713218E+02 -0.20740051477E+03  0.22837850269E+03  0.00000000000E+00 0. -1.
<mgrwt>
<rscale>  0 0.17781589E+03</rscale>
<asrwt>0</asrwt>
<pdfrwt beam="2">  1        1 0.10518133E+00 0.18331413E+03</pdfrwt>
<pdfrwt beam="1">  1       -1 0.78278607E-02 0.18331413E+03</pdfrwt>
<totfact> 0.25704653E+03</totfact>
</mgrwt>
</event>
<event>
 8    1  0.1033707E-005  0.1344073E+03  0.7546771E-02  0.1231619E+00
          2   -1    0    0  501    0  0.00000000000E+00  0.00000000000E+00  0.67900704980E+02  0.67900704980E+02  0.00000000000E+00 0.  1.
         -2   -1    0    0    0  501 -0.00000000000E+00 -0.00000000000E+00 -0.21805858569E+03  0.21805858569E+03  0.00000000000E+00 0. -1.
         23    2    1    2    0    0  0.36499930244E+02 -0.33263142652E+02 -0.96246938027E+02  0.16531420800E+03  0.12500653071E+03 0.  0.
         23    2    1    2    0    0 -0.36499930244E+02  0.33263142652E+02 -0.53910942684E+02  0.12064508267E+03  0.95969602816E+02 0.  0.
          5    1    3    3  502    0 -0.56327069557E+01  0.11242908176E+02 -0.10264245192E+03  0.10351663300E+03  0.47000000000E+01 0.  1.
         -5    1    3    3    0  502  0.42132637200E+02 -0.44506050828E+02  0.63955138926E+01  0.61797574999E+02  0.47000000000E+01 0.  1.
        -11    1    4    4    0    0 -0.26352254840E+02  0.67177592974E+02 -0.31423689616E+02  0.78706534684E+02  0.00000000000E+00 0. -1.
         11    1    4    4    0    0 -0.10147675405E+02 -0.33914450321E+02 -0.22487253068E+02  0.41938547987E+02  0.00000000000E+00 0.  1.
<mgrwt>
<rscale>  0 0.12723378E+03</rscale>
<asrwt>0</asrwt>
<pdfrwt beam="1">  1        2 0.10446262E-01 0.13440727E+03</pdfrwt>
<pdfrwt beam="2">  1       -2 0.33547475E-01 0.13440727E+03</pdfrwt>
<totfact> 0.47998504E+03</totfact>
</mgrwt>
</event>
<event>
 7    1  0.1033707E-005  0.2742078E+03  0.7546771E-02  0.1139639E+00
          2   -1    0    0  501    0  0.00000000000E+00  0.00000000000E+00  0.44705904374E+03  0.44705904374E+03  0.00000000000E+00 0. -1.
         -2   -1    0    0    0  501 -0.00000000000E+00 -0.00000000000E+00 -0.79236524455E+02  0.79236524455E+02  0.00000000000E+00 0.  1.
         23    2    1    2    0    0 -0.92696713240E+00 -0.66373031811E+02  0.13023410081E+03  0.16347579905E+03  0.73192740347E+02 0.  0.
          5    1    1    2  502    0  0.98643074966E+02  0.20558691785E+02  0.23390819816E+03  0.25473172400E+03  0.47000000000E+01 0. -1.
         -5    1    1    2    0  502 -0.97716107834E+02  0.45814340027E+02  0.36802203134E+01  0.10808804515E+03  0.47000000000E+01 0.  1.
        -11    1    3    3    0    0 -0.13242548802E+02  0.70997489643E+01  0.57234595915E+02  0.59174069521E+02  0.00000000000E+00 0. -1.
         11    1    3    3    0    0  0.12315581669E+02 -0.73472780776E+02  0.72999504899E+02  0.10430172953E+03  0.00000000000E+00 0.  1.
<mgrwt>
<rscale>  0 0.21245165E+03</rscale>
<asrwt>0</asrwt>
<pdfrwt beam="1">  1        2 0.68778313E-01 0.27420782E+03</pdfrwt>
<pdfrwt beam="2">  1       -2 0.12190235E-01 0.27420782E+03</pdfrwt>
<totfact> 0.33879650E+03</totfact>
</mgrwt>
</event>
<event>
 8    1  0.1033707E-005  0.2598948E+03  0.7546771E-02  0.1109337E+00
         -2   -1    0    0    0  501 -0.00000000000E+00  0.00000000000E+00  0.12144375596E+03  0.12144375596E+03  0.00000000000E+00 0.  1.
          2   -1    0    0  501    0  0.00000000000E+00 -0.00000000000E+00 -0.52711817103E+03  0.52711817103E+03  0.00000000000E+00 0. -1.
         23    2    1    2    0    0 -0.12535673007E+03  0.19028483169E+03 -0.20950903532E+03  0.33382531274E+03  0.12499070604E+03 0.  0.
         23    2    1    2    0    0  0.12535673007E+03 -0.19028483169E+03 -0.19616537975E+03  0.31473661425E+03  0.93035762963E+02 0.  0.
          5    1    3    3  502    0 -0.11721840315E+03  0.67857909338E+02 -0.91485095622E+02  0.16351288212E+03  0.47000000000E+01 0.  1.
         -5    1    3    3    0  502 -0.81383269208E+01  0.12242692235E+03 -0.11802393970E+03  0.17031243062E+03  0.47000000000E+01 0.  1.
        -11    1    4    4    0    0  0.73975541214E+02 -0.97871471571E+02 -0.16282006987E+03  0.20386657597E+03  0.00000000000E+00 0. -1.
         11    1    4    4    0    0  0.51381188860E+02 -0.92413360119E+02 -0.33345309883E+02  0.11087003828E+03  0.00000000000E+00 0.  1.
<mgrwt>
<rscale>  0 0.25638216E+03</rscale>
<asrwt>0</asrwt>
<pdfrwt beam="2">  1        2 0.81095103E-01 0.25989479E+03</pdfrwt>
<pdfrwt beam="1">  1       -2 0.18683655E-01 0.25989479E+03</pdfrwt>
<totfact> 0.13846573E+03</totfact>
</mgrwt>
</event>
<event>
 8    1  0.1033707E-005  0.1662781E+03  0.7546771E-02  0.1186523E+00
          1   -1    0    0  501    0  0.00000000000E+00  0.00000000000E+00  0.39783939488E+03  0.39783939488E+03  0.00000000000E+00 0. -1.
         -1   -1    0    0    0  501 -0.00000000000E+00 -0.00000000000E+00 -0.62698443227E+02  0.62698443227E+02  0.00000000000E+00 0.  1.
         23    2    1    2    0    0  0.46685447632E+01 -0.10955469881E+03  0.17696802583E+03  0.24282937235E+03  0.12499757826E+03 0.  0.
         23    2    1    2    0    0 -0.46685447632E+01  0.10955469881E+03  0.15817292583E+03  0.21770846575E+03  0.10175595439E+03 0.  0.
          5    1    3    3  502    0 -0.35004381152E+02 -0.30047659211E+02  0.18568066679E+01  0.46408040843E+02  0.47000000000E+01 0.  1.
         -5    1    3    3    0  502  0.39672925915E+02 -0.79507039603E+02  0.17511121916E+03  0.19642133151E+03  0.47000000000E+01 0.  1.
        -11    1    4    4    0    0  0.25730125333E+02  0.73254065147E+02  0.33896705559E+02  0.84718262836E+02  0.00000000000E+00 0.  1.
         11    1    4    4    0    0 -0.30398670097E+02  0.36300633667E+02  0.12427622027E+03  0.13299020292E+03  0.00000000000E+00 0. -1.
<mgrwt>
<rscale>  0 0.16194024E+03</rscale>
<asrwt>0</asrwt>
<pdfrwt beam="1">  1        1 0.61206059E-01 0.16627815E+03</pdfrwt>
<pdfrwt beam="2">  1       -1 0.96459146E-02 0.16627815E+03</pdfrwt>
<totfact> 0.38389161E+03</totfact>
</mgrwt>
</event>
<event>
 8    1  0.1033707E-005  0.2323648E+03  0.7546771E-02  0.1127904E+00
         -2   -1    0    0    0  501 -0.00000000000E+00  0.00000000000E+00  0.11667586782E+03  0.11667586782E+03  0.00000000000E+00 0.  1.
          2   -1    0    0  501    0  0.00000000000E+00 -0.00000000000E+00 -0.43536855801E+03  0.43536855801E+03  0.00000000000E+00 0. -1.
         23    2    1    2    0    0 -0.11113076473E+03  0.16129338628E+03 -0.13781032387E+03  0.27015752326E+03  0.12501119423E+03 0.  0.
         23    2    1    2    0    0  0.11113076473E+03 -0.16129338628E+03 -0.18088236632E+03  0.28188690257E+03  0.91521538796E+02 0.  0.
          5    1    3    3  502    0 -0.85411596913E+02  0.19897856537E+02 -0.62871481539E+02  0.10800916060E+03  0.47000000000E+01 0.  1.
         -5    1    3    3    0  502 -0.25719167818E+02  0.14139552975E+03 -0.74938842331E+02  0.16214836267E+03  0.47000000000E+01 0.  1.
        -11    1    4    4    0    0  0.29312633065E+02 -0.75038186324E+01  0.68801694517E+00  0.30265675585E+02  0.00000000000E+00 0.  1.
         11    1    4    4    0    0  0.81818131665E+02 -0.15378956765E+03 -0.18157038327E+03  0.25162122698E+03  0.00000000000E+00 0. -1.
<mgrwt>
<rscale>  0 0.22821329E+03</rscale>
<asrwt>0</asrwt>
<pdfrwt beam="2">  1        2 0.66979778E-01 0.23236480E+03</pdfrwt>
<pdfrwt beam="1">  1       -2 0.17950134E-01 0.23236480E+03</pdfrwt>
<totfact> 0.18308377E+03</totfact>
</mgrwt>
</event>
<event>
 8    1  0.1033707E-005  0.2476020E+03  0.7546771E-02  0.1117467E+00
          1   -1    0    0  501    0  0.00000000000E+00  0.00000000000E+00  0.34935490536E+03  0.34935490536E+03  0.00000000000E+00 0. -1.
         -1   -1    0    0    0  501 -0.00000000000E+00 -0.00000000000E+00 -0.16442527348E+03  0.16442527348E+03  0.00000000000E+00 0.  1.
         23    2    1    2    0    0 -0.13959300934E+03  0.16184576833E+03  0.91748753330E+02  0.26405409662E+03  0.12500588473E+03 0.  0.
         23    2    1    2    0    0  0.13959300934E+03 -0.16184576833E+03  0.93180878541E+02  0.24972608223E+03  0.89443719929E+02 0.  0.
          5    1    3    3  502    0 -0.37137318450E+02  0.13668979349E+03  0.58720834768E+02  0.15340634440E+03  0.47000000000E+01 0.  1.
         -5    1    3    3    0  502 -0.10245569089E+03  0.25155974842E+02  0.33027918562E+02  0.11064775222E+03  0.47000000000E+01 0.  1.
        -11    1    4    4    0    0  0.12063375962E+02 -0.64630850060E+01 -0.15933861118E+02  0.21004390911E+02  0.00000000000E+00 0.  1.
         11    1    4    4    0    0  0.12752963338E+03 -0.15538268333E+03  0.10911473966E+03  0.22872169132E+03  0.00000000000E+00 0. -1.
<mgrwt>
<rscale>  0 0.24352445E+03</rscale>
<asrwt>0</asrwt>
<pdfrwt beam="1">  1        1 0.53746908E-01 0.24760196E+03</pdfrwt>
<pdfrwt beam="2">  1       -1 0.25296196E-01 0.24760196E+03</pdfrwt>
<totfact> 0.98573092E+02</totfact>
</mgrwt>
</event>
<event>
 8    1  0.1033707E-005  0.1618095E+03  0.7546771E-02  0.1193824E+00
         -2   -1    0    0    0  501 -0.00000000000E+00  0.00000000000E+00  0.33483414026E+02  0.33483414026E+02  0.00000000000E+00 0.  1.
          2   -1    0    0  501    0  0.00000000000E+00 -0.00000000000E+00 -0.67402682509E+03  0.67402682509E+03  0.00000000000E+00 0. -1.
         23    2    1    2    0    0 -0.10215576472E+03 -0.11003527867E+02 -0.36558493475E+03  0.39979325650E+03  0.12500170213E+03 0.  0.
         23    2    1    2    0    0  0.10215576472E+03  0.11003527867E+02 -0.27495847632E+03  0.30771698262E+03  0.92361787572E+02 0.  0.
          5    1    3    3  502    0 -0.43046472939E+02  0.55009027699E+02 -0.20052138817E+03  0.21239093454E+03  0.47000000000E+01 0.  1.
         -5    1    3    3    0  502 -0.59109291777E+02 -0.66012555566E+02 -0.16506354658E+03  0.18740232196E+03  0.47000000000E+01 0.  1.
        -11    1    4    4    0    0  0.10534250653E+03  0.36240806964E+02 -0.20560816635E+03  0.23384857887E+03  0.00000000000E+00 0. -1.
         11    1    4    4    0    0 -0.31867418116E+01 -0.25237279097E+02 -0.69350309967E+02  0.73868403746E+02  0.00000000000E+00 0.  1.
<mgrwt>
<rscale>  0 0.15554168E+03</rscale>
<asrwt>0</asrwt>
<pdfrwt beam="2">  1        2 0.10369643E+00 0.16180947E+03</pdfrwt>
<pdfrwt beam="1">  1       -2 0.51512947E-02 0.16180947E+03</pdfrwt>
<totfact> 0.79738230E+03</totfact>
</mgrwt>
</event>
<event>
 8    1  0.1033707E-005  0.1702436E+03  0.7546771E-02  0.1183920E+00
         -2   -1    0    0    0  501 -0.00000000000E+00  0.00000000000E+00  0.84669475656E+02  0.84669475656E+02  0.00000000000E+00 0.  1.
          2   -1    0    0  501    0  0.00000000000E+00 -0.00000000000E+00 -0.30414366089E+03  0.30414366089E+03  0.00000000000E+00 0. -1.
         23    2    1    2    0    0  0.72244596688E+02 -0.90213938696E+02 -0.90930584874E+02  0.19300581324E+03  0.12500014478E+03 0.  0.
         23    2    1    2    0    0 -0.72244596688E+02  0.90213938696E+02 -0.12854360036E+03  0.19580732330E+03  0.91973986424E+02 0.  0.
          5    1    3    3  502    0  0.26900840451E+02 -0.90562459021E+02 -0.10868513686E+03  0.14408248740E+03  0.47000000000E+01 0.  1.
         -5    1    3    3    0  502  0.45343756236E+02  0.34852032484E+00  0.17754551981E+02  0.48923325849E+02  0.47000000000E+01 0.  1.
        -11    1    4    4    0    0 -0.50405907498E+02  0.54291542411E+02 -0.16169960674E+02  0.75827400828E+02  0.00000000000E+00 0.  1.
         11    1    4    4    0    0 -0.21838689189E+02  0.35922396285E+02 -0.11237363968E+03  0.11997992247E+03  0.00000000000E+00 0. -1.
<mgrwt>
<rscale>  0 0.16430567E+03</rscale>
<asrwt>0</asrwt>
<pdfrwt beam="2">  1        2 0.46791333E-01 0.17024357E+03</pdfrwt>
<pdfrwt beam="1">  1       -2 0.13026073E-01 0.17024357E+03</pdfrwt>
<totfact> 0.45289642E+03</totfact>
</mgrwt>
</event>
<event>
 8    1  0.1033707E-005  0.1868134E+03  0.7546771E-02  0.1166776E+00
         -1   -1    0    0    0  501 -0.00000000000E+00  0.00000000000E+00  0.12468913735E+03  0.12468913735E+03  0.00000000000E+00 0.  1.
          1   -1    0    0  501    0  0.00000000000E+00 -0.00000000000E+00 -0.29133743631E+03  0.29133743631E+03  0.00000000000E+00 0. -1.
         23    2    1    2    0    0 -0.95762672543E+02 -0.10046663130E+03 -0.76253227075E+01  0.18696899066E+03  0.12504089116E+03 0.  0.
         23    2    1    2    0    0  0.95762672543E+02  0.10046663130E+03 -0.15902297625E+03  0.22905758300E+03  0.88966487487E+02 0.  0.
          5    1    3    3  502    0 -0.10152092771E+03 -0.11299461128E+03  0.22380628089E+02  0.15361400800E+03  0.47000000000E+01 0. -1.
         -5    1    3    3    0  502  0.57582551685E+01  0.12527979972E+02 -0.30005950797E+02  0.33354982656E+02  0.47000000000E+01 0. -1.
        -11    1    4    4    0    0  0.81639595638E+02  0.45466027774E+02 -0.14160941588E+03  0.16966263562E+03  0.00000000000E+00 0. -1.
         11    1    4    4    0    0  0.14123076905E+02  0.55000603531E+02 -0.17413560367E+02  0.59394947383E+02  0.00000000000E+00 0.  1.
<mgrwt>
<rscale>  0 0.18106537E+03</rscale>
<asrwt>0</asrwt>
<pdfrwt beam="2">  1        1 0.44821144E-01 0.18681343E+03</pdfrwt>
<pdfrwt beam="1">  1       -1 0.19182944E-01 0.18681343E+03</pdfrwt>
<totfact> 0.19406727E+03</totfact>
</mgrwt>
</event>
<event>
 8    1  0.1033707E-005  0.1339769E+03  0.7546771E-02  0.1234025E+00
          1   -1    0    0  501    0  0.00000000000E+00  0.00000000000E+00  0.39040614931E+03  0.39040614931E+03  0.00000000000E+00 0. -1.
         -1   -1    0    0    0  501 -0.00000000000E+00 -0.00000000000E+00 -0.73033265978E+02  0.73033265978E+02  0.00000000000E+00 0.  1.
         23    2    1    2    0    0  0.48218104061E+02 -0.18956077332E+01  0.47497950796E+01  0.13406108559E+03  0.12498494000E+03 0.  0.
         23    2    1    2    0    0 -0.48218104061E+02  0.18956077332E+01  0.31262308825E+03  0.32937832970E+03  0.91805827046E+02 0.  0.
          5    1    3    3  502    0  0.49913234422E+02  0.19964950439E+02 -0.50826939781E+02  0.74130951862E+02  0.47000000000E+01 0.  1.
         -5    1    3    3    0  502 -0.16951303612E+01 -0.21860558172E+02  0.55576734861E+02  0.59930133725E+02  0.47000000000E+01 0.  1.
        -11    1    4    4    0    0 -0.38522322707E+02  0.41036257095E+02  0.11951627565E+03  0.13210633553E+03  0.00000000000E+00 0.  1.
         11    1    4    4    0    0 -0.96957813534E+01 -0.39140649362E+02  0.19310681260E+03  0.19727199416E+03  0.00000000000E+00 0. -1.
<mgrwt>
<rscale>  0 0.12567049E+03</rscale>
<asrwt>0</asrwt>
<pdfrwt beam="1">  1        1 0.60062483E-01 0.13397692E+03</pdfrwt>
<pdfrwt beam="2">  1       -1 0.11235887E-01 0.13397692E+03</pdfrwt>
<totfact> 0.30824271E+03</totfact>
</mgrwt>
</event>
<event>
 8    1  0.1033707E-005  0.2414361E+03  0.7546771E-02  0.1121812E+00
         -1   -1    0    0    0  501 -0.00000000000E+00  0.00000000000E+00  0.11436203234E+03  0.11436203234E+03  0.00000000000E+00 0.  1.
          1   -1    0    0  501    0  0.00000000000E+00 -0.00000000000E+00 -0.49378155143E+03  0.49378155143E+03  0.00000000000E+00 0. -1.
         23    2    1    2    0    0 -0.51938191799E+02  0.19992112278E+03 -0.25748300781E+03  0.35297150047E+03  0.12500139891E+03 0.  0.
         23    2    1    2    0    0  0.51938191799E+02 -0.19992112278E+03 -0.12193651128E+03  0.25517208330E+03  0.87053134414E+02 0.  0.
          5    1    3    3  502    0 -0.40488789811E+02  0.18183297145E+03 -0.13899691540E+03  0.23247538386E+03  0.47000000000E+01 0.  1.
         -5    1    3    3    0  502 -0.11449401988E+02  0.18088151327E+02 -0.11848609240E+03  0.12049611661E+03  0.47000000000E+01 0.  1.
        -11    1    4    4    0    0  0.12387654381E+02 -0.21310212720E+01 -0.31893215276E+02  0.34280787817E+02  0.00000000000E+00 0. -1.
         11    1    4    4    0    0  0.39550537418E+02 -0.19779010151E+03 -0.90043296008E+02  0.22089129549E+03  0.00000000000E+00 0.  1.
<mgrwt>
<rscale>  0 0.23699406E+03</rscale>
<asrwt>0</asrwt>
<pdfrwt beam="2">  1        1 0.75966394E-01 0.24143608E+03</pdfrwt>
<pdfrwt beam="1">  1       -1 0.17594158E-01 0.24143608E+03</pdfrwt>
<totfact> 0.11416631E+03</totfact>
</mgrwt>
</event>
<event>
 8    1  0.1033707E-005  0.1268528E+03  0.7546771E-02  0.1247788E+00
         -2   -1    0    0    0  501 -0.00000000000E+00  0.00000000000E+00  0.54517048781E+02  0.54517048781E+02  0.00000000000E+00 0.  1.
          2   -1    0    0  501    0  0.00000000000E+00 -0.00000000000E+00 -0.22185855018E+03  0.22185855018E+03  0.00000000000E+00 0. -1.
         23    2    1    2    0    0  0.21588949754E+02 -0.10159683480E+01 -0.10738259997E+03  0.16620066163E+03  0.12499808882E+03 0.  0.
         23    2    1    2    0    0 -0.21588949754E+02  0.10159683480E+01 -0.59958901430E+02  0.11017493732E+03  0.89868414977E+02 0.  0.
          5    1    3    3  502    0  0.86693134549E+01  0.39284430778E+02  0.96717839991E+01  0.41642008874E+02  0.47000000000E+01 0.  1.
         -5    1    3    3    0  502  0.12919636299E+02 -0.40300399126E+02 -0.11705438396E+03  0.12455865276E+03  0.47000000000E+01 0.  1.
        -11    1    4    4    0    0  0.31983909935E+02  0.17386916273E+02 -0.22907647069E+02  0.43012040715E+02  0.00000000000E+00 0.  1.
         11    1    4    4    0    0 -0.53572859689E+02 -0.16370947925E+02 -0.37051254361E+02  0.67162896609E+02  0.00000000000E+00 0. -1.
<mgrwt>
<rscale>  0 0.11720044E+03</rscale>
<asrwt>0</asrwt>
<pdfrwt beam="2">  1        2 0.34132085E-01 0.12685282E+03</pdfrwt>
<pdfrwt beam="1">  1       -2 0.83872381E-02 0.12685282E+03</pdfrwt>
<totfact> 0.12469739E+04</totfact>
</mgrwt>
</event>
<event>
 8    1  0.1033707E-005  0.1504670E+03  0.7546771E-02  0.1204411E+00
          2   -1    0    0  501    0  0.00000000000E+00  0.00000000000E+00  0.19176233439E+03  0.19176233439E+03  0.00000000000E+00 0. -1.
         -2   -1    0    0    0  501 -0.00000000000E+00 -0.00000000000E+00 -0.10889599782E+03  0.10889599782E+03  0.00000000000E+00 0.  1.
         23    2    1    2    0    0  0.32322883640E+02 -0.77276259556E+02  0.25481254741E+02  0.15260932780E+03  0.12499569389E+03 0.  0.
         23    2    1    2    0    0 -0.32322883640E+02  0.77276259556E+02  0.57385081824E+02  0.14804900441E+03  0.10774539894E+03 0.  0.
          5    1    3    3  502    0  0.51074487127E+02 -0.66595932163E+02 -0.32840906359E+02  0.90245423964E+02  0.47000000000E+01 0. -1.
         -5    1    3    3    0  502 -0.18751603488E+02 -0.10680327394E+02  0.58322161099E+02  0.62363903838E+02  0.47000000000E+01 0. -1.
        -11    1    4    4    0    0 -0.37336462477E+02  0.18375070904E+02  0.75511153826E+02  0.86218263803E+02  0.00000000000E+00 0. -1.
         11    1    4    4    0    0  0.50135788378E+01  0.58901188653E+02 -0.18126072002E+02  0.61830740604E+02  0.00000000000E+00 0.  1.
<mgrwt>
<rscale>  0 0.14683997E+03</rscale>
<asrwt>0</asrwt>
<pdfrwt beam="1">  1        2 0.29501897E-01 0.15046698E+03</pdfrwt>
<pdfrwt beam="2">  1       -2 0.16753231E-01 0.15046698E+03</pdfrwt>
<totfact> 0.48894806E+03</totfact>
</mgrwt>
</event>
<event>
 8    1  0.1033707E-005  0.1193599E+03  0.7546771E-02  0.1253797E+00
         -3   -1    0    0    0  501 -0.00000000000E+00  0.00000000000E+00  0.31818961971E+03  0.31818961971E+03  0.00000000000E+00 0.  1.
          3   -1    0    0  501    0  0.00000000000E+00 -0.00000000000E+00 -0.82757391656E+02  0.82757391656E+02  0.00000000000E+00 0. -1.
         23    2    1    2    0    0  0.22035571585E+02  0.31607494060E+02  0.27114101559E+03  0.29625028283E+03  0.11296981741E+03 0.  0.
         23    2    1    2    0    0 -0.22035571585E+02 -0.31607494060E+02 -0.35708787537E+02  0.10469672854E+03  0.90563167807E+02 0.  0.
          5    1    3    3  502    0 -0.25755825906E+02 -0.28718636998E+02  0.60151440873E+02  0.71612907483E+02  0.47000000000E+01 0. -1.
         -5    1    3    3    0  502  0.47791397491E+02  0.60326131058E+02  0.21098957472E+03  0.22463737535E+03  0.47000000000E+01 0.  1.
        -11    1    4    4    0    0 -0.21082178432E+02 -0.42528081471E+02  0.17334181797E+02  0.50532858811E+02  0.00000000000E+00 0.  1.
         11    1    4    4    0    0 -0.95339315317E+00  0.10920587411E+02 -0.53042969334E+02  0.54163869726E+02  0.00000000000E+00 0. -1.
<mgrwt>
<rscale>  0 0.11374006E+03</rscale>
<asrwt>0</asrwt>
<pdfrwt beam="2">  1        3 0.12731907E-01 0.11935987E+03</pdfrwt>
<pdfrwt beam="1">  1       -3 0.48952249E-01 0.11935987E+03</pdfrwt>
<totfact> 0.46657086E+02</totfact>
</mgrwt>
</event>
<event>
 8    1  0.1033707E-005  0.1271408E+03  0.7546771E-02  0.1247688E+00
          2   -1    0    0  501    0  0.00000000000E+00  0.00000000000E+00  0.17160238271E+02  0.17160238271E+02  0.00000000000E+00 0. -1.
         -2   -1    0    0    0  501 -0.00000000000E+00 -0.00000000000E+00 -0.78744343379E+03  0.78744343379E+03  0.00000000000E+00 0.  1.
         23    2    1    2    0    0 -0.23050577828E+02  0.29283986927E+01 -0.57289098550E+03  0.58682949137E+03  0.12499946408E+03 0.  0.
         23    2    1    2    0    0  0.23050577828E+02 -0.29283986927E+01 -0.19739221002E+03  0.21777418069E+03  0.89005643310E+02 0.  0.
          5    1    3    3  502    0  0.49088487128E+02  0.18750771211E+02 -0.26106994529E+03  0.26634728706E+03  0.47000000000E+01 0. -1.
         -5    1    3    3    0  502 -0.72139064956E+02 -0.15822372518E+02 -0.31182104020E+03  0.32048220431E+03  0.47000000000E+01 0. -1.
        -11    1    4    4    0    0  0.28119699800E+02 -0.32768841274E+02 -0.44849228165E+02  0.62257270598E+02  0.00000000000E+00 0. -1.
         11    1    4    4    0    0 -0.50691219715E+01  0.29840442581E+02 -0.15254298186E+03  0.15551691009E+03  0.00000000000E+00 0.  1.
<mgrwt>
<rscale>  0 0.11725925E+03</rscale>
<asrwt>0</asrwt>
<pdfrwt beam="1">  1        2 0.26400366E-02 0.12714075E+03</pdfrwt>
<pdfrwt beam="2">  1       -2 0.12114515E+00 0.12714075E+03</pdfrwt>
<totfact> 0.19321544E+03</totfact>
</mgrwt>
</event>
<event>
 8    1  0.1033707E-005  0.1785097E+03  0.7546771E-02  0.1175829E+00
          2   -1    0    0  501    0  0.00000000000E+00  0.00000000000E+00  0.42398519398E+03  0.42398519398E+03  0.00000000000E+00 0. -1.
         -2   -1    0    0    0  501 -0.00000000000E+00 -0.00000000000E+00 -0.88185075330E+02  0.88185075330E+02  0.00000000000E+00 0.  1.
         23    2    1    2    0    0  0.62046500389E+02 -0.11136502628E+03  0.46314631533E+02  0.18442003194E+03  0.12495505512E+03 0.  0.
         23    2    1    2    0    0 -0.62046500389E+02  0.11136502628E+03  0.28948548711E+03  0.32775023737E+03  0.85827929928E+02 0.  0.
          5    1    3    3  502    0  0.20875489572E+02 -0.85123302559E+02  0.84823196054E+02  0.12206075246E+03  0.47000000000E+01 0. -1.
         -5    1    3    3    0  502  0.41171010817E+02 -0.26241723718E+02 -0.38508564521E+02  0.62359279477E+02  0.47000000000E+01 0. -1.
        -11    1    4    4    0    0 -0.81722391288E+02  0.91252051127E+02  0.25748881949E+03  0.28514203169E+03  0.00000000000E+00 0.  1.
         11    1    4    4    0    0  0.19675890899E+02  0.20112975149E+02  0.31996667622E+02  0.42608205676E+02  0.00000000000E+00 0. -1.
<mgrwt>
<rscale>  0 0.17195015E+03</rscale>
<asrwt>0</asrwt>
<pdfrwt beam="1">  1        2 0.65228490E-01 0.17850967E+03</pdfrwt>
<pdfrwt beam="2">  1       -2 0.13566935E-01 0.17850967E+03</pdfrwt>
<totfact> 0.29741714E+03</totfact>
</mgrwt>
</event>
<event>
 8    1  0.1033707E-005  0.1439778E+03  0.7546771E-02  0.1218249E+00
         -3   -1    0    0    0  501 -0.00000000000E+00  0.00000000000E+00  0.11782113856E+03  0.11782113856E+03  0.00000000000E+00 0.  1.
          3   -1    0    0  501    0  0.00000000000E+00 -0.00000000000E+00 -0.21394011757E+03  0.21394011757E+03  0.00000000000E+00 0. -1.
         23    2    1    2    0    0  0.71173240759E+02 -0.62623333974E+01  0.43346926224E+02  0.15036147001E+03  0.12499907452E+03 0.  0.
         23    2    1    2    0    0 -0.71173240759E+02  0.62623333974E+01 -0.13946590524E+03  0.18139978612E+03  0.91379957654E+02 0.  0.
          5    1    3    3  502    0 -0.35594673902E+02 -0.73615740980E+01  0.16321800336E+02  0.40120627483E+02  0.47000000000E+01 0.  1.
         -5    1    3    3    0  502  0.10676791466E+03  0.10992407007E+01  0.27025125889E+02  0.11024084252E+03  0.47000000000E+01 0.  1.
        -11    1    4    4    0    0 -0.51857264724E+02 -0.26404266072E+01 -0.13499715913E+02  0.53650629885E+02  0.00000000000E+00 0.  1.
         11    1    4    4    0    0 -0.19315976035E+02  0.89027600045E+01 -0.12596618932E+03  0.12774915624E+03  0.00000000000E+00 0. -1.
<mgrwt>
<rscale>  0 0.13640578E+03</rscale>
<asrwt>0</asrwt>
<pdfrwt beam="2">  1        3 0.32913864E-01 0.14397783E+03</pdfrwt>
<pdfrwt beam="1">  1       -3 0.18126329E-01 0.14397783E+03</pdfrwt>
<totfact> 0.56296343E+02</totfact>
</mgrwt>
</event>
<event>
 8    1  0.1033707E-005  0.1259793E+03  0.7546771E-02  0.1249893E+00
          2   -1    0    0  501    0  0.00000000000E+00  0.00000000000E+00  0.33877762600E+02  0.33877762600E+02  0.00000000000E+00 0. -1.
         -2   -1    0    0    0  501 -0.00000000000E+00 -0.00000000000E+00 -0.43922452609E+03  0.43922452609E+03  0.00000000000E+00 0.  1.
         23    2    1    2    0    0 -0.15451804770E+02 -0.26291228873E+01 -0.33681226348E+03  0.35960157912E+03  0.12500049725E+03 0.  0.
         23    2    1    2    0    0  0.15451804770E+02  0.26291228873E+01 -0.68534500009E+02  0.11350070957E+03  0.89105346778E+02 0.  0.
          5    1    3    3  502    0 -0.91617134987E+01 -0.56654312060E+02 -0.25377405388E+03  0.26022491904E+03  0.47000000000E+01 0. -1.
         -5    1    3    3    0  502 -0.62900912715E+01  0.54025189173E+02 -0.83038209607E+02  0.99376660077E+02  0.47000000000E+01 0. -1.
        -11    1    4    4    0    0 -0.91610311021E+01  0.29431864634E+02 -0.70617506557E+02  0.77051874597E+02  0.00000000000E+00 0.  1.
         11    1    4    4    0    0  0.24612835872E+02 -0.26802741747E+02  0.20830065475E+01  0.36448834976E+02  0.00000000000E+00 0. -1.
<mgrwt>
<rscale>  0 0.11597242E+03</rscale>
<asrwt>0</asrwt>
<pdfrwt beam="1">  1        2 0.52119630E-02 0.12597934E+03</pdfrwt>
<pdfrwt beam="2">  1       -2 0.67573010E-01 0.12597934E+03</pdfrwt>
<totfact> 0.29120069E+03</totfact>
</mgrwt>
</event>
<event>
 8    1  0.1033707E-005  0.1484275E+03  0.7546771E-02  0.1211527E+00
         -1   -1    0    0    0  501 -0.00000000000E+00  0.00000000000E+00  0.32606357955E+03  0.32606357955E+03  0.00000000000E+00 0.  1.
          1   -1    0    0  501    0  0.00000000000E+00 -0.00000000000E+00 -0.66954975988E+02  0.66954975988E+02  0.00000000000E+00 0. -1.
         23    2    1    2    0    0 -0.13500870747E+02 -0.78882357384E+02  0.21893687294E+03  0.26450723439E+03  0.12500409152E+03 0.  0.
         23    2    1    2    0    0  0.13500870747E+02  0.78882357384E+02  0.40171730629E+02  0.12851132115E+03  0.92177502159E+02 0.  0.
          5    1    3    3  502    0  0.17981719019E+02  0.21216317069E+02  0.10845635157E+03  0.11206401976E+03  0.47000000000E+01 0. -1.
         -5    1    3    3    0  502 -0.31482589767E+02 -0.10009867445E+03  0.11048052136E+03  0.15244321463E+03  0.47000000000E+01 0. -1.
        -11    1    4    4    0    0 -0.18164963082E+02 -0.86968640310E+01 -0.10262502196E+02  0.22603545719E+02  0.00000000000E+00 0.  1.
         11    1    4    4    0    0  0.31665833829E+02  0.87579221415E+02  0.50434232825E+02  0.10590777543E+03  0.00000000000E+00 0. -1.
<mgrwt>
<rscale>  0 0.14134783E+03</rscale>
<asrwt>0</asrwt>
<pdfrwt beam="2">  1        1 0.10300766E-01 0.14842750E+03</pdfrwt>
<pdfrwt beam="1">  1       -1 0.50163627E-01 0.14842750E+03</pdfrwt>
<totfact> 0.24476314E+03</totfact>
</mgrwt>
</event>
<event>
 8    1  0.1033707E-005  0.2480332E+03  0.7546771E-02  0.1117213E+00
         -3   -1    0    0    0  501 -0.00000000000E+00  0.00000000000E+00  0.11517364907E+03  0.11517364907E+03  0.00000000000E+00 0.  1.
          3   -1    0    0  501    0  0.00000000000E+00 -0.00000000000E+00 -0.54419828532E+03  0.54419828532E+03  0.00000000000E+00 0. -1.
         23    2    1    2    0    0 -0.20909744092E+03  0.46610003432E+02 -0.12731545045E+03  0.27880042486E+03  0.12500488294E+03 0.  0.
         23    2    1    2    0    0  0.20909744092E+03 -0.46610003432E+02 -0.30170918579E+03  0.38057150953E+03  0.88949473610E+02 0.  0.
          5    1    3    3  502    0 -0.79118604502E+02 -0.28774416045E+02 -0.91171325776E+02  0.12418543087E+03  0.47000000000E+01 0. -1.
         -5    1    3    3    0  502 -0.12997883642E+03  0.75384419478E+02 -0.36144124677E+02  0.15461499399E+03  0.47000000000E+01 0. -1.
        -11    1    4    4    0    0  0.55263701024E+02  0.26800126789E+02 -0.84665621987E+02  0.10459728005E+03  0.00000000000E+00 0.  1.
         11    1    4    4    0    0  0.15383373990E+03 -0.73410130222E+02 -0.21704356380E+03  0.27597422948E+03  0.00000000000E+00 0. -1.
<mgrwt>
<rscale>  0 0.24391382E+03</rscale>
<asrwt>0</asrwt>
<pdfrwt beam="2">  1        3 0.83722812E-01 0.24803317E+03</pdfrwt>
<pdfrwt beam="1">  1       -3 0.17719023E-01 0.24803317E+03</pdfrwt>
<totfact> 0.93330407E+01</totfact>
</mgrwt>
</event>
<event>
 8    1  0.1033707E-005  0.1281027E+03  0.7546771E-02  0.1250513E+00
         -1   -1    0    0    0  501 -0.00000000000E+00  0.00000000000E+00  0.31478991798E+02  0.31478991798E+02  0.00000000000E+00 0.  1.
          1   -1    0    0  501    0  0.00000000000E+00 -0.00000000000E+00 -0.36091201164E+03  0.36091201164E+03  0.00000000000E+00 0. -1.
         23    2    1    2    0    0  0.13708327331E+02  0.24403022223E+02 -0.19257843226E+03  0.23129364644E+03  0.12500749011E+03 0.  0.
         23    2    1    2    0    0 -0.13708327331E+02 -0.24403022223E+02 -0.13685458758E+03  0.16109735699E+03  0.80248081324E+02 0.  0.
          5    1    3    3  502    0 -0.38721783228E+02  0.36878609859E+02 -0.33517041101E+02  0.63284203444E+02  0.47000000000E+01 0.  1.
         -5    1    3    3    0  502  0.52430110558E+02 -0.12475587636E+02 -0.15906139116E+03  0.16800944300E+03  0.47000000000E+01 0.  1.
        -11    1    4    4    0    0  0.10169538600E+02  0.26665702964E+02 -0.42839295533E+02  0.51475085932E+02  0.00000000000E+00 0.  1.
         11    1    4    4    0    0 -0.23877865931E+02 -0.51068725187E+02 -0.94015292050E+02  0.10962227106E+03  0.00000000000E+00 0. -1.
<mgrwt>
<rscale>  0 0.11561382E+03</rscale>
<asrwt>0</asrwt>
<pdfrwt beam="2">  1        1 0.55524928E-01 0.12810269E+03</pdfrwt>
<pdfrwt beam="1">  1       -1 0.48429216E-02 0.12810269E+03</pdfrwt>
<totfact> 0.12013992E+04</totfact>
</mgrwt>
</event>
<event>
 8    1  0.1033707E-005  0.1341664E+03  0.7546771E-02  0.1234426E+00
          1   -1    0    0  501    0  0.00000000000E+00  0.00000000000E+00  0.81090086510E+02  0.81090086510E+02  0.00000000000E+00 0. -1.
         -1   -1    0    0    0  501 -0.00000000000E+00 -0.00000000000E+00 -0.20882659152E+03  0.20882659152E+03  0.00000000000E+00 0.  1.
         23    2    1    2    0    0 -0.33640729101E+02  0.35272783600E+02 -0.13088997375E+03  0.18743748540E+03  0.12499903114E+03 0.  0.
         23    2    1    2    0    0  0.33640729101E+02 -0.35272783600E+02  0.31534687405E+01  0.10247919264E+03  0.90089803200E+02 0.  0.
          5    1    3    3  502    0  0.27521549381E+02  0.47646492494E+02 -0.10708194974E+03  0.12048343407E+03  0.47000000000E+01 0.  1.
         -5    1    3    3    0  502 -0.61162278482E+02 -0.12373708893E+02 -0.23808024015E+02  0.66954051322E+02  0.47000000000E+01 0.  1.
        -11    1    4    4    0    0  0.22912721537E+02  0.27775268989E+02 -0.96034019556E+01  0.37265046689E+02  0.00000000000E+00 0.  1.
         11    1    4    4    0    0  0.10728007564E+02 -0.63048052589E+02  0.12756870696E+02  0.65214145946E+02  0.00000000000E+00 0. -1.
<mgrwt>
<rscale>  0 0.12541236E+03</rscale>
<asrwt>0</asrwt>
<pdfrwt beam="1">  1        1 0.12475398E-01 0.13416641E+03</pdfrwt>
<pdfrwt beam="2">  1       -1 0.32127168E-01 0.13416641E+03</pdfrwt>
<totfact> 0.41398794E+03</totfact>
</mgrwt>
</event>
<event>
 8    1  0.1033707E-005  0.1512524E+03  0.7546771E-02  0.1207579E+00
         -2   -1    0    0    0  501 -0.00000000000E+00  0.00000000000E+00  0.21531471939E+02  0.21531471939E+02  0.00000000000E+00 0.  1.
          2   -1    0    0  501    0  0.00000000000E+00 -0.00000000000E+00 -0.92279575502E+03  0.92279575502E+03  0.00000000000E+00 0. -1.
         23    2    1    2    0    0  0.85059897205E+02  0.40745978105E+01 -0.40156097145E+03  0.42910196286E+03  0.12500196910E+03 0.  0.
         23    2    1    2    0    0 -0.85059897205E+02 -0.40745978105E+01 -0.49970331163E+03  0.51522526410E+03  0.92205664958E+02 0.  0.
          5    1    3    3  502    0 -0.44605531911E+01  0.50073167368E+02 -0.13573680913E+03  0.14482330606E+03  0.47000000000E+01 0.  1.
         -5    1    3    3    0  502  0.89520450396E+02 -0.45998569557E+02 -0.26582416232E+03  0.28427865680E+03  0.47000000000E+01 0.  1.
        -11    1    4    4    0    0 -0.50350288072E+02 -0.46758130329E+02 -0.23368945440E+03  0.24358209162E+03  0.00000000000E+00 0.  1.
         11    1    4    4    0    0 -0.34709609133E+02  0.42683532519E+02 -0.26601385723E+03  0.27164317248E+03  0.00000000000E+00 0. -1.
<mgrwt>
<rscale>  0 0.14436083E+03</rscale>
<asrwt>0</asrwt>
<pdfrwt beam="2">  1        2 0.14196855E+00 0.15125237E+03</pdfrwt>
<pdfrwt beam="1">  1       -2 0.33125347E-02 0.15125237E+03</pdfrwt>
<totfact> 0.10380922E+04</totfact>
</mgrwt>
</event>
<event>
 8    1  0.1033707E-005  0.2041882E+03  0.7546771E-02  0.1150073E+00
         -2   -1    0    0    0  501 -0.00000000000E+00  0.00000000000E+00  0.37154514339E+02  0.37154514339E+02  0.00000000000E+00 0.  1.
          2   -1    0    0  501    0  0.00000000000E+00 -0.00000000000E+00 -0.11684347382E+04  0.11684347382E+04  0.00000000000E+00 0. -1.
         23    2    1    2    0    0 -0.15109686777E+03 -0.56987410825E+02 -0.37854423634E+03  0.43010295062E+03  0.12495991688E+03 0.  0.
         23    2    1    2    0    0  0.15109686777E+03  0.56987410825E+02 -0.75273598749E+03  0.77548630188E+03  0.93218609221E+02 0.  0.
          5    1    3    3  502    0  0.11960649308E+02 -0.62642409075E+01  0.53878969035E+00  0.14306576822E+02  0.47000000000E+01 0.  1.
         -5    1    3    3    0  502 -0.16305751708E+03 -0.50723169917E+02 -0.37908302603E+03  0.41579637380E+03  0.47000000000E+01 0.  1.
        -11    1    4    4    0    0  0.11321855062E+03  0.90381839236E-01 -0.37893266263E+03  0.39548503282E+03  0.00000000000E+00 0.  1.
         11    1    4    4    0    0  0.37878317150E+02  0.56897028986E+02 -0.37380332486E+03  0.38000126907E+03  0.00000000000E+00 0. -1.
<mgrwt>
<rscale>  0 0.19960420E+03</rscale>
<asrwt>0</asrwt>
<pdfrwt beam="2">  1        2 0.17975918E+00 0.20418817E+03</pdfrwt>
<pdfrwt beam="1">  1       -2 0.57160795E-02 0.20418817E+03</pdfrwt>
<totfact> 0.33056457E+03</totfact>
</mgrwt>
</event>
<event>
 8    1  0.1033707E-005  0.2676460E+03  0.7546771E-02  0.1104786E+00
          2   -1    0    0  501    0  0.00000000000E+00  0.00000000000E+00  0.92717389813E+03  0.92717389813E+03  0.00000000000E+00 0. -1.
         -2   -1    0    0    0  501 -0.00000000000E+00 -0.00000000000E+00 -0.22725172826E+03  0.22725172826E+03  0.00000000000E+00 0.  1.
         23    2    1    2    0    0 -0.26858833450E+02  0.23513447556E+03 -0.12217811114E+03  0.29421398053E+03  0.12499902787E+03 0.  0.
         23    2    1    2    0    0  0.26858833450E+02 -0.23513447556E+03  0.82210028100E+03  0.86021164586E+03  0.90031023113E+02 0.  0.
          5    1    3    3  502    0 -0.62263419813E+02  0.21930628243E+03 -0.97400665470E+02  0.24795354120E+03  0.47000000000E+01 0. -1.
         -5    1    3    3    0  502  0.35404586363E+02  0.15828193131E+02 -0.24777445665E+02  0.46260439330E+02  0.47000000000E+01 0. -1.
        -11    1    4    4    0    0 -0.30066051471E+02 -0.74680853637E+02  0.21093861560E+03  0.22577931017E+03  0.00000000000E+00 0.  1.
         11    1    4    4    0    0  0.56924884921E+02 -0.16045362193E+03  0.61116166540E+03  0.63443233569E+03  0.00000000000E+00 0. -1.
<mgrwt>
<rscale>  0 0.26396156E+03</rscale>
<asrwt>0</asrwt>
<pdfrwt beam="1">  1        2 0.14264214E+00 0.26764599E+03</pdfrwt>
<pdfrwt beam="2">  1       -2 0.34961805E-01 0.26764599E+03</pdfrwt>
<totfact> 0.22680350E+02</totfact>
</mgrwt>
</event>
<event>
 8    1  0.1033707E-005  0.1259770E+03  0.7546771E-02  0.1248631E+00
         -2   -1    0    0    0  501 -0.00000000000E+00  0.00000000000E+00  0.87547865190E+02  0.87547865190E+02  0.00000000000E+00 0.  1.
          2   -1    0    0  501    0  0.00000000000E+00 -0.00000000000E+00 -0.16119787952E+03  0.16119787952E+03  0.00000000000E+00 0. -1.
         23    2    1    2    0    0 -0.14000147026E+02 -0.69888483099E+01  0.64805269726E+01  0.12614355260E+03  0.12500140206E+03 0.  0.
         23    2    1    2    0    0  0.14000147026E+02  0.69888483099E+01 -0.80130541300E+02  0.12260219211E+03  0.91463357377E+02 0.  0.
          5    1    3    3  502    0 -0.28744444895E+02  0.53347998119E+02  0.16670493898E+02  0.63025767607E+02  0.47000000000E+01 0. -1.
         -5    1    3    3    0  502  0.14744297869E+02 -0.60336846429E+02 -0.10189966926E+02  0.63117784995E+02  0.47000000000E+01 0. -1.
        -11    1    4    4    0    0  0.27666619934E+02  0.39711196960E+02 -0.19128017621E+02  0.52041349720E+02  0.00000000000E+00 0.  1.
         11    1    4    4    0    0 -0.13666472908E+02 -0.32722348651E+02 -0.61002523679E+02  0.70560842386E+02  0.00000000000E+00 0. -1.
<mgrwt>
<rscale>  0 0.11670683E+03</rscale>
<asrwt>0</asrwt>
<pdfrwt beam="2">  1        2 0.24799674E-01 0.12597698E+03</pdfrwt>
<pdfrwt beam="1">  1       -2 0.13468902E-01 0.12597698E+03</pdfrwt>
<totfact> 0.83469168E+03</totfact>
</mgrwt>
</event>
<event>
 8    1  0.1033707E-005  0.1294472E+03  0.7546771E-02  0.1239104E+00
          1   -1    0    0  501    0  0.00000000000E+00  0.00000000000E+00  0.29477184852E+03  0.29477184852E+03  0.00000000000E+00 0. -1.
         -1   -1    0    0    0  501 -0.00000000000E+00 -0.00000000000E+00 -0.47275975109E+02  0.47275975109E+02  0.00000000000E+00 0.  1.
         23    2    1    2    0    0  0.60531398409E+01  0.33071549127E+02  0.11011012475E+03  0.16994355437E+03  0.12500481685E+03 0.  0.
         23    2    1    2    0    0 -0.60531398409E+01 -0.33071549127E+02  0.13738574866E+03  0.17210426926E+03  0.98054411924E+02 0.  0.
          5    1    3    3  502    0  0.99003931183E+01  0.62084151397E+02  0.79179456778E+01  0.63539306751E+02  0.47000000000E+01 0.  1.
         -5    1    3    3    0  502 -0.38472532774E+01 -0.29012602270E+02  0.10219217907E+03  0.10640424762E+03  0.47000000000E+01 0.  1.
        -11    1    4    4    0    0  0.23143817758E+01  0.18650779809E+02 -0.57715606273E+01  0.19660082974E+02  0.00000000000E+00 0.  1.
         11    1    4    4    0    0 -0.83675216168E+01 -0.51722328936E+02  0.14315730929E+03  0.15244418628E+03  0.00000000000E+00 0. -1.
<mgrwt>
<rscale>  0 0.12245328E+03</rscale>
<asrwt>0</asrwt>
<pdfrwt beam="1">  1        1 0.45349514E-01 0.12944718E+03</pdfrwt>
<pdfrwt beam="2">  1       -1 0.72732271E-02 0.12944718E+03</pdfrwt>
<totfact> 0.84418022E+03</totfact>
</mgrwt>
</event>
<event>
 8    1  0.1564178E-005  0.2964946E+03  0.7546771E-02  0.1088620E+00
         -2   -1    0    0    0  501 -0.00000000000E+00  0.00000000000E+00  0.30979570953E+02  0.30979570953E+02  0.00000000000E+00 0.  1.
          2   -1    0    0  501    0  0.00000000000E+00 -0.00000000000E+00 -0.27335687736E+04  0.27335687736E+04  0.00000000000E+00 0. -1.
         23    2    1    2    0    0 -0.62051798996E+02 -0.26159824282E+03 -0.12824648776E+04  0.13162922181E+04  0.12499989883E+03 0.  0.
         23    2    1    2    0    0  0.62051798996E+02  0.26159824282E+03 -0.14201243251E+04  0.14482561265E+04  0.91698652408E+02 0.  0.
          5    1    3    3  502    0 -0.72527975091E+01 -0.23157065833E+03 -0.94006285000E+03  0.96820340055E+03  0.47000000000E+01 0.  1.
         -5    1    3    3    0  502 -0.54799001487E+02 -0.30027584499E+02 -0.34240202760E+03  0.34808881755E+03  0.47000000000E+01 0.  1.
        -11    1    4    4    0    0  0.76341748557E+02  0.16286852624E+03 -0.10294555002E+04  0.10450515998E+04  0.00000000000E+00 0. -1.
         11    1    4    4    0    0 -0.14289949560E+02  0.98729716588E+02 -0.39066882490E+03  0.40320452670E+03  0.00000000000E+00 0.  1.
<mgrwt>
<rscale>  0 0.29333701E+03</rscale>
<asrwt>0</asrwt>
<pdfrwt beam="2">  1        2 0.42054913E+00 0.29649459E+03</pdfrwt>
<pdfrwt beam="1">  1       -2 0.47660869E-02 0.29649459E+03</pdfrwt>
<totfact> 0.62306270E+02</totfact>
</mgrwt>
</event>
<event>
 8    1  0.1033707E-005  0.2311478E+03  0.7546771E-02  0.1128549E+00
          2   -1    0    0  501    0  0.00000000000E+00  0.00000000000E+00  0.68687773912E+03  0.68687773912E+03  0.00000000000E+00 0. -1.
         -2   -1    0    0    0  501 -0.00000000000E+00 -0.00000000000E+00 -0.88983593464E+02  0.88983593464E+02  0.00000000000E+00 0.  1.
         23    2    1    2    0    0 -0.18224665415E+02  0.19357736771E+03  0.14191150576E+03  0.27123451212E+03  0.12499979752E+03 0.  0.
         23    2    1    2    0    0  0.18224665415E+02 -0.19357736771E+03  0.45598263989E+03  0.50462682046E+03  0.94465466312E+02 0.  0.
          5    1    3    3  502    0 -0.62865832169E+02  0.80364946865E+02  0.98623385884E+02  0.14198344897E+03  0.47000000000E+01 0. -1.
         -5    1    3    3    0  502  0.44641166754E+02  0.11321242084E+03  0.43288119875E+02  0.12925106315E+03  0.47000000000E+01 0. -1.
        -11    1    4    4    0    0 -0.21876903239E+02 -0.22156509455E+02  0.28097580194E+02  0.41940241050E+02  0.00000000000E+00 0.  1.
         11    1    4    4    0    0  0.40101568654E+02 -0.17142085825E+03  0.42788505970E+03  0.46268657941E+03  0.00000000000E+00 0. -1.
<mgrwt>
<rscale>  0 0.22730787E+03</rscale>
<asrwt>0</asrwt>
<pdfrwt beam="1">  1        2 0.10567349E+00 0.23114776E+03</pdfrwt>
<pdfrwt beam="2">  1       -2 0.13689784E-01 0.23114776E+03</pdfrwt>
<totfact> 0.17059293E+03</totfact>
</mgrwt>
</event>
<event>
 8    1  0.1033707E-005  0.1485873E+03  0.7546771E-02  0.1211847E+00
         -1   -1    0    0    0  501 -0.00000000000E+00  0.00000000000E+00  0.83648361642E+02  0.83648361642E+02  0.00000000000E+00 0.  1.
          1   -1    0    0  501    0  0.00000000000E+00 -0.00000000000E+00 -0.25520690041E+03  0.25520690041E+03  0.00000000000E+00 0. -1.
         23    2    1    2    0    0 -0.60176544613E+02 -0.53219337110E+02 -0.28003424975E+02  0.15120308811E+03  0.12499867071E+03 0.  0.
         23    2    1    2    0    0  0.60176544613E+02  0.53219337110E+02 -0.14355511380E+03  0.18765217394E+03  0.90287060669E+02 0.  0.
          5    1    3    3  502    0  0.13229832356E+02 -0.69860212903E+02 -0.15220179951E+01  0.71273307415E+02  0.47000000000E+01 0.  1.
         -5    1    3    3    0  502 -0.73406376968E+02  0.16640875793E+02 -0.26481406980E+02  0.79929780698E+02  0.47000000000E+01 0.  1.
        -11    1    4    4    0    0  0.14373050060E+02  0.68608979706E+02 -0.10288157753E+03  0.12449255262E+03  0.00000000000E+00 0. -1.
         11    1    4    4    0    0  0.45803494552E+02 -0.15389642596E+02 -0.40673536269E+02  0.63159621318E+02  0.00000000000E+00 0.  1.
<mgrwt>
<rscale>  0 0.14110745E+03</rscale>
<asrwt>0</asrwt>
<pdfrwt beam="2">  1        1 0.39262599E-01 0.14858729E+03</pdfrwt>
<pdfrwt beam="1">  1       -1 0.12868979E-01 0.14858729E+03</pdfrwt>
<totfact> 0.42621431E+03</totfact>
</mgrwt>
</event>
<event>
 8    1  0.1033707E-005  0.2108928E+03  0.7546771E-02  0.1144674E+00
          2   -1    0    0  501    0  0.00000000000E+00  0.00000000000E+00  0.17292121176E+03  0.17292121176E+03  0.00000000000E+00 0. -1.
         -2   -1    0    0    0  501 -0.00000000000E+00 -0.00000000000E+00 -0.24266759441E+03  0.24266759441E+03  0.00000000000E+00 0.  1.
         23    2    1    2    0    0  0.10907581840E+02 -0.16950292620E+03 -0.72837107095E+02  0.22311664120E+03  0.12500229630E+03 0.  0.
         23    2    1    2    0    0 -0.10907581840E+02  0.16950292620E+03  0.30907244407E+01  0.19247216496E+03  0.90475214156E+02 0.  0.
          5    1    3    3  502    0 -0.52634036742E+02 -0.10679488709E+03 -0.57912463581E+02  0.13248182204E+03  0.47000000000E+01 0. -1.
         -5    1    3    3    0  502  0.63541618582E+02 -0.62708039108E+02 -0.14924643514E+02  0.90634819164E+02  0.47000000000E+01 0. -1.
        -11    1    4    4    0    0 -0.15094565561E+02  0.10502946039E+03 -0.41536371730E+02  0.11394868861E+03  0.00000000000E+00 0.  1.
         11    1    4    4    0    0  0.41869837213E+01  0.64473465808E+02  0.44627096171E+02  0.78523476353E+02  0.00000000000E+00 0. -1.
<mgrwt>
<rscale>  0 0.20612201E+03</rscale>
<asrwt>0</asrwt>
<pdfrwt beam="1">  1        2 0.26603263E-01 0.21089284E+03</pdfrwt>
<pdfrwt beam="2">  1       -2 0.37333476E-01 0.21089284E+03</pdfrwt>
<totfact> 0.13541268E+03</totfact>
</mgrwt>
</event>
<event>
 8    1  0.1033707E-005  0.1582696E+03  0.7546771E-02  0.1198694E+00
         -2   -1    0    0    0  501 -0.00000000000E+00  0.00000000000E+00  0.15998845792E+03  0.15998845792E+03  0.00000000000E+00 0.  1.
          2   -1    0    0  501    0  0.00000000000E+00 -0.00000000000E+00 -0.15797822971E+03  0.15797822971E+03  0.00000000000E+00 0. -1.
         23    2    1    2    0    0  0.89581258939E+02 -0.37419058968E+02  0.64940703540E+02  0.17107472529E+03  0.12499711489E+03 0.  0.
         23    2    1    2    0    0 -0.89581258939E+02  0.37419058968E+02 -0.62930475324E+02  0.14689196234E+03  0.90509756099E+02 0.  0.
          5    1    3    3  502    0 -0.15661735477E+02 -0.46988284277E+02  0.63641577218E+01  0.50157564942E+02  0.47000000000E+01 0. -1.
         -5    1    3    3    0  502  0.10524299442E+03  0.95692253090E+01  0.58576545818E+02  0.12091716035E+03  0.47000000000E+01 0. -1.
        -11    1    4    4    0    0 -0.99590185711E+01  0.50572352836E+02 -0.18464287074E+02  0.54751025738E+02  0.00000000000E+00 0.  1.
         11    1    4    4    0    0 -0.79622240368E+02 -0.13153293868E+02 -0.44466188250E+02  0.92140936604E+02  0.00000000000E+00 0. -1.
<mgrwt>
<rscale>  0 0.15145710E+03</rscale>
<asrwt>0</asrwt>
<pdfrwt beam="2">  1        2 0.24304343E-01 0.15826960E+03</pdfrwt>
<pdfrwt beam="1">  1       -2 0.24613609E-01 0.15826960E+03</pdfrwt>
<totfact> 0.31531349E+03</totfact>
</mgrwt>
</event>
<event>
 8    1  0.1033707E-005  0.1441047E+03  0.7546771E-02  0.1219041E+00
          1   -1    0    0  501    0  0.00000000000E+00  0.00000000000E+00  0.52985233555E+03  0.52985233555E+03  0.00000000000E+00 0. -1.
         -1   -1    0    0    0  501 -0.00000000000E+00 -0.00000000000E+00 -0.32039633011E+02  0.32039633011E+02  0.00000000000E+00 0.  1.
         23    2    1    2    0    0 -0.24307430665E+01 -0.71664878868E+02  0.31767394137E+03  0.34883075324E+03  0.12499759201E+03 0.  0.
         23    2    1    2    0    0  0.24307430665E+01  0.71664878868E+02  0.18013876117E+03  0.21306121531E+03  0.88336542954E+02 0.  0.
          5    1    3    3  502    0 -0.50477374409E+02 -0.65558970519E+02  0.26246592358E+03  0.27523879629E+03  0.47000000000E+01 0. -1.
         -5    1    3    3    0  502  0.48046631343E+02 -0.61059083496E+01  0.55208017787E+02  0.73591956953E+02  0.47000000000E+01 0. -1.
        -11    1    4    4    0    0  0.19733626885E+02  0.64745511583E+02  0.18214857083E+03  0.19431803610E+03  0.00000000000E+00 0. -1.
         11    1    4    4    0    0 -0.17302883819E+02  0.69193672851E+01 -0.20098096601E+01  0.18743179211E+02  0.00000000000E+00 0.  1.
<mgrwt>
<rscale>  0 0.13583816E+03</rscale>
<asrwt>0</asrwt>
<pdfrwt beam="1">  1        1 0.81515737E-01 0.14410469E+03</pdfrwt>
<pdfrwt beam="2">  1       -1 0.49291747E-02 0.14410469E+03</pdfrwt>
<totfact> 0.72236592E+03</totfact>
</mgrwt>
</event>
<event>
 8    1  0.1033707E-005  0.2063352E+03  0.7546771E-02  0.1148381E+00
          1   -1    0    0  501    0  0.00000000000E+00  0.00000000000E+00  0.70638728375E+03  0.70638728375E+03  0.00000000000E+00 0. -1.
         -1   -1    0    0    0  501 -0.00000000000E+00 -0.00000000000E+00 -0.59909951096E+02  0.59909951096E+02  0.00000000000E+00 0.  1.
         23    2    1    2    0    0 -0.92814201707E+02 -0.13541409323E+03  0.22808863991E+03  0.30756890430E+03  0.12499100189E+03 0.  0.
         23    2    1    2    0    0  0.92814201707E+02  0.13541409323E+03  0.41838869275E+03  0.45872833055E+03  0.91821186787E+02 0.  0.
          5    1    3    3  502    0 -0.23253421097E+01 -0.66979344386E+01 -0.15421148642E+02  0.17611682688E+02  0.47000000000E+01 0. -1.
         -5    1    3    3    0  502 -0.90488859597E+02 -0.12871615879E+03  0.24350978855E+03  0.28995722161E+03  0.47000000000E+01 0. -1.
        -11    1    4    4    0    0  0.51585952620E+02  0.31641349136E+02  0.68251989180E+02  0.91217429858E+02  0.00000000000E+00 0.  1.
         11    1    4    4    0    0  0.41228249087E+02  0.10377274410E+03  0.35013670357E+03  0.36751090069E+03  0.00000000000E+00 0. -1.
<mgrwt>
<rscale>  0 0.20161769E+03</rscale>
<asrwt>0</asrwt>
<pdfrwt beam="1">  1        1 0.10867496E+00 0.20633517E+03</pdfrwt>
<pdfrwt beam="2">  1       -1 0.92169160E-02 0.20633517E+03</pdfrwt>
<totfact> 0.19153263E+03</totfact>
</mgrwt>
</event>
<event>
 8    1  0.1033707E-005  0.1583135E+03  0.7546771E-02  0.1198591E+00
         -1   -1    0    0    0  501 -0.00000000000E+00  0.00000000000E+00  0.25805716508E+03  0.25805716508E+03  0.00000000000E+00 0.  1.
          1   -1    0    0  501    0  0.00000000000E+00 -0.00000000000E+00 -0.91233274965E+02  0.91233274965E+02  0.00000000000E+00 0. -1.
         23    2    1    2    0    0  0.65904587404E+02 -0.71374778345E+02  0.14482910844E+03  0.21456616053E+03  0.12500157186E+03 0.  0.
         23    2    1    2    0    0 -0.65904587404E+02  0.71374778345E+02  0.21994781676E+02  0.13472427951E+03  0.90714317752E+02 0.  0.
          5    1    3    3  502    0 -0.33359497009E+02 -0.43487094319E+02  0.46941131157E+02  0.72315580668E+02  0.47000000000E+01 0.  1.
         -5    1    3    3    0  502  0.99264084413E+02 -0.27887684026E+02  0.97887977279E+02  0.14225057986E+03  0.47000000000E+01 0.  1.
        -11    1    4    4    0    0 -0.77748824255E+02  0.39055082549E+02  0.40132381164E+02  0.95816424291E+02  0.00000000000E+00 0.  1.
         11    1    4    4    0    0  0.11844236852E+02  0.32319695796E+02 -0.18137599488E+02  0.38907855224E+02  0.00000000000E+00 0. -1.
<mgrwt>
<rscale>  0 0.15154214E+03</rscale>
<asrwt>0</asrwt>
<pdfrwt beam="2">  1        1 0.14035889E-01 0.15831351E+03</pdfrwt>
<pdfrwt beam="1">  1       -1 0.39701102E-01 0.15831351E+03</pdfrwt>
<totfact> 0.24845392E+03</totfact>
</mgrwt>
</event>
<event>
 6    1  0.1033707E-005  0.3917692E+03  0.7546771E-02  0.1093434E+00
          2   -1    0    0  501    0  0.00000000000E+00  0.00000000000E+00  0.40120395310E+03  0.40120395310E+03  0.00000000000E+00 0. -1.
         -2   -1    0    0    0  501 -0.00000000000E+00 -0.00000000000E+00 -0.15718192868E+03  0.15718192868E+03  0.00000000000E+00 0.  1.
          5    1    1    2  502    0  0.28254715496E+02 -0.11228560519E+03  0.22722987258E+03  0.25507232518E+03  0.47000000000E+01 0. -1.
         -5    1    1    2    0  502 -0.12406313166E+03  0.10420318828E+03 -0.57363440550E+02  0.17193783585E+03  0.47000000000E+01 0.  1.
        -11    1    1    2    0    0  0.18760532881E+02  0.14868701923E+02 -0.40748545177E+00  0.23941636019E+02  0.00000000000E+00 0. -1.
         11    1    1    2    0    0  0.77047883285E+02 -0.67862850194E+01  0.74563077848E+02  0.10743408473E+03  0.00000000000E+00 0.  1.
<mgrwt>
<rscale>  0 0.28416857E+03</rscale>
<asrwt>0</asrwt>
<pdfrwt beam="1">  1        2 0.61723685E-01 0.39176916E+03</pdfrwt>
<pdfrwt beam="2">  1       -2 0.24181835E-01 0.39176916E+03</pdfrwt>
<totfact> 0.12046709E+03</totfact>
</mgrwt>
</event>
<event>
 8    1  0.1033707E-005  0.1374788E+03  0.7546771E-02  0.1228481E+00
          2   -1    0    0  501    0  0.00000000000E+00  0.00000000000E+00  0.31865013354E+02  0.31865013354E+02  0.00000000000E+00 0. -1.
         -2   -1    0    0    0  501 -0.00000000000E+00 -0.00000000000E+00 -0.51179378772E+03  0.51179378772E+03  0.00000000000E+00 0.  1.
         23    2    1    2    0    0 -0.11078124339E+01 -0.57229862163E+02 -0.34287148936E+03  0.36940665987E+03  0.12499575101E+03 0.  0.
         23    2    1    2    0    0  0.11078124339E+01  0.57229862163E+02 -0.13705728501E+03  0.17425214121E+03  0.91118741040E+02 0.  0.
          5    1    3    3  502    0  0.28427242054E+02 -0.26099231467E+02 -0.20107187962E+02  0.43768333093E+02  0.47000000000E+01 0.  1.
         -5    1    3    3    0  502 -0.29535054488E+02 -0.31130630696E+02 -0.32276430139E+03  0.32563832678E+03  0.47000000000E+01 0.  1.
        -11    1    4    4    0    0 -0.53674326888E+01  0.10684744753E+02  0.12611727864E+02  0.17378975339E+02  0.00000000000E+00 0. -1.
         11    1    4    4    0    0  0.64752451227E+01  0.46545117410E+02 -0.14966901288E+03  0.15687316587E+03  0.00000000000E+00 0.  1.
<mgrwt>
<rscale>  0 0.12931122E+03</rscale>
<asrwt>0</asrwt>
<pdfrwt beam="1">  1        2 0.49023101E-02 0.13747881E+03</pdfrwt>
<pdfrwt beam="2">  1       -2 0.78737500E-01 0.13747881E+03</pdfrwt>
<totfact> 0.22862689E+03</totfact>
</mgrwt>
</event>
<event>
 8    1  0.1033707E-005  0.1762056E+03  0.7546771E-02  0.1177194E+00
         -1   -1    0    0    0  501 -0.00000000000E+00  0.00000000000E+00  0.61196668777E+02  0.61196668777E+02  0.00000000000E+00 0.  1.
          1   -1    0    0  501    0  0.00000000000E+00 -0.00000000000E+00 -0.44834805266E+03  0.44834805266E+03  0.00000000000E+00 0. -1.
         23    2    1    2    0    0 -0.12026645461E+03  0.31041450291E+02 -0.19852004756E+03  0.26544040913E+03  0.12498323799E+03 0.  0.
         23    2    1    2    0    0  0.12026645461E+03 -0.31041450291E+02 -0.18863133633E+03  0.24410431231E+03  0.92615023077E+02 0.  0.
          5    1    3    3  502    0 -0.30275997909E+02 -0.39416945317E+02 -0.11000639930E+03  0.12080492339E+03  0.47000000000E+01 0.  1.
         -5    1    3    3    0  502 -0.89990456705E+02  0.70458395608E+02 -0.88513648255E+02  0.14463548575E+03  0.47000000000E+01 0.  1.
        -11    1    4    4    0    0  0.10031368315E+03 -0.36560257381E+02 -0.79730664159E+02  0.13325339116E+03  0.00000000000E+00 0.  1.
         11    1    4    4    0    0  0.19952771462E+02  0.55188070903E+01 -0.10890067217E+03  0.11085092115E+03  0.00000000000E+00 0. -1.
<mgrwt>
<rscale>  0 0.17062896E+03</rscale>
<asrwt>0</asrwt>
<pdfrwt beam="2">  1        1 0.68976624E-01 0.17620557E+03</pdfrwt>
<pdfrwt beam="1">  1       -1 0.94148720E-02 0.17620557E+03</pdfrwt>
<totfact> 0.34273146E+03</totfact>
</mgrwt>
</event>
<event>
 7    1  0.1033707E-005  0.1634522E+03  0.7546771E-02  0.1185728E+00
         -1   -1    0    0    0  501 -0.00000000000E+00  0.00000000000E+00  0.25742422222E+02  0.25742422222E+02  0.00000000000E+00 0.  1.
          1   -1    0    0  501    0  0.00000000000E+00 -0.00000000000E+00 -0.11455210487E+04  0.11455210487E+04  0.00000000000E+00 0. -1.
         23    2    1    2    0    0 -0.49421998637E+02  0.87338303254E+02 -0.35960399612E+03  0.39371469704E+03  0.12500286189E+03 0.  0.
          5    1    3    3  502    0 -0.70569334216E+02  0.24600868597E+01 -0.13084202078E+03  0.14875418435E+03  0.47000000000E+01 0. -1.
         -5    1    3    3    0  502  0.21147335580E+02  0.84878216394E+02 -0.22876197533E+03  0.24496051269E+03  0.47000000000E+01 0. -1.
        -11    1    1    2    0    0 -0.11734140826E+02 -0.98256976574E+02 -0.52881160333E+03  0.53799055319E+03  0.00000000000E+00 0. -1.
         11    1    1    2    0    0  0.61156139462E+02  0.10918673320E+02 -0.23136302698E+03  0.23955822063E+03  0.00000000000E+00 0.  1.
<mgrwt>
<rscale>  0 0.16265851E+03</rscale>
<asrwt>0</asrwt>
<pdfrwt beam="2">  1        1 0.17623405E+00 0.16345222E+03</pdfrwt>
<pdfrwt beam="1">  1       -1 0.39603718E-02 0.16345222E+03</pdfrwt>
<totfact> 0.30949534E+03</totfact>
</mgrwt>
</event>
<event>
 8    1  0.1033707E-005  0.1309394E+03  0.7546771E-02  0.1238755E+00
          1   -1    0    0  501    0  0.00000000000E+00  0.00000000000E+00  0.94373111323E+02  0.94373111323E+02  0.00000000000E+00 0. -1.
         -1   -1    0    0    0  501 -0.00000000000E+00 -0.00000000000E+00 -0.14372086969E+03  0.14372086969E+03  0.00000000000E+00 0.  1.
         23    2    1    2    0    0  0.27568622836E+02  0.27480557955E+02 -0.39383711678E+02  0.13673407544E+03  0.12501968089E+03 0.  0.
         23    2    1    2    0    0 -0.27568622836E+02 -0.27480557955E+02 -0.99640466843E+01  0.10135990557E+03  0.93055565121E+02 0.  0.
          5    1    3    3  502    0  0.64339302623E+02  0.49873596700E+02 -0.44882972357E+02  0.93077885222E+02  0.47000000000E+01 0. -1.
         -5    1    3    3    0  502 -0.36770679787E+02 -0.22393038745E+02  0.54992606782E+01  0.43656190217E+02  0.47000000000E+01 0. -1.
        -11    1    4    4    0    0  0.19904502552E+01 -0.52758679772E+02  0.15315359000E+02  0.54972724189E+02  0.00000000000E+00 0. -1.
         11    1    4    4    0    0 -0.29559073091E+02  0.25278121817E+02 -0.25279405684E+02  0.46387181380E+02  0.00000000000E+00 0.  1.
<mgrwt>
<rscale>  0 0.12267108E+03</rscale>
<asrwt>0</asrwt>
<pdfrwt beam="1">  1        1 0.14518940E-01 0.13093942E+03</pdfrwt>
<pdfrwt beam="2">  1       -1 0.22110903E-01 0.13093942E+03</pdfrwt>
<totfact> 0.62962288E+03</totfact>
</mgrwt>
</event>
<event>
 8    1  0.1033707E-005  0.1389584E+03  0.7546771E-02  0.1226266E+00
         -2   -1    0    0    0  501 -0.00000000000E+00  0.00000000000E+00  0.21731999475E+03  0.21731999475E+03  0.00000000000E+00 0.  1.
          2   -1    0    0  501    0  0.00000000000E+00 -0.00000000000E+00 -0.72074111824E+02  0.72074111824E+02  0.00000000000E+00 0. -1.
         23    2    1    2    0    0 -0.57728877636E+02  0.18758675744E+02  0.10039400767E+03  0.17143046748E+03  0.12499974871E+03 0.  0.
         23    2    1    2    0    0  0.57728877636E+02 -0.18758675744E+02  0.44851875256E+02  0.11796363909E+03  0.90659904065E+02 0.  0.
          5    1    3    3  502    0 -0.34704914639E+00  0.59524172987E+02  0.76295173563E+02  0.96882873212E+02  0.47000000000E+01 0.  1.
         -5    1    3    3    0  502 -0.57381828489E+02 -0.40765497243E+02  0.24098834109E+02  0.74547594271E+02  0.47000000000E+01 0.  1.
        -11    1    4    4    0    0  0.13117141904E+02  0.97460860038E+01 -0.25274712102E+02  0.30097452981E+02  0.00000000000E+00 0. -1.
         11    1    4    4    0    0  0.44611735732E+02 -0.28504761747E+02  0.70126587357E+02  0.87866186111E+02  0.00000000000E+00 0.  1.
<mgrwt>
<rscale>  0 0.13080492E+03</rscale>
<asrwt>0</asrwt>
<pdfrwt beam="2">  1        2 0.11088325E-01 0.13895844E+03</pdfrwt>
<pdfrwt beam="1">  1       -2 0.33433845E-01 0.13895844E+03</pdfrwt>
<totfact> 0.45015038E+03</totfact>
</mgrwt>
</event>
<event>
 8    1  0.1033707E-005  0.1336382E+03  0.7546771E-02  0.1235463E+00
          3   -1    0    0  501    0  0.00000000000E+00  0.00000000000E+00  0.57547989129E+02  0.57547989129E+02  0.00000000000E+00 0. -1.
         -3   -1    0    0    0  501 -0.00000000000E+00 -0.00000000000E+00 -0.24021678025E+03  0.24021678025E+03  0.00000000000E+00 0.  1.
         23    2    1    2    0    0  0.35937869744E+02  0.30700183244E+02 -0.10109594256E+03  0.16756957944E+03  0.12500057048E+03 0.  0.
         23    2    1    2    0    0 -0.35937869744E+02 -0.30700183244E+02 -0.81572848563E+02  0.13019518994E+03  0.89792127309E+02 0.  0.
          5    1    3    3  502    0  0.41521502723E+02 -0.40593318008E+02 -0.65135108645E+02  0.87387213215E+02  0.47000000000E+01 0.  1.
         -5    1    3    3    0  502 -0.55836329789E+01  0.71293501252E+02 -0.35960833912E+02  0.80182366226E+02  0.47000000000E+01 0.  1.
        -11    1    4    4    0    0 -0.37468919946E+02  0.15970280560E+02 -0.57321943415E+01  0.41131835299E+02  0.00000000000E+00 0. -1.
         11    1    4    4    0    0  0.15310502018E+01 -0.46670463804E+02 -0.75840654221E+02  0.89063354636E+02  0.00000000000E+00 0.  1.
<mgrwt>
<rscale>  0 0.12474842E+03</rscale>
<asrwt>0</asrwt>
<pdfrwt beam="1">  1        3 0.88535369E-02 0.13363822E+03</pdfrwt>
<pdfrwt beam="2">  1       -3 0.36956427E-01 0.13363822E+03</pdfrwt>
<totfact> 0.14977790E+03</totfact>
</mgrwt>
</event>
<event>
 8    1  0.1033707E-005  0.1414217E+03  0.7546771E-02  0.1221740E+00
          1   -1    0    0  501    0  0.00000000000E+00  0.00000000000E+00  0.15923796717E+02  0.15923796717E+02  0.00000000000E+00 0. -1.
         -1   -1    0    0    0  501 -0.00000000000E+00 -0.00000000000E+00 -0.10711179054E+04  0.10711179054E+04  0.00000000000E+00 0.  1.
         23    2    1    2    0    0  0.66027973651E+02  0.26740305394E+01 -0.69764264436E+03  0.71183238906E+03  0.12503298424E+03 0.  0.
         23    2    1    2    0    0 -0.66027973651E+02 -0.26740305394E+01 -0.35755146433E+03  0.37520931306E+03  0.92585826224E+02 0.  0.
          5    1    3    3  502    0  0.25145228033E+02 -0.39876917897E+02 -0.93706390171E+02  0.10500204109E+03  0.47000000000E+01 0. -1.
         -5    1    3    3    0  502  0.40882745618E+02  0.42550948436E+02 -0.60393625419E+03  0.60683034798E+03  0.47000000000E+01 0. -1.
        -11    1    4    4    0    0 -0.57967282202E+02 -0.43160978461E+02 -0.23802068878E+03  0.24875072694E+03  0.00000000000E+00 0.  1.
         11    1    4    4    0    0 -0.80606914489E+01  0.40486947922E+02 -0.11953077555E+03  0.12645858611E+03  0.00000000000E+00 0. -1.
<mgrwt>
<rscale>  0 0.13392896E+03</rscale>
<asrwt>0</asrwt>
<pdfrwt beam="1">  1        1 0.24498147E-02 0.14142168E+03</pdfrwt>
<pdfrwt beam="2">  1       -1 0.16478738E+00 0.14142168E+03</pdfrwt>
<totfact> 0.13030533E+03</totfact>
</mgrwt>
</event>
<event>
 8    1  0.1033707E-005  0.1621848E+03  0.7546771E-02  0.1193010E+00
         -1   -1    0    0    0  501 -0.00000000000E+00  0.00000000000E+00  0.35679103045E+02  0.35679103045E+02  0.00000000000E+00 0.  1.
          1   -1    0    0  501    0  0.00000000000E+00 -0.00000000000E+00 -0.86030500756E+03  0.86030500756E+03  0.00000000000E+00 0. -1.
         23    2    1    2    0    0  0.10473569140E+02  0.10280948702E+03 -0.20811005967E+03  0.26384409413E+03  0.12499769118E+03 0.  0.
         23    2    1    2    0    0 -0.10473569140E+02 -0.10280948702E+03 -0.61651584485E+03  0.63214001647E+03  0.93966628177E+02 0.  0.
          5    1    3    3  502    0  0.45772921092E+02  0.11123118749E+03 -0.18450121676E+03  0.22029599715E+03  0.47000000000E+01 0.  1.
         -5    1    3    3    0  502 -0.35299351952E+02 -0.84217004678E+01 -0.23608842913E+02  0.43548096981E+02  0.47000000000E+01 0.  1.
        -11    1    4    4    0    0 -0.33647600040E+02 -0.96877196510E+02 -0.57624957269E+03  0.58530412797E+03  0.00000000000E+00 0. -1.
         11    1    4    4    0    0  0.23174030900E+02 -0.59322905104E+01 -0.40266272157E+02  0.46835888507E+02  0.00000000000E+00 0.  1.
<mgrwt>
<rscale>  0 0.15623833E+03</rscale>
<asrwt>0</asrwt>
<pdfrwt beam="2">  1        1 0.13235462E+00 0.16218480E+03</pdfrwt>
<pdfrwt beam="1">  1       -1 0.54890928E-02 0.16218480E+03</pdfrwt>
<totfact> 0.30989731E+03</totfact>
</mgrwt>
</event>
<event>
 8    1  0.1033707E-005  0.2942196E+03  0.7546771E-02  0.1089834E+00
          1   -1    0    0  501    0  0.00000000000E+00  0.00000000000E+00  0.16402908081E+03  0.16402908081E+03  0.00000000000E+00 0. -1.
         -1   -1    0    0    0  501 -0.00000000000E+00 -0.00000000000E+00 -0.58322965769E+03  0.58322965769E+03  0.00000000000E+00 0.  1.
         23    2    1    2    0    0  0.26593482061E+03  0.14661255575E+02 -0.35025369925E+03  0.45743065845E+03  0.12501548795E+03 0.  0.
         23    2    1    2    0    0 -0.26593482061E+03 -0.14661255575E+02 -0.68946877629E+02  0.28982808005E+03  0.91161191432E+02 0.  0.
          5    1    3    3  502    0  0.23285077008E+03  0.51176926809E+02 -0.32119430302E+03  0.40003303521E+03  0.47000000000E+01 0. -1.
         -5    1    3    3    0  502  0.33084050526E+02 -0.36515671234E+02 -0.29059396231E+02  0.57397623245E+02  0.47000000000E+01 0. -1.
        -11    1    4    4    0    0 -0.17042958950E+03  0.30163408804E+02 -0.62901114586E+02  0.18415381186E+03  0.00000000000E+00 0.  1.
         11    1    4    4    0    0 -0.95505231108E+02 -0.44824664379E+02 -0.60457630424E+01  0.10567426819E+03  0.00000000000E+00 0. -1.
<mgrwt>
<rscale>  0 0.29098880E+03</rscale>
<asrwt>0</asrwt>
<pdfrwt beam="1">  1        1 0.25235243E-01 0.29421957E+03</pdfrwt>
<pdfrwt beam="2">  1       -1 0.89727642E-01 0.29421957E+03</pdfrwt>
<totfact> 0.24261719E+02</totfact>
</mgrwt>
</event>
<event>
 8    1  0.1033707E-005  0.1753556E+03  0.7546771E-02  0.1178468E+00
         -3   -1    0    0    0  501 -0.00000000000E+00  0.00000000000E+00  0.31971135189E+03  0.31971135189E+03  0.00000000000E+00 0.  1.
          3   -1    0    0  501    0  0.00000000000E+00 -0.00000000000E+00 -0.91084196959E+02  0.91084196959E+02  0.00000000000E+00 0. -1.
         23    2    1    2    0    0 -0.51145359159E+02 -0.11184788535E+03  0.17802974625E+03  0.24988833573E+03  0.12499517016E+03 0.  0.
         23    2    1    2    0    0  0.51145359159E+02  0.11184788535E+03  0.50597408674E+02  0.16090721311E+03  0.90582759098E+02 0.  0.
          5    1    3    3  502    0 -0.64990311721E+02 -0.96190076511E+01  0.38477763496E+02  0.76281676761E+02  0.47000000000E+01 0. -1.
         -5    1    3    3    0  502  0.13844952562E+02 -0.10222887770E+03  0.13955198276E+03  0.17360665897E+03  0.47000000000E+01 0. -1.
        -11    1    4    4    0    0  0.17783753610E+01  0.18587697543E+02 -0.24926148916E+02  0.31144470114E+02  0.00000000000E+00 0.  1.
         11    1    4    4    0    0  0.49366983798E+02  0.93260187810E+02  0.75523557590E+02  0.12976274300E+03  0.00000000000E+00 0. -1.
<mgrwt>
<rscale>  0 0.16940706E+03</rscale>
<asrwt>0</asrwt>
<pdfrwt beam="2">  1        3 0.14012954E-01 0.17535561E+03</pdfrwt>
<pdfrwt beam="1">  1       -3 0.49186361E-01 0.17535561E+03</pdfrwt>
<totfact> 0.41402489E+02</totfact>
</mgrwt>
</event>
<event>
 8    1  0.1033707E-005  0.1513388E+03  0.7546771E-02  0.1207982E+00
          2   -1    0    0  501    0  0.00000000000E+00  0.00000000000E+00  0.29745388073E+03  0.29745388073E+03  0.00000000000E+00 0. -1.
         -2   -1    0    0    0  501 -0.00000000000E+00 -0.00000000000E+00 -0.82684231666E+02  0.82684231666E+02  0.00000000000E+00 0.  1.
         23    2    1    2    0    0  0.25266428158E+02 -0.81490396524E+02  0.25093638817E+02  0.15340509560E+03  0.12499742209E+03 0.  0.
         23    2    1    2    0    0 -0.25266428158E+02  0.81490396524E+02  0.18967601024E+03  0.22673301679E+03  0.90287291047E+02 0.  0.
          5    1    3    3  502    0  0.68031698252E+02 -0.16561279269E+02 -0.39249892240E+01  0.70285727417E+02  0.47000000000E+01 0.  1.
         -5    1    3    3    0  502 -0.42765270094E+02 -0.64929117255E+02  0.29018628041E+02  0.83119368183E+02  0.47000000000E+01 0.  1.
        -11    1    4    4    0    0 -0.41438632973E+02  0.83489065591E+02  0.10456660743E+03  0.14007769189E+03  0.00000000000E+00 0.  1.
         11    1    4    4    0    0  0.16172204816E+02 -0.19986690668E+01  0.85109402815E+02  0.86655324903E+02  0.00000000000E+00 0. -1.
<mgrwt>
<rscale>  0 0.14404942E+03</rscale>
<asrwt>0</asrwt>
<pdfrwt beam="1">  1        2 0.45762135E-01 0.15133880E+03</pdfrwt>
<pdfrwt beam="2">  1       -2 0.12720651E-01 0.15133880E+03</pdfrwt>
<totfact> 0.47890848E+03</totfact>
</mgrwt>
</event>
<event>
 8    1  0.1033707E-005  0.2008171E+03  0.7546771E-02  0.1153339E+00
         -2   -1    0    0    0  501 -0.00000000000E+00  0.00000000000E+00  0.92754183233E+02  0.92754183233E+02  0.00000000000E+00 0.  1.
          2   -1    0    0  501    0  0.00000000000E+00 -0.00000000000E+00 -0.41954281730E+03  0.41954281730E+03  0.00000000000E+00 0. -1.
         23    2    1    2    0    0 -0.71443707946E+02 -0.13999637978E+03 -0.10787902105E+03  0.22795916125E+03  0.12499722500E+03 0.  0.
         23    2    1    2    0    0  0.71443707946E+02  0.13999637978E+03 -0.21890961302E+03  0.28433783928E+03  0.90682955501E+02 0.  0.
          5    1    3    3  502    0  0.15836748799E+02 -0.90998806941E+02 -0.84025114079E+02  0.12495557320E+03  0.47000000000E+01 0.  1.
         -5    1    3    3    0  502 -0.87280456745E+02 -0.48997572839E+02 -0.23853906968E+02  0.10300358805E+03  0.47000000000E+01 0.  1.
        -11    1    4    4    0    0  0.47511412288E+02  0.61653607333E+02 -0.39881725602E+02  0.87458868228E+02  0.00000000000E+00 0.  1.
         11    1    4    4    0    0  0.23932295658E+02  0.78342772448E+02 -0.17902788741E+03  0.19687897105E+03  0.00000000000E+00 0. -1.
<mgrwt>
<rscale>  0 0.19579149E+03</rscale>
<asrwt>0</asrwt>
<pdfrwt beam="2">  1        2 0.64545048E-01 0.20081707E+03</pdfrwt>
<pdfrwt beam="1">  1       -2 0.14269874E-01 0.20081707E+03</pdfrwt>
<totfact> 0.27814238E+03</totfact>
</mgrwt>
</event>
<event>
 8    1  0.1033707E-005  0.1317707E+03  0.7546771E-02  0.1237653E+00
         -2   -1    0    0    0  501 -0.00000000000E+00  0.00000000000E+00  0.23957547821E+02  0.23957547821E+02  0.00000000000E+00 0.  1.
          2   -1    0    0  501    0  0.00000000000E+00 -0.00000000000E+00 -0.63426661274E+03  0.63426661274E+03  0.00000000000E+00 0. -1.
         23    2    1    2    0    0 -0.25486555629E+02 -0.33012521108E+02 -0.23411318708E+03  0.26864938980E+03  0.12499647679E+03 0.  0.
         23    2    1    2    0    0  0.25486555629E+02  0.33012521108E+02 -0.37619587784E+03  0.38957477076E+03  0.92226744709E+02 0.  0.
          5    1    3    3  502    0  0.16977681538E+02 -0.70543767989E+02 -0.15512461347E+03  0.17131958608E+03  0.47000000000E+01 0.  1.
         -5    1    3    3    0  502 -0.42464237167E+02  0.37531246880E+02 -0.78988573609E+02  0.97329803716E+02  0.47000000000E+01 0.  1.
        -11    1    4    4    0    0 -0.24880375404E+02  0.33515248760E+02 -0.93046482570E+02  0.10198015934E+03  0.00000000000E+00 0.  1.
         11    1    4    4    0    0  0.50366931034E+02 -0.50272765150E+00 -0.28314939527E+03  0.28759461142E+03  0.00000000000E+00 0. -1.
<mgrwt>
<rscale>  0 0.12336130E+03</rscale>
<asrwt>0</asrwt>
<pdfrwt beam="2">  1        2 0.97579470E-01 0.13177067E+03</pdfrwt>
<pdfrwt beam="1">  1       -2 0.36857769E-02 0.13177067E+03</pdfrwt>
<totfact> 0.13933856E+04</totfact>
</mgrwt>
</event>
<event>
 8    1  0.1033707E-005  0.1304022E+03  0.7546771E-02  0.1239765E+00
         -3   -1    0    0    0  501 -0.00000000000E+00  0.00000000000E+00  0.56415515298E+02  0.56415515298E+02  0.00000000000E+00 0.  1.
          3   -1    0    0  501    0  0.00000000000E+00 -0.00000000000E+00 -0.33107765752E+03  0.33107765752E+03  0.00000000000E+00 0. -1.
         23    2    1    2    0    0 -0.35732733690E+02 -0.11007310683E+02 -0.46644442350E+02  0.13849350039E+03  0.12492700469E+03 0.  0.
         23    2    1    2    0    0  0.35732733690E+02  0.11007310683E+02 -0.22801769987E+03  0.24899967243E+03  0.92794268521E+02 0.  0.
          5    1    3    3  502    0  0.10005792325E+02 -0.57662854948E+02 -0.43209364747E+02  0.72898970656E+02  0.47000000000E+01 0. -1.
         -5    1    3    3    0  502 -0.45738526014E+02  0.46655544265E+02 -0.34350776032E+01  0.65594529732E+02  0.47000000000E+01 0. -1.
        -11    1    4    4    0    0  0.50868250470E+02  0.34901665808E+02 -0.19955528628E+03  0.20887320906E+03  0.00000000000E+00 0. -1.
         11    1    4    4    0    0 -0.15135516781E+02 -0.23894355124E+02 -0.28462413597E+02  0.40126463373E+02  0.00000000000E+00 0.  1.
<mgrwt>
<rscale>  0 0.12204258E+03</rscale>
<asrwt>0</asrwt>
<pdfrwt beam="2">  1        3 0.50935024E-01 0.13040225E+03</pdfrwt>
<pdfrwt beam="1">  1       -3 0.86793101E-02 0.13040225E+03</pdfrwt>
<totfact> 0.82479814E+02</totfact>
</mgrwt>
</event>
<event>
 8    1  0.1033707E-005  0.1167120E+03  0.7546771E-02  0.1260498E+00
          1   -1    0    0  501    0  0.00000000000E+00  0.00000000000E+00  0.50405991877E+03  0.50405991877E+03  0.00000000000E+00 0. -1.
         -1   -1    0    0    0  501 -0.00000000000E+00 -0.00000000000E+00 -0.22039368053E+02  0.22039368053E+02  0.00000000000E+00 0.  1.
         23    2    1    2    0    0  0.10523046519E+02  0.65716588517E+01  0.23407782403E+03  0.26156092927E+03  0.11605072517E+03 0.  0.
         23    2    1    2    0    0 -0.10523046519E+02 -0.65716588517E+01  0.24794272669E+03  0.26453835755E+03  0.91383946566E+02 0.  0.
          5    1    3    3  502    0  0.56497811573E+02 -0.14887975202E+02  0.79299033474E+02  0.98610756148E+02  0.47000000000E+01 0. -1.
         -5    1    3    3    0  502 -0.45974765054E+02  0.21459634054E+02  0.15477879055E+03  0.16295017312E+03  0.47000000000E+01 0.  1.
        -11    1    4    4    0    0 -0.44074047321E+02 -0.21853207760E+02  0.92329169183E+02  0.10461720613E+03  0.00000000000E+00 0.  1.
         11    1    4    4    0    0  0.33551000802E+02  0.15281548908E+02  0.15561355751E+03  0.15992115142E+03  0.00000000000E+00 0. -1.
<mgrwt>
<rscale>  0 0.11003874E+03</rscale>
<asrwt>0</asrwt>
<pdfrwt beam="1">  1        1 0.77547671E-01 0.11671200E+03</pdfrwt>
<pdfrwt beam="2">  1       -1 0.33906724E-02 0.11671200E+03</pdfrwt>
<totfact> 0.13158828E+04</totfact>
</mgrwt>
</event>
<event>
 8    1  0.1033707E-005  0.1405655E+03  0.7546771E-02  0.1223218E+00
          1   -1    0    0  501    0  0.00000000000E+00  0.00000000000E+00  0.49044937036E+03  0.49044937036E+03  0.00000000000E+00 0. -1.
         -1   -1    0    0    0  501 -0.00000000000E+00 -0.00000000000E+00 -0.32601724152E+02  0.32601724152E+02  0.00000000000E+00 0.  1.
         23    2    1    2    0    0  0.79888762802E+01 -0.63793963099E+02  0.25129242329E+03  0.28793496698E+03  0.12500068534E+03 0.  0.
         23    2    1    2    0    0 -0.79888762802E+01  0.63793963099E+02  0.20655522292E+03  0.23511612753E+03  0.92092569936E+02 0.  0.
          5    1    3    3  502    0  0.40278815557E+02 -0.43554089359E+02  0.36661348765E+02  0.69896252945E+02  0.47000000000E+01 0.  1.
         -5    1    3    3    0  502 -0.32289939276E+02 -0.20239873740E+02  0.21463107452E+03  0.21803871403E+03  0.47000000000E+01 0.  1.
        -11    1    4    4    0    0 -0.38499966386E+02  0.49250353500E+02  0.67451873740E+02  0.91965210828E+02  0.00000000000E+00 0.  1.
         11    1    4    4    0    0  0.30511090106E+02  0.14543609599E+02  0.13910334918E+03  0.14315091671E+03  0.00000000000E+00 0. -1.
<mgrwt>
<rscale>  0 0.13289786E+03</rscale>
<asrwt>0</asrwt>
<pdfrwt beam="1">  1        1 0.75453744E-01 0.14056551E+03</pdfrwt>
<pdfrwt beam="2">  1       -1 0.50156502E-02 0.14056551E+03</pdfrwt>
<totfact> 0.77791021E+03</totfact>
</mgrwt>
</event>
<event>
 8    1  0.1033707E-005  0.1402614E+03  0.7546771E-02  0.1222959E+00
         -2   -1    0    0    0  501 -0.00000000000E+00  0.00000000000E+00  0.10626255715E+03  0.10626255715E+03  0.00000000000E+00 0.  1.
          2   -1    0    0  501    0  0.00000000000E+00 -0.00000000000E+00 -0.17126800690E+03  0.17126800690E+03  0.00000000000E+00 0. -1.
         23    2    1    2    0    0 -0.63229580823E+02  0.69289123201E+01  0.11168862950E+02  0.14070537126E+03  0.12500907281E+03 0.  0.
         23    2    1    2    0    0  0.63229580823E+02 -0.69289123201E+01 -0.76174312697E+02  0.13682519279E+03  0.94194573890E+02 0.  0.
          5    1    3    3  502    0 -0.94279374177E+02  0.17889969792E+02 -0.16446462881E+02  0.97474240472E+02  0.47000000000E+01 0. -1.
         -5    1    3    3    0  502  0.31049793354E+02 -0.10961057472E+02  0.27615325831E+02  0.43231130786E+02  0.47000000000E+01 0. -1.
        -11    1    4    4    0    0 -0.53358782816E+01  0.20546679568E+02 -0.56541189961E+02  0.60394898796E+02  0.00000000000E+00 0. -1.
         11    1    4    4    0    0  0.68565459104E+02 -0.27475591888E+02 -0.19633122735E+02  0.76430293995E+02  0.00000000000E+00 0.  1.
<mgrwt>
<rscale>  0 0.13307779E+03</rscale>
<asrwt>0</asrwt>
<pdfrwt beam="2">  1        2 0.26348924E-01 0.14026139E+03</pdfrwt>
<pdfrwt beam="1">  1       -2 0.16348086E-01 0.14026139E+03</pdfrwt>
<totfact> 0.57361267E+03</totfact>
</mgrwt>
</event>
<event>
 8    1  0.1033707E-005  0.2233622E+03  0.7546771E-02  0.1134238E+00
         -1   -1    0    0    0  501 -0.00000000000E+00  0.00000000000E+00  0.20177504121E+03  0.20177504121E+03  0.00000000000E+00 0.  1.
          1   -1    0    0  501    0  0.00000000000E+00 -0.00000000000E+00 -0.44507881577E+03  0.44507881577E+03  0.00000000000E+00 0. -1.
         23    2    1    2    0    0 -0.84249080694E+02  0.16483370726E+03  0.10041116498E+03  0.24489401019E+03  0.12499046175E+03 0.  0.
         23    2    1    2    0    0  0.84249080694E+02 -0.16483370726E+03 -0.34371493954E+03  0.40195984678E+03  0.95727217223E+02 0.  0.
          5    1    3    3  502    0 -0.68267535051E+02  0.53373906892E+02 -0.97124582417E+01  0.87324979954E+02  0.47000000000E+01 0.  1.
         -5    1    3    3    0  502 -0.15981545642E+02  0.11145980037E+03  0.11012362322E+03  0.15756903024E+03  0.47000000000E+01 0.  1.
        -11    1    4    4    0    0  0.47278100218E+02 -0.11680210563E+03 -0.30508708884E+03  0.33008496242E+03  0.00000000000E+00 0. -1.
         11    1    4    4    0    0  0.36970980476E+02 -0.48031601630E+02 -0.38627850699E+02  0.71874884363E+02  0.00000000000E+00 0.  1.
<mgrwt>
<rscale>  0 0.21952460E+03</rscale>
<asrwt>0</asrwt>
<pdfrwt beam="2">  1        1 0.68473663E-01 0.22336220E+03</pdfrwt>
<pdfrwt beam="1">  1       -1 0.31042315E-01 0.22336220E+03</pdfrwt>
<totfact> 0.51151678E+02</totfact>
</mgrwt>
</event>
<event>
 8    1  0.1033707E-005  0.1318929E+03  0.7546771E-02  0.1238719E+00
          2   -1    0    0  501    0  0.00000000000E+00  0.00000000000E+00  0.18670224578E+03  0.18670224578E+03  0.00000000000E+00 0. -1.
         -2   -1    0    0    0  501 -0.00000000000E+00 -0.00000000000E+00 -0.71743554870E+02  0.71743554870E+02  0.00000000000E+00 0.  1.
         23    2    1    2    0    0  0.26534544397E+01  0.41997969472E+02  0.54993425936E+02  0.14289864237E+03  0.12499949933E+03 0.  0.
         23    2    1    2    0    0 -0.26534544397E+01 -0.41997969472E+02  0.59965264972E+02  0.11554715828E+03  0.89355707840E+02 0.  0.
          5    1    3    3  502    0  0.35446575588E+01  0.68618157895E+02 -0.12673524554E+02  0.70026597909E+02  0.47000000000E+01 0. -1.
         -5    1    3    3    0  502 -0.89120311907E+00 -0.26620188423E+02  0.67666950490E+02  0.72872044457E+02  0.47000000000E+01 0. -1.
        -11    1    4    4    0    0 -0.10701207408E+02  0.26989918959E+02  0.21708315787E+02  0.36252207377E+02  0.00000000000E+00 0. -1.
         11    1    4    4    0    0  0.80477529680E+01 -0.68987888431E+02  0.38256949184E+02  0.79294950904E+02  0.00000000000E+00 0.  1.
<mgrwt>
<rscale>  0 0.12269342E+03</rscale>
<asrwt>0</asrwt>
<pdfrwt beam="1">  1        2 0.28723422E-01 0.13189293E+03</pdfrwt>
<pdfrwt beam="2">  1       -2 0.11037470E-01 0.13189293E+03</pdfrwt>
<totfact> 0.98048001E+03</totfact>
</mgrwt>
</event>
<event>
 8    1  0.1033707E-005  0.1253178E+03  0.7546771E-02  0.1249105E+00
         -3   -1    0    0    0  501 -0.00000000000E+00  0.00000000000E+00  0.67908930153E+03  0.67908930153E+03  0.00000000000E+00 0.  1.
          3   -1    0    0  501    0  0.00000000000E+00 -0.00000000000E+00 -0.18499785085E+02  0.18499785085E+02  0.00000000000E+00 0. -1.
         23    2    1    2    0    0  0.29227990820E+01 -0.84466258220E+01  0.30035080314E+03  0.32544607772E+03  0.12499862524E+03 0.  0.
         23    2    1    2    0    0 -0.29227990820E+01  0.84466258220E+01  0.36023871330E+03  0.37214300889E+03  0.92944070638E+02 0.  0.
          5    1    3    3  502    0  0.80839018775E+01  0.24216164000E+02  0.28936932292E+01  0.26119638760E+02  0.47000000000E+01 0.  1.
         -5    1    3    3    0  502 -0.51611027955E+01 -0.32662789822E+02  0.29745710991E+03  0.29932643896E+03  0.47000000000E+01 0.  1.
        -11    1    4    4    0    0 -0.42301927963E+02 -0.91408376470E+01  0.10986374421E+03  0.11808069408E+03  0.00000000000E+00 0. -1.
         11    1    4    4    0    0  0.39379128881E+02  0.17587463469E+02  0.25037496909E+03  0.25406231482E+03  0.00000000000E+00 0.  1.
<mgrwt>
<rscale>  0 0.11642993E+03</rscale>
<asrwt>0</asrwt>
<pdfrwt beam="2">  1        3 0.28461213E-02 0.12531777E+03</pdfrwt>
<pdfrwt beam="1">  1       -3 0.10447526E+00 0.12531777E+03</pdfrwt>
<totfact> 0.10309591E+03</totfact>
</mgrwt>
</event>
<event>
 8    1  0.1033707E-005  0.1442999E+03  0.7546771E-02  0.1217267E+00
          2   -1    0    0  501    0  0.00000000000E+00  0.00000000000E+00  0.10701800649E+03  0.10701800649E+03  0.00000000000E+00 0.  1.
         -2   -1    0    0    0  501 -0.00000000000E+00 -0.00000000000E+00 -0.16216493754E+03  0.16216493754E+03  0.00000000000E+00 0. -1.
         23    2    1    2    0    0 -0.71403590125E+02 -0.99209500439E+01 -0.44815372523E+02  0.15109890244E+03  0.12500225107E+03 0.  0.
         23    2    1    2    0    0  0.71403590125E+02  0.99209500439E+01 -0.10331558523E+02  0.11808404158E+03  0.92952686043E+02 0.  0.
          5    1    3    3  502    0 -0.57403378589E+02 -0.20778195960E+00  0.36299560239E+02  0.68080387193E+02  0.47000000000E+01 0. -1.
         -5    1    3    3    0  502 -0.14000211536E+02 -0.97131680843E+01 -0.81114932762E+02  0.83018515250E+02  0.47000000000E+01 0. -1.
        -11    1    4    4    0    0 -0.14456935370E+02 -0.17608309055E+02  0.11194064378E+02  0.25384298402E+02  0.00000000000E+00 0.  1.
         11    1    4    4    0    0  0.85860525494E+02  0.27529259099E+02 -0.21525622901E+02  0.92699743182E+02  0.00000000000E+00 0. -1.
<mgrwt>
<rscale>  0 0.13711348E+03</rscale>
<asrwt>0</asrwt>
<pdfrwt beam="1">  1        2 0.16464309E-01 0.14429990E+03</pdfrwt>
<pdfrwt beam="2">  1       -2 0.24948452E-01 0.14429990E+03</pdfrwt>
<totfact> 0.47656729E+03</totfact>
</mgrwt>
</event>
<event>
 8    1  0.1033707E-005  0.1352439E+03  0.7546771E-02  0.1232584E+00
          4   -1    0    0  501    0  0.00000000000E+00  0.00000000000E+00  0.75502900124E+03  0.75502900124E+03  0.00000000000E+00 0. -1.
         -4   -1    0    0    0  501 -0.00000000000E+00 -0.00000000000E+00 -0.22397520960E+02  0.22397520960E+02  0.00000000000E+00 0.  1.
         23    2    1    2    0    0 -0.47792166909E+02 -0.19521241275E+02  0.25511598893E+03  0.28874742892E+03  0.12500295925E+03 0.  0.
         23    2    1    2    0    0  0.47792166909E+02  0.19521241275E+02  0.47751549134E+03  0.48867909328E+03  0.90116822246E+02 0.  0.
          5    1    3    3  502    0 -0.21766842255E+02 -0.22101749697E+02 -0.86926453510E+00  0.31386754886E+02  0.47000000000E+01 0. -1.
         -5    1    3    3    0  502 -0.26025324654E+02  0.25805084226E+01  0.25598525347E+03  0.25736067404E+03  0.47000000000E+01 0. -1.
        -11    1    4    4    0    0  0.54652039328E+02 -0.23838971500E+02  0.25549211454E+03  0.26235731848E+03  0.00000000000E+00 0. -1.
         11    1    4    4    0    0 -0.68598724184E+01  0.43360212775E+02  0.22202337680E+03  0.22632177480E+03  0.00000000000E+00 0.  1.
<mgrwt>
<rscale>  0 0.12660383E+03</rscale>
<asrwt>0</asrwt>
<pdfrwt beam="1">  1        4 0.11615829E+00 0.13524389E+03</pdfrwt>
<pdfrwt beam="2">  1       -4 0.34457730E-02 0.13524389E+03</pdfrwt>
<totfact> 0.43280118E+02</totfact>
</mgrwt>
</event>
<event>
 7    1  0.1033707E-005  0.1643990E+03  0.7546771E-02  0.1209500E+00
         -2   -1    0    0    0  501 -0.00000000000E+00  0.00000000000E+00  0.73060238490E+02  0.73060238490E+02  0.00000000000E+00 0.  1.
          2   -1    0    0  501    0  0.00000000000E+00 -0.00000000000E+00 -0.51889437968E+03  0.51889437968E+03  0.00000000000E+00 0. -1.
         23    2    1    2    0    0  0.60415505735E+01  0.32793071632E+02 -0.41400857375E+03  0.42450344727E+03  0.87682334179E+02 0.  0.
          5    1    1    2  502    0 -0.72218145074E+02 -0.50779457611E+02 -0.42149063797E+02  0.97942061302E+02  0.47000000000E+01 0. -1.
         -5    1    1    2    0  502  0.66176594500E+02  0.17986385979E+02  0.10323496354E+02  0.69509109599E+02  0.47000000000E+01 0.  1.
        -11    1    3    3    0    0 -0.34018983314E+02  0.38072757695E+02 -0.18306489751E+03  0.19005152670E+03  0.00000000000E+00 0.  1.
         11    1    3    3    0    0  0.40060533888E+02 -0.52796860629E+01 -0.23094367624E+03  0.23445192057E+03  0.00000000000E+00 0. -1.
<mgrwt>
<rscale>  0 0.14288452E+03</rscale>
<asrwt>0</asrwt>
<pdfrwt beam="2">  1        2 0.79829902E-01 0.16439899E+03</pdfrwt>
<pdfrwt beam="1">  1       -2 0.11240037E-01 0.16439899E+03</pdfrwt>
<totfact> 0.32163349E+03</totfact>
</mgrwt>
</event>
<event>
 7    1  0.1033707E-005  0.1514932E+03  0.7546771E-02  0.1212974E+00
         -3   -1    0    0    0  501 -0.00000000000E+00  0.00000000000E+00  0.40452854757E+02  0.40452854757E+02  0.00000000000E+00 0.  1.
          3   -1    0    0  501    0  0.00000000000E+00 -0.00000000000E+00 -0.45174830630E+03  0.45174830630E+03  0.00000000000E+00 0. -1.
         23    2    1    2    0    0 -0.36146555760E+02  0.50698787433E+02 -0.11885337225E+03  0.16284941713E+03  0.92286878930E+02 0.  0.
          5    1    1    2  502    0 -0.22234073583E+02 -0.69109766505E+02 -0.79622392754E+02  0.10785327664E+03  0.47000000000E+01 0. -1.
         -5    1    1    2    0  502  0.58380629343E+02  0.18410979072E+02 -0.21281968654E+03  0.22149846729E+03  0.47000000000E+01 0.  1.
        -11    1    3    3    0    0  0.27650046875E+01  0.22999905935E+02  0.10147161151E+02  0.25290429087E+02  0.00000000000E+00 0.  1.
         11    1    3    3    0    0 -0.38911560447E+02  0.27698881498E+02 -0.12900053340E+03  0.13755898804E+03  0.00000000000E+00 0. -1.
<mgrwt>
<rscale>  0 0.14026378E+03</rscale>
<asrwt>0</asrwt>
<pdfrwt beam="2">  1        3 0.69499736E-01 0.15149324E+03</pdfrwt>
<pdfrwt beam="1">  1       -3 0.62235164E-02 0.15149324E+03</pdfrwt>
<totfact> 0.76285708E+02</totfact>
</mgrwt>
</event>
<event>
 8    1  0.1033707E-005  0.1380952E+03  0.7546771E-02  0.1227453E+00
          1   -1    0    0  501    0  0.00000000000E+00  0.00000000000E+00  0.33943975365E+03  0.33943975365E+03  0.00000000000E+00 0. -1.
         -1   -1    0    0    0  501 -0.00000000000E+00 -0.00000000000E+00 -0.46252370009E+02  0.46252370009E+02  0.00000000000E+00 0.  1.
         23    2    1    2    0    0  0.58611021562E+02  0.32176317275E+01  0.12937950643E+03  0.18923357127E+03  0.12499873122E+03 0.  0.
         23    2    1    2    0    0 -0.58611021562E+02 -0.32176317275E+01  0.16380787721E+03  0.19645855239E+03  0.91199436230E+02 0.  0.
          5    1    3    3  502    0  0.54395099279E+01 -0.13510271318E+02 -0.22595652395E+02  0.27290459991E+02  0.47000000000E+01 0. -1.
         -5    1    3    3    0  502  0.53171511634E+02  0.16727903046E+02  0.15197515882E+03  0.16194311128E+03  0.47000000000E+01 0. -1.
        -11    1    4    4    0    0 -0.55279541339E+02  0.21782619729E+02  0.43765307067E+02  0.73795069724E+02  0.00000000000E+00 0.  1.
         11    1    4    4    0    0 -0.33314802236E+01 -0.25000251457E+02  0.12004257014E+03  0.12266348266E+03  0.00000000000E+00 0. -1.
<mgrwt>
<rscale>  0 0.13000153E+03</rscale>
<asrwt>0</asrwt>
<pdfrwt beam="1">  1        1 0.52221499E-01 0.13809521E+03</pdfrwt>
<pdfrwt beam="2">  1       -1 0.71157495E-02 0.13809521E+03</pdfrwt>
<totfact> 0.73561979E+03</totfact>
</mgrwt>
</event>
<event>
 8    1  0.1033707E-005  0.1383632E+03  0.7546771E-02  0.1226805E+00
         -3   -1    0    0    0  501 -0.00000000000E+00  0.00000000000E+00  0.13243954803E+03  0.13243954803E+03  0.00000000000E+00 0.  1.
          3   -1    0    0  501    0  0.00000000000E+00 -0.00000000000E+00 -0.11657740608E+03  0.11657740608E+03  0.00000000000E+00 0. -1.
         23    2    1    2    0    0  0.49401467967E+02 -0.32872301443E+02 -0.14208164014E+01  0.13837049728E+03  0.12499313005E+03 0.  0.
         23    2    1    2    0    0 -0.49401467967E+02  0.32872301443E+02  0.17282958354E+02  0.11064645683E+03  0.91776056355E+02 0.  0.
          5    1    3    3  502    0  0.10461665940E+02  0.34227666468E-01 -0.59702873401E+02  0.60794495788E+02  0.47000000000E+01 0.  1.
         -5    1    3    3    0  502  0.38939802027E+02 -0.32906529110E+02  0.58282057000E+02  0.77576001496E+02  0.47000000000E+01 0.  1.
        -11    1    4    4    0    0 -0.36182857678E+02  0.57007784443E+02  0.36810926501E+02  0.76903387355E+02  0.00000000000E+00 0.  1.
         11    1    4    4    0    0 -0.13218610290E+02 -0.24135483000E+02 -0.19527968147E+02  0.33743069475E+02  0.00000000000E+00 0. -1.
<mgrwt>
<rscale>  0 0.13043943E+03</rscale>
<asrwt>0</asrwt>
<pdfrwt beam="2">  1        3 0.17934986E-01 0.13836320E+03</pdfrwt>
<pdfrwt beam="1">  1       -3 0.20375315E-01 0.13836320E+03</pdfrwt>
<totfact> 0.13625643E+03</totfact>
</mgrwt>
</event>
<event>
 8    1  0.1033707E-005  0.1287980E+03  0.7546771E-02  0.1243172E+00
         -2   -1    0    0    0  501 -0.00000000000E+00  0.00000000000E+00  0.55668630855E+02  0.55668630855E+02  0.00000000000E+00 0.  1.
          2   -1    0    0  501    0  0.00000000000E+00 -0.00000000000E+00 -0.27508418613E+03  0.27508418613E+03  0.00000000000E+00 0. -1.
         23    2    1    2    0    0  0.18188979806E+02 -0.25094028905E+02 -0.55308990748E+02  0.14017138397E+03  0.12501353188E+03 0.  0.
         23    2    1    2    0    0 -0.18188979806E+02  0.25094028905E+02 -0.16410656453E+03  0.19058143302E+03  0.91813772483E+02 0.  0.
          5    1    3    3  502    0  0.60550997082E+02 -0.45310320770E+02 -0.53880091452E+02  0.92976355439E+02  0.47000000000E+01 0.  1.
         -5    1    3    3    0  502 -0.42362017276E+02  0.20216291866E+02 -0.14288992968E+01  0.47195028527E+02  0.47000000000E+01 0.  1.
        -11    1    4    4    0    0 -0.28773573255E+02 -0.74067699068E+01 -0.79905198430E+01  0.30767306767E+02  0.00000000000E+00 0.  1.
         11    1    4    4    0    0  0.10584593449E+02  0.32500798811E+02 -0.15611604469E+03  0.15981412625E+03  0.00000000000E+00 0. -1.
<mgrwt>
<rscale>  0 0.11995461E+03</rscale>
<asrwt>0</asrwt>
<pdfrwt beam="2">  1        2 0.42320644E-01 0.12879803E+03</pdfrwt>
<pdfrwt beam="1">  1       -2 0.85644048E-02 0.12879803E+03</pdfrwt>
<totfact> 0.96152492E+03</totfact>
</mgrwt>
</event>
<event>
 8    1  0.1033707E-005  0.2163403E+03  0.7546771E-02  0.1140239E+00
         -1   -1    0    0    0  501 -0.00000000000E+00  0.00000000000E+00  0.50553756410E+02  0.50553756410E+02  0.00000000000E+00 0.  1.
          1   -1    0    0  501    0  0.00000000000E+00 -0.00000000000E+00 -0.85064917047E+03  0.85064917047E+03  0.00000000000E+00 0. -1.
         23    2    1    2    0    0 -0.27537861542E+02  0.17440905511E+03 -0.42701629584E+03  0.47869201926E+03  0.12500512016E+03 0.  0.
         23    2    1    2    0    0  0.27537861542E+02 -0.17440905511E+03 -0.37307911822E+03  0.42251090762E+03  0.90280597498E+02 0.  0.
          5    1    3    3  502    0  0.32721597276E+02  0.72270331740E+02 -0.27252577829E+03  0.28387689869E+03  0.47000000000E+01 0.  1.
         -5    1    3    3    0  502 -0.60259458818E+02  0.10213872337E+03 -0.15449051755E+03  0.19481512057E+03  0.47000000000E+01 0.  1.
        -11    1    4    4    0    0  0.51596327873E+02 -0.16234379693E+03 -0.33574386569E+03  0.37648589987E+03  0.00000000000E+00 0.  1.
         11    1    4    4    0    0 -0.24058466331E+02 -0.12065258179E+02 -0.37335252534E+02  0.46025007756E+02  0.00000000000E+00 0. -1.
<mgrwt>
<rscale>  0 0.21168498E+03</rscale>
<asrwt>0</asrwt>
<pdfrwt beam="2">  1        1 0.13086911E+00 0.21634032E+03</pdfrwt>
<pdfrwt beam="1">  1       -1 0.77775008E-02 0.21634032E+03</pdfrwt>
<totfact> 0.18758936E+03</totfact>
</mgrwt>
</event>
<event>
 8    1  0.1033707E-005  0.1542422E+03  0.7546771E-02  0.1203865E+00
         -2   -1    0    0    0  501 -0.00000000000E+00  0.00000000000E+00  0.34208710686E+03  0.34208710686E+03  0.00000000000E+00 0.  1.
          2   -1    0    0  501    0  0.00000000000E+00 -0.00000000000E+00 -0.62525418573E+02  0.62525418573E+02  0.00000000000E+00 0. -1.
         23    2    1    2    0    0 -0.30056969319E+02  0.85213687574E+02  0.20419626096E+03  0.25590380588E+03  0.12500340362E+03 0.  0.
         23    2    1    2    0    0  0.30056969319E+02 -0.85213687574E+02  0.75365427327E+02  0.14870871956E+03  0.90937020412E+02 0.  0.
          5    1    3    3  502    0 -0.71569337248E+02  0.45598685103E+02  0.16693259249E+03  0.18732322481E+03  0.47000000000E+01 0. -1.
         -5    1    3    3    0  502  0.41512367929E+02  0.39615002471E+02  0.37263668472E+02  0.68580581070E+02  0.47000000000E+01 0. -1.
        -11    1    4    4    0    0 -0.26715793629E+02 -0.47047601657E+02  0.11906543389E+02  0.55398341369E+02  0.00000000000E+00 0. -1.
         11    1    4    4    0    0  0.56772762948E+02 -0.38166085917E+02  0.63458883938E+02  0.93310378188E+02  0.00000000000E+00 0.  1.
<mgrwt>
<rscale>  0 0.14727239E+03</rscale>
<asrwt>0</asrwt>
<pdfrwt beam="2">  1        2 0.96192954E-02 0.15424216E+03</pdfrwt>
<pdfrwt beam="1">  1       -2 0.52628784E-01 0.15424216E+03</pdfrwt>
<totfact> 0.22619114E+03</totfact>
</mgrwt>
</event>
<event>
 8    1  0.1033707E-005  0.1283812E+03  0.7546771E-02  0.1243830E+00
          2   -1    0    0  501    0  0.00000000000E+00  0.00000000000E+00  0.24315277220E+03  0.24315277220E+03  0.00000000000E+00 0. -1.
         -2   -1    0    0    0  501 -0.00000000000E+00 -0.00000000000E+00 -0.55560457635E+02  0.55560457635E+02  0.00000000000E+00 0.  1.
         23    2    1    2    0    0 -0.28789541879E+02  0.56142925694E+01  0.68888931609E+02  0.14569634224E+03  0.12498552413E+03 0.  0.
         23    2    1    2    0    0  0.28789541879E+02 -0.56142925694E+01  0.11870338296E+03  0.15301688759E+03  0.91996286669E+02 0.  0.
          5    1    3    3  502    0 -0.39712544156E+02 -0.29800636401E+02 -0.16469006666E+02  0.52521255447E+02  0.47000000000E+01 0.  1.
         -5    1    3    3    0  502  0.10923002277E+02  0.35414928970E+02  0.85357938275E+02  0.93175086795E+02  0.47000000000E+01 0.  1.
        -11    1    4    4    0    0 -0.19446121251E+02 -0.16980811009E+02  0.16081413541E+01  0.25866690799E+02  0.00000000000E+00 0.  1.
         11    1    4    4    0    0  0.48235663130E+02  0.11366518440E+02  0.11709524160E+03  0.12715019680E+03  0.00000000000E+00 0. -1.
<mgrwt>
<rscale>  0 0.11955687E+03</rscale>
<asrwt>0</asrwt>
<pdfrwt beam="1">  1        2 0.37408118E-01 0.12838123E+03</pdfrwt>
<pdfrwt beam="2">  1       -2 0.85477629E-02 0.12838123E+03</pdfrwt>
<totfact> 0.10991144E+04</totfact>
</mgrwt>
</event>
<event>
 8    1  0.1033707E-005  0.2367758E+03  0.7546771E-02  0.1124721E+00
          1   -1    0    0  501    0  0.00000000000E+00  0.00000000000E+00  0.15337839410E+04  0.15337839410E+04  0.00000000000E+00 0. -1.
         -1   -1    0    0    0  501 -0.00000000000E+00 -0.00000000000E+00 -0.34182402097E+02  0.34182402097E+02  0.00000000000E+00 0.  1.
         23    2    1    2    0    0 -0.20096542447E+03 -0.72145784583E+01  0.75889875926E+03  0.79497805099E+03  0.12499449094E+03 0.  0.
         23    2    1    2    0    0  0.20096542447E+03  0.72145784583E+01  0.74070277965E+03  0.77298829212E+03  0.91821239368E+02 0.  0.
          5    1    3    3  502    0 -0.66350037507E+02  0.54338979401E+02  0.33964081945E+03  0.35033273954E+03  0.47000000000E+01 0. -1.
         -5    1    3    3    0  502 -0.13461538696E+03 -0.61553557859E+02  0.41925793981E+03  0.44464531144E+03  0.47000000000E+01 0. -1.
        -11    1    4    4    0    0  0.10131600599E+02  0.27353076530E+02  0.96247721240E+02  0.10057069141E+03  0.00000000000E+00 0.  1.
         11    1    4    4    0    0  0.19083382387E+03 -0.20138498071E+02  0.64445505841E+03  0.67241760072E+03  0.00000000000E+00 0. -1.
<mgrwt>
<rscale>  0 0.23274673E+03</rscale>
<asrwt>0</asrwt>
<pdfrwt beam="1">  1        1 0.23596671E+00 0.23677579E+03</pdfrwt>
<pdfrwt beam="2">  1       -1 0.52588323E-02 0.23677579E+03</pdfrwt>
<totfact> 0.11111966E+03</totfact>
</mgrwt>
</event>
<event>
 8    1  0.1033707E-005  0.1261201E+03  0.7546771E-02  0.1247531E+00
          1   -1    0    0  501    0  0.00000000000E+00  0.00000000000E+00  0.11637408020E+03  0.11637408020E+03  0.00000000000E+00 0. -1.
         -1   -1    0    0    0  501 -0.00000000000E+00 -0.00000000000E+00 -0.10467837062E+03  0.10467837062E+03  0.00000000000E+00 0.  1.
         23    2    1    2    0    0  0.15019208098E+02 -0.74066669630E+01  0.36385614015E+01  0.12617254528E+03  0.12500334686E+03 0.  0.
         23    2    1    2    0    0 -0.15019208098E+02  0.74066669630E+01  0.80571481749E+01  0.94879905545E+02  0.93042159864E+02 0.  0.
          5    1    3    3  502    0  0.36636099437E+02  0.11623130179E+02  0.54903286962E+02  0.67184535843E+02  0.47000000000E+01 0. -1.
         -5    1    3    3    0  502 -0.21616891339E+02 -0.19029797142E+02 -0.51264725561E+02  0.58988009436E+02  0.47000000000E+01 0. -1.
        -11    1    4    4    0    0  0.58656560445E+01  0.42133375914E+02  0.26752012279E+02  0.50252337734E+02  0.00000000000E+00 0. -1.
         11    1    4    4    0    0 -0.20884864143E+02 -0.34726708951E+02 -0.18694864104E+02  0.44627567811E+02  0.00000000000E+00 0.  1.
<mgrwt>
<rscale>  0 0.11735155E+03</rscale>
<asrwt>0</asrwt>
<pdfrwt beam="1">  1        1 0.17903705E-01 0.12612007E+03</pdfrwt>
<pdfrwt beam="2">  1       -1 0.16104365E-01 0.12612007E+03</pdfrwt>
<totfact> 0.79500814E+03</totfact>
</mgrwt>
</event>
<event>
 8    1  0.1033707E-005  0.1191506E+03  0.7546771E-02  0.1258270E+00
         -1   -1    0    0    0  501 -0.00000000000E+00  0.00000000000E+00  0.26303982701E+03  0.26303982701E+03  0.00000000000E+00 0.  1.
          1   -1    0    0  501    0  0.00000000000E+00 -0.00000000000E+00 -0.64131887722E+02  0.64131887722E+02  0.00000000000E+00 0. -1.
         23    2    1    2    0    0  0.37491091086E+02  0.35738833213E+01  0.20424131751E+03  0.23645590005E+03  0.11304212638E+03 0.  0.
         23    2    1    2    0    0 -0.37491091086E+02 -0.35738833213E+01 -0.53333782288E+01  0.90715814679E+02  0.82356296400E+02 0.  0.
          5    1    3    3  502    0 -0.28837159395E+02  0.22160313078E+02  0.25014099615E+02  0.44389823352E+02  0.47000000000E+01 0. -1.
         -5    1    3    3    0  502  0.66328250480E+02 -0.18586429757E+02  0.17922721790E+03  0.19206607670E+03  0.47000000000E+01 0.  1.
        -11    1    4    4    0    0  0.11311330568E+02 -0.32083489296E+02 -0.10772453945E+01  0.34036112326E+02  0.00000000000E+00 0.  1.
         11    1    4    4    0    0 -0.48802421654E+02  0.28509605974E+02 -0.42561328343E+01  0.56679702353E+02  0.00000000000E+00 0. -1.
<mgrwt>
<rscale>  0 0.11125130E+03</rscale>
<asrwt>0</asrwt>
<pdfrwt beam="2">  1        1 0.98664444E-02 0.11915065E+03</pdfrwt>
<pdfrwt beam="1">  1       -1 0.40467665E-01 0.11915065E+03</pdfrwt>
<totfact> 0.37611225E+03</totfact>
</mgrwt>
</event>
<event>
 8    1  0.1033707E-005  0.1746325E+03  0.7546771E-02  0.1179132E+00
         -1   -1    0    0    0  501 -0.00000000000E+00  0.00000000000E+00  0.40010601245E+02  0.40010601245E+02  0.00000000000E+00 0.  1.
          1   -1    0    0  501    0  0.00000000000E+00 -0.00000000000E+00 -0.66879677425E+03  0.66879677425E+03  0.00000000000E+00 0. -1.
         23    2    1    2    0    0 -0.92309544179E+02 -0.79696381616E+02 -0.34747207237E+03  0.38888734284E+03  0.12499583656E+03 0.  0.
         23    2    1    2    0    0  0.92309544179E+02  0.79696381616E+02 -0.28131410064E+03  0.31992003266E+03  0.91316148006E+02 0.  0.
          5    1    3    3  502    0  0.50852484546E+00 -0.43412679459E+02 -0.22863045183E+02  0.49292272928E+02  0.47000000000E+01 0. -1.
         -5    1    3    3    0  502 -0.92818069024E+02 -0.36283702156E+02 -0.32460902719E+03  0.33959506991E+03  0.47000000000E+01 0. -1.
        -11    1    4    4    0    0  0.67058405112E+02  0.65561056431E+01 -0.18166261828E+03  0.19375530728E+03  0.00000000000E+00 0. -1.
         11    1    4    4    0    0  0.25251139067E+02  0.73140275973E+02 -0.99651482356E+02  0.12616472538E+03  0.00000000000E+00 0.  1.
<mgrwt>
<rscale>  0 0.16877421E+03</rscale>
<asrwt>0</asrwt>
<pdfrwt beam="2">  1        1 0.10289181E+00 0.17463254E+03</pdfrwt>
<pdfrwt beam="1">  1       -1 0.61554772E-02 0.17463254E+03</pdfrwt>
<totfact> 0.38067358E+03</totfact>
</mgrwt>
</event>
<event>
 6    1  0.1033707E-005  0.5934734E+03  0.7546771E-02  0.9919040E-01
         -2   -1    0    0    0  501 -0.00000000000E+00  0.00000000000E+00  0.20323403677E+03  0.20323403677E+03  0.00000000000E+00 0.  1.
          2   -1    0    0  501    0  0.00000000000E+00 -0.00000000000E+00 -0.43325751656E+03  0.43325751656E+03  0.00000000000E+00 0. -1.
          5    1    1    2  502    0  0.31022384747E+02  0.12190683488E+02 -0.35351459749E+02  0.48814104782E+02  0.47000000000E+01 0. -1.
         -5    1    1    2    0  502 -0.46085893259E+02  0.16055063523E+03  0.78503384439E+02  0.18462201222E+03  0.47000000000E+01 0.  1.
        -11    1    1    2    0    0 -0.90667806108E+02 -0.15732638056E+03 -0.12530533703E+03  0.22062109730E+03  0.00000000000E+00 0.  1.
         11    1    1    2    0    0  0.10573131462E+03 -0.15414938153E+02 -0.14787006745E+03  0.18243433903E+03  0.00000000000E+00 0. -1.
<mgrwt>
<rscale>  0 0.59347342E+03</rscale>
<asrwt>0</asrwt>
<pdfrwt beam="2">  1        2 0.66655002E-01 0.59347342E+03</pdfrwt>
<pdfrwt beam="1">  1       -2 0.31266775E-01 0.59347342E+03</pdfrwt>
<totfact> 0.69299780E+02</totfact>
</mgrwt>
</event>
<event>
 8    1  0.1033707E-005  0.1519806E+03  0.7546771E-02  0.1206892E+00
          2   -1    0    0  501    0  0.00000000000E+00  0.00000000000E+00  0.22937801318E+02  0.22937801318E+02  0.00000000000E+00 0. -1.
         -2   -1    0    0    0  501 -0.00000000000E+00 -0.00000000000E+00 -0.84535856464E+03  0.84535856464E+03  0.00000000000E+00 0.  1.
         23    2    1    2    0    0  0.72649530900E+02 -0.46860485953E+02 -0.48604955616E+03  0.50925657720E+03  0.12499692354E+03 0.  0.
         23    2    1    2    0    0 -0.72649530900E+02  0.46860485953E+02 -0.33637120716E+03  0.35903978876E+03  0.91050103902E+02 0.  0.
          5    1    3    3  502    0  0.75503842260E+02  0.23807071058E+02 -0.29526421098E+03  0.30572970271E+03  0.47000000000E+01 0.  1.
         -5    1    3    3    0  502 -0.28543113601E+01 -0.70667557011E+02 -0.19078534518E+03  0.20352687450E+03  0.47000000000E+01 0.  1.
        -11    1    4    4    0    0 -0.54898650748E+02  0.10224300385E+01 -0.27490948459E+03  0.28033931571E+03  0.00000000000E+00 0.  1.
         11    1    4    4    0    0 -0.17750880151E+02  0.45838055914E+02 -0.61461722577E+02  0.78700473050E+02  0.00000000000E+00 0. -1.
<mgrwt>
<rscale>  0 0.14489362E+03</rscale>
<asrwt>0</asrwt>
<pdfrwt beam="1">  1        2 0.35288920E-02 0.15198056E+03</pdfrwt>
<pdfrwt beam="2">  1       -2 0.13005518E+00 0.15198056E+03</pdfrwt>
<totfact> 0.11129980E+03</totfact>
</mgrwt>
</event>
<event>
 8    1  0.1033707E-005  0.1329133E+03  0.7546771E-02  0.1234941E+00
          1   -1    0    0  501    0  0.00000000000E+00  0.00000000000E+00  0.56729165269E+02  0.56729165269E+02  0.00000000000E+00 0. -1.
         -1   -1    0    0    0  501 -0.00000000000E+00 -0.00000000000E+00 -0.31127405081E+03  0.31127405081E+03  0.00000000000E+00 0.  1.
         23    2    1    2    0    0  0.37085408807E+02 -0.25607215367E+02 -0.22207899477E+03  0.25881464296E+03  0.12503952362E+03 0.  0.
         23    2    1    2    0    0 -0.37085408807E+02  0.25607215367E+02 -0.32465890767E+02  0.10918857312E+03  0.94005603081E+02 0.  0.
          5    1    3    3  502    0  0.80786376625E+02  0.21010560817E+01 -0.13413950317E+03  0.15667274618E+03  0.47000000000E+01 0. -1.
         -5    1    3    3    0  502 -0.43700967819E+02 -0.27708271449E+02 -0.87939491599E+02  0.10214189678E+03  0.47000000000E+01 0. -1.
        -11    1    4    4    0    0 -0.16597324405E+02 -0.17282001880E+02 -0.52421325847E+02  0.57637957719E+02  0.00000000000E+00 0.  1.
         11    1    4    4    0    0 -0.20488084401E+02  0.42889217248E+02  0.19955435080E+02  0.51550615397E+02  0.00000000000E+00 0. -1.
<mgrwt>
<rscale>  0 0.12508221E+03</rscale>
<asrwt>0</asrwt>
<pdfrwt beam="1">  1        1 0.87275640E-02 0.13291328E+03</pdfrwt>
<pdfrwt beam="2">  1       -1 0.47888315E-01 0.13291328E+03</pdfrwt>
<totfact> 0.33022165E+03</totfact>
</mgrwt>
</event>
<event>
 8    1  0.1564885E-005  0.1587118E+03  0.7546771E-02  0.1198035E+00
         -1   -1    0    0    0  501 -0.00000000000E+00  0.00000000000E+00  0.76983855010E+02  0.76983855010E+02  0.00000000000E+00 0.  1.
          1   -1    0    0  501    0  0.00000000000E+00 -0.00000000000E+00 -0.28329432375E+03  0.28329432375E+03  0.00000000000E+00 0. -1.
         23    2    1    2    0    0  0.87663501473E+02 -0.43354888604E+02 -0.85837549842E+02  0.18043706866E+03  0.12499965971E+03 0.  0.
         23    2    1    2    0    0 -0.87663501473E+02  0.43354888604E+02 -0.12047291890E+03  0.17984111010E+03  0.90909652067E+02 0.  0.
          5    1    3    3  502    0  0.37182032922E+02 -0.28933687842E+02  0.27986818569E+02  0.55000126163E+02  0.47000000000E+01 0. -1.
         -5    1    3    3    0  502  0.50481468551E+02 -0.14421200763E+02 -0.11382436841E+03  0.12543694250E+03  0.47000000000E+01 0. -1.
        -11    1    4    4    0    0 -0.44260506804E+02  0.50401511008E+02 -0.19727135350E+02  0.69917556047E+02  0.00000000000E+00 0.  1.
         11    1    4    4    0    0 -0.43402994669E+02 -0.70466224037E+01 -0.10074578355E+03  0.10992355406E+03  0.00000000000E+00 0. -1.
<mgrwt>
<rscale>  0 0.15200161E+03</rscale>
<asrwt>0</asrwt>
<pdfrwt beam="2">  1        1 0.43583742E-01 0.15871185E+03</pdfrwt>
<pdfrwt beam="1">  1       -1 0.11843670E-01 0.15871185E+03</pdfrwt>
<totfact> 0.42736188E+03</totfact>
</mgrwt>
</event>
<event>
 8    1  0.1033707E-005  0.1647733E+03  0.7546771E-02  0.1189266E+00
          3   -1    0    0  501    0  0.00000000000E+00  0.00000000000E+00  0.19898850334E+03  0.19898850334E+03  0.00000000000E+00 0. -1.
         -3   -1    0    0    0  501 -0.00000000000E+00 -0.00000000000E+00 -0.12029919094E+03  0.12029919094E+03  0.00000000000E+00 0.  1.
         23    2    1    2    0    0 -0.41387611477E+02  0.99075053653E+02  0.42789390870E+02  0.17023861854E+03  0.12498581772E+03 0.  0.
         23    2    1    2    0    0  0.41387611477E+02 -0.99075053653E+02  0.35899921524E+02  0.14904907574E+03  0.96943395725E+02 0.  0.
          5    1    3    3  502    0 -0.42139731778E+02  0.12331279512E+03  0.12268578518E+02  0.13097484665E+03  0.47000000000E+01 0. -1.
         -5    1    3    3    0  502  0.75212030041E+00 -0.24237741471E+02  0.30520812352E+02  0.39263771892E+02  0.47000000000E+01 0. -1.
        -11    1    4    4    0    0  0.36386412581E+02 -0.62302913751E+01  0.41941349042E+02  0.55873645940E+02  0.00000000000E+00 0.  1.
         11    1    4    4    0    0  0.50011988962E+01 -0.92844762278E+02 -0.60414275179E+01  0.93175429804E+02  0.00000000000E+00 0. -1.
<mgrwt>
<rscale>  0 0.15949722E+03</rscale>
<asrwt>0</asrwt>
<pdfrwt beam="1">  1        3 0.30613616E-01 0.16477335E+03</pdfrwt>
<pdfrwt beam="2">  1       -3 0.18507568E-01 0.16477335E+03</pdfrwt>
<totfact> 0.63333963E+02</totfact>
</mgrwt>
</event>
<event>
 8    1  0.1033707E-005  0.1428328E+03  0.7546771E-02  0.1219586E+00
         -1   -1    0    0    0  501 -0.00000000000E+00  0.00000000000E+00  0.12530791892E+03  0.12530791892E+03  0.00000000000E+00 0.  1.
          1   -1    0    0  501    0  0.00000000000E+00 -0.00000000000E+00 -0.14230378631E+03  0.14230378631E+03  0.00000000000E+00 0. -1.
         23    2    1    2    0    0 -0.53916092897E+02 -0.43242512535E+02  0.24405761249E+02  0.14490289629E+03  0.12499739280E+03 0.  0.
         23    2    1    2    0    0  0.53916092897E+02  0.43242512535E+02 -0.41401628641E+02  0.12270880893E+03  0.92555372465E+02 0.  0.
          5    1    3    3  502    0 -0.42211283356E+02 -0.80463057534E+02  0.43913834232E+02  0.10102777295E+03  0.47000000000E+01 0. -1.
         -5    1    3    3    0  502 -0.11704809541E+02  0.37220545000E+02 -0.19508072984E+02  0.43875123339E+02  0.47000000000E+01 0. -1.
        -11    1    4    4    0    0 -0.24806967073E+01  0.23941654808E+02 -0.56332393715E+02  0.61259246426E+02  0.00000000000E+00 0.  1.
         11    1    4    4    0    0  0.56396789604E+02  0.19300857727E+02  0.14930765073E+02  0.61449562507E+02  0.00000000000E+00 0. -1.
<mgrwt>
<rscale>  0 0.13545003E+03</rscale>
<asrwt>0</asrwt>
<pdfrwt beam="2">  1        1 0.21892890E-01 0.14283280E+03</pdfrwt>
<pdfrwt beam="1">  1       -1 0.19278141E-01 0.14283280E+03</pdfrwt>
<totfact> 0.46663823E+03</totfact>
</mgrwt>
</event>
<event>
 8    1  0.1033707E-005  0.1836375E+03  0.7546771E-02  0.1169397E+00
         -2   -1    0    0    0  501 -0.00000000000E+00  0.00000000000E+00  0.14402462569E+03  0.14402462569E+03  0.00000000000E+00 0. -1.
          2   -1    0    0  501    0  0.00000000000E+00 -0.00000000000E+00 -0.22374415324E+03  0.22374415324E+03  0.00000000000E+00 0.  1.
         23    2    1    2    0    0  0.84871334059E+02 -0.10438359654E+03  0.49553616108E+01  0.18370439624E+03  0.12499468395E+03 0.  0.
         23    2    1    2    0    0 -0.84871334059E+02  0.10438359654E+03 -0.84674889165E+02  0.18406438269E+03  0.92794296962E+02 0.  0.
          5    1    3    3  502    0 -0.31489443505E+02 -0.13148212928E+02  0.93767869709E+01  0.35699785565E+02  0.47000000000E+01 0. -1.
         -5    1    3    3    0  502  0.11636077756E+03 -0.91235383609E+02 -0.44214253602E+01  0.14800461067E+03  0.47000000000E+01 0. -1.
        -11    1    4    4    0    0 -0.29146627993E+02  0.95173912424E+02 -0.79422189091E+02  0.12734003161E+03  0.00000000000E+00 0.  1.
         11    1    4    4    0    0 -0.55724706066E+02  0.92096841127E+01 -0.52527000732E+01  0.56724351082E+02  0.00000000000E+00 0. -1.
<mgrwt>
<rscale>  0 0.17836312E+03</rscale>
<asrwt>0</asrwt>
<pdfrwt beam="2">  1        2 0.34422177E-01 0.18363755E+03</pdfrwt>
<pdfrwt beam="1">  1       -2 0.22157635E-01 0.18363755E+03</pdfrwt>
<totfact> 0.26024364E+03</totfact>
</mgrwt>
</event>
<event>
 8    1  0.1033707E-005  0.1430893E+03  0.7546771E-02  0.1220642E+00
         -2   -1    0    0    0  501 -0.00000000000E+00  0.00000000000E+00  0.98482738805E+02  0.98482738805E+02  0.00000000000E+00 0.  1.
          2   -1    0    0  501    0  0.00000000000E+00 -0.00000000000E+00 -0.33808548656E+03  0.33808548656E+03  0.00000000000E+00 0. -1.
         23    2    1    2    0    0 -0.59628459942E+02 -0.35990964627E+02  0.28470775507E+02  0.14589427913E+03  0.12499461130E+03 0.  0.
         23    2    1    2    0    0  0.59628459942E+02  0.35990964627E+02 -0.26807352326E+03  0.29067394624E+03  0.88187450216E+02 0.  0.
          5    1    3    3  502    0 -0.60119353776E+02 -0.67743599020E+02 -0.14925023227E+02  0.91915059838E+02  0.47000000000E+01 0.  1.
         -5    1    3    3    0  502  0.49089383385E+00  0.31752634393E+02  0.43395798735E+02  0.53979219293E+02  0.47000000000E+01 0.  1.
        -11    1    4    4    0    0  0.75625015252E+02  0.10043220262E+02 -0.14456711674E+03  0.16346149531E+03  0.00000000000E+00 0.  1.
         11    1    4    4    0    0 -0.15996555309E+02  0.25947744365E+02 -0.12350640652E+03  0.12721245093E+03  0.00000000000E+00 0. -1.
<mgrwt>
<rscale>  0 0.13470135E+03</rscale>
<asrwt>0</asrwt>
<pdfrwt beam="2">  1        2 0.52013153E-01 0.14308933E+03</pdfrwt>
<pdfrwt beam="1">  1       -2 0.15151190E-01 0.14308933E+03</pdfrwt>
<totfact> 0.31380383E+03</totfact>
</mgrwt>
</event>
<event>
 8    1  0.1033707E-005  0.1435406E+03  0.7546771E-02  0.1218716E+00
         -1   -1    0    0    0  501 -0.00000000000E+00  0.00000000000E+00  0.25562422817E+03  0.25562422817E+03  0.00000000000E+00 0.  1.
          1   -1    0    0  501    0  0.00000000000E+00 -0.00000000000E+00 -0.67659270777E+02  0.67659270777E+02  0.00000000000E+00 0. -1.
         23    2    1    2    0    0 -0.70547474875E+02 -0.31469420737E+00  0.13011534289E+03  0.19373670472E+03  0.12500745200E+03 0.  0.
         23    2    1    2    0    0  0.70547474875E+02  0.31469420737E+00  0.57849614495E+02  0.12954679423E+03  0.91971456188E+02 0.  0.
          5    1    3    3  502    0 -0.57501619484E+02 -0.47976186376E+02  0.27805354376E+02  0.80021112430E+02  0.47000000000E+01 0. -1.
         -5    1    3    3    0  502 -0.13045855390E+02  0.47661492169E+02  0.10230998852E+03  0.11371559229E+03  0.47000000000E+01 0. -1.
        -11    1    4    4    0    0  0.28522421844E+02 -0.43415388273E+02  0.11474938484E+02  0.53198671976E+02  0.00000000000E+00 0. -1.
         11    1    4    4    0    0  0.42025053030E+02  0.43730082480E+02  0.46374676011E+02  0.76348122250E+02  0.00000000000E+00 0.  1.
<mgrwt>
<rscale>  0 0.13607051E+03</rscale>
<asrwt>0</asrwt>
<pdfrwt beam="2">  1        1 0.10409119E-01 0.14354062E+03</pdfrwt>
<pdfrwt beam="1">  1       -1 0.39326804E-01 0.14354062E+03</pdfrwt>
<totfact> 0.37246242E+03</totfact>
</mgrwt>
</event>
<event>
 7    1  0.1033707E-005  0.1836532E+03  0.7546771E-02  0.1191348E+00
          2   -1    0    0  501    0  0.00000000000E+00  0.00000000000E+00  0.71893694567E+03  0.71893694567E+03  0.00000000000E+00 0. -1.
         -2   -1    0    0    0  501 -0.00000000000E+00 -0.00000000000E+00 -0.29769881448E+02  0.29769881448E+02  0.00000000000E+00 0.  1.
         23    2    1    2    0    0 -0.70232038808E+01  0.41832728018E+02  0.33793091929E+03  0.35235428261E+03  0.90315733582E+02 0.  0.
          5    1    1    2  502    0  0.24596836142E+02 -0.64758093674E+02  0.35933926133E+03  0.36598553220E+03  0.47000000000E+01 0. -1.
         -5    1    1    2    0  502 -0.17573632262E+02  0.22925365656E+02 -0.81031164011E+01  0.30367012312E+02  0.47000000000E+01 0.  1.
        -11    1    3    3    0    0 -0.78922719820E+01 -0.22037680080E+02  0.30989519829E+02  0.38836807793E+02  0.00000000000E+00 0.  1.
         11    1    3    3    0    0  0.86906810123E+00  0.63870408098E+02  0.30694139946E+03  0.31351747481E+03  0.00000000000E+00 0. -1.
<mgrwt>
<rscale>  0 0.15767427E+03</rscale>
<asrwt>0</asrwt>
<pdfrwt beam="1">  1        2 0.11060567E+00 0.18365323E+03</pdfrwt>
<pdfrwt beam="2">  1       -2 0.45799823E-02 0.18365323E+03</pdfrwt>
<totfact> 0.88729804E+03</totfact>
</mgrwt>
</event>
<event>
 8    1  0.1033707E-005  0.1705248E+03  0.7546771E-02  0.1181174E+00
         -2   -1    0    0    0  501 -0.00000000000E+00  0.00000000000E+00  0.62288968884E+02  0.62288968884E+02  0.00000000000E+00 0.  1.
          2   -1    0    0  501    0  0.00000000000E+00 -0.00000000000E+00 -0.45363529722E+03  0.45363529722E+03  0.00000000000E+00 0. -1.
         23    2    1    2    0    0 -0.92778281260E+02  0.69667347255E+02 -0.26418024991E+03  0.31443586988E+03  0.12496944857E+03 0.  0.
         23    2    1    2    0    0  0.92778281260E+02 -0.69667347255E+02 -0.12716607843E+03  0.20148839623E+03  0.10471396070E+03 0.  0.
          5    1    3    3  502    0 -0.28224935039E+00  0.77285694607E+02 -0.12703708650E+03  0.14877388750E+03  0.47000000000E+01 0. -1.
         -5    1    3    3    0  502 -0.92496031910E+02 -0.76183473518E+01 -0.13714316341E+03  0.16566198238E+03  0.47000000000E+01 0. -1.
        -11    1    4    4    0    0  0.54707932978E+02 -0.28698848619E+02 -0.13160725517E+03  0.14538587089E+03  0.00000000000E+00 0. -1.
         11    1    4    4    0    0  0.38070348283E+02 -0.40968498636E+02  0.44411767320E+01  0.56102525341E+02  0.00000000000E+00 0.  1.
<mgrwt>
<rscale>  0 0.16684878E+03</rscale>
<asrwt>0</asrwt>
<pdfrwt beam="2">  1        2 0.69790048E-01 0.17052481E+03</pdfrwt>
<pdfrwt beam="1">  1       -2 0.95829180E-02 0.17052481E+03</pdfrwt>
<totfact> 0.48090956E+03</totfact>
</mgrwt>
</event>
<event>
 8    1  0.1033707E-005  0.1310280E+03  0.7546771E-02  0.1241233E+00
          1   -1    0    0  501    0  0.00000000000E+00  0.00000000000E+00  0.52157183066E+03  0.52157183066E+03  0.00000000000E+00 0. -1.
         -1   -1    0    0    0  501 -0.00000000000E+00 -0.00000000000E+00 -0.24715678305E+02  0.24715678305E+02  0.00000000000E+00 0.  1.
         23    2    1    2    0    0  0.93154171580E+01 -0.38163959460E+02  0.27254856987E+03  0.30240877789E+03  0.12500032485E+03 0.  0.
         23    2    1    2    0    0 -0.93154171580E+01  0.38163959460E+02  0.22430758249E+03  0.24387873107E+03  0.87290773324E+02 0.  0.
          5    1    3    3  502    0  0.10830156158E+02 -0.45569570896E+02  0.28401687354E+03  0.28789156383E+03  0.47000000000E+01 0. -1.
         -5    1    3    3    0  502 -0.15147389997E+01  0.74056114363E+01 -0.11468303670E+02  0.14517214060E+02  0.47000000000E+01 0. -1.
        -11    1    4    4    0    0  0.23349654731E+02  0.33020049270E+02  0.40915231727E+02  0.57529003269E+02  0.00000000000E+00 0.  1.
         11    1    4    4    0    0 -0.32665071889E+02  0.51439101903E+01  0.18339235076E+03  0.18634972780E+03  0.00000000000E+00 0. -1.
<mgrwt>
<rscale>  0 0.12113721E+03</rscale>
<asrwt>0</asrwt>
<pdfrwt beam="1">  1        1 0.80241812E-01 0.13102804E+03</pdfrwt>
<pdfrwt beam="2">  1       -1 0.38024124E-02 0.13102804E+03</pdfrwt>
<totfact> 0.10741296E+04</totfact>
</mgrwt>
</event>
<event>
 8    1  0.1033707E-005  0.1300349E+03  0.7546771E-02  0.1243473E+00
          1   -1    0    0  501    0  0.00000000000E+00  0.00000000000E+00  0.22625332948E+03  0.22625332948E+03  0.00000000000E+00 0. -1.
         -1   -1    0    0    0  501 -0.00000000000E+00 -0.00000000000E+00 -0.55290764691E+02  0.55290764691E+02  0.00000000000E+00 0.  1.
         23    2    1    2    0    0  0.41195794322E+01  0.35603068943E+02  0.10274440527E+03  0.16572716290E+03  0.12499812101E+03 0.  0.
         23    2    1    2    0    0 -0.41195794322E+01 -0.35603068943E+02  0.68218159523E+02  0.11581693127E+03  0.86459787343E+02 0.  0.
          5    1    3    3  502    0  0.14536781161E+02  0.33433448796E+02 -0.20396311305E+02  0.42038232833E+02  0.47000000000E+01 0.  1.
         -5    1    3    3    0  502 -0.10417201729E+02  0.21696201476E+01  0.12314071658E+03  0.12368893007E+03  0.47000000000E+01 0.  1.
        -11    1    4    4    0    0  0.32358598636E+02  0.84926861415E+01  0.39574841009E+02  0.51820581476E+02  0.00000000000E+00 0. -1.
         11    1    4    4    0    0 -0.36478178068E+02 -0.44095755085E+02  0.28643318514E+02  0.63996349796E+02  0.00000000000E+00 0.  1.
<mgrwt>
<rscale>  0 0.11977248E+03</rscale>
<asrwt>0</asrwt>
<pdfrwt beam="1">  1        1 0.34808204E-01 0.13003492E+03</pdfrwt>
<pdfrwt beam="2">  1       -1 0.85062716E-02 0.13003492E+03</pdfrwt>
<totfact> 0.92480338E+03</totfact>
</mgrwt>
</event>
<event>
 8    1  0.1033707E-005  0.1427842E+03  0.7546771E-02  0.1218916E+00
          1   -1    0    0  501    0  0.00000000000E+00  0.00000000000E+00  0.30517355303E+02  0.30517355303E+02  0.00000000000E+00 0. -1.
         -1   -1    0    0    0  501 -0.00000000000E+00 -0.00000000000E+00 -0.91633710422E+03  0.91633710422E+03  0.00000000000E+00 0.  1.
         23    2    1    2    0    0  0.52401945484E+01 -0.68810543838E+02 -0.76600711045E+03  0.77920100906E+03  0.12499987471E+03 0.  0.
         23    2    1    2    0    0 -0.52401945484E+01  0.68810543838E+02 -0.11981263846E+03  0.16765345046E+03  0.94816984413E+02 0.  0.
          5    1    3    3  502    0  0.59357120111E+02 -0.25540896982E+02 -0.50395496097E+03  0.50810264496E+03  0.47000000000E+01 0.  1.
         -5    1    3    3    0  502 -0.54116925563E+02 -0.43269646856E+02 -0.26205214948E+03  0.27109836410E+03  0.47000000000E+01 0.  1.
        -11    1    4    4    0    0 -0.13718339332E+02 -0.56050323678E+01 -0.82789663192E+02  0.84105514405E+02  0.00000000000E+00 0.  1.
         11    1    4    4    0    0  0.84781447836E+01  0.74415576206E+02 -0.37022975272E+02  0.83547936055E+02  0.00000000000E+00 0. -1.
<mgrwt>
<rscale>  0 0.13592777E+03</rscale>
<asrwt>0</asrwt>
<pdfrwt beam="1">  1        1 0.46949777E-02 0.14278417E+03</pdfrwt>
<pdfrwt beam="2">  1       -1 0.14097494E+00 0.14278417E+03</pdfrwt>
<totfact> 0.79723259E+02</totfact>
</mgrwt>
</event>
<event>
 8    1  0.1033707E-005  0.1350902E+03  0.7546771E-02  0.1235263E+00
         -1   -1    0    0    0  501 -0.00000000000E+00  0.00000000000E+00  0.44594878312E+02  0.44594878312E+02  0.00000000000E+00 0.  1.
          1   -1    0    0  501    0  0.00000000000E+00 -0.00000000000E+00 -0.30854750410E+03  0.30854750410E+03  0.00000000000E+00 0. -1.
         23    2    1    2    0    0 -0.16742289729E+02  0.48370775076E+02 -0.13736587900E+03  0.19266223256E+03  0.12501725878E+03 0.  0.
         23    2    1    2    0    0  0.16742289729E+02 -0.48370775076E+02 -0.12658674679E+03  0.16048014986E+03  0.84318668691E+02 0.  0.
          5    1    3    3  502    0 -0.50689449512E+02  0.73555434506E+02 -0.11125415278E+03  0.14275643155E+03  0.47000000000E+01 0.  1.
         -5    1    3    3    0  502  0.33947159783E+02 -0.25184659430E+02 -0.26111726221E+02  0.49905801007E+02  0.47000000000E+01 0.  1.
        -11    1    4    4    0    0  0.43640979106E+02 -0.20276074447E+01 -0.70277816539E+02  0.82750333816E+02  0.00000000000E+00 0. -1.
         11    1    4    4    0    0 -0.26898689377E+02 -0.46343167632E+02 -0.56308930248E+02  0.77729816042E+02  0.00000000000E+00 0.  1.
<mgrwt>
<rscale>  0 0.12487631E+03</rscale>
<asrwt>0</asrwt>
<pdfrwt beam="2">  1        1 0.47468846E-01 0.13509016E+03</pdfrwt>
<pdfrwt beam="1">  1       -1 0.68607506E-02 0.13509016E+03</pdfrwt>
<totfact> 0.87345549E+03</totfact>
</mgrwt>
</event>
<event>
 8    1  0.1033707E-005  0.1578871E+03  0.7546771E-02  0.1198465E+00
         -2   -1    0    0    0  501 -0.00000000000E+00  0.00000000000E+00  0.22467232335E+02  0.22467232335E+02  0.00000000000E+00 0.  1.
          2   -1    0    0  501    0  0.00000000000E+00 -0.00000000000E+00 -0.97545431957E+03  0.97545431957E+03  0.00000000000E+00 0. -1.
         23    2    1    2    0    0 -0.31987311627E+02  0.90945820001E+02 -0.59359926694E+03  0.61423808044E+03  0.12503599269E+03 0.  0.
         23    2    1    2    0    0  0.31987311627E+02 -0.90945820001E+02 -0.35938782029E+03  0.38368347147E+03  0.93589906612E+02 0.  0.
          5    1    3    3  502    0 -0.35560377651E+02 -0.22410041596E+02 -0.12031810256E+03  0.12753543126E+03  0.47000000000E+01 0. -1.
         -5    1    3    3    0  502  0.35730660238E+01  0.11335586160E+03 -0.47328116438E+03  0.48670264918E+03  0.47000000000E+01 0. -1.
        -11    1    4    4    0    0  0.61469881315E+02 -0.34585255737E+02 -0.20003274072E+03  0.21210323803E+03  0.00000000000E+00 0. -1.
         11    1    4    4    0    0 -0.29482569688E+02 -0.56360564264E+02 -0.15935507958E+03  0.17158023344E+03  0.00000000000E+00 0.  1.
<mgrwt>
<rscale>  0 0.15164560E+03</rscale>
<asrwt>0</asrwt>
<pdfrwt beam="2">  1        2 0.15006989E+00 0.15788708E+03</pdfrwt>
<pdfrwt beam="1">  1       -2 0.34564975E-02 0.15788708E+03</pdfrwt>
<totfact> 0.90655880E+03</totfact>
</mgrwt>
</event>
<event>
 8    1  0.1033707E-005  0.1560949E+03  0.7546771E-02  0.1201018E+00
          2   -1    0    0  501    0  0.00000000000E+00  0.00000000000E+00  0.63795671508E+02  0.63795671508E+02  0.00000000000E+00 0. -1.
         -2   -1    0    0    0  501 -0.00000000000E+00 -0.00000000000E+00 -0.34496002625E+03  0.34496002625E+03  0.00000000000E+00 0.  1.
         23    2    1    2    0    0 -0.20834226398E+02 -0.91151280311E+02 -0.20180567007E+03  0.25512966580E+03  0.12499198778E+03 0.  0.
         23    2    1    2    0    0  0.20834226398E+02  0.91151280311E+02 -0.79358684676E+02  0.15362603195E+03  0.92523164497E+02 0.  0.
          5    1    3    3  502    0 -0.60689120344E+02 -0.17150770116E+02 -0.12966675470E+03  0.14426668194E+03  0.47000000000E+01 0.  1.
         -5    1    3    3    0  502  0.39854893946E+02 -0.74000510195E+02 -0.72138915361E+02  0.11086298386E+03  0.47000000000E+01 0.  1.
        -11    1    4    4    0    0  0.56726240577E+02  0.68106059803E+02 -0.57977660133E+02  0.10591369518E+03  0.00000000000E+00 0.  1.
         11    1    4    4    0    0 -0.35892014179E+02  0.23045220509E+02 -0.21381024543E+02  0.47712336776E+02  0.00000000000E+00 0. -1.
<mgrwt>
<rscale>  0 0.14955716E+03</rscale>
<asrwt>0</asrwt>
<pdfrwt beam="1">  1        2 0.98147187E-02 0.15609490E+03</pdfrwt>
<pdfrwt beam="2">  1       -2 0.53070773E-01 0.15609490E+03</pdfrwt>
<totfact> 0.21710725E+03</totfact>
</mgrwt>
</event>
<event>
 8    1  0.1033707E-005  0.2142733E+03  0.7546771E-02  0.1141947E+00
         -1   -1    0    0    0  501 -0.00000000000E+00  0.00000000000E+00  0.39341081732E+02  0.39341081732E+02  0.00000000000E+00 0.  1.
          1   -1    0    0  501    0  0.00000000000E+00 -0.00000000000E+00 -0.11104680106E+04  0.11104680106E+04  0.00000000000E+00 0. -1.
         23    2    1    2    0    0  0.16576048160E+03 -0.53067788965E+02 -0.66964276272E+03  0.70308923889E+03  0.12498128138E+03 0.  0.
         23    2    1    2    0    0 -0.16576048160E+03  0.53067788965E+02 -0.40148416616E+03  0.44671985346E+03  0.89868594675E+02 0.  0.
          5    1    3    3  502    0  0.17850258059E+03 -0.22137307656E+02 -0.54400605760E+03  0.57299032485E+03  0.47000000000E+01 0.  1.
         -5    1    3    3    0  502 -0.12742098993E+02 -0.30930481309E+02 -0.12563670512E+03  0.13009891404E+03  0.47000000000E+01 0.  1.
        -11    1    4    4    0    0 -0.10269931449E+03 -0.12496065529E+02 -0.18632928552E+03  0.21312415042E+03  0.00000000000E+00 0. -1.
         11    1    4    4    0    0 -0.63061167109E+02  0.65563854494E+02 -0.21515488064E+03  0.23359570303E+03  0.00000000000E+00 0.  1.
<mgrwt>
<rscale>  0 0.20951916E+03</rscale>
<asrwt>0</asrwt>
<pdfrwt beam="2">  1        1 0.17084124E+00 0.21427330E+03</pdfrwt>
<pdfrwt beam="1">  1       -1 0.60524740E-02 0.21427330E+03</pdfrwt>
<totfact> 0.17472140E+03</totfact>
</mgrwt>
</event>
<event>
 8    1  0.1033707E-005  0.1349057E+03  0.7546771E-02  0.1223170E+00
         -1   -1    0    0    0  501 -0.00000000000E+00  0.00000000000E+00  0.68705046258E+02  0.68705046258E+02  0.00000000000E+00 0.  1.
          1   -1    0    0  501    0  0.00000000000E+00 -0.00000000000E+00 -0.26039042475E+03  0.26039042475E+03  0.00000000000E+00 0. -1.
         23    2    1    2    0    0 -0.50700934357E+02  0.24536804374E+01 -0.65607968740E+02  0.15001319853E+03  0.12499179525E+03 0.  0.
         23    2    1    2    0    0  0.50700934357E+02 -0.24536804374E+01 -0.12607740976E+03  0.17908227248E+03  0.11661192809E+03 0.  0.
          5    1    3    3  502    0 -0.42733185362E+02 -0.53713082819E+02 -0.84002014924E+01  0.69309983280E+02  0.47000000000E+01 0.  1.
         -5    1    3    3    0  502 -0.79677489942E+01  0.56166763256E+02 -0.57207767248E+02  0.80703215253E+02  0.47000000000E+01 0.  1.
        -11    1    4    4    0    0  0.11165935086E+02 -0.53065840537E+02 -0.90925759356E+02  0.10586857538E+03  0.00000000000E+00 0. -1.
         11    1    4    4    0    0  0.39534999271E+02  0.50612160100E+02 -0.35151650399E+02  0.73213697100E+02  0.00000000000E+00 0.  1.
<mgrwt>
<rscale>  0 0.13293157E+03</rscale>
<asrwt>0</asrwt>
<pdfrwt beam="2">  1        1 0.40060066E-01 0.13490572E+03</pdfrwt>
<pdfrwt beam="1">  1       -1 0.10570007E-01 0.13490572E+03</pdfrwt>
<totfact> 0.56005898E+03</totfact>
</mgrwt>
</event>
<event>
 8    1  0.1033707E-005  0.1700955E+03  0.7546771E-02  0.1184026E+00
          1   -1    0    0  501    0  0.00000000000E+00  0.00000000000E+00  0.99101120118E+02  0.99101120118E+02  0.00000000000E+00 0. -1.
         -1   -1    0    0    0  501 -0.00000000000E+00 -0.00000000000E+00 -0.29604459739E+03  0.29604459739E+03  0.00000000000E+00 0.  1.
         23    2    1    2    0    0 -0.11436436649E+03 -0.14955941670E+02 -0.17798459617E+03  0.24619297201E+03  0.12501829657E+03 0.  0.
         23    2    1    2    0    0  0.11436436649E+03  0.14955941670E+02 -0.18958881099E+02  0.14895274550E+03  0.92328720915E+02 0.  0.
          5    1    3    3  502    0 -0.33615449014E+02  0.34429120393E+02 -0.45579466573E+01  0.48561585860E+02  0.47000000000E+01 0. -1.
         -5    1    3    3    0  502 -0.80748917475E+02 -0.49385062063E+02 -0.17342664952E+03  0.19763138615E+03  0.47000000000E+01 0. -1.
        -11    1    4    4    0    0  0.10784799677E+03  0.31365342145E+01 -0.47112529053E+02  0.11773112863E+03  0.00000000000E+00 0.  1.
         11    1    4    4    0    0  0.65163697182E+01  0.11819407455E+02  0.28153647955E+02  0.31221616871E+02  0.00000000000E+00 0. -1.
<mgrwt>
<rscale>  0 0.16420825E+03</rscale>
<asrwt>0</asrwt>
<pdfrwt beam="1">  1        1 0.15246326E-01 0.17009545E+03</pdfrwt>
<pdfrwt beam="2">  1       -1 0.45545322E-01 0.17009545E+03</pdfrwt>
<totfact> 0.17515673E+03</totfact>
</mgrwt>
</event>
<event>
 8    1  0.1033707E-005  0.1623982E+03  0.7546771E-02  0.1193299E+00
         -4   -1    0    0    0  501 -0.00000000000E+00  0.00000000000E+00  0.71037777435E+03  0.71037777435E+03  0.00000000000E+00 0.  1.
          4   -1    0    0  501    0  0.00000000000E+00 -0.00000000000E+00 -0.54751572822E+02  0.54751572822E+02  0.00000000000E+00 0. -1.
         23    2    1    2    0    0 -0.91762319365E+02  0.48260284565E+02  0.59028901299E+03  0.61222079285E+03  0.12499520798E+03 0.  0.
         23    2    1    2    0    0  0.91762319365E+02 -0.48260284565E+02  0.65337188540E+02  0.15290855432E+03  0.91447796352E+02 0.  0.
          5    1    3    3  502    0 -0.27251894596E+02  0.84041932296E+02  0.32384156943E+03  0.33570994062E+03  0.47000000000E+01 0.  1.
         -5    1    3    3    0  502 -0.64510424769E+02 -0.35781647731E+02  0.26644744356E+03  0.27651085222E+03  0.47000000000E+01 0.  1.
        -11    1    4    4    0    0  0.70282312198E+02 -0.47491263424E+02  0.87617788548E+02  0.12195040131E+03  0.00000000000E+00 0.  1.
         11    1    4    4    0    0  0.21480007167E+02 -0.76902114098E+00 -0.22280600007E+02  0.30958153015E+02  0.00000000000E+00 0. -1.
<mgrwt>
<rscale>  0 0.15599096E+03</rscale>
<asrwt>0</asrwt>
<pdfrwt beam="2">  1        4 0.84233194E-02 0.16239822E+03</pdfrwt>
<pdfrwt beam="1">  1       -4 0.10928888E+00 0.16239822E+03</pdfrwt>
<totfact> 0.12129883E+02</totfact>
</mgrwt>
</event>
<event>
 7    1  0.1033707E-005  0.2911460E+03  0.7546771E-02  0.1104726E+00
          2   -1    0    0  501    0  0.00000000000E+00  0.00000000000E+00  0.38855349605E+03  0.38855349605E+03  0.00000000000E+00 0. -1.
         -2   -1    0    0    0  501 -0.00000000000E+00 -0.00000000000E+00 -0.15495059673E+03  0.15495059673E+03  0.00000000000E+00 0.  1.
         23    2    1    2    0    0  0.11488466665E+03  0.13521185249E+03  0.12182204987E+03  0.23163725418E+03  0.85641543675E+02 0.  0.
          5    1    1    2  502    0  0.20816567692E+02 -0.26892158179E+02  0.13255962390E+03  0.13693305499E+03  0.47000000000E+01 0. -1.
         -5    1    1    2    0  502 -0.13570123435E+03 -0.10831969431E+03 -0.20778774439E+02  0.17493378361E+03  0.47000000000E+01 0.  1.
        -11    1    3    3    0    0 -0.40910351184E+01  0.99708531647E+01 -0.97182305234E+01  0.14512011772E+02  0.00000000000E+00 0.  1.
         11    1    3    3    0    0  0.11897570177E+03  0.12524099933E+03  0.13154028039E+03  0.21712524241E+03  0.00000000000E+00 0. -1.
<mgrwt>
<rscale>  0 0.26406346E+03</rscale>
<asrwt>0</asrwt>
<pdfrwt beam="1">  1        2 0.59777460E-01 0.29114595E+03</pdfrwt>
<pdfrwt beam="2">  1       -2 0.23838554E-01 0.29114595E+03</pdfrwt>
<totfact> 0.12762214E+03</totfact>
</mgrwt>
</event>
<event>
 8    1  0.1033707E-005  0.1313923E+03  0.7546771E-02  0.1232699E+00
          2   -1    0    0  501    0  0.00000000000E+00  0.00000000000E+00  0.27767681662E+03  0.27767681662E+03  0.00000000000E+00 0.  1.
         -2   -1    0    0    0  501 -0.00000000000E+00 -0.00000000000E+00 -0.54036547452E+02  0.54036547452E+02  0.00000000000E+00 0. -1.
         23    2    1    2    0    0 -0.34896286116E+02  0.20522624517E+02  0.10860658181E+03  0.17046797917E+03  0.12500005364E+03 0.  0.
         23    2    1    2    0    0  0.34896286116E+02 -0.20522624517E+02  0.11503368736E+03  0.16124538489E+03  0.10549121300E+03 0.  0.
          5    1    3    3  502    0 -0.23307606118E+02  0.73057169360E+02  0.71444795040E+02  0.10491445675E+03  0.47000000000E+01 0. -1.
         -5    1    3    3    0  502 -0.11588679998E+02 -0.52534544843E+02  0.37161786766E+02  0.65553522420E+02  0.47000000000E+01 0. -1.
        -11    1    4    4    0    0 -0.94293974994E+01  0.34913184299E+02  0.65073259664E+02  0.74447116118E+02  0.00000000000E+00 0.  1.
         11    1    4    4    0    0  0.44325683615E+02 -0.55435808816E+02  0.49960427697E+02  0.86798268777E+02  0.00000000000E+00 0. -1.
<mgrwt>
<rscale>  0 0.12652897E+03</rscale>
<asrwt>0</asrwt>
<pdfrwt beam="1">  1        2 0.42719509E-01 0.13139232E+03</pdfrwt>
<pdfrwt beam="2">  1       -2 0.83133152E-02 0.13139232E+03</pdfrwt>
<totfact> 0.99845510E+03</totfact>
</mgrwt>
</event>
<event>
 8    1  0.1033707E-005  0.1478103E+03  0.7546771E-02  0.1213258E+00
          2   -1    0    0  501    0  0.00000000000E+00  0.00000000000E+00  0.26344627996E+03  0.26344627996E+03  0.00000000000E+00 0. -1.
         -2   -1    0    0    0  501 -0.00000000000E+00 -0.00000000000E+00 -0.67698706864E+02  0.67698706864E+02  0.00000000000E+00 0.  1.
         23    2    1    2    0    0 -0.51387627126E+02 -0.59862022718E+02  0.10292131588E+03  0.18011299477E+03  0.12499497445E+03 0.  0.
         23    2    1    2    0    0  0.51387627126E+02  0.59862022718E+02  0.92826257211E+02  0.15103199205E+03  0.89273728547E+02 0.  0.
          5    1    3    3  502    0 -0.37428628096E+02 -0.98998540907E+02  0.75929537810E+02  0.13034185059E+03  0.47000000000E+01 0. -1.
         -5    1    3    3    0  502 -0.13958999031E+02  0.39136518189E+02  0.26991778073E+02  0.49771144184E+02  0.47000000000E+01 0. -1.
        -11    1    4    4    0    0 -0.22325666991E+02 -0.46762855872E+00  0.27987888764E+02  0.35804692437E+02  0.00000000000E+00 0.  1.
         11    1    4    4    0    0  0.73713294117E+02  0.60329651277E+02  0.64838368447E+02  0.11522729961E+03  0.00000000000E+00 0. -1.
<mgrwt>
<rscale>  0 0.14005270E+03</rscale>
<asrwt>0</asrwt>
<pdfrwt beam="1">  1        2 0.40530196E-01 0.14781033E+03</pdfrwt>
<pdfrwt beam="2">  1       -2 0.10415186E-01 0.14781033E+03</pdfrwt>
<totfact> 0.74846342E+03</totfact>
</mgrwt>
</event>
<event>
 8    1  0.1033707E-005  0.2026327E+03  0.7546771E-02  0.1151853E+00
          1   -1    0    0  501    0  0.00000000000E+00  0.00000000000E+00  0.35468708914E+02  0.35468708914E+02  0.00000000000E+00 0. -1.
         -1   -1    0    0    0  501 -0.00000000000E+00 -0.00000000000E+00 -0.10864318660E+04  0.10864318660E+04  0.00000000000E+00 0.  1.
         23    2    1    2    0    0  0.10469205730E+03 -0.12034129275E+03 -0.65704961855E+03  0.68758578933E+03  0.12497024786E+03 0.  0.
         23    2    1    2    0    0 -0.10469205730E+03  0.12034129275E+03 -0.39391353854E+03  0.43431478559E+03  0.89548889054E+02 0.  0.
          5    1    3    3  502    0  0.13080972255E+03 -0.11048907301E+03 -0.59886585740E+03  0.62288154888E+03  0.47000000000E+01 0.  1.
         -5    1    3    3    0  502 -0.26117665245E+02 -0.98522197457E+01 -0.58183761149E+02  0.64704240458E+02  0.47000000000E+01 0.  1.
        -11    1    4    4    0    0 -0.61430719263E+02  0.10412051975E+02 -0.17161473423E+03  0.18257535732E+03  0.00000000000E+00 0.  1.
         11    1    4    4    0    0 -0.43261338038E+02  0.10992924078E+03 -0.22229880431E+03  0.25173942827E+03  0.00000000000E+00 0. -1.
<mgrwt>
<rscale>  0 0.19751509E+03</rscale>
<asrwt>0</asrwt>
<pdfrwt beam="1">  1        1 0.54567253E-02 0.20263271E+03</pdfrwt>
<pdfrwt beam="2">  1       -1 0.16714334E+00 0.20263271E+03</pdfrwt>
<totfact> 0.41589296E+02</totfact>
</mgrwt>
</event>
<event>
 8    1  0.1033707E-005  0.1318812E+03  0.7546771E-02  0.1238350E+00
         -1   -1    0    0    0  501 -0.00000000000E+00  0.00000000000E+00  0.37950549426E+02  0.37950549426E+02  0.00000000000E+00 0.  1.
          1   -1    0    0  501    0  0.00000000000E+00 -0.00000000000E+00 -0.35409578399E+03  0.35409578399E+03  0.00000000000E+00 0. -1.
         23    2    1    2    0    0 -0.34593680483E+02  0.23876973347E+02 -0.16833433608E+03  0.21384363539E+03  0.12500327639E+03 0.  0.
         23    2    1    2    0    0  0.34593680483E+02 -0.23876973347E+02 -0.14781089849E+03  0.17820269803E+03  0.90229193097E+02 0.  0.
          5    1    3    3  502    0  0.12406076758E+02 -0.67057811181E+01 -0.15539527307E+03  0.15610464161E+03  0.47000000000E+01 0. -1.
         -5    1    3    3    0  502 -0.46999757242E+02  0.30582754465E+02 -0.12939063017E+02  0.57738993784E+02  0.47000000000E+01 0. -1.
        -11    1    4    4    0    0 -0.29345072228E+02 -0.96939793990E+01 -0.28209459418E+02  0.41843519227E+02  0.00000000000E+00 0. -1.
         11    1    4    4    0    0  0.63938752711E+02 -0.14182993948E+02 -0.11960143907E+03  0.13635917880E+03  0.00000000000E+00 0.  1.
<mgrwt>
<rscale>  0 0.12292386E+03</rscale>
<asrwt>0</asrwt>
<pdfrwt beam="2">  1        1 0.54476273E-01 0.13188120E+03</pdfrwt>
<pdfrwt beam="1">  1       -1 0.58385462E-02 0.13188120E+03</pdfrwt>
<totfact> 0.93486311E+03</totfact>
</mgrwt>
</event>
<event>
 8    1  0.1033707E-005  0.1290309E+03  0.7546771E-02  0.1243405E+00
         -1   -1    0    0    0  501 -0.00000000000E+00  0.00000000000E+00  0.11868737011E+03  0.11868737011E+03  0.00000000000E+00 0.  1.
          1   -1    0    0  501    0  0.00000000000E+00 -0.00000000000E+00 -0.15550306150E+03  0.15550306150E+03  0.00000000000E+00 0. -1.
         23    2    1    2    0    0  0.22193598557E+01 -0.31922658164E+02  0.56046992048E+02  0.14067780078E+03  0.12499998661E+03 0.  0.
         23    2    1    2    0    0 -0.22193598557E+01  0.31922658164E+02 -0.92862683432E+02  0.13351263083E+03  0.90433196084E+02 0.  0.
          5    1    3    3  502    0  0.52872700561E+02 -0.51280624977E+02  0.24496220184E+02  0.77764900604E+02  0.47000000000E+01 0. -1.
         -5    1    3    3    0  502 -0.50653340705E+02  0.19357966813E+02  0.31550771864E+02  0.62912900179E+02  0.47000000000E+01 0. -1.
        -11    1    4    4    0    0  0.10792819954E+02 -0.26185098802E+02 -0.57911522702E+02  0.64466183566E+02  0.00000000000E+00 0. -1.
         11    1    4    4    0    0 -0.13012179810E+02  0.58107756967E+02 -0.34951160730E+02  0.69046447262E+02  0.00000000000E+00 0.  1.
<mgrwt>
<rscale>  0 0.11981370E+03</rscale>
<asrwt>0</asrwt>
<pdfrwt beam="2">  1        1 0.23923548E-01 0.12903092E+03</pdfrwt>
<pdfrwt beam="1">  1       -1 0.18259596E-01 0.12903092E+03</pdfrwt>
<totfact> 0.45228219E+03</totfact>
</mgrwt>
</event>
<event>
 8    1  0.1033707E-005  0.1872713E+03  0.7546771E-02  0.1166080E+00
         -2   -1    0    0    0  501 -0.00000000000E+00  0.00000000000E+00  0.79404173361E+03  0.79404173361E+03  0.00000000000E+00 0.  1.
          2   -1    0    0  501    0  0.00000000000E+00 -0.00000000000E+00 -0.39685212121E+02  0.39685212121E+02  0.00000000000E+00 0. -1.
         23    2    1    2    0    0 -0.10893050011E+03  0.87065125844E+02  0.43710057817E+03  0.47552862477E+03  0.12499747016E+03 0.  0.
         23    2    1    2    0    0  0.10893050011E+03 -0.87065125844E+02  0.31725594333E+03  0.35819832097E+03  0.90600847546E+02 0.  0.
          5    1    3    3  502    0 -0.59871953526E+02  0.97873057437E+02  0.17988685839E+03  0.21341311584E+03  0.47000000000E+01 0. -1.
         -5    1    3    3    0  502 -0.49058546588E+02 -0.10807931593E+02  0.25721371978E+03  0.26211550893E+03  0.47000000000E+01 0. -1.
        -11    1    4    4    0    0  0.36809195529E+02 -0.58224555286E+02  0.23575371573E+03  0.24561113614E+03  0.00000000000E+00 0.  1.
         11    1    4    4    0    0  0.72121304585E+02 -0.28840570558E+02  0.81502227591E+02  0.11258718483E+03  0.00000000000E+00 0. -1.
<mgrwt>
<rscale>  0 0.18179194E+03</rscale>
<asrwt>0</asrwt>
<pdfrwt beam="2">  1        2 0.61054178E-02 0.18727135E+03</pdfrwt>
<pdfrwt beam="1">  1       -2 0.12216025E+00 0.18727135E+03</pdfrwt>
<totfact> 0.63486489E+02</totfact>
</mgrwt>
</event>
<event>
 8    1  0.1033707E-005  0.1281513E+03  0.7546771E-02  0.1244057E+00
          1   -1    0    0  501    0  0.00000000000E+00  0.00000000000E+00  0.90765164950E+02  0.90765164950E+02  0.00000000000E+00 0. -1.
         -1   -1    0    0    0  501 -0.00000000000E+00 -0.00000000000E+00 -0.14717551688E+03  0.14717551688E+03  0.00000000000E+00 0.  1.
         23    2    1    2    0    0 -0.28250081568E+02  0.13380759602E+01 -0.59424019781E+02  0.14125850593E+03  0.12499157498E+03 0.  0.
         23    2    1    2    0    0  0.28250081568E+02 -0.13380759602E+01  0.30136678470E+01  0.96682175900E+02  0.92404022569E+02 0.  0.
          5    1    3    3  502    0  0.36508323761E+02 -0.35939981019E+02 -0.36073308324E+02  0.62832424057E+02  0.47000000000E+01 0.  1.
         -5    1    3    3    0  502 -0.64758405329E+02  0.37278056979E+02 -0.23350711457E+02  0.78426081876E+02  0.47000000000E+01 0.  1.
        -11    1    4    4    0    0  0.56361786733E+02  0.13902067171E+02 -0.15030660861E+02  0.59965316987E+02  0.00000000000E+00 0. -1.
         11    1    4    4    0    0 -0.28111705165E+02 -0.15240143131E+02  0.18044328708E+02  0.36716858913E+02  0.00000000000E+00 0.  1.
<mgrwt>
<rscale>  0 0.11941972E+03</rscale>
<asrwt>0</asrwt>
<pdfrwt beam="1">  1        1 0.13963872E-01 0.12815128E+03</pdfrwt>
<pdfrwt beam="2">  1       -1 0.22642387E-01 0.12815128E+03</pdfrwt>
<totfact> 0.63624600E+03</totfact>
</mgrwt>
</event>
<event>
 8    1  0.1226801E-005  0.2074969E+03  0.7546771E-02  0.1147535E+00
         -2   -1    0    0    0  501 -0.00000000000E+00  0.00000000000E+00  0.77590188505E+02  0.77590188505E+02  0.00000000000E+00 0.  1.
          2   -1    0    0  501    0  0.00000000000E+00 -0.00000000000E+00 -0.56203932655E+03  0.56203932655E+03  0.00000000000E+00 0. -1.
         23    2    1    2    0    0 -0.81908884571E+02 -0.14394694138E+03 -0.15151615148E+03  0.25692820064E+03  0.12500067528E+03 0.  0.
         23    2    1    2    0    0  0.81908884571E+02  0.14394694138E+03 -0.33293298657E+03  0.38270131442E+03  0.90477263489E+02 0.  0.
          5    1    3    3  502    0 -0.84886816386E+02 -0.43493842352E+02 -0.32024550421E+02  0.10072312420E+03  0.47000000000E+01 0.  1.
         -5    1    3    3    0  502  0.29779318158E+01 -0.10045309903E+03 -0.11949160106E+03  0.15620507644E+03  0.47000000000E+01 0.  1.
        -11    1    4    4    0    0  0.71978030095E+02  0.72159377481E+02 -0.11822707002E+03  0.15609437101E+03  0.00000000000E+00 0.  1.
         11    1    4    4    0    0  0.99308544753E+01  0.71787563898E+02 -0.21470591655E+03  0.22660694341E+03  0.00000000000E+00 0. -1.
<mgrwt>
<rscale>  0 0.20263488E+03</rscale>
<asrwt>0</asrwt>
<pdfrwt beam="2">  1        2 0.86467586E-01 0.20749688E+03</pdfrwt>
<pdfrwt beam="1">  1       -2 0.11936952E-01 0.20749688E+03</pdfrwt>
<totfact> 0.26892687E+03</totfact>
</mgrwt>
</event>
<event>
 8    1  0.1033707E-005  0.1281024E+03  0.7546771E-02  0.1244642E+00
          3   -1    0    0  501    0  0.00000000000E+00  0.00000000000E+00  0.43482951305E+02  0.43482951305E+02  0.00000000000E+00 0. -1.
         -3   -1    0    0    0  501 -0.00000000000E+00 -0.00000000000E+00 -0.30775569269E+03  0.30775569269E+03  0.00000000000E+00 0.  1.
         23    2    1    2    0    0 -0.22763542831E+02  0.16147084048E+02 -0.19441456032E+03  0.23282450893E+03  0.12502529139E+03 0.  0.
         23    2    1    2    0    0  0.22763542831E+02 -0.16147084048E+02 -0.69858181064E+02  0.11841413507E+03  0.91448535891E+02 0.  0.
          5    1    3    3  502    0 -0.43589134739E+02 -0.27706236223E+02 -0.17105646093E+03  0.17874577203E+03  0.47000000000E+01 0. -1.
         -5    1    3    3    0  502  0.20825591909E+02  0.43853320271E+02 -0.23358099389E+02  0.54078736895E+02  0.47000000000E+01 0. -1.
        -11    1    4    4    0    0 -0.95809237649E+01 -0.43466908448E+02 -0.10893934607E+02  0.45824055271E+02  0.00000000000E+00 0. -1.
         11    1    4    4    0    0  0.32344466595E+02  0.27319824400E+02 -0.58964246457E+02  0.72590079796E+02  0.00000000000E+00 0.  1.
<mgrwt>
<rscale>  0 0.11906843E+03</rscale>
<asrwt>0</asrwt>
<pdfrwt beam="1">  1        3 0.66896852E-02 0.12810242E+03</pdfrwt>
<pdfrwt beam="2">  1       -3 0.47347027E-01 0.12810242E+03</pdfrwt>
<totfact> 0.14488546E+03</totfact>
</mgrwt>
</event>
<event>
 8    1  0.1033707E-005  0.1459161E+03  0.7546771E-02  0.1215281E+00
          1   -1    0    0  501    0  0.00000000000E+00  0.00000000000E+00  0.41756983270E+02  0.41756983270E+02  0.00000000000E+00 0. -1.
         -1   -1    0    0    0  501 -0.00000000000E+00 -0.00000000000E+00 -0.42972105133E+03  0.42972105133E+03  0.00000000000E+00 0.  1.
         23    2    1    2    0    0 -0.16338106191E+02  0.73475477554E+02 -0.25047106362E+03  0.28987458680E+03  0.12500377132E+03 0.  0.
         23    2    1    2    0    0  0.16338106191E+02 -0.73475477554E+02 -0.13749300444E+03  0.18160344780E+03  0.91705542190E+02 0.  0.
          5    1    3    3  502    0 -0.53334020118E+02  0.90059169654E+02 -0.18875381554E+03  0.21588252505E+03  0.47000000000E+01 0.  1.
         -5    1    3    3    0  502  0.36995913927E+02 -0.16583692100E+02 -0.61717248078E+02  0.73992061745E+02  0.47000000000E+01 0.  1.
        -11    1    4    4    0    0  0.37229251160E+02  0.36092127807E+01 -0.57278376907E+02  0.68409473174E+02  0.00000000000E+00 0. -1.
         11    1    4    4    0    0 -0.20891144969E+02 -0.77084690335E+02 -0.80214627532E+02  0.11319397463E+03  0.00000000000E+00 0.  1.
<mgrwt>
<rscale>  0 0.13855922E+03</rscale>
<asrwt>0</asrwt>
<pdfrwt beam="1">  1        1 0.64241511E-02 0.14591615E+03</pdfrwt>
<pdfrwt beam="2">  1       -1 0.66110933E-01 0.14591615E+03</pdfrwt>
<totfact> 0.27387397E+03</totfact>
</mgrwt>
</event>
<event>
 8    1  0.1033707E-005  0.1342536E+03  0.7546771E-02  0.1234356E+00
          4   -1    0    0  501    0  0.00000000000E+00  0.00000000000E+00  0.56177804855E+02  0.56177804855E+02  0.00000000000E+00 0. -1.
         -4   -1    0    0    0  501 -0.00000000000E+00 -0.00000000000E+00 -0.27634027173E+03  0.27634027173E+03  0.00000000000E+00 0.  1.
         23    2    1    2    0    0 -0.13151017337E+02  0.47212481271E+02 -0.17514407765E+03  0.22067959316E+03  0.12498826849E+03 0.  0.
         23    2    1    2    0    0  0.13151017337E+02 -0.47212481271E+02 -0.45018389229E+02  0.11183848342E+03  0.89884500111E+02 0.  0.
          5    1    3    3  502    0  0.32108365768E+02 -0.10878932657E+02 -0.12942344990E+03  0.13387239339E+03  0.47000000000E+01 0.  1.
         -5    1    3    3    0  502 -0.45259383105E+02  0.58091413929E+02 -0.45720627747E+02  0.86807199775E+02  0.47000000000E+01 0.  1.
        -11    1    4    4    0    0  0.13822704858E+02  0.20930377320E+02 -0.34849808860E+02  0.42937827634E+02  0.00000000000E+00 0.  1.
         11    1    4    4    0    0 -0.67168752083E+00 -0.68142858591E+02 -0.10168580369E+02  0.68900655787E+02  0.00000000000E+00 0. -1.
<mgrwt>
<rscale>  0 0.12545727E+03</rscale>
<asrwt>0</asrwt>
<pdfrwt beam="1">  1        4 0.86427391E-02 0.13425362E+03</pdfrwt>
<pdfrwt beam="2">  1       -4 0.42513888E-01 0.13425362E+03</pdfrwt>
<totfact> 0.86239145E+02</totfact>
</mgrwt>
</event>
<event>
 8    1  0.1471611E-005  0.1729443E+03  0.7546771E-02  0.1182024E+00
         -2   -1    0    0    0  501 -0.00000000000E+00  0.00000000000E+00  0.13032392819E+03  0.13032392819E+03  0.00000000000E+00 0.  1.
          2   -1    0    0  501    0  0.00000000000E+00 -0.00000000000E+00 -0.19845036930E+03  0.19845036930E+03  0.00000000000E+00 0. -1.
         23    2    1    2    0    0 -0.80366051456E+02  0.88461969428E+02 -0.19982717446E+02  0.17409488537E+03  0.12500199139E+03 0.  0.
         23    2    1    2    0    0  0.80366051456E+02 -0.88461969428E+02 -0.48143723664E+02  0.15467941213E+03  0.85578502830E+02 0.  0.
          5    1    3    3  502    0  0.18758222656E+02  0.17406709376E+01 -0.36432514407E+02  0.41283398099E+02  0.47000000000E+01 0.  1.
         -5    1    3    3    0  502 -0.99124274112E+02  0.86721298490E+02  0.16449796962E+02  0.13281148727E+03  0.47000000000E+01 0.  1.
        -11    1    4    4    0    0  0.29498757411E+02 -0.66045624583E+02  0.11393784352E+02  0.73225811960E+02  0.00000000000E+00 0.  1.
         11    1    4    4    0    0  0.50867294046E+02 -0.22416344845E+02 -0.59537508016E+02  0.81453600169E+02  0.00000000000E+00 0. -1.
<mgrwt>
<rscale>  0 0.16605663E+03</rscale>
<asrwt>0</asrwt>
<pdfrwt beam="2">  1        2 0.30530826E-01 0.17294427E+03</pdfrwt>
<pdfrwt beam="1">  1       -2 0.20049835E-01 0.17294427E+03</pdfrwt>
<totfact> 0.35093674E+03</totfact>
</mgrwt>
</event>
<event>
 7    1  0.1033707E-005  0.1602459E+03  0.7546771E-02  0.1200383E+00
          2   -1    0    0  501    0  0.00000000000E+00  0.00000000000E+00  0.83721653406E+03  0.83721653406E+03  0.00000000000E+00 0. -1.
         -2   -1    0    0    0  501 -0.00000000000E+00 -0.00000000000E+00 -0.24227347166E+02  0.24227347166E+02  0.00000000000E+00 0.  1.
         23    2    1    2    0    0 -0.66735053959E+02 -0.54709535871E+02  0.39511848514E+03  0.41390096986E+03  0.88026671040E+02 0.  0.
          5    1    1    2  502    0 -0.16804116415E+02  0.68640339498E+01  0.27236273248E+03  0.27300740161E+03  0.47000000000E+01 0. -1.
         -5    1    1    2    0  502  0.83539170374E+02  0.47845501921E+02  0.14550796928E+03  0.17453550975E+03  0.47000000000E+01 0.  1.
        -11    1    3    3    0    0 -0.58854521719E+02 -0.76014382965E+02  0.35511776944E+03  0.36790035515E+03  0.00000000000E+00 0. -1.
         11    1    3    3    0    0 -0.78805322405E+01  0.21304847094E+02  0.40000715694E+02  0.46000614714E+02  0.00000000000E+00 0.  1.
<mgrwt>
<rscale>  0 0.15007353E+03</rscale>
<asrwt>0</asrwt>
<pdfrwt beam="1">  1        2 0.12880252E+00 0.16024586E+03</pdfrwt>
<pdfrwt beam="2">  1       -2 0.37272848E-02 0.16024586E+03</pdfrwt>
<totfact> 0.99228492E+03</totfact>
</mgrwt>
</event>
<event>
 8    1  0.1033707E-005  0.1295412E+03  0.7546771E-02  0.1241855E+00
          1   -1    0    0  501    0  0.00000000000E+00  0.00000000000E+00  0.12374411998E+02  0.12374411998E+02  0.00000000000E+00 0. -1.
         -1   -1    0    0    0  501 -0.00000000000E+00 -0.00000000000E+00 -0.13932229889E+04  0.13932229889E+04  0.00000000000E+00 0.  1.
         23    2    1    2    0    0 -0.26760281264E+01  0.33906078558E+02 -0.11117659685E+04  0.11192874896E+04  0.12499652983E+03 0.  0.
         23    2    1    2    0    0  0.26760281264E+01 -0.33906078558E+02 -0.26908260843E+03  0.28630991128E+03  0.91712223006E+02 0.  0.
          5    1    3    3  502    0 -0.30031378582E+02  0.21015071368E+02 -0.93157568238E+02  0.10021945641E+03  0.47000000000E+01 0. -1.
         -5    1    3    3    0  502  0.27355350456E+02  0.12891007189E+02 -0.10186084002E+04  0.10190680332E+04  0.47000000000E+01 0. -1.
        -11    1    4    4    0    0  0.37119631912E+02 -0.14003473321E+01 -0.50704083552E+02  0.62854849732E+02  0.00000000000E+00 0. -1.
         11    1    4    4    0    0 -0.34443603786E+02 -0.32505731225E+02 -0.21837852488E+03  0.22345506155E+03  0.00000000000E+00 0.  1.
<mgrwt>
<rscale>  0 0.12075581E+03</rscale>
<asrwt>0</asrwt>
<pdfrwt beam="1">  1        1 0.19037550E-02 0.12954117E+03</pdfrwt>
<pdfrwt beam="2">  1       -1 0.21434208E+00 0.12954117E+03</pdfrwt>
<totfact> 0.85530412E+02</totfact>
</mgrwt>
</event>
<event>
 7    1  0.1033707E-005  0.1020464E+04  0.7546771E-02  0.9286381E-01
          2   -1    0    0  501    0  0.00000000000E+00  0.00000000000E+00  0.19662961480E+04  0.19662961480E+04  0.00000000000E+00 0. -1.
         -2   -1    0    0    0  501 -0.00000000000E+00 -0.00000000000E+00 -0.13239952824E+03  0.13239952824E+03  0.00000000000E+00 0.  1.
         23    2    1    2    0    0  0.21725054148E+02 -0.17512772276E+01  0.31198720395E+03  0.32620364209E+03  0.92724083881E+02 0.  0.
          5    1    1    2  502    0  0.31143655494E+03 -0.78092662638E+02  0.13528272747E+04  0.13904153757E+04  0.47000000000E+01 0. -1.
         -5    1    1    2    0  502 -0.33316160908E+03  0.79843939866E+02  0.16908214107E+03  0.38207665844E+03  0.47000000000E+01 0.  1.
        -11    1    3    3    0    0  0.41512747580E+02  0.28688873753E+02  0.24365059769E+03  0.24882116760E+03  0.00000000000E+00 0. -1.
         11    1    3    3    0    0 -0.19787693432E+02 -0.30440150980E+02  0.68336606261E+02  0.77382474491E+02  0.00000000000E+00 0.  1.
<mgrwt>
<rscale>  0 0.10204640E+04</rscale>
<asrwt>0</asrwt>
<pdfrwt beam="1">  1        2 0.30250708E+00 0.10204640E+04</pdfrwt>
<pdfrwt beam="2">  1       -2 0.20369160E-01 0.10204640E+04</pdfrwt>
<totfact> 0.14441342E+02</totfact>
</mgrwt>
</event>
<event>
 8    1  0.1033707E-005  0.1758144E+03  0.7546771E-02  0.1178178E+00
          3   -1    0    0  501    0  0.00000000000E+00  0.00000000000E+00  0.88636648095E+02  0.88636648095E+02  0.00000000000E+00 0. -1.
         -3   -1    0    0    0  501 -0.00000000000E+00 -0.00000000000E+00 -0.34042994955E+03  0.34042994955E+03  0.00000000000E+00 0.  1.
         23    2    1    2    0    0 -0.73072184211E+02  0.99750509022E+02 -0.20378429863E+03  0.26914449528E+03  0.12498404224E+03 0.  0.
         23    2    1    2    0    0  0.73072184211E+02 -0.99750509022E+02 -0.48009002823E+02  0.15992210237E+03  0.89333679638E+02 0.  0.
          5    1    3    3  502    0  0.34414153663E+02  0.36763728088E+02 -0.68885826941E+02  0.85459071073E+02  0.47000000000E+01 0. -1.
         -5    1    3    3    0  502 -0.10748633787E+03  0.62986780934E+02 -0.13489847169E+03  0.18368542421E+03  0.47000000000E+01 0. -1.
        -11    1    4    4    0    0  0.36399315411E+02 -0.39992113204E+02 -0.68125782429E+02  0.86979316579E+02  0.00000000000E+00 0.  1.
         11    1    4    4    0    0  0.36672868800E+02 -0.59758395818E+02  0.20116779606E+02  0.72942785788E+02  0.00000000000E+00 0. -1.
<mgrwt>
<rscale>  0 0.16968403E+03</rscale>
<asrwt>0</asrwt>
<pdfrwt beam="1">  1        3 0.13636408E-01 0.17581444E+03</pdfrwt>
<pdfrwt beam="2">  1       -3 0.52373838E-01 0.17581444E+03</pdfrwt>
<totfact> 0.38238767E+02</totfact>
</mgrwt>
</event>
<event>
 8    1  0.1033707E-005  0.1465752E+03  0.7546771E-02  0.1214032E+00
          2   -1    0    0  501    0  0.00000000000E+00  0.00000000000E+00  0.13666980041E+02  0.13666980041E+02  0.00000000000E+00 0. -1.
         -2   -1    0    0    0  501 -0.00000000000E+00 -0.00000000000E+00 -0.14338195393E+04  0.14338195393E+04  0.00000000000E+00 0.  1.
         23    2    1    2    0    0  0.60819525442E+02  0.46457910814E+02 -0.99257826450E+03  0.10033423715E+04  0.12500780391E+03 0.  0.
         23    2    1    2    0    0 -0.60819525442E+02 -0.46457910814E+02 -0.42757429476E+03  0.44414414789E+03  0.92665497427E+02 0.  0.
          5    1    3    3  502    0 -0.49197034344E+00 -0.14037381617E+02 -0.64670943374E+03  0.64687902409E+03  0.47000000000E+01 0. -1.
         -5    1    3    3    0  502  0.61311495785E+02  0.60495292431E+02 -0.34586883076E+03  0.35646334736E+03  0.47000000000E+01 0. -1.
        -11    1    4    4    0    0 -0.55450336129E+02  0.99279756660E+01 -0.13750497740E+03  0.14859651170E+03  0.00000000000E+00 0. -1.
         11    1    4    4    0    0 -0.53691893134E+01 -0.56385886480E+02 -0.29006931736E+03  0.29554763620E+03  0.00000000000E+00 0.  1.
<mgrwt>
<rscale>  0 0.13947852E+03</rscale>
<asrwt>0</asrwt>
<pdfrwt beam="1">  1        2 0.21026123E-02 0.14657525E+03</pdfrwt>
<pdfrwt beam="2">  1       -2 0.22058762E+00 0.14657525E+03</pdfrwt>
<totfact> 0.53886189E+02</totfact>
</mgrwt>
</event>
<event>
 8    1  0.1033707E-005  0.1826684E+03  0.7546771E-02  0.1170144E+00
          1   -1    0    0  501    0  0.00000000000E+00  0.00000000000E+00  0.78794519600E+02  0.78794519600E+02  0.00000000000E+00 0. -1.
         -1   -1    0    0    0  501 -0.00000000000E+00 -0.00000000000E+00 -0.38532698957E+03  0.38532698957E+03  0.00000000000E+00 0.  1.
         23    2    1    2    0    0 -0.48154767064E+02  0.12417573924E+03 -0.18995522686E+03  0.26353507273E+03  0.12501700101E+03 0.  0.
         23    2    1    2    0    0  0.48154767064E+02 -0.12417573924E+03 -0.11657724311E+03  0.20058643643E+03  0.94372501629E+02 0.  0.
          5    1    3    3  502    0 -0.18639012918E+02  0.13089497989E+03 -0.92631736826E+02  0.16150429478E+03  0.47000000000E+01 0.  1.
         -5    1    3    3    0  502 -0.29515754147E+02 -0.67192406517E+01 -0.97323490035E+02  0.10203077796E+03  0.47000000000E+01 0.  1.
        -11    1    4    4    0    0  0.68392140287E+02 -0.65669893675E+02 -0.97035308501E+02  0.13566823830E+03  0.00000000000E+00 0.  1.
         11    1    4    4    0    0 -0.20237373223E+02 -0.58505845567E+02 -0.19541934605E+02  0.64918198131E+02  0.00000000000E+00 0. -1.
<mgrwt>
<rscale>  0 0.17760241E+03</rscale>
<asrwt>0</asrwt>
<pdfrwt beam="1">  1        1 0.12122234E-01 0.18266841E+03</pdfrwt>
<pdfrwt beam="2">  1       -1 0.59281075E-01 0.18266841E+03</pdfrwt>
<totfact> 0.14552516E+03</totfact>
</mgrwt>
</event>
<event>
 8    1  0.1033707E-005  0.2959333E+03  0.7546771E-02  0.1089053E+00
         -2   -1    0    0    0  501 -0.00000000000E+00  0.00000000000E+00  0.19919089072E+03  0.19919089072E+03  0.00000000000E+00 0.  1.
          2   -1    0    0  501    0  0.00000000000E+00 -0.00000000000E+00 -0.49667030953E+03  0.49667030953E+03  0.00000000000E+00 0. -1.
         23    2    1    2    0    0 -0.12339138235E+03 -0.23817626504E+03 -0.14846813173E+02  0.29630554348E+03  0.12499272286E+03 0.  0.
         23    2    1    2    0    0  0.12339138235E+03  0.23817626504E+03 -0.28263260563E+03  0.39955565676E+03  0.88375147066E+02 0.  0.
          5    1    3    3  502    0 -0.94020232872E+02 -0.54144475751E+02  0.57560199434E+01  0.10875040326E+03  0.47000000000E+01 0. -1.
         -5    1    3    3    0  502 -0.29371149477E+02 -0.18403178929E+03 -0.20602833117E+02  0.18755514022E+03  0.47000000000E+01 0. -1.
        -11    1    4    4    0    0  0.73924317298E+02  0.21215955819E+03 -0.20684170647E+03  0.30538496092E+03  0.00000000000E+00 0. -1.
         11    1    4    4    0    0  0.49467065052E+02  0.26016706847E+02 -0.75790899161E+02  0.94170695843E+02  0.00000000000E+00 0.  1.
<mgrwt>
<rscale>  0 0.29249671E+03</rscale>
<asrwt>0</asrwt>
<pdfrwt beam="2">  1        2 0.76410816E-01 0.29593335E+03</pdfrwt>
<pdfrwt beam="1">  1       -2 0.30644753E-01 0.29593335E+03</pdfrwt>
<totfact> 0.61920934E+02</totfact>
</mgrwt>
</event>
<event>
 8    1  0.1033707E-005  0.1815430E+03  0.7546771E-02  0.1171639E+00
          2   -1    0    0  501    0  0.00000000000E+00  0.00000000000E+00  0.43635880012E+03  0.43635880012E+03  0.00000000000E+00 0. -1.
         -2   -1    0    0    0  501 -0.00000000000E+00 -0.00000000000E+00 -0.74412906949E+02  0.74412906949E+02  0.00000000000E+00 0.  1.
         23    2    1    2    0    0  0.12456105534E+03 -0.42636340464E+02  0.11102958968E+03  0.21280370768E+03  0.12499813671E+03 0.  0.
         23    2    1    2    0    0 -0.12456105534E+03  0.42636340464E+02  0.25091630349E+03  0.29796799939E+03  0.92155429943E+02 0.  0.
          5    1    3    3  502    0 -0.13433967556E+02 -0.12637089419E+02  0.59392173937E+02  0.62367361963E+02  0.47000000000E+01 0. -1.
         -5    1    3    3    0  502  0.13799502289E+03 -0.29999251045E+02  0.51637415742E+02  0.15043634571E+03  0.47000000000E+01 0. -1.
        -11    1    4    4    0    0 -0.10157075856E+03 -0.90573151175E+01  0.18375149739E+03  0.21015058112E+03  0.00000000000E+00 0.  1.
         11    1    4    4    0    0 -0.22990296781E+02  0.51693655581E+02  0.67164806096E+02  0.87817418269E+02  0.00000000000E+00 0. -1.
<mgrwt>
<rscale>  0 0.17609279E+03</rscale>
<asrwt>0</asrwt>
<pdfrwt beam="1">  1        2 0.67132121E-01 0.18154297E+03</pdfrwt>
<pdfrwt beam="2">  1       -2 0.11448140E-01 0.18154297E+03</pdfrwt>
<totfact> 0.37935982E+03</totfact>
</mgrwt>
</event>
<event>
 7    1  0.1033707E-005  0.4250666E+03  0.7546771E-02  0.1035430E+00
          2   -1    0    0  501    0  0.00000000000E+00  0.00000000000E+00  0.11503442555E+03  0.11503442555E+03  0.00000000000E+00 0. -1.
         -2   -1    0    0    0  501 -0.00000000000E+00 -0.00000000000E+00 -0.39266861590E+03  0.39266861590E+03  0.00000000000E+00 0.  1.
         23    2    1    2    0    0  0.89050636820E+02  0.29159341441E+02 -0.16873343461E+03  0.22994780273E+03  0.12499894766E+03 0.  0.
          5    1    3    3  502    0  0.21216541922E+02 -0.46450536090E+02 -0.79797096531E+02  0.94854944884E+02  0.47000000000E+01 0.  1.
         -5    1    3    3    0  502  0.67834094898E+02  0.75609877531E+02 -0.88936338081E+02  0.13509285785E+03  0.47000000000E+01 0.  1.
        -11    1    1    2    0    0 -0.67331849397E+02 -0.24050911751E+02 -0.18506184601E+03  0.19839332435E+03  0.00000000000E+00 0.  1.
         11    1    1    2    0    0 -0.21718787423E+02 -0.51084296902E+01  0.76161090265E+02  0.79361914363E+02  0.00000000000E+00 0. -1.
<mgrwt>
<rscale>  0 0.42506662E+03</rscale>
<asrwt>0</asrwt>
<pdfrwt beam="1">  1        2 0.17697604E-01 0.42506662E+03</pdfrwt>
<pdfrwt beam="2">  1       -2 0.60410557E-01 0.42506662E+03</pdfrwt>
<totfact> 0.84086454E+02</totfact>
</mgrwt>
</event>
<event>
 8    1  0.1033707E-005  0.1418034E+03  0.7546771E-02  0.1221000E+00
          2   -1    0    0  501    0  0.00000000000E+00  0.00000000000E+00  0.42357987431E+03  0.42357987431E+03  0.00000000000E+00 0. -1.
         -2   -1    0    0    0  501 -0.00000000000E+00 -0.00000000000E+00 -0.39988826200E+02  0.39988826200E+02  0.00000000000E+00 0.  1.
         23    2    1    2    0    0 -0.60152100904E+02  0.29398883171E+02  0.17180299029E+03  0.22276551532E+03  0.12500255105E+03 0.  0.
         23    2    1    2    0    0  0.60152100904E+02 -0.29398883171E+02  0.21178805782E+03  0.24080318519E+03  0.93002274100E+02 0.  0.
          5    1    3    3  502    0 -0.53121543196E+02 -0.40643788360E+02  0.11074521846E+03  0.12946199943E+03  0.47000000000E+01 0.  1.
         -5    1    3    3    0  502 -0.70305577075E+01  0.70042671531E+02  0.61057771822E+02  0.93303515887E+02  0.47000000000E+01 0.  1.
        -11    1    4    4    0    0  0.74722540450E+02  0.65097879295E+01  0.12536915876E+03  0.14609333098E+03  0.00000000000E+00 0. -1.
         11    1    4    4    0    0 -0.14570439546E+02 -0.35908671101E+02  0.86418899063E+02  0.94709854208E+02  0.00000000000E+00 0.  1.
<mgrwt>
<rscale>  0 0.13444862E+03</rscale>
<asrwt>0</asrwt>
<pdfrwt beam="1">  1        2 0.65166131E-01 0.14180341E+03</pdfrwt>
<pdfrwt beam="2">  1       -2 0.61521274E-02 0.14180341E+03</pdfrwt>
<totfact> 0.10166215E+04</totfact>
</mgrwt>
</event>
<event>
 8    1  0.1033707E-005  0.1743666E+03  0.7546771E-02  0.1181010E+00
         -2   -1    0    0    0  501 -0.00000000000E+00  0.00000000000E+00  0.59162246636E+02  0.59162246636E+02  0.00000000000E+00 0.  1.
          2   -1    0    0  501    0  0.00000000000E+00 -0.00000000000E+00 -0.44276358352E+03  0.44276358352E+03  0.00000000000E+00 0. -1.
         23    2    1    2    0    0 -0.37318707845E+02  0.11570535204E+03 -0.17638304139E+03  0.24802152459E+03  0.12499313952E+03 0.  0.
         23    2    1    2    0    0  0.37318707845E+02 -0.11570535204E+03 -0.20721829550E+03  0.25390430557E+03  0.82143532624E+02 0.  0.
          5    1    3    3  502    0 -0.43837212760E+02  0.82310171246E+02 -0.18949833180E+03  0.21125428580E+03  0.47000000000E+01 0. -1.
         -5    1    3    3    0  502  0.65185049149E+01  0.33395180789E+02  0.13115290407E+02  0.36767238796E+02  0.47000000000E+01 0. -1.
        -11    1    4    4    0    0  0.31501165840E+02 -0.40205130829E+02 -0.25601258861E+02  0.57133181685E+02  0.00000000000E+00 0. -1.
         11    1    4    4    0    0  0.58175420056E+01 -0.75500221206E+02 -0.18161703664E+03  0.19677112388E+03  0.00000000000E+00 0.  1.
<mgrwt>
<rscale>  0 0.16700244E+03</rscale>
<asrwt>0</asrwt>
<pdfrwt beam="2">  1        2 0.68117472E-01 0.17436657E+03</pdfrwt>
<pdfrwt beam="1">  1       -2 0.91018845E-02 0.17436657E+03</pdfrwt>
<totfact> 0.53600601E+03</totfact>
</mgrwt>
</event>
<event>
 8    1  0.1033707E-005  0.1469500E+03  0.7546771E-02  0.1213742E+00
          1   -1    0    0  501    0  0.00000000000E+00  0.00000000000E+00  0.56044295264E+03  0.56044295264E+03  0.00000000000E+00 0. -1.
         -1   -1    0    0    0  501 -0.00000000000E+00 -0.00000000000E+00 -0.31994766848E+02  0.31994766848E+02  0.00000000000E+00 0.  1.
         23    2    1    2    0    0  0.61579120278E+02  0.46612083208E+02  0.26711426079E+03  0.30486773112E+03  0.12501852185E+03 0.  0.
         23    2    1    2    0    0 -0.61579120278E+02 -0.46612083208E+02  0.26133392500E+03  0.28756998837E+03  0.91849896557E+02 0.  0.
          5    1    3    3  502    0 -0.31827257047E+02  0.38464720044E+02  0.12349468262E+03  0.13328741731E+03  0.47000000000E+01 0.  1.
         -5    1    3    3    0  502  0.93406377325E+02  0.81473631646E+01  0.14361957817E+03  0.17158031381E+03  0.47000000000E+01 0.  1.
        -11    1    4    4    0    0 -0.30651435149E+02 -0.72959603985E+02  0.18110016218E+03  0.19763573318E+03  0.00000000000E+00 0.  1.
         11    1    4    4    0    0 -0.30927685129E+02  0.26347520776E+02  0.80233762823E+02  0.89934255183E+02  0.00000000000E+00 0. -1.
<mgrwt>
<rscale>  0 0.13969363E+03</rscale>
<asrwt>0</asrwt>
<pdfrwt beam="1">  1        1 0.86221985E-01 0.14695001E+03</pdfrwt>
<pdfrwt beam="2">  1       -1 0.49222722E-02 0.14695001E+03</pdfrwt>
<totfact> 0.67248926E+03</totfact>
</mgrwt>
</event>
<event>
 8    1  0.1033707E-005  0.1314316E+03  0.7546771E-02  0.1230776E+00
         -1   -1    0    0    0  501 -0.00000000000E+00  0.00000000000E+00  0.19683350916E+03  0.19683350916E+03  0.00000000000E+00 0.  1.
          1   -1    0    0  501    0  0.00000000000E+00 -0.00000000000E+00 -0.80563071373E+02  0.80563071373E+02  0.00000000000E+00 0. -1.
         23    2    1    2    0    0 -0.39364685571E+02  0.99904378255E+01  0.82533820898E+02  0.15519697371E+03  0.12499952695E+03 0.  0.
         23    2    1    2    0    0  0.39364685571E+02 -0.99904378255E+01  0.33736616889E+02  0.12219960682E+03  0.11020525065E+03 0.  0.
          5    1    3    3  502    0 -0.68607852679E+02  0.47536383311E+02  0.51565240874E+02  0.98223262285E+02  0.47000000000E+01 0. -1.
         -5    1    3    3    0  502  0.29243167108E+02 -0.37545945486E+02  0.30968580024E+02  0.56973711426E+02  0.47000000000E+01 0. -1.
        -11    1    4    4    0    0  0.72029063254E+02  0.94015758420E+01  0.41164712926E+02  0.83493168414E+02  0.00000000000E+00 0.  1.
         11    1    4    4    0    0 -0.32664377683E+02 -0.19392013668E+02 -0.74280960372E+01  0.38706438408E+02  0.00000000000E+00 0. -1.
<mgrwt>
<rscale>  0 0.12778752E+03</rscale>
<asrwt>0</asrwt>
<pdfrwt beam="2">  1        1 0.12394319E-01 0.13143161E+03</pdfrwt>
<pdfrwt beam="1">  1       -1 0.30282078E-01 0.13143161E+03</pdfrwt>
<totfact> 0.46077620E+03</totfact>
</mgrwt>
</event>
<event>
 8    1  0.1033707E-005  0.1482556E+03  0.7546771E-02  0.1211607E+00
         -2   -1    0    0    0  501 -0.00000000000E+00  0.00000000000E+00  0.34781758143E+03  0.34781758143E+03  0.00000000000E+00 0.  1.
          2   -1    0    0  501    0  0.00000000000E+00 -0.00000000000E+00 -0.59830752111E+02  0.59830752111E+02  0.00000000000E+00 0. -1.
         23    2    1    2    0    0 -0.13879231116E+02  0.78747991724E+02  0.22667334959E+03  0.27085148830E+03  0.12484326991E+03 0.  0.
         23    2    1    2    0    0  0.13879231116E+02 -0.78747991724E+02  0.61313479729E+02  0.13679684525E+03  0.92521104704E+02 0.  0.
          5    1    3    3  502    0  0.39184927025E+02  0.80404371224E+02  0.17514103839E+03  0.19671500895E+03  0.47000000000E+01 0. -1.
         -5    1    3    3    0  502 -0.53064158141E+02 -0.16563795001E+01  0.51532311204E+02  0.74136479349E+02  0.47000000000E+01 0. -1.
        -11    1    4    4    0    0  0.73445512205E+01 -0.99104873262E+02  0.58272723667E+02  0.11520168688E+03  0.00000000000E+00 0.  1.
         11    1    4    4    0    0  0.65346798953E+01  0.20356881538E+02  0.30407560622E+01  0.21595158363E+02  0.00000000000E+00 0. -1.
<mgrwt>
<rscale>  0 0.14128730E+03</rscale>
<asrwt>0</asrwt>
<pdfrwt beam="2">  1        2 0.92047313E-02 0.14825559E+03</pdfrwt>
<pdfrwt beam="1">  1       -2 0.53510396E-01 0.14825559E+03</pdfrwt>
<totfact> 0.23055676E+03</totfact>
</mgrwt>
</event>
<event>
 8    1  0.1033707E-005  0.1649136E+03  0.7546771E-02  0.1190252E+00
         -1   -1    0    0    0  501 -0.00000000000E+00  0.00000000000E+00  0.28047584992E+03  0.28047584992E+03  0.00000000000E+00 0.  1.
          1   -1    0    0  501    0  0.00000000000E+00 -0.00000000000E+00 -0.85876542194E+02  0.85876542194E+02  0.00000000000E+00 0. -1.
         23    2    1    2    0    0 -0.10735096304E+03  0.68191685333E+01  0.13493716301E+03  0.21308336376E+03  0.12500300647E+03 0.  0.
         23    2    1    2    0    0  0.10735096304E+03 -0.68191685333E+01  0.59662144712E+02  0.15326902835E+03  0.91439013637E+02 0.  0.
          5    1    3    3  502    0 -0.90962948301E+01 -0.30794181361E+01 -0.23791644479E+02  0.26083668122E+02  0.47000000000E+01 0. -1.
         -5    1    3    3    0  502 -0.98254668207E+02  0.98985866694E+01  0.15872880749E+03  0.18699969564E+03  0.47000000000E+01 0. -1.
        -11    1    4    4    0    0  0.11898837777E+03  0.11391979866E+02  0.51757924251E+02  0.13025703042E+03  0.00000000000E+00 0.  1.
         11    1    4    4    0    0 -0.11637414735E+02 -0.18211148400E+02  0.79042204609E+01  0.23011997933E+02  0.00000000000E+00 0. -1.
<mgrwt>
<rscale>  0 0.15863012E+03</rscale>
<asrwt>0</asrwt>
<pdfrwt beam="2">  1        1 0.13211776E-01 0.16491356E+03</pdfrwt>
<pdfrwt beam="1">  1       -1 0.43150130E-01 0.16491356E+03</pdfrwt>
<totfact> 0.23243254E+03</totfact>
</mgrwt>
</event>
<event>
 8    1  0.1033707E-005  0.1263110E+03  0.7546771E-02  0.1251797E+00
          1   -1    0    0  501    0  0.00000000000E+00  0.00000000000E+00  0.29778512666E+03  0.29778512666E+03  0.00000000000E+00 0. -1.
         -1   -1    0    0    0  501 -0.00000000000E+00 -0.00000000000E+00 -0.41843452809E+02  0.41843452809E+02  0.00000000000E+00 0.  1.
         23    2    1    2    0    0 -0.16410897465E+02 -0.77019922937E+01  0.99066829680E+02  0.16052631428E+03  0.12500329033E+03 0.  0.
         23    2    1    2    0    0  0.16410897465E+02  0.77019922937E+01  0.15687484417E+03  0.17910226519E+03  0.84494179809E+02 0.  0.
          5    1    3    3  502    0 -0.15534489911E+02  0.22573245548E+02 -0.22117039108E+02  0.35526401595E+02  0.47000000000E+01 0.  1.
         -5    1    3    3    0  502 -0.87640755441E+00 -0.30275237841E+02  0.12118386879E+03  0.12499991268E+03  0.47000000000E+01 0.  1.
        -11    1    4    4    0    0 -0.24686310398E+02  0.76794356458E+01  0.12345173948E+03  0.12612977299E+03  0.00000000000E+00 0. -1.
         11    1    4    4    0    0  0.41097207863E+02  0.22556647969E-01  0.33423104685E+02  0.52972492198E+02  0.00000000000E+00 0.  1.
<mgrwt>
<rscale>  0 0.11487635E+03</rscale>
<asrwt>0</asrwt>
<pdfrwt beam="1">  1        1 0.45813095E-01 0.12631097E+03</pdfrwt>
<pdfrwt beam="2">  1       -1 0.64374545E-02 0.12631097E+03</pdfrwt>
<totfact> 0.99874393E+03</totfact>
</mgrwt>
</event>
<event>
 8    1  0.1033707E-005  0.2285958E+03  0.7546771E-02  0.1130575E+00
         -1   -1    0    0    0  501 -0.00000000000E+00  0.00000000000E+00  0.10470966481E+03  0.10470966481E+03  0.00000000000E+00 0.  1.
          1   -1    0    0  501    0  0.00000000000E+00 -0.00000000000E+00 -0.74469515034E+03  0.74469515034E+03  0.00000000000E+00 0. -1.
         23    2    1    2    0    0  0.18513264808E+03 -0.48543245204E+02 -0.66959235771E+02  0.23820066777E+03  0.12500189931E+03 0.  0.
         23    2    1    2    0    0 -0.18513264808E+03  0.48543245204E+02 -0.57302624976E+03  0.61120414738E+03  0.92633054653E+02 0.  0.
          5    1    3    3  502    0 -0.22776400850E+01 -0.35215621787E+02 -0.30227574251E+02  0.46702504294E+02  0.47000000000E+01 0. -1.
         -5    1    3    3    0  502  0.18741028817E+03 -0.13327623417E+02 -0.36731661520E+02  0.19149816348E+03  0.47000000000E+01 0. -1.
        -11    1    4    4    0    0 -0.10746639934E+03  0.60820069970E+02 -0.25117997916E+03  0.27989192526E+03  0.00000000000E+00 0. -1.
         11    1    4    4    0    0 -0.77666248744E+02 -0.12276824767E+02 -0.32184627060E+03  0.33131222211E+03  0.00000000000E+00 0.  1.
<mgrwt>
<rscale>  0 0.22449524E+03</rscale>
<asrwt>0</asrwt>
<pdfrwt beam="2">  1        1 0.11456849E+00 0.22859575E+03</pdfrwt>
<pdfrwt beam="1">  1       -1 0.16109179E-01 0.22859575E+03</pdfrwt>
<totfact> 0.74047177E+02</totfact>
</mgrwt>
</event>
<event>
 8    1  0.1033707E-005  0.1397420E+03  0.7546771E-02  0.1224832E+00
         -1   -1    0    0    0  501 -0.00000000000E+00  0.00000000000E+00  0.41619942453E+03  0.41619942453E+03  0.00000000000E+00 0.  1.
          1   -1    0    0  501    0  0.00000000000E+00 -0.00000000000E+00 -0.37650241989E+02  0.37650241989E+02  0.00000000000E+00 0. -1.
         23    2    1    2    0    0 -0.60210731059E+02  0.16675095259E+02  0.20534294337E+03  0.24838184551E+03  0.12499770339E+03 0.  0.
         23    2    1    2    0    0  0.60210731059E+02 -0.16675095259E+02  0.17320623918E+03  0.20546782101E+03  0.91176933729E+02 0.  0.
          5    1    3    3  502    0 -0.40009997343E+02  0.69824772608E+02  0.98700191265E+02  0.12743671572E+03  0.47000000000E+01 0. -1.
         -5    1    3    3    0  502 -0.20200733716E+02 -0.53149677349E+02  0.10664275210E+03  0.12094512979E+03  0.47000000000E+01 0. -1.
        -11    1    4    4    0    0  0.71834094160E+02 -0.37835243602E+02  0.10253319201E+03  0.13078493111E+03  0.00000000000E+00 0. -1.
         11    1    4    4    0    0 -0.11623363101E+02  0.21160148343E+02  0.70673047164E+02  0.74682889896E+02  0.00000000000E+00 0.  1.
<mgrwt>
<rscale>  0 0.13178441E+03</rscale>
<asrwt>0</asrwt>
<pdfrwt beam="2">  1        1 0.57923452E-02 0.13974197E+03</pdfrwt>
<pdfrwt beam="1">  1       -1 0.64030678E-01 0.13974197E+03</pdfrwt>
<totfact> 0.33462546E+03</totfact>
</mgrwt>
</event>
<event>
 8    1  0.1033707E-005  0.1301153E+03  0.7546771E-02  0.1240926E+00
          1   -1    0    0  501    0  0.00000000000E+00  0.00000000000E+00  0.97676571260E+03  0.97676571260E+03  0.00000000000E+00 0. -1.
         -1   -1    0    0    0  501 -0.00000000000E+00 -0.00000000000E+00 -0.13756451722E+02  0.13756451722E+02  0.00000000000E+00 0.  1.
         23    2    1    2    0    0 -0.22573503348E+02 -0.28268595165E+02  0.46330063114E+03  0.48122497225E+03  0.12498528943E+03 0.  0.
         23    2    1    2    0    0  0.22573503348E+02  0.28268595165E+02  0.49970862974E+03  0.50929719208E+03  0.91467145437E+02 0.  0.
          5    1    3    3  502    0  0.49764521173E+01 -0.65957320061E+02  0.14448634820E+03  0.15897650129E+03  0.47000000000E+01 0. -1.
         -5    1    3    3    0  502 -0.27549955465E+02  0.37688724896E+02  0.31881428294E+03  0.32224847096E+03  0.47000000000E+01 0. -1.
        -11    1    4    4    0    0  0.38291182277E+02 -0.22012322386E+02  0.18423050157E+03  0.18945087670E+03  0.00000000000E+00 0.  1.
         11    1    4    4    0    0 -0.15717678929E+02  0.50280917551E+02  0.31547812818E+03  0.31984631537E+03  0.00000000000E+00 0. -1.
<mgrwt>
<rscale>  0 0.12132554E+03</rscale>
<asrwt>0</asrwt>
<pdfrwt beam="1">  1        1 0.15027159E+00 0.13011533E+03</pdfrwt>
<pdfrwt beam="2">  1       -1 0.21163780E-02 0.13011533E+03</pdfrwt>
<totfact> 0.10103391E+04</totfact>
</mgrwt>
</event>
<event>
 8    1  0.1033707E-005  0.1542282E+03  0.7546771E-02  0.1204233E+00
         -1   -1    0    0    0  501 -0.00000000000E+00  0.00000000000E+00  0.14297551451E+03  0.14297551451E+03  0.00000000000E+00 0.  1.
          1   -1    0    0  501    0  0.00000000000E+00 -0.00000000000E+00 -0.14391316060E+03  0.14391316060E+03  0.00000000000E+00 0. -1.
         23    2    1    2    0    0  0.11185009381E+02  0.89651318364E+02  0.27166556100E+02  0.15660258853E+03  0.12499554250E+03 0.  0.
         23    2    1    2    0    0 -0.11185009381E+02 -0.89651318364E+02 -0.28104202189E+02  0.13028608658E+03  0.89566482887E+02 0.  0.
          5    1    3    3  502    0 -0.19505540833E+02  0.91503933961E+02 -0.24018756382E+02  0.96707945442E+02  0.47000000000E+01 0. -1.
         -5    1    3    3    0  502  0.30690550213E+02 -0.18526155973E+01  0.51185312483E+02  0.59894643090E+02  0.47000000000E+01 0. -1.
        -11    1    4    4    0    0 -0.21697774026E+02  0.93577851661E+01  0.71107042769E+01  0.24676378506E+02  0.00000000000E+00 0. -1.
         11    1    4    4    0    0  0.10512764645E+02 -0.99009103530E+02 -0.35214906466E+02  0.10560970807E+03  0.00000000000E+00 0.  1.
<mgrwt>
<rscale>  0 0.14698084E+03</rscale>
<asrwt>0</asrwt>
<pdfrwt beam="2">  1        1 0.22140486E-01 0.15422824E+03</pdfrwt>
<pdfrwt beam="1">  1       -1 0.21996233E-01 0.15422824E+03</pdfrwt>
<totfact> 0.37342697E+03</totfact>
</mgrwt>
</event>
<event>
 8    1  0.1033707E-005  0.1367341E+03  0.7546771E-02  0.1230204E+00
          2   -1    0    0  501    0  0.00000000000E+00  0.00000000000E+00  0.69068082895E+02  0.69068082895E+02  0.00000000000E+00 0. -1.
         -2   -1    0    0    0  501 -0.00000000000E+00 -0.00000000000E+00 -0.22199994652E+03  0.22199994652E+03  0.00000000000E+00 0.  1.
         23    2    1    2    0    0 -0.55410713080E+02  0.89506681641E+00 -0.11579694944E+03  0.17917908187E+03  0.12500024645E+03 0.  0.
         23    2    1    2    0    0  0.55410713080E+02 -0.89506681641E+00 -0.37134914186E+02  0.11188894754E+03  0.89827537327E+02 0.  0.
          5    1    3    3  502    0 -0.50098567109E+02  0.24910815780E+02 -0.13591608080E+03  0.14705674479E+03  0.47000000000E+01 0.  1.
         -5    1    3    3    0  502 -0.53121459712E+01 -0.24015748963E+02  0.20119131357E+02  0.32122337082E+02  0.47000000000E+01 0.  1.
        -11    1    4    4    0    0  0.53540367703E+02 -0.29438830125E+02 -0.51472969272E+02  0.79891690798E+02  0.00000000000E+00 0. -1.
         11    1    4    4    0    0  0.18703453773E+01  0.28543763309E+02  0.14338055086E+02  0.31997256746E+02  0.00000000000E+00 0.  1.
<mgrwt>
<rscale>  0 0.12816484E+03</rscale>
<asrwt>0</asrwt>
<pdfrwt beam="1">  1        2 0.10625859E-01 0.13673408E+03</pdfrwt>
<pdfrwt beam="2">  1       -2 0.34153838E-01 0.13673408E+03</pdfrwt>
<totfact> 0.45542458E+03</totfact>
</mgrwt>
</event>
<event>
 8    1  0.1033707E-005  0.1318548E+03  0.7546771E-02  0.1238057E+00
         -1   -1    0    0    0  501 -0.00000000000E+00  0.00000000000E+00  0.41521226248E+03  0.41521226248E+03  0.00000000000E+00 0.  1.
          1   -1    0    0  501    0  0.00000000000E+00 -0.00000000000E+00 -0.37301147733E+02  0.37301147733E+02  0.00000000000E+00 0. -1.
         23    2    1    2    0    0 -0.34958964058E+01 -0.41806929136E+02  0.29252878160E+03  0.32087188240E+03  0.12500254491E+03 0.  0.
         23    2    1    2    0    0  0.34958964058E+01  0.41806929136E+02  0.85382333143E+02  0.13164152781E+03  0.90990705107E+02 0.  0.
          5    1    3    3  502    0 -0.19582583513E+01  0.38640642369E+02  0.16854591532E+03  0.17299349581E+03  0.47000000000E+01 0. -1.
         -5    1    3    3    0  502 -0.15376380545E+01 -0.80447571505E+02  0.12398286628E+03  0.14787838660E+03  0.47000000000E+01 0. -1.
        -11    1    4    4    0    0 -0.21406571603E+02  0.10620002021E+02 -0.11750851084E+02  0.26629086577E+02  0.00000000000E+00 0. -1.
         11    1    4    4    0    0  0.24902468009E+02  0.31186927116E+02  0.97133184227E+02  0.10501244123E+03  0.00000000000E+00 0.  1.
<mgrwt>
<rscale>  0 0.12310765E+03</rscale>
<asrwt>0</asrwt>
<pdfrwt beam="2">  1        1 0.57386384E-02 0.13185476E+03</pdfrwt>
<pdfrwt beam="1">  1       -1 0.63878806E-01 0.13185476E+03</pdfrwt>
<totfact> 0.33930824E+03</totfact>
</mgrwt>
</event>
<event>
 8    1  0.1033707E-005  0.1292152E+03  0.7546771E-02  0.1242671E+00
          1   -1    0    0  501    0  0.00000000000E+00  0.00000000000E+00  0.95138773599E+02  0.95138773599E+02  0.00000000000E+00 0. -1.
         -1   -1    0    0    0  501 -0.00000000000E+00 -0.00000000000E+00 -0.27353937518E+03  0.27353937518E+03  0.00000000000E+00 0.  1.
         23    2    1    2    0    0  0.17237799954E+02 -0.27834439395E+02 -0.22626481627E+03  0.26056160092E+03  0.12499873210E+03 0.  0.
         23    2    1    2    0    0 -0.17237799954E+02  0.27834439395E+02  0.47864214694E+02  0.10811654786E+03  0.91248600587E+02 0.  0.
          5    1    3    3  502    0  0.22782578974E+02 -0.19398381640E+02 -0.24054971952E+03  0.24244917133E+03  0.47000000000E+01 0. -1.
         -5    1    3    3    0  502 -0.55447790205E+01 -0.84360577554E+01  0.14284903249E+02  0.18112429590E+02  0.47000000000E+01 0. -1.
        -11    1    4    4    0    0 -0.42152338014E+02  0.25699683809E+01 -0.69713781724E+01  0.42802154749E+02  0.00000000000E+00 0.  1.
         11    1    4    4    0    0  0.24914538060E+02  0.25264471014E+02  0.54835592867E+02  0.65314393110E+02  0.00000000000E+00 0. -1.
<mgrwt>
<rscale>  0 0.12025854E+03</rscale>
<asrwt>0</asrwt>
<pdfrwt beam="1">  1        1 0.14636735E-01 0.12921525E+03</pdfrwt>
<pdfrwt beam="2">  1       -1 0.42082980E-01 0.12921525E+03</pdfrwt>
<totfact> 0.21046891E+03</totfact>
</mgrwt>
</event>
<event>
 8    1  0.1033707E-005  0.1981766E+03  0.7546771E-02  0.1155677E+00
          2   -1    0    0  501    0  0.00000000000E+00  0.00000000000E+00  0.15479984557E+04  0.15479984557E+04  0.00000000000E+00 0. -1.
         -2   -1    0    0    0  501 -0.00000000000E+00 -0.00000000000E+00 -0.23395052118E+02  0.23395052118E+02  0.00000000000E+00 0.  1.
         23    2    1    2    0    0 -0.76713910042E+02 -0.13328031640E+03  0.91035727183E+03  0.93167823817E+03  0.12500124147E+03 0.  0.
         23    2    1    2    0    0  0.76713910042E+02  0.13328031640E+03  0.61424613174E+03  0.63971526963E+03  0.91042018407E+02 0.  0.
          5    1    3    3  502    0  0.27196800423E+02 -0.41425046439E+01  0.21601184623E+03  0.21780733231E+03  0.47000000000E+01 0. -1.
         -5    1    3    3    0  502 -0.10391071046E+03 -0.12913781176E+03  0.69434542561E+03  0.71387090586E+03  0.47000000000E+01 0. -1.
        -11    1    4    4    0    0  0.56553993328E+02  0.25895187415E+02  0.14253826183E+03  0.15551871585E+03  0.00000000000E+00 0. -1.
         11    1    4    4    0    0  0.20159916713E+02  0.10738512899E+03  0.47170786990E+03  0.48419655379E+03  0.00000000000E+00 0.  1.
<mgrwt>
<rscale>  0 0.19311972E+03</rscale>
<asrwt>0</asrwt>
<pdfrwt beam="1">  1        2 0.23815353E+00 0.19817663E+03</pdfrwt>
<pdfrwt beam="2">  1       -2 0.35992400E-02 0.19817663E+03</pdfrwt>
<totfact> 0.41291979E+03</totfact>
</mgrwt>
</event>
<event>
 8    1  0.1033707E-005  0.1651489E+03  0.7546771E-02  0.1190248E+00
         -4   -1    0    0    0  501 -0.00000000000E+00  0.00000000000E+00  0.98682565389E+03  0.98682565389E+03  0.00000000000E+00 0.  1.
          4   -1    0    0  501    0  0.00000000000E+00 -0.00000000000E+00 -0.23688057964E+02  0.23688057964E+02  0.00000000000E+00 0. -1.
         23    2    1    2    0    0  0.10697918355E+03 -0.14374618961E+02  0.51169226464E+03  0.53768312725E+03  0.12499198476E+03 0.  0.
         23    2    1    2    0    0 -0.10697918355E+03  0.14374618961E+02  0.45144533129E+03  0.47283058461E+03  0.90081625286E+02 0.  0.
          5    1    3    3  502    0  0.12081937349E+03 -0.46636855367E+02  0.41060855396E+03  0.43057379377E+03  0.47000000000E+01 0.  1.
         -5    1    3    3    0  502 -0.13840189941E+02  0.32262236406E+02  0.10108371067E+03  0.10710933348E+03  0.47000000000E+01 0.  1.
        -11    1    4    4    0    0 -0.19443137027E+02 -0.34596897511E+02  0.10910170524E+03  0.11609549078E+03  0.00000000000E+00 0.  1.
         11    1    4    4    0    0 -0.87536046521E+02  0.48971516472E+02  0.34234362605E+03  0.35673509382E+03  0.00000000000E+00 0. -1.
<mgrwt>
<rscale>  0 0.15863402E+03</rscale>
<asrwt>0</asrwt>
<pdfrwt beam="2">  1        4 0.36443174E-02 0.16514894E+03</pdfrwt>
<pdfrwt beam="1">  1       -4 0.15181930E+00 0.16514894E+03</pdfrwt>
<totfact> 0.21141743E+02</totfact>
</mgrwt>
</event>
<event>
 8    1  0.1033707E-005  0.1683390E+03  0.7546771E-02  0.1186311E+00
         -3   -1    0    0    0  501 -0.00000000000E+00  0.00000000000E+00  0.64024481037E+02  0.64024481037E+02  0.00000000000E+00 0.  1.
          3   -1    0    0  501    0  0.00000000000E+00 -0.00000000000E+00 -0.38752050405E+03  0.38752050405E+03  0.00000000000E+00 0. -1.
         23    2    1    2    0    0  0.65444812354E+02 -0.91600729708E+02 -0.14943508744E+03  0.22509747192E+03  0.12515713868E+03 0.  0.
         23    2    1    2    0    0 -0.65444812354E+02  0.91600729708E+02 -0.17406093558E+03  0.22644751316E+03  0.91145761157E+02 0.  0.
          5    1    3    3  502    0 -0.98212361226E+01  0.19848305620E+02  0.17422159073E+01  0.22705444968E+02  0.47000000000E+01 0.  1.
         -5    1    3    3    0  502  0.75266048477E+02 -0.11144903533E+03 -0.15117730334E+03  0.20239202696E+03  0.47000000000E+01 0.  1.
        -11    1    4    4    0    0 -0.20870508063E+02 -0.15996566456E+02 -0.48628131162E+02  0.55282577595E+02  0.00000000000E+00 0. -1.
         11    1    4    4    0    0 -0.44574304291E+02  0.10759729616E+03 -0.12543280442E+03  0.17116493557E+03  0.00000000000E+00 0.  1.
<mgrwt>
<rscale>  0 0.16213156E+03</rscale>
<asrwt>0</asrwt>
<pdfrwt beam="2">  1        3 0.59618540E-01 0.16833902E+03</pdfrwt>
<pdfrwt beam="1">  1       -3 0.98499201E-02 0.16833902E+03</pdfrwt>
<totfact> 0.50455969E+02</totfact>
</mgrwt>
</event>
<event>
 8    1  0.1033707E-005  0.1631582E+03  0.7546771E-02  0.1192752E+00
         -3   -1    0    0    0  501 -0.00000000000E+00  0.00000000000E+00  0.51879588207E+03  0.51879588207E+03  0.00000000000E+00 0.  1.
          3   -1    0    0  501    0  0.00000000000E+00 -0.00000000000E+00 -0.45111062833E+02  0.45111062833E+02  0.00000000000E+00 0. -1.
         23    2    1    2    0    0 -0.42520380075E+02 -0.95849916431E+02  0.30578390018E+03  0.34658964209E+03  0.12500158878E+03 0.  0.
         23    2    1    2    0    0  0.42520380075E+02  0.95849916431E+02  0.16790091906E+03  0.21731730281E+03  0.89671078264E+02 0.  0.
          5    1    3    3  502    0  0.94944342534E+01 -0.41833171490E+02  0.24820446607E+03  0.25192797680E+03  0.47000000000E+01 0. -1.
         -5    1    3    3    0  502 -0.52014814328E+02 -0.54016744941E+02  0.57579434107E+02  0.94661665291E+02  0.47000000000E+01 0. -1.
        -11    1    4    4    0    0  0.49445254132E+02  0.80574037762E+02  0.17515907935E+03  0.19904198501E+03  0.00000000000E+00 0.  1.
         11    1    4    4    0    0 -0.69248740579E+01  0.15275878669E+02 -0.72581602911E+01  0.18275317799E+02  0.00000000000E+00 0. -1.
<mgrwt>
<rscale>  0 0.15646018E+03</rscale>
<asrwt>0</asrwt>
<pdfrwt beam="2">  1        3 0.69401639E-02 0.16315816E+03</pdfrwt>
<pdfrwt beam="1">  1       -3 0.79814747E-01 0.16315816E+03</pdfrwt>
<totfact> 0.47980964E+02</totfact>
</mgrwt>
</event>
<event>
 8    1  0.1033707E-005  0.2448195E+03  0.7546771E-02  0.1119394E+00
         -4   -1    0    0    0  501 -0.00000000000E+00  0.00000000000E+00  0.75166564307E+03  0.75166564307E+03  0.00000000000E+00 0.  1.
          4   -1    0    0  501    0  0.00000000000E+00 -0.00000000000E+00 -0.74671909014E+02  0.74671909014E+02  0.00000000000E+00 0. -1.
         23    2    1    2    0    0 -0.96497875020E+02  0.18708080046E+03  0.32878461015E+03  0.40992181792E+03  0.12500204458E+03 0.  0.
         23    2    1    2    0    0  0.96497875020E+02 -0.18708080046E+03  0.34820912391E+03  0.41641573417E+03  0.88551701865E+02 0.  0.
          5    1    3    3  502    0 -0.94416336864E+02  0.16420999984E+03  0.33570022373E+03  0.38548164539E+03  0.47000000000E+01 0.  1.
         -5    1    3    3    0  502 -0.20815381557E+01  0.22870800622E+02 -0.69156135842E+01  0.24440172533E+02  0.47000000000E+01 0.  1.
        -11    1    4    4    0    0  0.20902020744E+02  0.52790587420E+01  0.37159893002E+02  0.42960686450E+02  0.00000000000E+00 0. -1.
         11    1    4    4    0    0  0.75595854276E+02 -0.19235985921E+03  0.31104923091E+03  0.37345504772E+03  0.00000000000E+00 0.  1.
<mgrwt>
<rscale>  0 0.24059901E+03</rscale>
<asrwt>0</asrwt>
<pdfrwt beam="2">  1        4 0.11487987E-01 0.24481948E+03</pdfrwt>
<pdfrwt beam="1">  1       -4 0.11564086E+00 0.24481948E+03</pdfrwt>
<totfact> 0.66057876E+01</totfact>
</mgrwt>
</event>
<event>
 7    1  0.1039428E-005  0.1195283E+03  0.7546771E-02  0.1293871E+00
         -2   -1    0    0    0  501 -0.00000000000E+00  0.00000000000E+00  0.16324277185E+03  0.16324277185E+03  0.00000000000E+00 0.  1.
          2   -1    0    0  501    0  0.00000000000E+00 -0.00000000000E+00 -0.96644059342E+02  0.96644059342E+02  0.00000000000E+00 0. -1.
         23    2    1    2    0    0  0.18198829338E+02 -0.37167608746E+02  0.13341648844E+03  0.17912837827E+03  0.11213557858E+03 0.  0.
          5    1    3    3  502    0 -0.24910726119E+02  0.43905758304E+01 -0.67811465203E+01  0.26606303389E+02  0.47000000000E+01 0. -1.
         -5    1    3    3    0  502  0.43109555456E+02 -0.41558184577E+02  0.14019763496E+03  0.15252207488E+03  0.47000000000E+01 0.  1.
        -11    1    1    2    0    0 -0.63890053046E+01  0.22803796680E+02 -0.22366762497E+02  0.32574600480E+02  0.00000000000E+00 0.  1.
         11    1    1    2    0    0 -0.11809824033E+02  0.14363812066E+02 -0.44451013436E+02  0.48183852443E+02  0.00000000000E+00 0. -1.
<mgrwt>
<rscale>  0 0.93813559E+02</rscale>
<asrwt>0</asrwt>
<pdfrwt beam="2">  1        2 0.14868317E-01 0.11952831E+03</pdfrwt>
<pdfrwt beam="1">  1       -2 0.25114273E-01 0.11952831E+03</pdfrwt>
<totfact> 0.52377365E+03</totfact>
</mgrwt>
</event>
<event>
 7    1  0.1033707E-005  0.1691184E+03  0.7546771E-02  0.1208023E+00
         -2   -1    0    0    0  501 -0.00000000000E+00  0.00000000000E+00  0.50341075847E+03  0.50341075847E+03  0.00000000000E+00 0.  1.
          2   -1    0    0  501    0  0.00000000000E+00 -0.00000000000E+00 -0.37528890910E+02  0.37528890910E+02  0.00000000000E+00 0. -1.
         23    2    1    2    0    0  0.69075391566E+01 -0.49968362394E+01  0.79999749986E+02  0.11962498950E+03  0.88529631457E+02 0.  0.
          5    1    1    2  502    0  0.55215893761E+02 -0.35334938823E+02  0.66782837324E+02  0.93698400127E+02  0.47000000000E+01 0. -1.
         -5    1    1    2    0  502 -0.62123432917E+02  0.40331775062E+02  0.31909928025E+03  0.32761625975E+03  0.47000000000E+01 0.  1.
        -11    1    3    3    0    0  0.34424484173E+01 -0.44563951063E+02  0.60928541922E+02  0.75565093834E+02  0.00000000000E+00 0.  1.
         11    1    3    3    0    0  0.34650907393E+01  0.39567114823E+02  0.19071208064E+02  0.44059895668E+02  0.00000000000E+00 0. -1.
<mgrwt>
<rscale>  0 0.14401789E+03</rscale>
<asrwt>0</asrwt>
<pdfrwt beam="2">  1        2 0.57736759E-02 0.16911840E+03</pdfrwt>
<pdfrwt beam="1">  1       -2 0.77447804E-01 0.16911840E+03</pdfrwt>
<totfact> 0.19382525E+03</totfact>
</mgrwt>
</event>
<event>
 8    1  0.1033707E-005  0.1418818E+03  0.7546771E-02  0.1221256E+00
          2   -1    0    0  501    0  0.00000000000E+00  0.00000000000E+00  0.31932114420E+03  0.31932114420E+03  0.00000000000E+00 0. -1.
         -2   -1    0    0    0  501 -0.00000000000E+00 -0.00000000000E+00 -0.54264418572E+02  0.54264418572E+02  0.00000000000E+00 0.  1.
         23    2    1    2    0    0 -0.64367430965E+02 -0.19026377910E+02  0.10197067210E+03  0.17472394373E+03  0.12500107727E+03 0.  0.
         23    2    1    2    0    0  0.64367430965E+02  0.19026377910E+02  0.16308605353E+03  0.19886161905E+03  0.91889680860E+02 0.  0.
          5    1    3    3  502    0 -0.38301366822E+02  0.51587936393E+02  0.61807826747E+02  0.89278257874E+02  0.47000000000E+01 0. -1.
         -5    1    3    3    0  502 -0.26066064142E+02 -0.70614314303E+02  0.40162845353E+02  0.85445685855E+02  0.47000000000E+01 0. -1.
        -11    1    4    4    0    0  0.99635207109E+01 -0.56355238495E+01 -0.10347108083E+02  0.15430279314E+02  0.00000000000E+00 0.  1.
         11    1    4    4    0    0  0.54403910254E+02  0.24661901760E+02  0.17343316161E+03  0.18343133973E+03  0.00000000000E+00 0. -1.
<mgrwt>
<rscale>  0 0.13426846E+03</rscale>
<asrwt>0</asrwt>
<pdfrwt beam="1">  1        2 0.49126329E-01 0.14188178E+03</pdfrwt>
<pdfrwt beam="2">  1       -2 0.83483723E-02 0.14188178E+03</pdfrwt>
<totfact> 0.86015156E+03</totfact>
</mgrwt>
</event>
<event>
 8    1  0.1033707E-005  0.1476057E+03  0.7546771E-02  0.1213064E+00
         -2   -1    0    0    0  501 -0.00000000000E+00  0.00000000000E+00  0.13303762990E+03  0.13303762990E+03  0.00000000000E+00 0. -1.
          2   -1    0    0  501    0  0.00000000000E+00 -0.00000000000E+00 -0.17066962734E+03  0.17066962734E+03  0.00000000000E+00 0.  1.
         23    2    1    2    0    0  0.21518058755E+02 -0.75489984351E+02  0.49079958155E+02  0.15555154589E+03  0.12500270616E+03 0.  0.
         23    2    1    2    0    0 -0.21518058755E+02  0.75489984351E+02 -0.86711955598E+02  0.14815571136E+03  0.90936169780E+02 0.  0.
          5    1    3    3  502    0 -0.33290519104E+02 -0.85222702123E+02  0.27350347771E+02  0.95610141421E+02  0.47000000000E+01 0. -1.
         -5    1    3    3    0  502  0.54808577859E+02  0.97327177715E+01  0.21729610384E+02  0.59941404468E+02  0.47000000000E+01 0. -1.
        -11    1    4    4    0    0  0.21191002658E+01  0.66999291434E+02 -0.10422412681E+02  0.67838206968E+02  0.00000000000E+00 0. -1.
         11    1    4    4    0    0 -0.23637159021E+02  0.84906929175E+01 -0.76289542917E+02  0.80317504389E+02  0.00000000000E+00 0.  1.
<mgrwt>
<rscale>  0 0.14019740E+03</rscale>
<asrwt>0</asrwt>
<pdfrwt beam="2">  1        2 0.26256866E-01 0.14760569E+03</pdfrwt>
<pdfrwt beam="1">  1       -2 0.20467328E-01 0.14760569E+03</pdfrwt>
<totfact> 0.39639991E+03</totfact>
</mgrwt>
</event>
<event>
 8    1  0.1033707E-005  0.1654246E+03  0.7546771E-02  0.1188893E+00
          2   -1    0    0  501    0  0.00000000000E+00  0.00000000000E+00  0.52790026841E+03  0.52790026841E+03  0.00000000000E+00 0. -1.
         -2   -1    0    0    0  501 -0.00000000000E+00 -0.00000000000E+00 -0.88211080457E+02  0.88211080457E+02  0.00000000000E+00 0.  1.
         23    2    1    2    0    0 -0.42537634949E+01 -0.10827246071E+03  0.13231979143E+02  0.16595298427E+03  0.12499714983E+03 0.  0.
         23    2    1    2    0    0  0.42537634949E+01  0.10827246071E+03  0.42645720881E+03  0.45015836460E+03  0.95056730515E+02 0.  0.
          5    1    3    3  502    0  0.83598057922E+00 -0.43635289252E+02 -0.55888404534E+02  0.71065751899E+02  0.47000000000E+01 0. -1.
         -5    1    3    3    0  502 -0.50897440741E+01 -0.64637171453E+02  0.69120383677E+02  0.94887232375E+02  0.47000000000E+01 0. -1.
        -11    1    4    4    0    0 -0.38193279916E+02  0.52416011459E+02  0.28467174736E+03  0.29196604021E+03  0.00000000000E+00 0.  1.
         11    1    4    4    0    0  0.42447043411E+02  0.55856449246E+02  0.14178546145E+03  0.15819232439E+03  0.00000000000E+00 0. -1.
<mgrwt>
<rscale>  0 0.15982601E+03</rscale>
<asrwt>0</asrwt>
<pdfrwt beam="1">  1        2 0.81215424E-01 0.16542463E+03</pdfrwt>
<pdfrwt beam="2">  1       -2 0.13570936E-01 0.16542463E+03</pdfrwt>
<totfact> 0.23305189E+03</totfact>
</mgrwt>
</event>
<event>
 8    1  0.1033707E-005  0.1375051E+03  0.7546771E-02  0.1228477E+00
          2   -1    0    0  501    0  0.00000000000E+00  0.00000000000E+00  0.54609370501E+03  0.54609370501E+03  0.00000000000E+00 0.  1.
         -2   -1    0    0    0  501 -0.00000000000E+00 -0.00000000000E+00 -0.28734525977E+02  0.28734525977E+02  0.00000000000E+00 0. -1.
         23    2    1    2    0    0  0.10387397519E+02  0.56339211029E+02  0.22960259567E+03  0.26762849018E+03  0.12500260834E+03 0.  0.
         23    2    1    2    0    0 -0.10387397519E+02 -0.56339211029E+02  0.28775658336E+03  0.30719974080E+03  0.91026505785E+02 0.  0.
          5    1    3    3  502    0  0.25568820616E+02 -0.35662282541E+02  0.72281566217E+02  0.84689301558E+02  0.47000000000E+01 0. -1.
         -5    1    3    3    0  502 -0.15181423096E+02  0.92001493569E+02  0.15732102945E+03  0.18293918862E+03  0.47000000000E+01 0. -1.
        -11    1    4    4    0    0 -0.14446421978E+02 -0.67042242684E+02  0.28769132072E+03  0.29575269641E+03  0.00000000000E+00 0.  1.
         11    1    4    4    0    0  0.40590244586E+01  0.10703031656E+02  0.65262636429E-01  0.11447044396E+02  0.00000000000E+00 0. -1.
<mgrwt>
<rscale>  0 0.12931402E+03</rscale>
<asrwt>0</asrwt>
<pdfrwt beam="1">  1        2 0.84014409E-01 0.13750512E+03</pdfrwt>
<pdfrwt beam="2">  1       -2 0.44206967E-02 0.13750512E+03</pdfrwt>
<totfact> 0.12638579E+04</totfact>
</mgrwt>
</event>
<event>
 8    1  0.1033707E-005  0.1275790E+03  0.7546771E-02  0.1246199E+00
         -2   -1    0    0    0  501 -0.00000000000E+00  0.00000000000E+00  0.64168562537E+02  0.64168562537E+02  0.00000000000E+00 0.  1.
          2   -1    0    0  501    0  0.00000000000E+00 -0.00000000000E+00 -0.22297187740E+03  0.22297187740E+03  0.00000000000E+00 0. -1.
         23    2    1    2    0    0 -0.25388161813E+02  0.27575357930E+01 -0.35910411880E+02  0.13253664249E+03  0.12499696460E+03 0.  0.
         23    2    1    2    0    0  0.25388161813E+02 -0.27575357930E+01 -0.12289290298E+03  0.15460379744E+03  0.90263535364E+02 0.  0.
          5    1    3    3  502    0  0.79588455335E+01  0.45828804429E+02 -0.57189996031E+02  0.73867504247E+02  0.47000000000E+01 0. -1.
         -5    1    3    3    0  502 -0.33347007346E+02 -0.43071268636E+02  0.21279584151E+02  0.58669138246E+02  0.47000000000E+01 0. -1.
        -11    1    4    4    0    0  0.42022177273E+02 -0.36837469579E+02 -0.72818159526E+02  0.91789688444E+02  0.00000000000E+00 0. -1.
         11    1    4    4    0    0 -0.16634015460E+02  0.34079933786E+02 -0.50074743456E+02  0.62814109000E+02  0.00000000000E+00 0.  1.
<mgrwt>
<rscale>  0 0.11813884E+03</rscale>
<asrwt>0</asrwt>
<pdfrwt beam="2">  1        2 0.34303366E-01 0.12757901E+03</pdfrwt>
<pdfrwt beam="1">  1       -2 0.98720865E-02 0.12757901E+03</pdfrwt>
<totfact> 0.96277226E+03</totfact>
</mgrwt>
</event>
<event>
 8    1  0.1033707E-005  0.1629848E+03  0.7546771E-02  0.1193396E+00
         -1   -1    0    0    0  501 -0.00000000000E+00  0.00000000000E+00  0.58873774744E+02  0.58873774744E+02  0.00000000000E+00 0.  1.
          1   -1    0    0  501    0  0.00000000000E+00 -0.00000000000E+00 -0.38470348789E+03  0.38470348789E+03  0.00000000000E+00 0. -1.
         23    2    1    2    0    0  0.19855923607E+02  0.10269702094E+03 -0.19951798585E+03  0.25762661103E+03  0.12499243265E+03 0.  0.
         23    2    1    2    0    0 -0.19855923607E+02 -0.10269702094E+03 -0.12631172729E+03  0.18595065160E+03  0.87647342039E+02 0.  0.
          5    1    3    3  502    0 -0.13730067769E+02 -0.89116524526E+01  0.85771589850E+01  0.19068035207E+02  0.47000000000E+01 0.  1.
         -5    1    3    3    0  502  0.33585991376E+02  0.11160867340E+03 -0.20809514484E+03  0.23855857583E+03  0.47000000000E+01 0.  1.
        -11    1    4    4    0    0  0.21849206805E+02 -0.40671821585E+02 -0.92871466015E+01  0.47093906199E+02  0.00000000000E+00 0.  1.
         11    1    4    4    0    0 -0.41705130411E+02 -0.62025199359E+02 -0.11702458069E+03  0.13885674540E+03  0.00000000000E+00 0. -1.
<mgrwt>
<rscale>  0 0.15590732E+03</rscale>
<asrwt>0</asrwt>
<pdfrwt beam="2">  1        1 0.59185154E-01 0.16298480E+03</pdfrwt>
<pdfrwt beam="1">  1       -1 0.90575036E-02 0.16298480E+03</pdfrwt>
<totfact> 0.44060295E+03</totfact>
</mgrwt>
</event>
<event>
 8    1  0.1033707E-005  0.2264538E+03  0.7546771E-02  0.1132211E+00
          2   -1    0    0  501    0  0.00000000000E+00  0.00000000000E+00  0.91132599907E+03  0.91132599907E+03  0.00000000000E+00 0. -1.
         -2   -1    0    0    0  501 -0.00000000000E+00 -0.00000000000E+00 -0.52694298293E+02  0.52694298293E+02  0.00000000000E+00 0.  1.
         23    2    1    2    0    0 -0.14789923468E+03  0.11738694362E+03  0.48754729409E+03  0.53757202310E+03  0.12500975118E+03 0.  0.
         23    2    1    2    0    0  0.14789923468E+03 -0.11738694362E+03  0.37108440668E+03  0.42644827426E+03  0.92198783001E+02 0.  0.
          5    1    3    3  502    0  0.20683015033E+02  0.25517255730E+02  0.53784434625E+02  0.63196304155E+02  0.47000000000E+01 0. -1.
         -5    1    3    3    0  502 -0.16858224971E+03  0.91869687892E+02  0.43376285947E+03  0.47437571894E+03  0.47000000000E+01 0. -1.
        -11    1    4    4    0    0  0.13436120136E+03 -0.10704844518E+03  0.37161907755E+03  0.40940571668E+03  0.00000000000E+00 0. -1.
         11    1    4    4    0    0  0.13538033312E+02 -0.10338498446E+02 -0.53467087040E+00  0.17042557584E+02  0.00000000000E+00 0.  1.
<mgrwt>
<rscale>  0 0.22225756E+03</rscale>
<asrwt>0</asrwt>
<pdfrwt beam="1">  1        2 0.14020399E+00 0.22645378E+03</pdfrwt>
<pdfrwt beam="2">  1       -2 0.81068158E-02 0.22645378E+03</pdfrwt>
<totfact> 0.27533569E+03</totfact>
</mgrwt>
</event>
<event>
 8    1  0.1033707E-005  0.1320186E+03  0.7546771E-02  0.1237133E+00
         -2   -1    0    0    0  501 -0.00000000000E+00  0.00000000000E+00  0.32513535569E+02  0.32513535569E+02  0.00000000000E+00 0.  1.
          2   -1    0    0  501    0  0.00000000000E+00 -0.00000000000E+00 -0.42071124773E+03  0.42071124773E+03  0.00000000000E+00 0. -1.
         23    2    1    2    0    0  0.39649438681E+02 -0.15231284261E+02 -0.22782306229E+03  0.26331018801E+03  0.12499934956E+03 0.  0.
         23    2    1    2    0    0 -0.39649438681E+02  0.15231284261E+02 -0.16037464987E+03  0.18991459529E+03  0.92430812910E+02 0.  0.
          5    1    3    3  502    0  0.16561918636E+02 -0.20358940387E+02 -0.23626340795E+03  0.23776305756E+03  0.47000000000E+01 0. -1.
         -5    1    3    3    0  502  0.23087520044E+02  0.51276561263E+01  0.84403456655E+01  0.25547130447E+02  0.47000000000E+01 0. -1.
        -11    1    4    4    0    0 -0.45373268908E+02 -0.16467514791E+02 -0.32855503001E+02  0.58390038981E+02  0.00000000000E+00 0.  1.
         11    1    4    4    0    0  0.57238302272E+01  0.31698799052E+02 -0.12751914687E+03  0.13152455631E+03  0.00000000000E+00 0. -1.
<mgrwt>
<rscale>  0 0.12368894E+03</rscale>
<asrwt>0</asrwt>
<pdfrwt beam="2">  1        2 0.64724806E-01 0.13201859E+03</pdfrwt>
<pdfrwt beam="1">  1       -2 0.50020825E-02 0.13201859E+03</pdfrwt>
<totfact> 0.13922862E+04</totfact>
</mgrwt>
</event>
<event>
 8    1  0.1033707E-005  0.1418509E+03  0.7546771E-02  0.1221309E+00
          1   -1    0    0  501    0  0.00000000000E+00  0.00000000000E+00  0.56661471541E+03  0.56661471541E+03  0.00000000000E+00 0. -1.
         -1   -1    0    0    0  501 -0.00000000000E+00 -0.00000000000E+00 -0.31226615468E+02  0.31226615468E+02  0.00000000000E+00 0.  1.
         23    2    1    2    0    0 -0.52873362514E+02 -0.41141428955E+02  0.21240871215E+03  0.25541953189E+03  0.12503386196E+03 0.  0.
         23    2    1    2    0    0  0.52873362514E+02  0.41141428955E+02  0.32297938780E+03  0.34242179899E+03  0.91917320672E+02 0.  0.
          5    1    3    3  502    0 -0.91016424135E+02 -0.17310179146E+02  0.11294364758E+03  0.14615741272E+03  0.47000000000E+01 0. -1.
         -5    1    3    3    0  502  0.38143061620E+02 -0.23831249809E+02  0.99465064564E+02  0.10926211917E+03  0.47000000000E+01 0. -1.
        -11    1    4    4    0    0  0.18058857084E+01  0.50169298699E+02  0.23494191902E+03  0.24024555161E+03  0.00000000000E+00 0. -1.
         11    1    4    4    0    0  0.51067476806E+02 -0.90278697447E+01  0.88037468775E+02  0.10217624738E+03  0.00000000000E+00 0.  1.
<mgrwt>
<rscale>  0 0.13423114E+03</rscale>
<asrwt>0</asrwt>
<pdfrwt beam="1">  1        1 0.87171487E-01 0.14185089E+03</pdfrwt>
<pdfrwt beam="2">  1       -1 0.48040951E-02 0.14185089E+03</pdfrwt>
<totfact> 0.68557408E+03</totfact>
</mgrwt>
</event>
<event>
 8    1  0.1033707E-005  0.1449443E+03  0.7546771E-02  0.1216735E+00
         -1   -1    0    0    0  501 -0.00000000000E+00  0.00000000000E+00  0.52372090783E+02  0.52372090783E+02  0.00000000000E+00 0.  1.
          1   -1    0    0  501    0  0.00000000000E+00 -0.00000000000E+00 -0.33672111647E+03  0.33672111647E+03  0.00000000000E+00 0. -1.
         23    2    1    2    0    0 -0.13012250476E+01  0.73360644138E+02 -0.12648596954E+03  0.19237344103E+03  0.12500145211E+03 0.  0.
         23    2    1    2    0    0  0.13012250476E+01 -0.73360644138E+02 -0.15786305614E+03  0.19671976621E+03  0.91621201861E+02 0.  0.
          5    1    3    3  502    0  0.40323206208E+02  0.68371079094E+02 -0.12740061737E+03  0.15017846956E+03  0.47000000000E+01 0.  1.
         -5    1    3    3    0  502 -0.41624431256E+02  0.49895650438E+01  0.91464782389E+00  0.42194971470E+02  0.47000000000E+01 0.  1.
        -11    1    4    4    0    0 -0.32154459276E+02 -0.76785235709E+02 -0.12039573331E+03  0.14637286044E+03  0.00000000000E+00 0.  1.
         11    1    4    4    0    0  0.33455684323E+02  0.34245915708E+01 -0.37467322830E+02  0.50346905774E+02  0.00000000000E+00 0. -1.
<mgrwt>
<rscale>  0 0.13749875E+03</rscale>
<asrwt>0</asrwt>
<pdfrwt beam="2">  1        1 0.51803248E-01 0.14494427E+03</pdfrwt>
<pdfrwt beam="1">  1       -1 0.80572449E-02 0.14494427E+03</pdfrwt>
<totfact> 0.61806710E+03</totfact>
</mgrwt>
</event>
<event>
 8    1  0.1033707E-005  0.1720048E+03  0.7546771E-02  0.1182014E+00
          1   -1    0    0  501    0  0.00000000000E+00  0.00000000000E+00  0.35093220728E+03  0.35093220728E+03  0.00000000000E+00 0. -1.
         -1   -1    0    0    0  501 -0.00000000000E+00 -0.00000000000E+00 -0.74012460360E+02  0.74012460360E+02  0.00000000000E+00 0.  1.
         23    2    1    2    0    0 -0.63215978671E+02  0.99814077764E+02  0.13255168820E+03  0.21715336898E+03  0.12500610200E+03 0.  0.
         23    2    1    2    0    0  0.63215978671E+02 -0.99814077764E+02  0.14436805873E+03  0.20779129866E+03  0.91520365714E+02 0.  0.
          5    1    3    3  502    0 -0.66760381433E+02  0.12440214900E+03  0.89503834159E+02  0.16722998994E+03  0.47000000000E+01 0.  1.
         -5    1    3    3    0  502  0.35444027621E+01 -0.24588071235E+02  0.43047854040E+02  0.49923379047E+02  0.47000000000E+01 0.  1.
        -11    1    4    4    0    0 -0.10222187470E+02 -0.13023986728E+02 -0.74224478682E+01  0.18144147247E+02  0.00000000000E+00 0. -1.
         11    1    4    4    0    0  0.73438166141E+02 -0.86790091036E+02  0.15179050659E+03  0.18964715142E+03  0.00000000000E+00 0.  1.
<mgrwt>
<rscale>  0 0.16606526E+03</rscale>
<asrwt>0</asrwt>
<pdfrwt beam="1">  1        1 0.53989570E-01 0.17200475E+03</pdfrwt>
<pdfrwt beam="2">  1       -1 0.11386533E-01 0.17200475E+03</pdfrwt>
<totfact> 0.34893311E+03</totfact>
</mgrwt>
</event>
<event>
 8    1  0.1033707E-005  0.1269583E+03  0.7546771E-02  0.1248868E+00
          2   -1    0    0  501    0  0.00000000000E+00  0.00000000000E+00  0.46282980553E+03  0.46282980553E+03  0.00000000000E+00 0. -1.
         -2   -1    0    0    0  501 -0.00000000000E+00 -0.00000000000E+00 -0.27610545264E+02  0.27610545264E+02  0.00000000000E+00 0.  1.
         23    2    1    2    0    0 -0.17325577952E+02  0.13564513215E+02  0.18433970233E+03  0.22382924451E+03  0.12503692724E+03 0.  0.
         23    2    1    2    0    0  0.17325577952E+02 -0.13564513215E+02  0.25087955794E+03  0.26661110628E+03  0.87502901277E+02 0.  0.
          5    1    3    3  502    0  0.82894685844E+01  0.58965365743E+02  0.14940286551E+03  0.16090039114E+03  0.47000000000E+01 0.  1.
         -5    1    3    3    0  502 -0.25615046537E+02 -0.45400852529E+02  0.34936836815E+02  0.62928853367E+02  0.47000000000E+01 0.  1.
        -11    1    4    4    0    0 -0.18867758202E+02 -0.28546225461E+02  0.42408573022E+02  0.54491892547E+02  0.00000000000E+00 0.  1.
         11    1    4    4    0    0  0.36193336154E+02  0.14981712246E+02  0.20847098492E+03  0.21211921374E+03  0.00000000000E+00 0. -1.
<mgrwt>
<rscale>  0 0.11656818E+03</rscale>
<asrwt>0</asrwt>
<pdfrwt beam="1">  1        2 0.71204580E-01 0.12695828E+03</pdfrwt>
<pdfrwt beam="2">  1       -2 0.42477765E-02 0.12695828E+03</pdfrwt>
<totfact> 0.15985199E+04</totfact>
</mgrwt>
</event>
<event>
 8    1  0.1033707E-005  0.1265924E+03  0.7546771E-02  0.1247014E+00
          2   -1    0    0  501    0  0.00000000000E+00  0.00000000000E+00  0.63382099945E+02  0.63382099945E+02  0.00000000000E+00 0. -1.
         -2   -1    0    0    0  501 -0.00000000000E+00 -0.00000000000E+00 -0.19279900345E+03  0.19279900345E+03  0.00000000000E+00 0.  1.
         23    2    1    2    0    0 -0.75639605704E+01  0.18589812292E+02 -0.76426793432E+02  0.14787387594E+03  0.12499133495E+03 0.  0.
         23    2    1    2    0    0  0.75639605704E+01 -0.18589812292E+02 -0.52990110078E+02  0.10830722746E+03  0.92302270463E+02 0.  0.
          5    1    3    3  502    0 -0.46367392055E+02  0.55405047416E+02 -0.37361286390E+02  0.81471529051E+02  0.47000000000E+01 0. -1.
         -5    1    3    3    0  502  0.38803431485E+02 -0.36815235125E+02 -0.39065507042E+02  0.66402346892E+02  0.47000000000E+01 0. -1.
        -11    1    4    4    0    0  0.17854802855E+02  0.99718635761E+01 -0.70400134641E+02  0.73310374475E+02  0.00000000000E+00 0.  1.
         11    1    4    4    0    0 -0.10290842284E+02 -0.28561675868E+02  0.17410024563E+02  0.34996852981E+02  0.00000000000E+00 0. -1.
<mgrwt>
<rscale>  0 0.11765665E+03</rscale>
<asrwt>0</asrwt>
<pdfrwt beam="1">  1        2 0.97510925E-02 0.12659237E+03</pdfrwt>
<pdfrwt beam="2">  1       -2 0.29661385E-01 0.12659237E+03</pdfrwt>
<totfact> 0.64980853E+03</totfact>
</mgrwt>
</event>
<event>
 8    1  0.1033707E-005  0.1632356E+03  0.7546771E-02  0.1192185E+00
          2   -1    0    0  501    0  0.00000000000E+00  0.00000000000E+00  0.36917749065E+03  0.36917749065E+03  0.00000000000E+00 0. -1.
         -2   -1    0    0    0  501 -0.00000000000E+00 -0.00000000000E+00 -0.65119302315E+02  0.65119302315E+02  0.00000000000E+00 0.  1.
         23    2    1    2    0    0  0.88028985741E+02 -0.57147703958E+02  0.11649585022E+03  0.20054209351E+03  0.12502354079E+03 0.  0.
         23    2    1    2    0    0 -0.88028985741E+02  0.57147703958E+02  0.18756233811E+03  0.23375469946E+03  0.91905747595E+02 0.  0.
          5    1    3    3  502    0  0.11848425389E+03 -0.57319000589E+02  0.86721865465E+02  0.15769197252E+03  0.47000000000E+01 0. -1.
         -5    1    3    3    0  502 -0.30455268147E+02  0.17129663069E+00  0.29773984760E+02  0.42850120991E+02  0.47000000000E+01 0. -1.
        -11    1    4    4    0    0  0.16623505973E+02 -0.44927364370E+01  0.32578155240E+02  0.36849176793E+02  0.00000000000E+00 0.  1.
         11    1    4    4    0    0 -0.10465249171E+03  0.61640440395E+02  0.15498418287E+03  0.19690552266E+03  0.00000000000E+00 0. -1.
<mgrwt>
<rscale>  0 0.15694897E+03</rscale>
<asrwt>0</asrwt>
<pdfrwt beam="1">  1        2 0.56796536E-01 0.16323556E+03</pdfrwt>
<pdfrwt beam="2">  1       -2 0.10018354E-01 0.16323556E+03</pdfrwt>
<totfact> 0.55882736E+03</totfact>
</mgrwt>
</event>
<event>
 8    1  0.1033707E-005  0.1288110E+03  0.7546771E-02  0.1243329E+00
          1   -1    0    0  501    0  0.00000000000E+00  0.00000000000E+00  0.57573761063E+03  0.57573761063E+03  0.00000000000E+00 0. -1.
         -1   -1    0    0    0  501 -0.00000000000E+00 -0.00000000000E+00 -0.22197294462E+02  0.22197294462E+02  0.00000000000E+00 0.  1.
         23    2    1    2    0    0  0.30926338355E+02  0.32253970569E+01  0.29257587035E+03  0.31967625252E+03  0.12500169969E+03 0.  0.
         23    2    1    2    0    0 -0.30926338355E+02 -0.32253970569E+01  0.26096444581E+03  0.27825865256E+03  0.91425347460E+02 0.  0.
          5    1    3    3  502    0  0.51995029782E+02  0.47422851400E+02  0.11064039216E+03  0.13120897963E+03  0.47000000000E+01 0.  1.
         -5    1    3    3    0  502 -0.21068691428E+02 -0.44197454343E+02  0.18193547819E+03  0.18846727290E+03  0.47000000000E+01 0.  1.
        -11    1    4    4    0    0 -0.56849777224E+02 -0.90741943089E+00  0.23389584173E+03  0.24070726071E+03  0.00000000000E+00 0. -1.
         11    1    4    4    0    0  0.25923438869E+02 -0.23179776261E+01  0.27068604081E+02  0.37551391852E+02  0.00000000000E+00 0.  1.
<mgrwt>
<rscale>  0 0.11985973E+03</rscale>
<asrwt>0</asrwt>
<pdfrwt beam="1">  1        1 0.88575006E-01 0.12881097E+03</pdfrwt>
<pdfrwt beam="2">  1       -1 0.34149688E-02 0.12881097E+03</pdfrwt>
<totfact> 0.11009152E+04</totfact>
</mgrwt>
</event>
<event>
 8    1  0.1033707E-005  0.1308769E+03  0.7546771E-02  0.1240635E+00
         -1   -1    0    0    0  501 -0.00000000000E+00  0.00000000000E+00  0.34445661396E+03  0.34445661396E+03  0.00000000000E+00 0.  1.
          1   -1    0    0  501    0  0.00000000000E+00 -0.00000000000E+00 -0.16874617706E+03  0.16874617706E+03  0.00000000000E+00 0. -1.
         23    2    1    2    0    0 -0.25158809019E+02 -0.14107432826E+02  0.31627794199E+03  0.34228717784E+03  0.12765888215E+03 0.  0.
         23    2    1    2    0    0  0.25158809019E+02  0.14107432826E+02 -0.14056750509E+03  0.17091561318E+03  0.92849006502E+02 0.  0.
          5    1    3    3  502    0  0.37460419905E+02  0.21704259654E+02  0.49691590611E+02  0.66073460057E+02  0.47000000000E+01 0. -1.
         -5    1    3    3    0  502 -0.62619228924E+02 -0.35811692480E+02  0.26658635138E+03  0.27621371778E+03  0.47000000000E+01 0.  1.
        -11    1    4    4    0    0  0.25419012285E+01 -0.20852352117E+02  0.31918071262E+01  0.21247811262E+02  0.00000000000E+00 0.  1.
         11    1    4    4    0    0  0.22616907791E+02  0.34959784944E+02 -0.14375931222E+03  0.14966780192E+03  0.00000000000E+00 0. -1.
<mgrwt>
<rscale>  0 0.12150472E+03</rscale>
<asrwt>0</asrwt>
<pdfrwt beam="2">  1        1 0.25960950E-01 0.13087695E+03</pdfrwt>
<pdfrwt beam="1">  1       -1 0.52993325E-01 0.13087695E+03</pdfrwt>
<totfact> 0.67010503E+02</totfact>
</mgrwt>
</event>
<event>
 8    1  0.1033707E-005  0.2350343E+03  0.7546771E-02  0.1125881E+00
          2   -1    0    0  501    0  0.00000000000E+00  0.00000000000E+00  0.16357293128E+03  0.16357293128E+03  0.00000000000E+00 0. -1.
         -2   -1    0    0    0  501 -0.00000000000E+00 -0.00000000000E+00 -0.37973322179E+03  0.37973322179E+03  0.00000000000E+00 0.  1.
         23    2    1    2    0    0 -0.19837055399E+03  0.16372920756E+02 -0.22243204799E+03  0.32360026477E+03  0.12498866412E+03 0.  0.
         23    2    1    2    0    0  0.19837055399E+03 -0.16372920756E+02  0.62717574822E+01  0.21970588830E+03  0.92802980500E+02 0.  0.
          5    1    3    3  502    0 -0.63617065777E+02  0.62245700518E+02 -0.11339276484E+03  0.14422783160E+03  0.47000000000E+01 0. -1.
         -5    1    3    3    0  502 -0.13475348821E+03 -0.45872779762E+02 -0.10903928316E+03  0.17937243317E+03  0.47000000000E+01 0. -1.
        -11    1    4    4    0    0  0.13707378595E+03  0.11170122638E+02 -0.33591919482E+02  0.14157122409E+03  0.00000000000E+00 0.  1.
         11    1    4    4    0    0  0.61296768036E+02 -0.27543043394E+02  0.39863676965E+02  0.78134664216E+02  0.00000000000E+00 0. -1.
<mgrwt>
<rscale>  0 0.23108118E+03</rscale>
<asrwt>0</asrwt>
<pdfrwt beam="1">  1        2 0.25165067E-01 0.23503429E+03</pdfrwt>
<pdfrwt beam="2">  1       -2 0.58420495E-01 0.23503429E+03</pdfrwt>
<totfact> 0.59744288E+02</totfact>
</mgrwt>
</event>
<event>
 8    1  0.1033707E-005  0.1474992E+03  0.7546771E-02  0.1213258E+00
          1   -1    0    0  501    0  0.00000000000E+00  0.00000000000E+00  0.11339431239E+03  0.11339431239E+03  0.00000000000E+00 0. -1.
         -1   -1    0    0    0  501 -0.00000000000E+00 -0.00000000000E+00 -0.16133204229E+03  0.16133204229E+03  0.00000000000E+00 0.  1.
         23    2    1    2    0    0  0.28299401817E+01 -0.78247314297E+02 -0.47077921121E+02  0.15483001055E+03  0.12500140301E+03 0.  0.
         23    2    1    2    0    0 -0.28299401817E+01  0.78247314297E+02 -0.85980877315E+00  0.11989634413E+03  0.90795062138E+02 0.  0.
          5    1    3    3  502    0  0.35353998860E+02  0.17673767956E+02  0.62105936449E+01  0.40285590260E+02  0.47000000000E+01 0.  1.
         -5    1    3    3    0  502 -0.32524058678E+02 -0.95921082253E+02 -0.53288514766E+02  0.11454442029E+03  0.47000000000E+01 0.  1.
        -11    1    4    4    0    0  0.93709222098E-01  0.49374437784E+02  0.44220986139E+02  0.66282271408E+02  0.00000000000E+00 0. -1.
         11    1    4    4    0    0 -0.29236494038E+01  0.28872876512E+02 -0.45080794912E+02  0.53614072722E+02  0.00000000000E+00 0.  1.
<mgrwt>
<rscale>  0 0.14005249E+03</rscale>
<asrwt>0</asrwt>
<pdfrwt beam="1">  1        1 0.17445279E-01 0.14749916E+03</pdfrwt>
<pdfrwt beam="2">  1       -1 0.24820314E-01 0.14749916E+03</pdfrwt>
<totfact> 0.41447539E+03</totfact>
</mgrwt>
</event>
<event>
 8    1  0.1033707E-005  0.1197741E+03  0.7546771E-02  0.1251299E+00
         -1   -1    0    0    0  501 -0.00000000000E+00  0.00000000000E+00  0.15188132913E+03  0.15188132913E+03  0.00000000000E+00 0.  1.
          1   -1    0    0  501    0  0.00000000000E+00 -0.00000000000E+00 -0.12836488947E+03  0.12836488947E+03  0.00000000000E+00 0. -1.
         23    2    1    2    0    0  0.33094390161E+02 -0.33087343682E+02  0.97092322215E+02  0.15418412996E+03  0.11025341685E+03 0.  0.
         23    2    1    2    0    0 -0.33094390161E+02  0.33087343682E+02 -0.73575882558E+02  0.12606208864E+03  0.91039709607E+02 0.  0.
          5    1    3    3  502    0  0.23725709691E+02 -0.69279193607E+02  0.89520134763E+02  0.11575171919E+03  0.47000000000E+01 0. -1.
         -5    1    3    3    0  502  0.93686804707E+01  0.36191849926E+02  0.75721874524E+01  0.38432410770E+02  0.47000000000E+01 0.  1.
        -11    1    4    4    0    0  0.17105909676E+02 -0.17303916937E+02 -0.86718650464E+00  0.24347272940E+02  0.00000000000E+00 0. -1.
         11    1    4    4    0    0 -0.50200299838E+02  0.50391260618E+02 -0.72708696053E+02  0.10171481570E+03  0.00000000000E+00 0.  1.
<mgrwt>
<rscale>  0 0.11516172E+03</rscale>
<asrwt>0</asrwt>
<pdfrwt beam="2">  1        1 0.19748445E-01 0.11977407E+03</pdfrwt>
<pdfrwt beam="1">  1       -1 0.23366358E-01 0.11977407E+03</pdfrwt>
<totfact> 0.38584315E+03</totfact>
</mgrwt>
</event>
<event>
 8    1  0.1124259E-005  0.1425487E+03  0.7546771E-02  0.1220043E+00
          1   -1    0    0  501    0  0.00000000000E+00  0.00000000000E+00  0.23114512586E+02  0.23114512586E+02  0.00000000000E+00 0. -1.
         -1   -1    0    0    0  501 -0.00000000000E+00 -0.00000000000E+00 -0.72350816021E+03  0.72350816021E+03  0.00000000000E+00 0.  1.
         23    2    1    2    0    0 -0.64182597049E+02 -0.23994433433E+02 -0.41976682150E+03  0.44331062909E+03  0.12499996333E+03 0.  0.
         23    2    1    2    0    0  0.64182597049E+02  0.23994433433E+02 -0.28062682612E+03  0.30331204370E+03  0.92475087009E+02 0.  0.
          5    1    3    3  502    0 -0.15819239105E+02  0.19234169804E+02 -0.82003190489E+01  0.26637132849E+02  0.47000000000E+01 0.  1.
         -5    1    3    3    0  502 -0.48363357944E+02 -0.43228603237E+02 -0.41156650245E+03  0.41667349624E+03  0.47000000000E+01 0.  1.
        -11    1    4    4    0    0  0.60834017137E+02 -0.19693140158E+02 -0.21574504909E+03  0.22502116259E+03  0.00000000000E+00 0.  1.
         11    1    4    4    0    0  0.33485799124E+01  0.43687573591E+02 -0.64881777036E+02  0.78290881110E+02  0.00000000000E+00 0. -1.
<mgrwt>
<rscale>  0 0.13512516E+03</rscale>
<asrwt>0</asrwt>
<pdfrwt beam="1">  1        1 0.35560795E-02 0.14254869E+03</pdfrwt>
<pdfrwt beam="2">  1       -1 0.11130893E+00 0.14254869E+03</pdfrwt>
<totfact> 0.20587815E+03</totfact>
</mgrwt>
</event>
<event>
 8    1  0.1033707E-005  0.1277431E+03  0.7546771E-02  0.1245607E+00
         -2   -1    0    0    0  501 -0.00000000000E+00  0.00000000000E+00  0.19859183451E+03  0.19859183451E+03  0.00000000000E+00 0. -1.
          2   -1    0    0  501    0  0.00000000000E+00 -0.00000000000E+00 -0.86128676519E+02  0.86128676519E+02  0.00000000000E+00 0.  1.
         23    2    1    2    0    0  0.19077944460E+02 -0.18171914263E+02  0.13670147210E+03  0.18709780344E+03  0.12499643652E+03 0.  0.
         23    2    1    2    0    0 -0.19077944460E+02  0.18171914263E+02 -0.24238314114E+02  0.97622707593E+02  0.90821312112E+02 0.  0.
          5    1    3    3  502    0 -0.19430295777E+02 -0.38746572884E+02  0.87328906328E-01  0.43599666634E+02  0.47000000000E+01 0.  1.
         -5    1    3    3    0  502  0.38508240237E+02  0.20574658621E+02  0.13661414320E+03  0.14349813680E+03  0.47000000000E+01 0.  1.
        -11    1    4    4    0    0 -0.37481017397E+02  0.15780830644E+02 -0.50891991969E+02  0.65144885659E+02  0.00000000000E+00 0.  1.
         11    1    4    4    0    0  0.18403072937E+02  0.23910836188E+01  0.26653677855E+02  0.32477821934E+02  0.00000000000E+00 0. -1.
<mgrwt>
<rscale>  0 0.11849134E+03</rscale>
<asrwt>0</asrwt>
<pdfrwt beam="2">  1        2 0.13250566E-01 0.12774308E+03</pdfrwt>
<pdfrwt beam="1">  1       -2 0.30552590E-01 0.12774308E+03</pdfrwt>
<totfact> 0.42580277E+03</totfact>
</mgrwt>
</event>
<event>
 8    1  0.1033707E-005  0.2146634E+03  0.7546771E-02  0.1141666E+00
          1   -1    0    0  501    0  0.00000000000E+00  0.00000000000E+00  0.56219902115E+03  0.56219902115E+03  0.00000000000E+00 0.  1.
         -1   -1    0    0    0  501 -0.00000000000E+00 -0.00000000000E+00 -0.77543711576E+02  0.77543711576E+02  0.00000000000E+00 0. -1.
         23    2    1    2    0    0  0.15619922626E+03  0.77806073904E+02  0.19551402423E+03  0.29035515501E+03  0.12501359506E+03 0.  0.
         23    2    1    2    0    0 -0.15619922626E+03 -0.77806073904E+02  0.28914128535E+03  0.34938757772E+03  0.89537774989E+02 0.  0.
          5    1    3    3  502    0  0.31644419314E+02 -0.33344243079E+02  0.29193687097E+02  0.54658660673E+02  0.47000000000E+01 0. -1.
         -5    1    3    3    0  502  0.12455480695E+03  0.11115031698E+03  0.16632033713E+03  0.23569649434E+03  0.47000000000E+01 0. -1.
        -11    1    4    4    0    0 -0.42019045313E+02  0.12863144359E+02  0.10973426919E+03  0.11820605097E+03  0.00000000000E+00 0. -1.
         11    1    4    4    0    0 -0.11418018095E+03 -0.90669218263E+02  0.17940701616E+03  0.23118152674E+03  0.00000000000E+00 0.  1.
<mgrwt>
<rscale>  0 0.20987339E+03</rscale>
<asrwt>0</asrwt>
<pdfrwt beam="1">  1        1 0.86492154E-01 0.21466342E+03</pdfrwt>
<pdfrwt beam="2">  1       -1 0.11929802E-01 0.21466342E+03</pdfrwt>
<totfact> 0.17719280E+03</totfact>
</mgrwt>
</event>
<event>
 8    1  0.1033707E-005  0.1771711E+03  0.7546771E-02  0.1175970E+00
         -1   -1    0    0    0  501 -0.00000000000E+00  0.00000000000E+00  0.28016573293E+02  0.28016573293E+02  0.00000000000E+00 0.  1.
          1   -1    0    0  501    0  0.00000000000E+00 -0.00000000000E+00 -0.10237363010E+04  0.10237363010E+04  0.00000000000E+00 0. -1.
         23    2    1    2    0    0 -0.11460808053E+03 -0.51284304054E+02 -0.61602682917E+03  0.64099818079E+03  0.12499808621E+03 0.  0.
         23    2    1    2    0    0  0.11460808053E+03  0.51284304054E+02 -0.37969289855E+03  0.41075469352E+03  0.93742354730E+02 0.  0.
          5    1    3    3  502    0  0.18717489068E+02 -0.38603812568E+02 -0.14858273992E+03  0.15472401023E+03  0.47000000000E+01 0.  1.
         -5    1    3    3    0  502 -0.13332556960E+03 -0.12680491486E+02 -0.46744408925E+03  0.48627417056E+03  0.47000000000E+01 0.  1.
        -11    1    4    4    0    0  0.52134197629E+02 -0.10413127109E+02 -0.23954279392E+03  0.24537146920E+03  0.00000000000E+00 0. -1.
         11    1    4    4    0    0  0.62473882901E+02  0.61697431163E+02 -0.14015010463E+03  0.16538322431E+03  0.00000000000E+00 0.  1.
<mgrwt>
<rscale>  0 0.17181346E+03</rscale>
<asrwt>0</asrwt>
<pdfrwt beam="2">  1        1 0.15749788E+00 0.17717114E+03</pdfrwt>
<pdfrwt beam="1">  1       -1 0.43102425E-02 0.17717114E+03</pdfrwt>
<totfact> 0.33431168E+03</totfact>
</mgrwt>
</event>
<event>
 7    1  0.1033707E-005  0.5280845E+03  0.7546771E-02  0.1006698E+00
          1   -1    0    0  501    0  0.00000000000E+00  0.00000000000E+00  0.56336134108E+03  0.56336134108E+03  0.00000000000E+00 0. -1.
         -1   -1    0    0    0  501 -0.00000000000E+00 -0.00000000000E+00 -0.12375414744E+03  0.12375414744E+03  0.00000000000E+00 0.  1.
         23    2    1    2    0    0  0.10247829744E+03  0.14143279152E+03  0.31446773451E+03  0.37108291027E+03  0.91145676141E+02 0.  0.
          5    1    1    2  502    0 -0.25604361815E+02  0.54800079828E+02  0.80077334130E+02  0.10046442920E+03  0.47000000000E+01 0. -1.
         -5    1    1    2    0  502 -0.76873935623E+02 -0.19623287135E+03  0.45062124999E+02  0.21556814905E+03  0.47000000000E+01 0.  1.
        -11    1    3    3    0    0  0.77476163991E+02  0.31130844565E+02  0.14551899308E+03  0.16777205613E+03  0.00000000000E+00 0. -1.
         11    1    3    3    0    0  0.25002133447E+02  0.11030194696E+03  0.16894874143E+03  0.20331085414E+03  0.00000000000E+00 0.  1.
<mgrwt>
<rscale>  0 0.52808447E+03</rscale>
<asrwt>0</asrwt>
<pdfrwt beam="1">  1        1 0.86670974E-01 0.52808447E+03</pdfrwt>
<pdfrwt beam="2">  1       -1 0.19039100E-01 0.52808447E+03</pdfrwt>
<totfact> 0.83791253E+02</totfact>
</mgrwt>
</event>
<event>
 8    1  0.1033707E-005  0.1488024E+03  0.7546771E-02  0.1211508E+00
         -1   -1    0    0    0  501 -0.00000000000E+00  0.00000000000E+00  0.26033225103E+02  0.26033225103E+02  0.00000000000E+00 0.  1.
          1   -1    0    0  501    0  0.00000000000E+00 -0.00000000000E+00 -0.86649155704E+03  0.86649155704E+03  0.00000000000E+00 0. -1.
         23    2    1    2    0    0 -0.61241609000E+02  0.52672658383E+02 -0.26019489634E+03  0.29973909561E+03  0.12496878706E+03 0.  0.
         23    2    1    2    0    0  0.61241609000E+02 -0.52672658383E+02 -0.58026343559E+03  0.59278568653E+03  0.90356360364E+02 0.  0.
          5    1    3    3  502    0 -0.64574443881E+02 -0.12204821424E+02 -0.20172498962E+03  0.21221187032E+03  0.47000000000E+01 0. -1.
         -5    1    3    3    0  502  0.33328348806E+01  0.64877479807E+02 -0.58469906727E+02  0.87527225291E+02  0.47000000000E+01 0. -1.
        -11    1    4    4    0    0 -0.15061770063E+02 -0.39606201952E+02 -0.25040471384E+03  0.25396462128E+03  0.00000000000E+00 0.  1.
         11    1    4    4    0    0  0.76303379064E+02 -0.13066456431E+02 -0.32985872175E+03  0.33882106525E+03  0.00000000000E+00 0. -1.
<mgrwt>
<rscale>  0 0.14136184E+03</rscale>
<asrwt>0</asrwt>
<pdfrwt beam="2">  1        1 0.13330637E+00 0.14880236E+03</pdfrwt>
<pdfrwt beam="1">  1       -1 0.40051123E-02 0.14880236E+03</pdfrwt>
<totfact> 0.48733240E+03</totfact>
</mgrwt>
</event>
<event>
 8    1  0.1033707E-005  0.1726974E+03  0.7546771E-02  0.1184553E+00
          2   -1    0    0  501    0  0.00000000000E+00  0.00000000000E+00  0.82133419888E+02  0.82133419888E+02  0.00000000000E+00 0. -1.
         -2   -1    0    0    0  501 -0.00000000000E+00 -0.00000000000E+00 -0.30153894582E+03  0.30153894582E+03  0.00000000000E+00 0.  1.
         23    2    1    2    0    0 -0.10053056917E+03 -0.63978901925E+02 -0.14533863227E+03  0.22571600851E+03  0.12499881294E+03 0.  0.
         23    2    1    2    0    0  0.10053056917E+03  0.63978901925E+02 -0.74066893662E+02  0.15795635721E+03  0.72557637887E+02 0.  0.
          5    1    3    3  502    0 -0.10750840531E+03 -0.64092051749E+02 -0.58096931803E+02  0.13806951798E+03  0.47000000000E+01 0. -1.
         -5    1    3    3    0  502  0.69778361448E+01  0.11314982388E+00 -0.87241700472E+02  0.87646490525E+02  0.47000000000E+01 0. -1.
        -11    1    4    4    0    0  0.94113619851E+01  0.24989815154E+02  0.94739590945E+01  0.28334087188E+02  0.00000000000E+00 0. -1.
         11    1    4    4    0    0  0.91119207185E+02  0.38989086771E+02 -0.83540852757E+02  0.12962227002E+03  0.00000000000E+00 0.  1.
<mgrwt>
<rscale>  0 0.16372660E+03</rscale>
<asrwt>0</asrwt>
<pdfrwt beam="1">  1        2 0.12635911E-01 0.17269742E+03</pdfrwt>
<pdfrwt beam="2">  1       -2 0.46390607E-01 0.17269742E+03</pdfrwt>
<totfact> 0.20931501E+03</totfact>
</mgrwt>
</event>
<event>
 8    1  0.1033707E-005  0.1829208E+03  0.7546771E-02  0.1169651E+00
          1   -1    0    0  501    0  0.00000000000E+00  0.00000000000E+00  0.27703089918E+03  0.27703089918E+03  0.00000000000E+00 0. -1.
         -1   -1    0    0    0  501 -0.00000000000E+00 -0.00000000000E+00 -0.12440803942E+03  0.12440803942E+03  0.00000000000E+00 0.  1.
         23    2    1    2    0    0 -0.13354779999E+03  0.64547042769E+00  0.90075946431E+01  0.18314245286E+03  0.12499835905E+03 0.  0.
         23    2    1    2    0    0  0.13354779999E+03 -0.64547042769E+00  0.14361526512E+03  0.21829648573E+03  0.95877942153E+02 0.  0.
          5    1    3    3  502    0 -0.13206327464E+03  0.34472565223E+02 -0.20356301072E+02  0.13807800424E+03  0.47000000000E+01 0. -1.
         -5    1    3    3    0  502 -0.14845253479E+01 -0.33827094795E+02  0.29363895715E+02  0.45064448619E+02  0.47000000000E+01 0. -1.
        -11    1    4    4    0    0  0.17094159079E+02  0.28806455031E+02  0.34072889533E+01  0.33669448230E+02  0.00000000000E+00 0.  1.
         11    1    4    4    0    0  0.11645364091E+03 -0.29451925459E+02  0.14020797617E+03  0.18462703750E+03  0.00000000000E+00 0. -1.
<mgrwt>
<rscale>  0 0.17810417E+03</rscale>
<asrwt>0</asrwt>
<pdfrwt beam="1">  1        1 0.42620138E-01 0.18292081E+03</pdfrwt>
<pdfrwt beam="2">  1       -1 0.19139698E-01 0.18292081E+03</pdfrwt>
<totfact> 0.20727793E+03</totfact>
</mgrwt>
</event>
<event>
 8    1  0.1033707E-005  0.1348944E+03  0.7546771E-02  0.1224457E+00
         -2   -1    0    0    0  501 -0.00000000000E+00  0.00000000000E+00  0.28502593333E+03  0.28502593333E+03  0.00000000000E+00 0.  1.
          2   -1    0    0  501    0  0.00000000000E+00 -0.00000000000E+00 -0.17126197096E+03  0.17126197096E+03  0.00000000000E+00 0. -1.
         23    2    1    2    0    0  0.43015195814E+02  0.26864281910E+02  0.24260123869E+03  0.27758218949E+03  0.12499805676E+03 0.  0.
         23    2    1    2    0    0 -0.43015195814E+02 -0.26864281910E+02 -0.12883727632E+03  0.17870571480E+03  0.11298093654E+03 0.  0.
          5    1    3    3  502    0 -0.62947498000E+01  0.30930307775E+02  0.22116646567E+03  0.22345693847E+03  0.47000000000E+01 0. -1.
         -5    1    3    3    0  502  0.49309945614E+02 -0.40660258653E+01  0.21434773016E+02  0.54125251011E+02  0.47000000000E+01 0. -1.
        -11    1    4    4    0    0  0.11108853925E+02  0.37801386637E+02 -0.44648324697E+02  0.59546824983E+02  0.00000000000E+00 0. -1.
         11    1    4    4    0    0 -0.54124049738E+02 -0.64665668547E+02 -0.84188951618E+02  0.11915888982E+03  0.00000000000E+00 0.  1.
<mgrwt>
<rscale>  0 0.13204197E+03</rscale>
<asrwt>0</asrwt>
<pdfrwt beam="2">  1        2 0.26347996E-01 0.13489444E+03</pdfrwt>
<pdfrwt beam="1">  1       -2 0.43850144E-01 0.13489444E+03</pdfrwt>
<totfact> 0.99545478E+02</totfact>
</mgrwt>
</event>
<event>
 8    1  0.1033707E-005  0.1753303E+03  0.7546771E-02  0.1178236E+00
          1   -1    0    0  501    0  0.00000000000E+00  0.00000000000E+00  0.13761513197E+03  0.13761513197E+03  0.00000000000E+00 0. -1.
         -1   -1    0    0    0  501 -0.00000000000E+00 -0.00000000000E+00 -0.20312496508E+03  0.20312496508E+03  0.00000000000E+00 0.  1.
         23    2    1    2    0    0 -0.88902559970E+02 -0.84939976130E+02 -0.65395395586E+02  0.18712901735E+03  0.12498898614E+03 0.  0.
         23    2    1    2    0    0  0.88902559970E+02  0.84939976130E+02 -0.11443751725E+00  0.15361107970E+03  0.92075436446E+02 0.  0.
          5    1    3    3  502    0 -0.13815552725E+02 -0.78600048757E+02  0.98349363500E+01  0.80545969078E+02  0.47000000000E+01 0. -1.
         -5    1    3    3    0  502 -0.75087007245E+02 -0.63399273729E+01 -0.75230331936E+02  0.10658304827E+03  0.47000000000E+01 0. -1.
        -11    1    4    4    0    0  0.22016053309E+02  0.49108794484E+02 -0.40778644743E+02  0.67522427134E+02  0.00000000000E+00 0.  1.
         11    1    4    4    0    0  0.66886506661E+02  0.35831181646E+02  0.40664207226E+02  0.86088652567E+02  0.00000000000E+00 0. -1.
<mgrwt>
<rscale>  0 0.16962831E+03</rscale>
<asrwt>0</asrwt>
<pdfrwt beam="1">  1        1 0.21171559E-01 0.17533029E+03</pdfrwt>
<pdfrwt beam="2">  1       -1 0.31249994E-01 0.17533029E+03</pdfrwt>
<totfact> 0.22187753E+03</totfact>
</mgrwt>
</event>
<event>
 8    1  0.1033707E-005  0.1398275E+03  0.7546771E-02  0.1224580E+00
         -1   -1    0    0    0  501 -0.00000000000E+00  0.00000000000E+00  0.52372669400E+02  0.52372669400E+02  0.00000000000E+00 0.  1.
          1   -1    0    0  501    0  0.00000000000E+00 -0.00000000000E+00 -0.40905827292E+03  0.40905827292E+03  0.00000000000E+00 0. -1.
         23    2    1    2    0    0  0.42229260739E+02  0.46312182300E+02 -0.74940910509E+02  0.15864385850E+03  0.12499442019E+03 0.  0.
         23    2    1    2    0    0 -0.42229260739E+02 -0.46312182300E+02 -0.28174469302E+03  0.30278708383E+03  0.91497636022E+02 0.  0.
          5    1    3    3  502    0 -0.29591988089E+02 -0.24115156029E+02 -0.13946611064E+02  0.40912399949E+02  0.47000000000E+01 0.  1.
         -5    1    3    3    0  502  0.71821248829E+02  0.70427338330E+02 -0.60994299445E+02  0.11773145855E+03  0.47000000000E+01 0.  1.
        -11    1    4    4    0    0 -0.34726663977E+02 -0.68682804300E+02 -0.25831021104E+03  0.26953187924E+03  0.00000000000E+00 0. -1.
         11    1    4    4    0    0 -0.75025967623E+01  0.22370622000E+02 -0.23434481976E+02  0.33255204590E+02  0.00000000000E+00 0.  1.
<mgrwt>
<rscale>  0 0.13195698E+03</rscale>
<asrwt>0</asrwt>
<pdfrwt beam="2">  1        1 0.62932042E-01 0.13982751E+03</pdfrwt>
<pdfrwt beam="1">  1       -1 0.80573337E-02 0.13982751E+03</pdfrwt>
<totfact> 0.48316039E+03</totfact>
</mgrwt>
</event>
<event>
 8    1  0.1033707E-005  0.1775033E+03  0.7546771E-02  0.1175982E+00
         -2   -1    0    0    0  501 -0.00000000000E+00  0.00000000000E+00  0.65970571732E+02  0.65970571732E+02  0.00000000000E+00 0.  1.
          2   -1    0    0  501    0  0.00000000000E+00 -0.00000000000E+00 -0.44566716734E+03  0.44566716734E+03  0.00000000000E+00 0. -1.
         23    2    1    2    0    0 -0.12377195494E+03 -0.23751457895E+02 -0.14137640408E+03  0.22692441992E+03  0.12499510448E+03 0.  0.
         23    2    1    2    0    0  0.12377195494E+03  0.23751457895E+02 -0.23832019153E+03  0.28471331915E+03  0.91550706333E+02 0.  0.
          5    1    3    3  502    0  0.16564458250E+02  0.20725270682E+02 -0.77142616833E+01  0.28027093236E+02  0.47000000000E+01 0.  1.
         -5    1    3    3    0  502 -0.14033641319E+03 -0.44476728577E+02 -0.13366214240E+03  0.19889732669E+03  0.47000000000E+01 0.  1.
        -11    1    4    4    0    0  0.11505410168E+03  0.49678891105E+02 -0.17064892403E+03  0.21172268138E+03  0.00000000000E+00 0. -1.
         11    1    4    4    0    0  0.87178532563E+01 -0.25927433210E+02 -0.67671267497E+02  0.72990637776E+02  0.00000000000E+00 0.  1.
<mgrwt>
<rscale>  0 0.17180177E+03</rscale>
<asrwt>0</asrwt>
<pdfrwt beam="2">  1        2 0.68564180E-01 0.17750325E+03</pdfrwt>
<pdfrwt beam="1">  1       -2 0.10149319E-01 0.17750325E+03</pdfrwt>
<totfact> 0.44862884E+03</totfact>
</mgrwt>
</event>
<event>
 8    1  0.1033707E-005  0.2948829E+03  0.7546771E-02  0.1089985E+00
          1   -1    0    0  501    0  0.00000000000E+00  0.00000000000E+00  0.12988350619E+04  0.12988350619E+04  0.00000000000E+00 0. -1.
         -1   -1    0    0    0  501 -0.00000000000E+00 -0.00000000000E+00 -0.63843121149E+02  0.63843121149E+02  0.00000000000E+00 0.  1.
         23    2    1    2    0    0  0.18414717095E+03  0.19344504683E+03  0.69885382668E+03  0.75852001930E+03  0.12499912758E+03 0.  0.
         23    2    1    2    0    0 -0.18414717095E+03 -0.19344504683E+03  0.53613811407E+03  0.60415816376E+03  0.78942021479E+02 0.  0.
          5    1    3    3  502    0  0.12244430409E+02  0.62944650443E+02  0.28023078343E+03  0.28751232509E+03  0.47000000000E+01 0. -1.
         -5    1    3    3    0  502  0.17190274054E+03  0.13050039639E+03  0.41862304325E+03  0.47100769421E+03  0.47000000000E+01 0. -1.
        -11    1    4    4    0    0 -0.55637314543E+02 -0.59856049213E+02  0.92947773002E+02  0.12376407355E+03  0.00000000000E+00 0.  1.
         11    1    4    4    0    0 -0.12850985641E+03 -0.13358899762E+03  0.44319034107E+03  0.48039409020E+03  0.00000000000E+00 0. -1.
<mgrwt>
<rscale>  0 0.29069935E+03</rscale>
<asrwt>0</asrwt>
<pdfrwt beam="1">  1        1 0.19982076E+00 0.29488294E+03</pdfrwt>
<pdfrwt beam="2">  1       -1 0.98220196E-02 0.29488294E+03</pdfrwt>
<totfact> 0.61301986E+02</totfact>
</mgrwt>
</event>
<event>
 8    1  0.1033707E-005  0.1345992E+03  0.7546771E-02  0.1233231E+00
         -2   -1    0    0    0  501 -0.00000000000E+00  0.00000000000E+00  0.18152111915E+03  0.18152111915E+03  0.00000000000E+00 0.  1.
          2   -1    0    0  501    0  0.00000000000E+00 -0.00000000000E+00 -0.78396047556E+02  0.78396047556E+02  0.00000000000E+00 0. -1.
         23    2    1    2    0    0  0.45211350066E+02  0.21143798545E+02  0.56496861428E+02  0.14597549571E+03  0.12500329437E+03 0.  0.
         23    2    1    2    0    0 -0.45211350066E+02 -0.21143798545E+02  0.46628210170E+02  0.11394167100E+03  0.91199714996E+02 0.  0.
          5    1    3    3  502    0  0.34498362615E+02  0.65978613821E+02  0.22534024691E+01  0.74635663912E+02  0.47000000000E+01 0.  1.
         -5    1    3    3    0  502  0.10712987451E+02 -0.44834815276E+02  0.54243458959E+02  0.71339831797E+02  0.47000000000E+01 0.  1.
        -11    1    4    4    0    0 -0.45352970688E+02 -0.34873675756E+02 -0.78617789317E+01  0.57748357370E+02  0.00000000000E+00 0. -1.
         11    1    4    4    0    0  0.14162062231E+00  0.13729877210E+02  0.54489989102E+02  0.56193313632E+02  0.00000000000E+00 0.  1.
<mgrwt>
<rscale>  0 0.12618353E+03</rscale>
<asrwt>0</asrwt>
<pdfrwt beam="2">  1        2 0.12060930E-01 0.13459922E+03</pdfrwt>
<pdfrwt beam="1">  1       -2 0.27926326E-01 0.13459922E+03</pdfrwt>
<totfact> 0.56153022E+03</totfact>
</mgrwt>
</event>
<event>
 8    1  0.1033707E-005  0.2935045E+03  0.7546771E-02  0.1090229E+00
         -1   -1    0    0    0  501 -0.00000000000E+00  0.00000000000E+00  0.20165184256E+03  0.20165184256E+03  0.00000000000E+00 0.  1.
          1   -1    0    0  501    0  0.00000000000E+00 -0.00000000000E+00 -0.40962733222E+03  0.40962733222E+03  0.00000000000E+00 0. -1.
         23    2    1    2    0    0 -0.26401099593E+03  0.28587403908E+02 -0.91462241603E+02  0.30742513343E+03  0.12500330154E+03 0.  0.
         23    2    1    2    0    0  0.26401099593E+03 -0.28587403908E+02 -0.11651324805E+03  0.30385404135E+03  0.90735306462E+02 0.  0.
          5    1    3    3  502    0 -0.66709830506E+02 -0.39028057676E+02  0.49852858708E+01  0.77590810328E+02  0.47000000000E+01 0.  1.
         -5    1    3    3    0  502 -0.19730116542E+03  0.67615461583E+02 -0.96447527474E+02  0.22983432310E+03  0.47000000000E+01 0.  1.
        -11    1    4    4    0    0  0.13926777670E+03 -0.12024060584E+01 -0.13787993763E+02  0.13995380731E+03  0.00000000000E+00 0.  1.
         11    1    4    4    0    0  0.12474321923E+03 -0.27384997849E+02 -0.10272525429E+03  0.16390023404E+03  0.00000000000E+00 0. -1.
<mgrwt>
<rscale>  0 0.29023093E+03</rscale>
<asrwt>0</asrwt>
<pdfrwt beam="2">  1        1 0.63019589E-01 0.29350447E+03</pdfrwt>
<pdfrwt beam="1">  1       -1 0.31023361E-01 0.29350447E+03</pdfrwt>
<totfact> 0.56883454E+02</totfact>
</mgrwt>
</event>
<event>
 8    1  0.1033707E-005  0.1268320E+03  0.7546771E-02  0.1247606E+00
         -1   -1    0    0    0  501 -0.00000000000E+00  0.00000000000E+00  0.15753815588E+03  0.15753815588E+03  0.00000000000E+00 0. -1.
          1   -1    0    0  501    0  0.00000000000E+00 -0.00000000000E+00 -0.91996552060E+02  0.91996552060E+02  0.00000000000E+00 0.  1.
         23    2    1    2    0    0  0.21146701821E+02 -0.39867793982E+01  0.87589342989E+02  0.15413714227E+03  0.12499315267E+03 0.  0.
         23    2    1    2    0    0 -0.21146701821E+02  0.39867793982E+01 -0.22047739165E+02  0.95397565669E+02  0.90285742648E+02 0.  0.
          5    1    3    3  502    0 -0.42183238084E+02 -0.33010953071E+02  0.21225864464E+02  0.57808095628E+02  0.47000000000E+01 0.  1.
         -5    1    3    3    0  502  0.63329939905E+02  0.29024173673E+02  0.66363478525E+02  0.96329046646E+02  0.47000000000E+01 0.  1.
        -11    1    4    4    0    0 -0.84586912908E+01 -0.37015317536E+02  0.12844985881E+02  0.40083373772E+02  0.00000000000E+00 0.  1.
         11    1    4    4    0    0 -0.12688010530E+02  0.41002096934E+02 -0.34892725046E+02  0.55314191898E+02  0.00000000000E+00 0. -1.
<mgrwt>
<rscale>  0 0.11730758E+03</rscale>
<asrwt>0</asrwt>
<pdfrwt beam="2">  1        1 0.14153316E-01 0.12683204E+03</pdfrwt>
<pdfrwt beam="1">  1       -1 0.24236639E-01 0.12683204E+03</pdfrwt>
<totfact> 0.55922981E+03</totfact>
</mgrwt>
</event>
<event>
 8    1  0.1033707E-005  0.1295687E+03  0.7546771E-02  0.1241986E+00
          1   -1    0    0  501    0  0.00000000000E+00  0.00000000000E+00  0.13782309381E+03  0.13782309381E+03  0.00000000000E+00 0. -1.
         -1   -1    0    0    0  501 -0.00000000000E+00 -0.00000000000E+00 -0.93687997769E+02  0.93687997769E+02  0.00000000000E+00 0.  1.
         23    2    1    2    0    0 -0.28960195164E+02 -0.17982849938E+02  0.20356270543E+02  0.13115798683E+03  0.12500385579E+03 0.  0.
         23    2    1    2    0    0  0.28960195164E+02  0.17982849938E+02  0.23778825500E+02  0.10035310475E+03  0.91341323045E+02 0.  0.
          5    1    3    3  502    0 -0.17598298564E+02 -0.48557312852E+02 -0.37895090246E+02  0.64231149831E+02  0.47000000000E+01 0.  1.
         -5    1    3    3    0  502 -0.11361896600E+02  0.30574462914E+02  0.58251360790E+02  0.66926836999E+02  0.47000000000E+01 0.  1.
        -11    1    4    4    0    0  0.61092847885E+01  0.51842959590E+02 -0.16639648648E+01  0.52228197353E+02  0.00000000000E+00 0.  1.
         11    1    4    4    0    0  0.22850910376E+02 -0.33860109652E+02  0.25442790365E+02  0.48124907400E+02  0.00000000000E+00 0. -1.
<mgrwt>
<rscale>  0 0.12067597E+03</rscale>
<asrwt>0</asrwt>
<pdfrwt beam="1">  1        1 0.21203553E-01 0.12956867E+03</pdfrwt>
<pdfrwt beam="2">  1       -1 0.14413538E-01 0.12956867E+03</pdfrwt>
<totfact> 0.76447844E+03</totfact>
</mgrwt>
</event>
<event>
 7    1  0.1033707E-005  0.2065129E+03  0.7546771E-02  0.1175653E+00
         -2   -1    0    0    0  501 -0.00000000000E+00  0.00000000000E+00  0.21347370104E+03  0.21347370104E+03  0.00000000000E+00 0.  1.
          2   -1    0    0  501    0  0.00000000000E+00 -0.00000000000E+00 -0.17117279163E+03  0.17117279163E+03  0.00000000000E+00 0. -1.
         23    2    1    2    0    0  0.28109420481E+02  0.35144489484E+02 -0.94173086305E+02  0.13711317347E+03  0.88916688503E+02 0.  0.
          5    1    1    2  502    0 -0.32966087172E+02  0.80630624082E+02  0.80731737498E+02  0.11886027041E+03  0.47000000000E+01 0. -1.
         -5    1    1    2    0  502  0.48566666906E+01 -0.11577511357E+03  0.55742258212E+02  0.12867304878E+03  0.47000000000E+01 0.  1.
        -11    1    3    3    0    0  0.35100119443E+01  0.60970390747E+02 -0.74664599418E+02  0.96459893935E+02  0.00000000000E+00 0. -1.
         11    1    3    3    0    0  0.24599408537E+02 -0.25825901263E+02 -0.19508486886E+02  0.40653279536E+02  0.00000000000E+00 0.  1.
<mgrwt>
<rscale>  0 0.17212226E+03</rscale>
<asrwt>0</asrwt>
<pdfrwt beam="2">  1        2 0.26334276E-01 0.20651294E+03</pdfrwt>
<pdfrwt beam="1">  1       -2 0.32842108E-01 0.20651294E+03</pdfrwt>
<totfact> 0.17377598E+03</totfact>
</mgrwt>
</event>
<event>
 8    1  0.1033707E-005  0.1961718E+03  0.7546771E-02  0.1157336E+00
          2   -1    0    0  501    0  0.00000000000E+00  0.00000000000E+00  0.42789848573E+03  0.42789848573E+03  0.00000000000E+00 0. -1.
         -2   -1    0    0    0  501 -0.00000000000E+00 -0.00000000000E+00 -0.90269785910E+02  0.90269785910E+02  0.00000000000E+00 0.  1.
         23    2    1    2    0    0 -0.78766762324E+02  0.12902567482E+03  0.95695033907E+02  0.21826799933E+03  0.12502620688E+03 0.  0.
         23    2    1    2    0    0  0.78766762324E+02 -0.12902567482E+03  0.24193366591E+03  0.29990027231E+03  0.92501064958E+02 0.  0.
          5    1    3    3  502    0  0.14723422512E+02 -0.96280602538E+01  0.36535372296E+02  0.40821589184E+02  0.47000000000E+01 0. -1.
         -5    1    3    3    0  502 -0.93490184836E+02  0.13865373508E+03  0.59159661611E+02  0.17744641015E+03  0.47000000000E+01 0. -1.
        -11    1    4    4    0    0  0.45185008066E+02 -0.41061705698E+02  0.30074476037E+02  0.68060434451E+02  0.00000000000E+00 0.  1.
         11    1    4    4    0    0  0.33581754258E+02 -0.87963969127E+02  0.21185918987E+03  0.23183983786E+03  0.00000000000E+00 0. -1.
<mgrwt>
<rscale>  0 0.19125287E+03</rscale>
<asrwt>0</asrwt>
<pdfrwt beam="1">  1        2 0.65830535E-01 0.19617181E+03</pdfrwt>
<pdfrwt beam="2">  1       -2 0.13887660E-01 0.19617181E+03</pdfrwt>
<totfact> 0.28439341E+03</totfact>
</mgrwt>
</event>
<event>
 8    1  0.1033707E-005  0.1833737E+03  0.7546771E-02  0.1169116E+00
          1   -1    0    0  501    0  0.00000000000E+00  0.00000000000E+00  0.32894943680E+03  0.32894943680E+03  0.00000000000E+00 0. -1.
         -1   -1    0    0    0  501 -0.00000000000E+00 -0.00000000000E+00 -0.93155186322E+02  0.93155186322E+02  0.00000000000E+00 0.  1.
         23    2    1    2    0    0 -0.35154654014E+02  0.12946992423E+03  0.10428295163E+03  0.21095225386E+03  0.12501043328E+03 0.  0.
         23    2    1    2    0    0  0.35154654014E+02 -0.12946992423E+03  0.13151129885E+03  0.21115236926E+03  0.96393933121E+02 0.  0.
          5    1    3    3  502    0  0.74576972536E+01  0.91708201369E+02  0.12038746550E+03  0.15159565725E+03  0.47000000000E+01 0. -1.
         -5    1    3    3    0  502 -0.42612351268E+02  0.37761722858E+02 -0.16104513874E+02  0.59356596608E+02  0.47000000000E+01 0. -1.
        -11    1    4    4    0    0  0.38444624989E+02 -0.84564880824E+02  0.13728320391E+03  0.16575851814E+03  0.00000000000E+00 0. -1.
         11    1    4    4    0    0 -0.32899709749E+01 -0.44905043403E+02 -0.57719050609E+01  0.45393851126E+02  0.00000000000E+00 0.  1.
<mgrwt>
<rscale>  0 0.17865018E+03</rscale>
<asrwt>0</asrwt>
<pdfrwt beam="1">  1        1 0.50607605E-01 0.18337372E+03</pdfrwt>
<pdfrwt beam="2">  1       -1 0.14331567E-01 0.18337372E+03</pdfrwt>
<totfact> 0.26501050E+03</totfact>
</mgrwt>
</event>
<event>
 8    1  0.1033707E-005  0.2258186E+03  0.7546771E-02  0.1132767E+00
         -1   -1    0    0    0  501 -0.00000000000E+00  0.00000000000E+00  0.16728600061E+03  0.16728600061E+03  0.00000000000E+00 0.  1.
          1   -1    0    0  501    0  0.00000000000E+00 -0.00000000000E+00 -0.28733221408E+03  0.28733221408E+03  0.00000000000E+00 0. -1.
         23    2    1    2    0    0 -0.47044316375E+02 -0.18206304142E+03 -0.33190366126E+02  0.22824465129E+03  0.12503560168E+03 0.  0.
         23    2    1    2    0    0  0.47044316375E+02  0.18206304142E+03 -0.86855847347E+02  0.22637356339E+03  0.91328709787E+02 0.  0.
          5    1    3    3  502    0 -0.24660702854E+02 -0.18307571373E+03  0.37018435169E+01  0.18482602865E+03  0.47000000000E+01 0. -1.
         -5    1    3    3    0  502 -0.22383613521E+02  0.10126723128E+01 -0.36892209643E+02  0.43418622638E+02  0.47000000000E+01 0. -1.
        -11    1    4    4    0    0  0.26544469790E+01  0.10709451198E+03 -0.56564782852E+01  0.10727663460E+03  0.00000000000E+00 0.  1.
         11    1    4    4    0    0  0.44389869396E+02  0.74968529435E+02 -0.81199369062E+02  0.11909692879E+03  0.00000000000E+00 0. -1.
<mgrwt>
<rscale>  0 0.22150381E+03</rscale>
<asrwt>0</asrwt>
<pdfrwt beam="2">  1        1 0.44204956E-01 0.22581856E+03</pdfrwt>
<pdfrwt beam="1">  1       -1 0.25736308E-01 0.22581856E+03</pdfrwt>
<totfact> 0.12246104E+03</totfact>
</mgrwt>
</event>
<event>
 8    1  0.1033707E-005  0.1910583E+03  0.7546771E-02  0.1162034E+00
          2   -1    0    0  501    0  0.00000000000E+00  0.00000000000E+00  0.84688158999E+02  0.84688158999E+02  0.00000000000E+00 0.  1.
         -2   -1    0    0    0  501 -0.00000000000E+00 -0.00000000000E+00 -0.41866844397E+03  0.41866844397E+03  0.00000000000E+00 0. -1.
         23    2    1    2    0    0 -0.12979255356E+03  0.65713033055E+02 -0.24205344246E+03  0.30837178888E+03  0.12385064191E+03 0.  0.
         23    2    1    2    0    0  0.12979255356E+03 -0.65713033055E+02 -0.91926842518E+02  0.19498481409E+03  0.91674553050E+02 0.  0.
          5    1    3    3  502    0  0.20336971603E+02 -0.93230365632E+01 -0.23715967822E+02  0.32940075205E+02  0.47000000000E+01 0. -1.
         -5    1    3    3    0  502 -0.15012952516E+03  0.75036069618E+02 -0.21833747463E+03  0.27543171368E+03  0.47000000000E+01 0. -1.
        -11    1    4    4    0    0  0.36592246233E+02 -0.23460726316E+02 -0.81188664018E+02  0.92092330455E+02  0.00000000000E+00 0. -1.
         11    1    4    4    0    0  0.93200307329E+02 -0.42252306739E+02 -0.10738178500E+02  0.10289248363E+03  0.00000000000E+00 0.  1.
<mgrwt>
<rscale>  0 0.18609223E+03</rscale>
<asrwt>0</asrwt>
<pdfrwt beam="1">  1        2 0.13028947E-01 0.19105834E+03</pdfrwt>
<pdfrwt beam="2">  1       -2 0.64410531E-01 0.19105834E+03</pdfrwt>
<totfact> 0.10417112E+03</totfact>
</mgrwt>
</event>
<event>
 8    1  0.1033707E-005  0.1378045E+03  0.7546771E-02  0.1228277E+00
         -2   -1    0    0    0  501 -0.00000000000E+00  0.00000000000E+00  0.54449973595E+02  0.54449973595E+02  0.00000000000E+00 0.  1.
          2   -1    0    0  501    0  0.00000000000E+00 -0.00000000000E+00 -0.28283416866E+03  0.28283416866E+03  0.00000000000E+00 0. -1.
         23    2    1    2    0    0  0.38922476323E+02 -0.43017930666E+02 -0.10171470991E+03  0.17127740987E+03  0.12499826957E+03 0.  0.
         23    2    1    2    0    0 -0.38922476323E+02  0.43017930666E+02 -0.12666948515E+03  0.16600673238E+03  0.90263919739E+02 0.  0.
          5    1    3    3  502    0  0.60807629411E+02 -0.26366356386E+02 -0.66540808716E+00  0.66447613287E+02  0.47000000000E+01 0.  1.
         -5    1    3    3    0  502 -0.21885153088E+02 -0.16651574280E+02 -0.10104930183E+03  0.10482979658E+03  0.47000000000E+01 0.  1.
        -11    1    4    4    0    0 -0.56156136903E+02  0.59167447507E+02 -0.11064808156E+03  0.13746743800E+03  0.00000000000E+00 0.  1.
         11    1    4    4    0    0  0.17233660579E+02 -0.16149516841E+02 -0.16021403591E+02  0.28539294389E+02  0.00000000000E+00 0. -1.
<mgrwt>
<rscale>  0 0.12944831E+03</rscale>
<asrwt>0</asrwt>
<pdfrwt beam="2">  1        2 0.43512949E-01 0.13780446E+03</pdfrwt>
<pdfrwt beam="1">  1       -2 0.83769190E-02 0.13780446E+03</pdfrwt>
<totfact> 0.97110662E+03</totfact>
</mgrwt>
</event>
<event>
 8    1  0.1033707E-005  0.1655393E+03  0.7546771E-02  0.1185766E+00
         -1   -1    0    0    0  501 -0.00000000000E+00  0.00000000000E+00  0.20207423614E+03  0.20207423614E+03  0.00000000000E+00 0.  1.
          1   -1    0    0  501    0  0.00000000000E+00 -0.00000000000E+00 -0.21736662745E+03  0.21736662745E+03  0.00000000000E+00 0. -1.
         23    2    1    2    0    0 -0.63443908041E+02 -0.88053448082E+02  0.12776785954E+03  0.20911216299E+03  0.12499892637E+03 0.  0.
         23    2    1    2    0    0  0.63443908041E+02  0.88053448082E+02 -0.14306025085E+03  0.21032870060E+03  0.10951432663E+03 0.  0.
          5    1    3    3  502    0 -0.32656026479E+02 -0.11788160894E+03  0.93880840986E+02  0.15426662664E+03  0.47000000000E+01 0. -1.
         -5    1    3    3    0  502 -0.30787881561E+02  0.29828160858E+02  0.33887018552E+02  0.54845536351E+02  0.47000000000E+01 0. -1.
        -11    1    4    4    0    0 -0.19494899088E+02  0.65145187418E+02 -0.58756211276E+02  0.89867896924E+02  0.00000000000E+00 0. -1.
         11    1    4    4    0    0  0.82938807129E+02  0.22908260665E+02 -0.84304039572E+02  0.12046080368E+03  0.00000000000E+00 0.  1.
<mgrwt>
<rscale>  0 0.16262374E+03</rscale>
<asrwt>0</asrwt>
<pdfrwt beam="2">  1        1 0.33441019E-01 0.16553933E+03</pdfrwt>
<pdfrwt beam="1">  1       -1 0.31088344E-01 0.16553933E+03</pdfrwt>
<totfact> 0.12563051E+03</totfact>
</mgrwt>
</event>
<event>
 8    1  0.1033707E-005  0.2192685E+03  0.7546771E-02  0.1138038E+00
         -1   -1    0    0    0  501 -0.00000000000E+00  0.00000000000E+00  0.10301266894E+04  0.10301266894E+04  0.00000000000E+00 0.  1.
          1   -1    0    0  501    0  0.00000000000E+00 -0.00000000000E+00 -0.46723153520E+02  0.46723153520E+02  0.00000000000E+00 0. -1.
         23    2    1    2    0    0 -0.13261650917E+03 -0.12199733359E+03  0.66654541759E+03  0.70168474178E+03  0.12493276280E+03 0.  0.
         23    2    1    2    0    0  0.13261650917E+03  0.12199733359E+03  0.31685811833E+03  0.37516510119E+03  0.88765410418E+02 0.  0.
          5    1    3    3  502    0 -0.14457883957E+03 -0.90898878303E+02  0.62650976371E+03  0.64938603384E+03  0.47000000000E+01 0.  1.
         -5    1    3    3    0  502  0.11962330391E+02 -0.31098455290E+02  0.40035653883E+02  0.52298707934E+02  0.47000000000E+01 0.  1.
        -11    1    4    4    0    0  0.80646548752E+02  0.85737919539E+02  0.27523754507E+03  0.29935023449E+03  0.00000000000E+00 0.  1.
         11    1    4    4    0    0  0.51969960422E+02  0.36259414054E+02  0.41620573262E+02  0.75814866698E+02  0.00000000000E+00 0. -1.
<mgrwt>
<rscale>  0 0.21451732E+03</rscale>
<asrwt>0</asrwt>
<pdfrwt beam="2">  1        1 0.71881782E-02 0.21926852E+03</pdfrwt>
<pdfrwt beam="1">  1       -1 0.15848101E+00 0.21926852E+03</pdfrwt>
<totfact> 0.32939354E+02</totfact>
</mgrwt>
</event>
<event>
 8    1  0.1033707E-005  0.1308236E+03  0.7546771E-02  0.1239105E+00
          1   -1    0    0  501    0  0.00000000000E+00  0.00000000000E+00  0.12614266853E+03  0.12614266853E+03  0.00000000000E+00 0. -1.
         -1   -1    0    0    0  501 -0.00000000000E+00 -0.00000000000E+00 -0.12363808018E+03  0.12363808018E+03  0.00000000000E+00 0.  1.
         23    2    1    2    0    0  0.32777862872E+02 -0.20417437420E+02 -0.45458545817E+02  0.13849652540E+03  0.12499419233E+03 0.  0.
         23    2    1    2    0    0 -0.32777862872E+02  0.20417437420E+02  0.47963134169E+02  0.11128422331E+03  0.92695501906E+02 0.  0.
          5    1    3    3  502    0 -0.46493528786E+02 -0.21407733244E+02 -0.18516646399E+02  0.54634196759E+02  0.47000000000E+01 0. -1.
         -5    1    3    3    0  502  0.79271391658E+02  0.99029582414E+00 -0.26941899418E+02  0.83862328643E+02  0.47000000000E+01 0. -1.
        -11    1    4    4    0    0 -0.32972587994E+02  0.47835260056E+02  0.57992874110E+02  0.82088836703E+02  0.00000000000E+00 0. -1.
         11    1    4    4    0    0  0.19472512246E+00 -0.27417822637E+02 -0.10029739940E+02  0.29195386609E+02  0.00000000000E+00 0.  1.
<mgrwt>
<rscale>  0 0.12245234E+03</rscale>
<asrwt>0</asrwt>
<pdfrwt beam="1">  1        1 0.19406564E-01 0.13082358E+03</pdfrwt>
<pdfrwt beam="2">  1       -1 0.19021243E-01 0.13082358E+03</pdfrwt>
<totfact> 0.55255591E+03</totfact>
</mgrwt>
</event>
<event>
 8    1  0.1033707E-005  0.2718859E+03  0.7546771E-02  0.1102215E+00
         -1   -1    0    0    0  501 -0.00000000000E+00  0.00000000000E+00  0.29733924019E+03  0.29733924019E+03  0.00000000000E+00 0.  1.
          1   -1    0    0  501    0  0.00000000000E+00 -0.00000000000E+00 -0.23628132685E+03  0.23628132685E+03  0.00000000000E+00 0. -1.
         23    2    1    2    0    0 -0.11032921832E+03  0.21476383719E+03  0.37240296023E+02  0.27442448375E+03  0.12500366177E+03 0.  0.
         23    2    1    2    0    0  0.11032921832E+03 -0.21476383719E+03  0.23817617325E+02  0.25919608329E+03  0.91210133855E+02 0.  0.
          5    1    3    3  502    0 -0.14905777644E+02  0.87956245290E+02  0.68540992831E+02  0.11259858343E+03  0.47000000000E+01 0.  1.
         -5    1    3    3    0  502 -0.95423440673E+02  0.12680759190E+03 -0.31300696807E+02  0.16182590032E+03  0.47000000000E+01 0.  1.
        -11    1    4    4    0    0  0.89359315355E+02 -0.13990517908E+03  0.55798950768E+02  0.17513443203E+03  0.00000000000E+00 0.  1.
         11    1    4    4    0    0  0.20969902962E+02 -0.74858658111E+02 -0.31981333443E+02  0.84061651263E+02  0.00000000000E+00 0. -1.
<mgrwt>
<rscale>  0 0.26837176E+03</rscale>
<asrwt>0</asrwt>
<pdfrwt beam="2">  1        1 0.36350973E-01 0.27188593E+03</pdfrwt>
<pdfrwt beam="1">  1       -1 0.45744499E-01 0.27188593E+03</pdfrwt>
<totfact> 0.57653843E+02</totfact>
</mgrwt>
</event>
<event>
 8    1  0.1033707E-005  0.1821296E+03  0.7546771E-02  0.1171382E+00
          2   -1    0    0  501    0  0.00000000000E+00  0.00000000000E+00  0.37443174042E+02  0.37443174042E+02  0.00000000000E+00 0. -1.
         -2   -1    0    0    0  501 -0.00000000000E+00 -0.00000000000E+00 -0.89547091753E+03  0.89547091753E+03  0.00000000000E+00 0.  1.
         23    2    1    2    0    0  0.12304998423E+03  0.49021810997E+02 -0.61891913444E+03  0.64516050922E+03  0.12500700426E+03 0.  0.
         23    2    1    2    0    0 -0.12304998423E+03 -0.49021810997E+02 -0.23910860906E+03  0.28775358236E+03  0.89915297147E+02 0.  0.
          5    1    3    3  502    0  0.78080397077E+02  0.84271991407E+02 -0.30302165868E+03  0.32410265746E+03  0.47000000000E+01 0.  1.
         -5    1    3    3    0  502  0.44969587155E+02 -0.35250180411E+02 -0.31589747575E+03  0.32105785176E+03  0.47000000000E+01 0.  1.
        -11    1    4    4    0    0 -0.10152948505E+03 -0.12554449903E+02 -0.21717951402E+03  0.24006830665E+03  0.00000000000E+00 0.  1.
         11    1    4    4    0    0 -0.21520499184E+02 -0.36467361094E+02 -0.21929095035E+02  0.47685275708E+02  0.00000000000E+00 0. -1.
<mgrwt>
<rscale>  0 0.17635073E+03</rscale>
<asrwt>0</asrwt>
<pdfrwt beam="1">  1        2 0.57604886E-02 0.18212959E+03</pdfrwt>
<pdfrwt beam="2">  1       -2 0.13776475E+00 0.18212959E+03</pdfrwt>
<totfact> 0.50864209E+02</totfact>
</mgrwt>
</event>
<event>
 8    1  0.1033707E-005  0.2047588E+03  0.7546771E-02  0.1149268E+00
          1   -1    0    0  501    0  0.00000000000E+00  0.00000000000E+00  0.55316790668E+03  0.55316790668E+03  0.00000000000E+00 0. -1.
         -1   -1    0    0    0  501 -0.00000000000E+00 -0.00000000000E+00 -0.70310425667E+02  0.70310425667E+02  0.00000000000E+00 0.  1.
         23    2    1    2    0    0 -0.17675946984E+02 -0.16121102806E+03  0.22711295793E+03  0.30578827249E+03  0.12499894904E+03 0.  0.
         23    2    1    2    0    0  0.17675946984E+02  0.16121102806E+03  0.25574452308E+03  0.31769005985E+03  0.96022280619E+02 0.  0.
          5    1    3    3  502    0  0.13734648679E+02 -0.14805343868E+03  0.11358283416E+03  0.18716733554E+03  0.47000000000E+01 0. -1.
         -5    1    3    3    0  502 -0.31410595663E+02 -0.13157589386E+02  0.11353012378E+03  0.11862093695E+03  0.47000000000E+01 0. -1.
        -11    1    4    4    0    0  0.15452737040E+02  0.68078083225E+02  0.19334885431E+03  0.20556554176E+03  0.00000000000E+00 0. -1.
         11    1    4    4    0    0  0.22232099442E+01  0.93132944837E+02  0.62395668773E+02  0.11212451810E+03  0.00000000000E+00 0.  1.
<mgrwt>
<rscale>  0 0.20055971E+03</rscale>
<asrwt>0</asrwt>
<pdfrwt beam="1">  1        1 0.85102752E-01 0.20475881E+03</pdfrwt>
<pdfrwt beam="2">  1       -1 0.10816989E-01 0.20475881E+03</pdfrwt>
<totfact> 0.21071152E+03</totfact>
</mgrwt>
</event>
<event>
 8    1  0.1033707E-005  0.1291545E+03  0.7546771E-02  0.1243713E+00
         -1   -1    0    0    0  501 -0.00000000000E+00  0.00000000000E+00  0.44124552848E+03  0.44124552848E+03  0.00000000000E+00 0.  1.
          1   -1    0    0  501    0  0.00000000000E+00 -0.00000000000E+00 -0.31224040210E+02  0.31224040210E+02  0.00000000000E+00 0. -1.
         23    2    1    2    0    0  0.28159792297E+02  0.16191172177E+02  0.30269939631E+03  0.32910150842E+03  0.12500300141E+03 0.  0.
         23    2    1    2    0    0 -0.28159792297E+02 -0.16191172177E+02  0.10732209196E+03  0.14336806027E+03  0.89337793366E+02 0.  0.
          5    1    3    3  502    0 -0.48990490932E+02  0.14351778607E+01  0.95114933087E+02  0.10710307387E+03  0.47000000000E+01 0. -1.
         -5    1    3    3    0  502  0.77150283229E+02  0.14755994316E+02  0.20758446322E+03  0.22199843455E+03  0.47000000000E+01 0. -1.
        -11    1    4    4    0    0 -0.49070580638E+02  0.19485606721E+02  0.50243559481E+02  0.72883647156E+02  0.00000000000E+00 0. -1.
         11    1    4    4    0    0  0.20910788341E+02 -0.35676778898E+02  0.57078532483E+02  0.70484413114E+02  0.00000000000E+00 0.  1.
<mgrwt>
<rscale>  0 0.11962759E+03</rscale>
<asrwt>0</asrwt>
<pdfrwt beam="2">  1        1 0.48036988E-02 0.12915447E+03</pdfrwt>
<pdfrwt beam="1">  1       -1 0.67883923E-01 0.12915447E+03</pdfrwt>
<totfact> 0.38373922E+03</totfact>
</mgrwt>
</event>
<event>
 8    1  0.1033707E-005  0.1464490E+03  0.7546771E-02  0.1214208E+00
          2   -1    0    0  501    0  0.00000000000E+00  0.00000000000E+00  0.15900985237E+03  0.15900985237E+03  0.00000000000E+00 0. -1.
         -2   -1    0    0    0  501 -0.00000000000E+00 -0.00000000000E+00 -0.20523866968E+03  0.20523866968E+03  0.00000000000E+00 0.  1.
         23    2    1    2    0    0 -0.65844005684E+02 -0.38554569494E+02 -0.14700935081E+03  0.20750675754E+03  0.12500166913E+03 0.  0.
         23    2    1    2    0    0  0.65844005684E+02  0.38554569494E+02  0.10078053350E+03  0.15674176452E+03  0.92678891332E+02 0.  0.
          5    1    3    3  502    0  0.25781764309E+02 -0.19266691338E+02  0.72603844363E+00  0.32534933499E+02  0.47000000000E+01 0. -1.
         -5    1    3    3    0  502 -0.91625769993E+02 -0.19287878156E+02 -0.14773538925E+03  0.17497182404E+03  0.47000000000E+01 0. -1.
        -11    1    4    4    0    0  0.31206391050E+02  0.37350463521E+02  0.11050172436E+03  0.12074571236E+03  0.00000000000E+00 0. -1.
         11    1    4    4    0    0  0.34637614635E+02  0.12041059726E+01 -0.97211908644E+01  0.35996052153E+02  0.00000000000E+00 0.  1.
<mgrwt>
<rscale>  0 0.13934858E+03</rscale>
<asrwt>0</asrwt>
<pdfrwt beam="1">  1        2 0.24463054E-01 0.14644898E+03</pdfrwt>
<pdfrwt beam="2">  1       -2 0.31575180E-01 0.14644898E+03</pdfrwt>
<totfact> 0.20015687E+03</totfact>
</mgrwt>
</event>
<event>
 8    1  0.1033707E-005  0.1273726E+03  0.7546771E-02  0.1246739E+00
         -4   -1    0    0    0  501 -0.00000000000E+00  0.00000000000E+00  0.42972148680E+02  0.42972148680E+02  0.00000000000E+00 0.  1.
          4   -1    0    0  501    0  0.00000000000E+00 -0.00000000000E+00 -0.29346083746E+03  0.29346083746E+03  0.00000000000E+00 0. -1.
         23    2    1    2    0    0 -0.24543509773E+02 -0.71674323613E+00 -0.11279809367E+03  0.17013875282E+03  0.12498354965E+03 0.  0.
         23    2    1    2    0    0  0.24543509773E+02  0.71674323613E+00 -0.13769059511E+03  0.16629423332E+03  0.89956514280E+02 0.  0.
          5    1    3    3  502    0  0.38545491170E+02  0.94978120686E+01  0.49351580368E+00  0.39978705350E+02  0.47000000000E+01 0.  1.
         -5    1    3    3    0  502 -0.63089000943E+02 -0.10214555305E+02 -0.11329160948E+03  0.13016004747E+03  0.47000000000E+01 0.  1.
        -11    1    4    4    0    0  0.47516829661E+02  0.55756332183E+01 -0.13430238291E+03  0.14256951582E+03  0.00000000000E+00 0. -1.
         11    1    4    4    0    0 -0.22973319888E+02 -0.48588899822E+01 -0.33882122032E+01  0.23724717501E+02  0.00000000000E+00 0.  1.
<mgrwt>
<rscale>  0 0.11781924E+03</rscale>
<asrwt>0</asrwt>
<pdfrwt beam="2">  1        4 0.45147823E-01 0.12737262E+03</pdfrwt>
<pdfrwt beam="1">  1       -4 0.66110996E-02 0.12737262E+03</pdfrwt>
<totfact> 0.11766797E+03</totfact>
</mgrwt>
</event>
<event>
 8    1  0.1033707E-005  0.3073032E+03  0.7546771E-02  0.1082954E+00
          2   -1    0    0  501    0  0.00000000000E+00  0.00000000000E+00  0.13576040565E+04  0.13576040565E+04  0.00000000000E+00 0.  1.
         -2   -1    0    0    0  501 -0.00000000000E+00 -0.00000000000E+00 -0.87349255443E+02  0.87349255443E+02  0.00000000000E+00 0. -1.
         23    2    1    2    0    0 -0.24908738160E+03  0.12949410760E+03  0.29659218354E+03  0.42708568039E+03  0.12498802935E+03 0.  0.
         23    2    1    2    0    0  0.24908738160E+03 -0.12949410760E+03  0.97366261753E+03  0.10178676316E+04  0.96033197599E+02 0.  0.
          5    1    3    3  502    0 -0.22368196143E+03  0.91062326229E+02  0.29427663221E+03  0.38071878518E+03  0.47000000000E+01 0. -1.
         -5    1    3    3    0  502 -0.25405420173E+02  0.38431781369E+02  0.23155513350E+01  0.46366895209E+02  0.47000000000E+01 0. -1.
        -11    1    4    4    0    0  0.66867918075E+01 -0.34572232761E+02  0.14837029548E+03  0.15249162942E+03  0.00000000000E+00 0.  1.
         11    1    4    4    0    0  0.24240058979E+03 -0.94921874837E+02  0.82529232205E+03  0.86537600214E+03  0.00000000000E+00 0. -1.
<mgrwt>
<rscale>  0 0.30461944E+03</rscale>
<asrwt>0</asrwt>
<pdfrwt beam="1">  1        2 0.20886215E+00 0.30730320E+03</pdfrwt>
<pdfrwt beam="2">  1       -2 0.13438348E-01 0.30730320E+03</pdfrwt>
<totfact> 0.66960746E+02</totfact>
</mgrwt>
</event>
<event>
 8    1  0.1033707E-005  0.1459073E+03  0.7546771E-02  0.1211763E+00
          2   -1    0    0  501    0  0.00000000000E+00  0.00000000000E+00  0.50768307658E+03  0.50768307658E+03  0.00000000000E+00 0. -1.
         -2   -1    0    0    0  501 -0.00000000000E+00 -0.00000000000E+00 -0.37000560103E+02  0.37000560103E+02  0.00000000000E+00 0.  1.
         23    2    1    2    0    0  0.77778194082E+02 -0.39390251131E+02  0.26441623776E+03  0.30200148916E+03  0.11699535592E+03 0.  0.
         23    2    1    2    0    0 -0.77778194082E+02  0.39390251131E+02  0.20626627872E+03  0.24268214752E+03  0.93529715228E+02 0.  0.
          5    1    3    3  502    0  0.86457409149E+02 -0.32983469102E+02  0.96887320133E+02  0.13405982110E+03  0.47000000000E+01 0. -1.
         -5    1    3    3    0  502 -0.86792150665E+01 -0.64067820286E+01  0.16752891763E+03  0.16794166806E+03  0.47000000000E+01 0.  1.
        -11    1    4    4    0    0 -0.18794069537E+02  0.61095806693E+02  0.88176592377E+02  0.10890833801E+03  0.00000000000E+00 0.  1.
         11    1    4    4    0    0 -0.58984124546E+02 -0.21705555562E+02  0.11808968634E+03  0.13377380951E+03  0.00000000000E+00 0. -1.
<mgrwt>
<rscale>  0 0.14117043E+03</rscale>
<asrwt>0</asrwt>
<pdfrwt beam="1">  1        2 0.78105084E-01 0.14590734E+03</pdfrwt>
<pdfrwt beam="2">  1       -2 0.56923942E-02 0.14590734E+03</pdfrwt>
<totfact> 0.94086163E+03</totfact>
</mgrwt>
</event>
<event>
 8    1  0.1198805E-005  0.1319240E+03  0.7546771E-02  0.1237405E+00
         -2   -1    0    0    0  501 -0.00000000000E+00  0.00000000000E+00  0.51982116853E+03  0.51982116853E+03  0.00000000000E+00 0. -1.
          2   -1    0    0  501    0  0.00000000000E+00 -0.00000000000E+00 -0.29353700300E+02  0.29353700300E+02  0.00000000000E+00 0.  1.
         23    2    1    2    0    0  0.37274502009E+02  0.19739244511E+02  0.36350686907E+03  0.38670554195E+03  0.12499962417E+03 0.  0.
         23    2    1    2    0    0 -0.37274502009E+02 -0.19739244511E+02  0.12696059916E+03  0.16246932688E+03  0.92186019346E+02 0.  0.
          5    1    3    3  502    0 -0.21814624203E+02  0.36465414864E+02  0.27832784683E+03  0.28159205356E+03  0.47000000000E+01 0.  1.
         -5    1    3    3    0  502  0.59089126212E+02 -0.16726170354E+02  0.85179022241E+02  0.10511348839E+03  0.47000000000E+01 0.  1.
        -11    1    4    4    0    0 -0.30892689756E+02  0.21074344536E+02  0.11274030220E+03  0.11878073083E+03  0.00000000000E+00 0. -1.
         11    1    4    4    0    0 -0.63818122527E+01 -0.40813589046E+02  0.14220296963E+02  0.43688596043E+02  0.00000000000E+00 0.  1.
<mgrwt>
<rscale>  0 0.12351724E+03</rscale>
<asrwt>0</asrwt>
<pdfrwt beam="2">  1        2 0.45159543E-02 0.13192396E+03</pdfrwt>
<pdfrwt beam="1">  1       -2 0.79972481E-01 0.13192396E+03</pdfrwt>
<totfact> 0.24543156E+03</totfact>
</mgrwt>
</event>
<event>
 8    1  0.1033707E-005  0.1262016E+03  0.7546771E-02  0.1247428E+00
         -1   -1    0    0    0  501 -0.00000000000E+00  0.00000000000E+00  0.15484375340E+03  0.15484375340E+03  0.00000000000E+00 0.  1.
          1   -1    0    0  501    0  0.00000000000E+00 -0.00000000000E+00 -0.81156200781E+02  0.81156200781E+02  0.00000000000E+00 0. -1.
         23    2    1    2    0    0  0.41340867351E+01 -0.16867721350E+02  0.62376851437E+02  0.14077539702E+03  0.12500092045E+03 0.  0.
         23    2    1    2    0    0 -0.41340867351E+01  0.16867721350E+02  0.11310701186E+02  0.95224557169E+02  0.92941775484E+02 0.  0.
          5    1    3    3  502    0 -0.52155573595E+02  0.19965530588E+02  0.13948301787E+02  0.57753540076E+02  0.47000000000E+01 0. -1.
         -5    1    3    3    0  502  0.56289660330E+02 -0.36833251938E+02  0.48428549650E+02  0.83021856939E+02  0.47000000000E+01 0. -1.
        -11    1    4    4    0    0  0.70130406958E+01 -0.33234308060E+02 -0.15478731186E+02  0.37326841430E+02  0.00000000000E+00 0.  1.
         11    1    4    4    0    0 -0.11147127431E+02  0.50102029410E+02  0.26789432372E+02  0.57897715739E+02  0.00000000000E+00 0. -1.
<mgrwt>
<rscale>  0 0.11741254E+03</rscale>
<asrwt>0</asrwt>
<pdfrwt beam="2">  1        1 0.12485569E-01 0.12620159E+03</pdfrwt>
<pdfrwt beam="1">  1       -1 0.23822116E-01 0.12620159E+03</pdfrwt>
<totfact> 0.67689358E+03</totfact>
</mgrwt>
</event>
<event>
 8    1  0.1033707E-005  0.2516009E+03  0.7546771E-02  0.1114727E+00
         -1   -1    0    0    0  501 -0.00000000000E+00  0.00000000000E+00  0.48331864719E+02  0.48331864719E+02  0.00000000000E+00 0.  1.
          1   -1    0    0  501    0  0.00000000000E+00 -0.00000000000E+00 -0.12922359128E+04  0.12922359128E+04  0.00000000000E+00 0. -1.
         23    2    1    2    0    0  0.12433794709E+03 -0.17949517760E+03 -0.49651840557E+03  0.55662693389E+03  0.12499829037E+03 0.  0.
         23    2    1    2    0    0 -0.12433794709E+03  0.17949517760E+03 -0.74738564255E+03  0.78394084367E+03  0.91101612556E+02 0.  0.
          5    1    3    3  502    0  0.13926886634E+03 -0.18778232911E+03 -0.45858656190E+03  0.51476377593E+03  0.47000000000E+01 0. -1.
         -5    1    3    3    0  502 -0.14930919255E+02  0.82871515096E+01 -0.37931843671E+02  0.41863157958E+02  0.47000000000E+01 0. -1.
        -11    1    4    4    0    0 -0.79493475321E+02  0.17363875864E+03 -0.58552806760E+03  0.61588371392E+03  0.00000000000E+00 0. -1.
         11    1    4    4    0    0 -0.44844471768E+02  0.58564189636E+01 -0.16185757495E+03  0.16805712975E+03  0.00000000000E+00 0.  1.
<mgrwt>
<rscale>  0 0.24776290E+03</rscale>
<asrwt>0</asrwt>
<pdfrwt beam="2">  1        1 0.19880552E+00 0.25160091E+03</pdfrwt>
<pdfrwt beam="1">  1       -1 0.74356718E-02 0.25160091E+03</pdfrwt>
<totfact> 0.95392639E+02</totfact>
</mgrwt>
</event>
<event>
 8    1  0.1033707E-005  0.1707600E+03  0.7546771E-02  0.1183582E+00
          2   -1    0    0  501    0  0.00000000000E+00  0.00000000000E+00  0.16913006505E+03  0.16913006505E+03  0.00000000000E+00 0. -1.
         -2   -1    0    0    0  501 -0.00000000000E+00 -0.00000000000E+00 -0.15522930454E+03  0.15522930454E+03  0.00000000000E+00 0.  1.
         23    2    1    2    0    0 -0.38105755921E+01  0.11626831735E+03 -0.23085120150E+02  0.17231340683E+03  0.12500458109E+03 0.  0.
         23    2    1    2    0    0  0.38105755921E+01 -0.11626831735E+03  0.36985880658E+02  0.15204596276E+03  0.90648647635E+02 0.  0.
          5    1    3    3  502    0  0.10969815401E+02  0.10976120733E+03  0.31810175013E+02  0.11489924595E+03  0.47000000000E+01 0. -1.
         -5    1    3    3    0  502 -0.14780390993E+02  0.65071100218E+01 -0.54895295163E+02  0.57414160882E+02  0.47000000000E+01 0. -1.
        -11    1    4    4    0    0  0.14771394545E+02 -0.51649051547E+02  0.61871419455E+02  0.81938337595E+02  0.00000000000E+00 0. -1.
         11    1    4    4    0    0 -0.10960818952E+02 -0.64619265806E+02 -0.24885538797E+02  0.70107625168E+02  0.00000000000E+00 0.  1.
<mgrwt>
<rscale>  0 0.16461603E+03</rscale>
<asrwt>0</asrwt>
<pdfrwt beam="1">  1        2 0.26020010E-01 0.17076003E+03</pdfrwt>
<pdfrwt beam="2">  1       -2 0.23881432E-01 0.17076003E+03</pdfrwt>
<totfact> 0.30927697E+03</totfact>
</mgrwt>
</event>
<event>
 8    1  0.1033707E-005  0.1663620E+03  0.7546771E-02  0.1186370E+00
         -2   -1    0    0    0  501 -0.00000000000E+00  0.00000000000E+00  0.12102135808E+03  0.12102135808E+03  0.00000000000E+00 0.  1.
          2   -1    0    0  501    0  0.00000000000E+00 -0.00000000000E+00 -0.20671643603E+03  0.20671643603E+03  0.00000000000E+00 0. -1.
         23    2    1    2    0    0  0.91735729000E+02 -0.60294459572E+02 -0.41056649513E+02  0.17135328401E+03  0.12500173456E+03 0.  0.
         23    2    1    2    0    0 -0.91735729000E+02  0.60294459572E+02 -0.44638428432E+02  0.15638451010E+03  0.10204244154E+03 0.  0.
          5    1    3    3  502    0  0.13568933049E+02 -0.53986397965E+01  0.41983627695E+02  0.44698727612E+02  0.47000000000E+01 0. -1.
         -5    1    3    3    0  502  0.78166795951E+02 -0.54895819775E+02 -0.83040277208E+02  0.12665455640E+03  0.47000000000E+01 0. -1.
        -11    1    4    4    0    0 -0.28436480657E+02  0.56016043916E+02  0.19887182190E+02  0.65893327611E+02  0.00000000000E+00 0.  1.
         11    1    4    4    0    0 -0.63299248343E+02  0.42784156555E+01 -0.64525610622E+02  0.90491182485E+02  0.00000000000E+00 0. -1.
<mgrwt>
<rscale>  0 0.16207844E+03</rscale>
<asrwt>0</asrwt>
<pdfrwt beam="2">  1        2 0.31802529E-01 0.16636195E+03</pdfrwt>
<pdfrwt beam="1">  1       -2 0.18618670E-01 0.16636195E+03</pdfrwt>
<totfact> 0.37984210E+03</totfact>
</mgrwt>
</event>
<event>
 8    1  0.1033707E-005  0.1476910E+03  0.7546771E-02  0.1212097E+00
         -2   -1    0    0    0  501 -0.00000000000E+00  0.00000000000E+00  0.19865519929E+03  0.19865519929E+03  0.00000000000E+00 0. -1.
          2   -1    0    0  501    0  0.00000000000E+00 -0.00000000000E+00 -0.93559395340E+02  0.93559395340E+02  0.00000000000E+00 0.  1.
         23    2    1    2    0    0 -0.44132959012E+02 -0.65126159984E+02  0.77261762629E+02  0.16667937710E+03  0.12499399985E+03 0.  0.
         23    2    1    2    0    0  0.44132959012E+02  0.65126159984E+02  0.27834041325E+02  0.12553521754E+03  0.93782845982E+02 0.  0.
          5    1    3    3  502    0 -0.39864007255E+02 -0.77872992108E+02  0.10424391028E+03  0.13616983809E+03  0.47000000000E+01 0. -1.
         -5    1    3    3    0  502 -0.42689517569E+01  0.12746832124E+02 -0.26982147655E+02  0.30509539006E+02  0.47000000000E+01 0. -1.
        -11    1    4    4    0    0 -0.13145623176E+02  0.52609278608E+02 -0.10838549086E+02  0.55299346747E+02  0.00000000000E+00 0.  1.
         11    1    4    4    0    0  0.57278582188E+02  0.12516881376E+02  0.38672590411E+02  0.70235870792E+02  0.00000000000E+00 0. -1.
<mgrwt>
<rscale>  0 0.14091925E+03</rscale>
<asrwt>0</asrwt>
<pdfrwt beam="2">  1        2 0.14393753E-01 0.14769101E+03</pdfrwt>
<pdfrwt beam="1">  1       -2 0.30562338E-01 0.14769101E+03</pdfrwt>
<totfact> 0.38939222E+03</totfact>
</mgrwt>
</event>
<event>
 8    1  0.1033707E-005  0.1377141E+03  0.7546771E-02  0.1227336E+00
          2   -1    0    0  501    0  0.00000000000E+00  0.00000000000E+00  0.26965337863E+03  0.26965337863E+03  0.00000000000E+00 0. -1.
         -2   -1    0    0    0  501 -0.00000000000E+00 -0.00000000000E+00 -0.58964536406E+02  0.58964536406E+02  0.00000000000E+00 0.  1.
         23    2    1    2    0    0  0.23847889556E+02  0.52647128704E+02  0.84981779489E+02  0.16182418170E+03  0.12499888376E+03 0.  0.
         23    2    1    2    0    0 -0.23847889556E+02 -0.52647128704E+02  0.12570706274E+03  0.16679373334E+03  0.93152787726E+02 0.  0.
          5    1    3    3  502    0  0.45968013191E+02  0.71452152910E+02  0.15658930658E+02  0.86520289537E+02  0.47000000000E+01 0.  1.
         -5    1    3    3    0  502 -0.22120123635E+02 -0.18805024207E+02  0.69322848831E+02  0.75303892165E+02  0.47000000000E+01 0.  1.
        -11    1    4    4    0    0  0.30611579777E+02 -0.14168187830E+02  0.13632147767E+02  0.36381888566E+02  0.00000000000E+00 0. -1.
         11    1    4    4    0    0 -0.54459469334E+02 -0.38478940873E+02  0.11207491497E+03  0.13041184477E+03  0.00000000000E+00 0.  1.
<mgrwt>
<rscale>  0 0.13008051E+03</rscale>
<asrwt>0</asrwt>
<pdfrwt beam="1">  1        2 0.41485135E-01 0.13771406E+03</pdfrwt>
<pdfrwt beam="2">  1       -2 0.90714673E-02 0.13771406E+03</pdfrwt>
<totfact> 0.90251852E+03</totfact>
</mgrwt>
</event>
<event>
 8    1  0.1033707E-005  0.1298887E+03  0.7546771E-02  0.1235767E+00
          1   -1    0    0  501    0  0.00000000000E+00  0.00000000000E+00  0.61747170538E+03  0.61747170538E+03  0.00000000000E+00 0. -1.
         -1   -1    0    0    0  501 -0.00000000000E+00 -0.00000000000E+00 -0.23271716516E+02  0.23271716516E+02  0.00000000000E+00 0.  1.
         23    2    1    2    0    0 -0.50674056457E+02 -0.20994284769E+02  0.32669322735E+03  0.35156724422E+03  0.11773887387E+03 0.  0.
         23    2    1    2    0    0  0.50674056457E+02  0.20994284769E+02  0.26750676151E+03  0.28917617767E+03  0.95154475932E+02 0.  0.
          5    1    3    3  502    0 -0.48720847765E+01  0.25989395208E+02  0.10881861344E+02  0.28977418444E+02  0.47000000000E+01 0. -1.
         -5    1    3    3    0  502 -0.45801971680E+02 -0.46983679977E+02  0.31581136601E+03  0.32258982577E+03  0.47000000000E+01 0.  1.
        -11    1    4    4    0    0 -0.45087367291E+01 -0.26189887839E+02  0.26737562369E+02  0.37697959803E+02  0.00000000000E+00 0.  1.
         11    1    4    4    0    0  0.55182793186E+02  0.47184172608E+02  0.24076919914E+03  0.25147821787E+03  0.00000000000E+00 0. -1.
<mgrwt>
<rscale>  0 0.12455475E+03</rscale>
<asrwt>0</asrwt>
<pdfrwt beam="1">  1        1 0.94995635E-01 0.12988865E+03</pdfrwt>
<pdfrwt beam="2">  1       -1 0.35802645E-02 0.12988865E+03</pdfrwt>
<totfact> 0.93496914E+03</totfact>
</mgrwt>
</event>
<event>
 7    1  0.1033707E-005  0.1738411E+03  0.7546771E-02  0.1187115E+00
         -2   -1    0    0    0  501 -0.00000000000E+00  0.00000000000E+00  0.10971364326E+03  0.10971364326E+03  0.00000000000E+00 0.  1.
          2   -1    0    0  501    0  0.00000000000E+00 -0.00000000000E+00 -0.24065764207E+03  0.24065764207E+03  0.00000000000E+00 0. -1.
         23    2    1    2    0    0  0.38405587879E+02 -0.85083737472E+02 -0.11976626397E+03  0.17617122794E+03  0.89320277684E+02 0.  0.
          5    1    1    2  502    0  0.31178791191E+02  0.82297521846E+02 -0.42324506007E+02  0.97767340820E+02  0.47000000000E+01 0. -1.
         -5    1    1    2    0  502 -0.69584379070E+02  0.27862156257E+01  0.31146771173E+02  0.76432716572E+02  0.47000000000E+01 0.  1.
        -11    1    3    3    0    0  0.27977296977E+02  0.72874959739E+01 -0.64805988593E+01  0.29628278811E+02  0.00000000000E+00 0.  1.
         11    1    3    3    0    0  0.10428290902E+02 -0.92371233446E+02 -0.11328566511E+03  0.14654294913E+03  0.00000000000E+00 0. -1.
<mgrwt>
<rscale>  0 0.16140945E+03</rscale>
<asrwt>0</asrwt>
<pdfrwt beam="2">  1        2 0.37024252E-01 0.17384107E+03</pdfrwt>
<pdfrwt beam="1">  1       -2 0.16879022E-01 0.17384107E+03</pdfrwt>
<totfact> 0.38067013E+03</totfact>
</mgrwt>
</event>
<event>
 8    1  0.1033707E-005  0.1268072E+03  0.7546771E-02  0.1246213E+00
         -1   -1    0    0    0  501 -0.00000000000E+00  0.00000000000E+00  0.38738920012E+02  0.38738920012E+02  0.00000000000E+00 0.  1.
          1   -1    0    0  501    0  0.00000000000E+00 -0.00000000000E+00 -0.32092012937E+03  0.32092012937E+03  0.00000000000E+00 0. -1.
         23    2    1    2    0    0  0.51976483767E+01 -0.20732791536E+02 -0.14686900408E+03  0.19403755369E+03  0.12499281455E+03 0.  0.
         23    2    1    2    0    0 -0.51976483767E+01  0.20732791536E+02 -0.13531220528E+03  0.16562149570E+03  0.93081806736E+02 0.  0.
          5    1    3    3  502    0 -0.28492280390E+02 -0.13724369466E+02 -0.15508649520E+03  0.15834796921E+03  0.47000000000E+01 0.  1.
         -5    1    3    3    0  502  0.33689928767E+02 -0.70084220698E+01  0.82174911177E+01  0.35689584482E+02  0.47000000000E+01 0.  1.
        -11    1    4    4    0    0  0.22512269299E+02 -0.28562547952E+02 -0.35035608491E+02  0.50498666090E+02  0.00000000000E+00 0.  1.
         11    1    4    4    0    0 -0.27709917676E+02  0.49295339488E+02 -0.10027659679E+03  0.11512282961E+03  0.00000000000E+00 0. -1.
<mgrwt>
<rscale>  0 0.11813097E+03</rscale>
<asrwt>0</asrwt>
<pdfrwt beam="2">  1        1 0.49372326E-01 0.12680721E+03</pdfrwt>
<pdfrwt beam="1">  1       -1 0.59598340E-02 0.12680721E+03</pdfrwt>
<totfact> 0.10215475E+04</totfact>
</mgrwt>
</event>
<event>
 8    1  0.1033707E-005  0.1190276E+03  0.7546771E-02  0.1259471E+00
          1   -1    0    0  501    0  0.00000000000E+00  0.00000000000E+00  0.37857718541E+02  0.37857718541E+02  0.00000000000E+00 0. -1.
         -1   -1    0    0    0  501 -0.00000000000E+00 -0.00000000000E+00 -0.70436797071E+03  0.70436797071E+03  0.00000000000E+00 0.  1.
         23    2    1    2    0    0 -0.19065149392E+00 -0.13380969249E+02 -0.63804823787E+03  0.64905556202E+03  0.11827291339E+03 0.  0.
         23    2    1    2    0    0  0.19065149392E+00  0.13380969249E+02 -0.28462014290E+02  0.93170127231E+02  0.87701195345E+02 0.  0.
          5    1    3    3  502    0 -0.29775664144E+02 -0.56500091635E+02 -0.41495815345E+03  0.41987046769E+03  0.47000000000E+01 0. -1.
         -5    1    3    3    0  502  0.29585012650E+02  0.43119122387E+02 -0.22309008443E+03  0.22918509432E+03  0.47000000000E+01 0.  1.
        -11    1    4    4    0    0  0.17852266814E+02  0.12877625499E+02 -0.56158090336E+02  0.60318055166E+02  0.00000000000E+00 0.  1.
         11    1    4    4    0    0 -0.17661615320E+02  0.50334374925E+00  0.27696076046E+02  0.32852072065E+02  0.00000000000E+00 0. -1.
<mgrwt>
<rscale>  0 0.11059529E+03</rscale>
<asrwt>0</asrwt>
<pdfrwt beam="1">  1        1 0.58242647E-02 0.11902760E+03</pdfrwt>
<pdfrwt beam="2">  1       -1 0.10836430E+00 0.11902760E+03</pdfrwt>
<totfact> 0.11053592E+03</totfact>
</mgrwt>
</event>
<event>
 8    1  0.1033707E-005  0.1898245E+03  0.7546771E-02  0.1163205E+00
          4   -1    0    0  501    0  0.00000000000E+00  0.00000000000E+00  0.37677997995E+03  0.37677997995E+03  0.00000000000E+00 0. -1.
         -4   -1    0    0    0  501 -0.00000000000E+00 -0.00000000000E+00 -0.87523789918E+02  0.87523789918E+02  0.00000000000E+00 0.  1.
         23    2    1    2    0    0 -0.97322725559E+02  0.10451691805E+03  0.12383629362E+03  0.22664682023E+03  0.12505140717E+03 0.  0.
         23    2    1    2    0    0  0.97322725559E+02 -0.10451691805E+03  0.16541989642E+03  0.23765694964E+03  0.93389423991E+02 0.  0.
          5    1    3    3  502    0 -0.16072463762E+02 -0.20397610954E+02 -0.80546747702E+01  0.27592651371E+02  0.47000000000E+01 0. -1.
         -5    1    3    3    0  502 -0.81250261796E+02  0.12491452900E+03  0.13189096839E+03  0.19905416886E+03  0.47000000000E+01 0. -1.
        -11    1    4    4    0    0  0.73156691969E+02 -0.30176193568E+02  0.12918593950E+03  0.15149756170E+03  0.00000000000E+00 0.  1.
         11    1    4    4    0    0  0.24166033590E+02 -0.74340724481E+02  0.36233956920E+02  0.86159387939E+02  0.00000000000E+00 0. -1.
<mgrwt>
<rscale>  0 0.18483437E+03</rscale>
<asrwt>0</asrwt>
<pdfrwt beam="1">  1        4 0.57966150E-01 0.18982453E+03</pdfrwt>
<pdfrwt beam="2">  1       -4 0.13465199E-01 0.18982453E+03</pdfrwt>
<totfact> 0.22918584E+02</totfact>
</mgrwt>
</event>
<event>
 8    1  0.1033707E-005  0.1415341E+03  0.7546771E-02  0.1222754E+00
         -2   -1    0    0    0  501 -0.00000000000E+00  0.00000000000E+00  0.66222846715E+02  0.66222846715E+02  0.00000000000E+00 0.  1.
          2   -1    0    0  501    0  0.00000000000E+00 -0.00000000000E+00 -0.24268388262E+03  0.24268388262E+03  0.00000000000E+00 0. -1.
         23    2    1    2    0    0 -0.55685920771E+02  0.36157284449E+02 -0.85775187613E+02  0.16549706417E+03  0.12499449767E+03 0.  0.
         23    2    1    2    0    0  0.55685920771E+02 -0.36157284449E+02 -0.90685848295E+02  0.14340966517E+03  0.89073778360E+02 0.  0.
          5    1    3    3  502    0  0.93502483262E+01 -0.70833166910E+01 -0.86334841944E+02  0.87254773236E+02  0.47000000000E+01 0.  1.
         -5    1    3    3    0  502 -0.65036169097E+02  0.43240601140E+02  0.55965433048E+00  0.78242290935E+02  0.47000000000E+01 0.  1.
        -11    1    4    4    0    0  0.13480745593E+02 -0.60130983721E+02 -0.59852326671E+02  0.85905568580E+02  0.00000000000E+00 0.  1.
         11    1    4    4    0    0  0.42205175178E+02  0.23973699272E+02 -0.30833521623E+02  0.57504096587E+02  0.00000000000E+00 0. -1.
<mgrwt>
<rscale>  0 0.13322041E+03</rscale>
<asrwt>0</asrwt>
<pdfrwt beam="2">  1        2 0.37335981E-01 0.14153408E+03</pdfrwt>
<pdfrwt beam="1">  1       -2 0.10188130E-01 0.14153408E+03</pdfrwt>
<totfact> 0.84336548E+03</totfact>
</mgrwt>
</event>
<event>
 8    1  0.1682797E-005  0.3430926E+03  0.7546771E-02  0.1066536E+00
          1   -1    0    0  501    0  0.00000000000E+00  0.00000000000E+00  0.33402269851E+03  0.33402269851E+03  0.00000000000E+00 0. -1.
         -1   -1    0    0    0  501 -0.00000000000E+00 -0.00000000000E+00 -0.36510100623E+03  0.36510100623E+03  0.00000000000E+00 0.  1.
         23    2    1    2    0    0 -0.17971449099E+03 -0.26417847448E+03 -0.10291483874E+03  0.35819545356E+03  0.12499981706E+03 0.  0.
         23    2    1    2    0    0  0.17971449099E+03  0.26417847448E+03  0.71836531019E+02  0.34092825119E+03  0.94784073669E+02 0.  0.
          5    1    3    3  502    0 -0.56347062376E+02 -0.15642209588E+03 -0.10045210274E+03  0.19430794750E+03  0.47000000000E+01 0. -1.
         -5    1    3    3    0  502 -0.12336742862E+03 -0.10775637860E+03 -0.24627360041E+01  0.16388750606E+03  0.47000000000E+01 0. -1.
        -11    1    4    4    0    0  0.33808867546E+02  0.56505721034E+01 -0.40697714673E+01  0.34518567897E+02  0.00000000000E+00 0. -1.
         11    1    4    4    0    0  0.14590562345E+03  0.25852790238E+03  0.75906302486E+02  0.30640968330E+03  0.00000000000E+00 0.  1.
<mgrwt>
<rscale>  0 0.34061115E+03</rscale>
<asrwt>0</asrwt>
<pdfrwt beam="1">  1        1 0.51388107E-01 0.34309258E+03</pdfrwt>
<pdfrwt beam="2">  1       -1 0.56169386E-01 0.34309258E+03</pdfrwt>
<totfact> 0.25257610E+02</totfact>
</mgrwt>
</event>
<event>
 8    1  0.1033707E-005  0.1464894E+03  0.7546771E-02  0.1214122E+00
          2   -1    0    0  501    0  0.00000000000E+00  0.00000000000E+00  0.12295310138E+03  0.12295310138E+03  0.00000000000E+00 0. -1.
         -2   -1    0    0    0  501 -0.00000000000E+00 -0.00000000000E+00 -0.15173868927E+03  0.15173868927E+03  0.00000000000E+00 0.  1.
         23    2    1    2    0    0  0.14482567948E+00  0.76385147159E+02 -0.45440613828E+02  0.15337530842E+03  0.12499769665E+03 0.  0.
         23    2    1    2    0    0 -0.14482567948E+00 -0.76385147159E+02  0.16655025944E+02  0.12131648222E+03  0.92766304708E+02 0.  0.
          5    1    3    3  502    0 -0.58412902404E+02  0.15740620982E+02 -0.87159107040E+01  0.61301642845E+02  0.47000000000E+01 0.  1.
         -5    1    3    3    0  502  0.58557728083E+02  0.60644526177E+02 -0.36724703124E+02  0.92073665578E+02  0.47000000000E+01 0.  1.
        -11    1    4    4    0    0  0.35035599980E+02 -0.15738672148E+02 -0.18785693973E+02  0.42756302050E+02  0.00000000000E+00 0.  1.
         11    1    4    4    0    0 -0.35180425659E+02 -0.60646475010E+02  0.35440719917E+02  0.78560180174E+02  0.00000000000E+00 0. -1.
<mgrwt>
<rscale>  0 0.13941247E+03</rscale>
<asrwt>0</asrwt>
<pdfrwt beam="1">  1        2 0.18915862E-01 0.14648937E+03</pdfrwt>
<pdfrwt beam="2">  1       -2 0.23344414E-01 0.14648937E+03</pdfrwt>
<totfact> 0.45644856E+03</totfact>
</mgrwt>
</event>
<event>
 8    1  0.1033707E-005  0.1380976E+03  0.7546771E-02  0.1227504E+00
         -1   -1    0    0    0  501 -0.00000000000E+00  0.00000000000E+00  0.27673220597E+02  0.27673220597E+02  0.00000000000E+00 0.  1.
          1   -1    0    0  501    0  0.00000000000E+00 -0.00000000000E+00 -0.55636334160E+03  0.55636334160E+03  0.00000000000E+00 0. -1.
         23    2    1    2    0    0 -0.53981571738E+02 -0.23056526950E+02 -0.26166094836E+03  0.29586721284E+03  0.12500136884E+03 0.  0.
         23    2    1    2    0    0  0.53981571738E+02  0.23056526950E+02 -0.26702917264E+03  0.28816934936E+03  0.91057022497E+02 0.  0.
          5    1    3    3  502    0 -0.31376183544E+02 -0.68859989478E+02 -0.95310324121E+02  0.12178797530E+03  0.47000000000E+01 0.  1.
         -5    1    3    3    0  502 -0.22605388194E+02  0.45803462528E+02 -0.16635062424E+03  0.17407923753E+03  0.47000000000E+01 0.  1.
        -11    1    4    4    0    0  0.40935669162E+02 -0.30601248281E+02 -0.15612785438E+03  0.16428046847E+03  0.00000000000E+00 0.  1.
         11    1    4    4    0    0  0.13045902577E+02  0.53657775231E+02 -0.11090131826E+03  0.12388888089E+03  0.00000000000E+00 0. -1.
<mgrwt>
<rscale>  0 0.12996736E+03</rscale>
<asrwt>0</asrwt>
<pdfrwt beam="2">  1        1 0.85594362E-01 0.13809763E+03</pdfrwt>
<pdfrwt beam="1">  1       -1 0.42574185E-02 0.13809763E+03</pdfrwt>
<totfact> 0.83827204E+03</totfact>
</mgrwt>
</event>
<event>
 8    1  0.1033707E-005  0.1320607E+03  0.7546771E-02  0.1240219E+00
          2   -1    0    0  501    0  0.00000000000E+00  0.00000000000E+00  0.69652690628E+03  0.69652690628E+03  0.00000000000E+00 0. -1.
         -2   -1    0    0    0  501 -0.00000000000E+00 -0.00000000000E+00 -0.24769790475E+02  0.24769790475E+02  0.00000000000E+00 0.  1.
         23    2    1    2    0    0  0.22234300821E+02  0.36357852176E+02  0.19785008293E+03  0.23787536272E+03  0.12499510120E+03 0.  0.
         23    2    1    2    0    0 -0.22234300821E+02 -0.36357852176E+02  0.47390703287E+03  0.48342133404E+03  0.85393517611E+02 0.  0.
          5    1    3    3  502    0 -0.12056916363E+01  0.77128697373E+02  0.15864995847E+03  0.17647149621E+03  0.47000000000E+01 0. -1.
         -5    1    3    3    0  502  0.23439992457E+02 -0.40770845197E+02  0.39200124459E+02  0.61403866508E+02  0.47000000000E+01 0. -1.
        -11    1    4    4    0    0 -0.34850256485E+02 -0.59547930002E+02  0.34904208376E+03  0.35579611097E+03  0.00000000000E+00 0. -1.
         11    1    4    4    0    0  0.12615955664E+02  0.23190077826E+02  0.12486494911E+03  0.12762522306E+03  0.00000000000E+00 0.  1.
<mgrwt>
<rscale>  0 0.12176149E+03</rscale>
<asrwt>0</asrwt>
<pdfrwt beam="1">  1        2 0.10715797E+00 0.13206072E+03</pdfrwt>
<pdfrwt beam="2">  1       -2 0.38107375E-02 0.13206072E+03</pdfrwt>
<totfact> 0.11890662E+04</totfact>
</mgrwt>
</event>
<event>
 8    1  0.1033707E-005  0.1472441E+03  0.7546771E-02  0.1213019E+00
          2   -1    0    0  501    0  0.00000000000E+00  0.00000000000E+00  0.11482166013E+03  0.11482166013E+03  0.00000000000E+00 0.  1.
         -2   -1    0    0    0  501 -0.00000000000E+00 -0.00000000000E+00 -0.15904683700E+03  0.15904683700E+03  0.00000000000E+00 0. -1.
         23    2    1    2    0    0 -0.64621605313E+02 -0.43497213544E+02 -0.81058152928E+01  0.14746703592E+03  0.12495144250E+03 0.  0.
         23    2    1    2    0    0  0.64621605313E+02  0.43497213544E+02 -0.36119361581E+02  0.12640146121E+03  0.92761854536E+02 0.  0.
          5    1    3    3  502    0 -0.62269548268E+02 -0.25414897109E+02  0.51575530457E+02  0.84885446211E+02  0.47000000000E+01 0. -1.
         -5    1    3    3    0  502 -0.23520570448E+01 -0.18082316435E+02 -0.59681345750E+02  0.62581589709E+02  0.47000000000E+01 0. -1.
        -11    1    4    4    0    0  0.23535660456E+02  0.67120222813E+02 -0.87235875832E+01  0.71659979095E+02  0.00000000000E+00 0.  1.
         11    1    4    4    0    0  0.41085944857E+02 -0.23623009269E+02 -0.27395773997E+02  0.54741482120E+02  0.00000000000E+00 0. -1.
<mgrwt>
<rscale>  0 0.14023042E+03</rscale>
<asrwt>0</asrwt>
<pdfrwt beam="1">  1        2 0.17664871E-01 0.14724409E+03</pdfrwt>
<pdfrwt beam="2">  1       -2 0.24468744E-01 0.14724409E+03</pdfrwt>
<totfact> 0.45507173E+03</totfact>
</mgrwt>
</event>
<event>
 8    1  0.1033707E-005  0.1761502E+03  0.7546771E-02  0.1177136E+00
          4   -1    0    0  501    0  0.00000000000E+00  0.00000000000E+00  0.13778597336E+03  0.13778597336E+03  0.00000000000E+00 0. -1.
         -4   -1    0    0    0  501 -0.00000000000E+00 -0.00000000000E+00 -0.20480851584E+03  0.20480851584E+03  0.00000000000E+00 0.  1.
         23    2    1    2    0    0 -0.11284162767E+03 -0.51662689912E+02 -0.63575887888E+02  0.18727198663E+03  0.12500654779E+03 0.  0.
         23    2    1    2    0    0  0.11284162767E+03  0.51662689912E+02 -0.34466545973E+01  0.15532250257E+03  0.93332384040E+02 0.  0.
          5    1    3    3  502    0 -0.42290149949E+02 -0.30332570691E+02  0.35883821572E+02  0.63389748998E+02  0.47000000000E+01 0.  1.
         -5    1    3    3    0  502 -0.70551477725E+02 -0.21330119221E+02 -0.99459709461E+02  0.12388223763E+03  0.47000000000E+01 0.  1.
        -11    1    4    4    0    0  0.10271233760E+03  0.48616631373E+02 -0.37499606078E+02  0.11966462133E+03  0.00000000000E+00 0.  1.
         11    1    4    4    0    0  0.10129290076E+02  0.30460585389E+01  0.34052951481E+02  0.35657881242E+02  0.00000000000E+00 0. -1.
<mgrwt>
<rscale>  0 0.17068457E+03</rscale>
<asrwt>0</asrwt>
<pdfrwt beam="1">  1        4 0.21197842E-01 0.17615023E+03</pdfrwt>
<pdfrwt beam="2">  1       -4 0.31509002E-01 0.17615023E+03</pdfrwt>
<totfact> 0.34231533E+02</totfact>
</mgrwt>
</event>
<event>
 8    1  0.1033707E-005  0.2601904E+03  0.7546771E-02  0.1109282E+00
         -1   -1    0    0    0  501 -0.00000000000E+00  0.00000000000E+00  0.78590196387E+03  0.78590196387E+03  0.00000000000E+00 0.  1.
          1   -1    0    0  501    0  0.00000000000E+00 -0.00000000000E+00 -0.98927897497E+02  0.98927897497E+02  0.00000000000E+00 0. -1.
         23    2    1    2    0    0 -0.33913265708E+02  0.22565839826E+03  0.53784617243E+03  0.59747596068E+03  0.12500878408E+03 0.  0.
         23    2    1    2    0    0  0.33913265708E+02 -0.22565839826E+03  0.14912789395E+03  0.28735390069E+03  0.90891766358E+02 0.  0.
          5    1    3    3  502    0 -0.36147377318E+01  0.14892407431E+03  0.46151029558E+03  0.48497967912E+03  0.47000000000E+01 0. -1.
         -5    1    3    3    0  502 -0.30298527976E+02  0.76734323947E+02  0.76335876852E+02  0.11249628156E+03  0.47000000000E+01 0. -1.
        -11    1    4    4    0    0 -0.24375386432E+02 -0.12341123479E+03  0.95906379128E+02  0.15818510010E+03  0.00000000000E+00 0.  1.
         11    1    4    4    0    0  0.58288652140E+02 -0.10224716347E+03  0.53221514818E+02  0.12916880059E+03  0.00000000000E+00 0. -1.
<mgrwt>
<rscale>  0 0.25647077E+03</rscale>
<asrwt>0</asrwt>
<pdfrwt beam="2">  1        1 0.15219677E-01 0.26019035E+03</pdfrwt>
<pdfrwt beam="1">  1       -1 0.12090799E+00 0.26019035E+03</pdfrwt>
<totfact> 0.23831677E+02</totfact>
</mgrwt>
</event>
<event>
 8    1  0.1033707E-005  0.2068988E+03  0.7546771E-02  0.1147816E+00
         -2   -1    0    0    0  501 -0.00000000000E+00  0.00000000000E+00  0.12936687886E+03  0.12936687886E+03  0.00000000000E+00 0.  1.
          2   -1    0    0  501    0  0.00000000000E+00 -0.00000000000E+00 -0.33799050004E+03  0.33799050004E+03  0.00000000000E+00 0. -1.
         23    2    1    2    0    0  0.12150365820E+03 -0.11144280283E+03 -0.33433017889E+02  0.20958265578E+03  0.12499794262E+03 0.  0.
         23    2    1    2    0    0 -0.12150365820E+03  0.11144280283E+03 -0.17519060329E+03  0.25777472312E+03  0.92592781247E+02 0.  0.
          5    1    3    3  502    0  0.86555292322E+02 -0.94933707431E+01 -0.49881872214E+02  0.10046011095E+03  0.47000000000E+01 0.  1.
         -5    1    3    3    0  502  0.34948365879E+02 -0.10194943209E+03  0.16448854326E+02  0.10912254483E+03  0.47000000000E+01 0.  1.
        -11    1    4    4    0    0 -0.55521467333E+02 -0.34838498299E+01 -0.40420209458E+02  0.68764553930E+02  0.00000000000E+00 0.  1.
         11    1    4    4    0    0 -0.65982190867E+02  0.11492665266E+03 -0.13477039383E+03  0.18901016919E+03  0.00000000000E+00 0. -1.
<mgrwt>
<rscale>  0 0.20229597E+03</rscale>
<asrwt>0</asrwt>
<pdfrwt beam="2">  1        2 0.51998538E-01 0.20689882E+03</pdfrwt>
<pdfrwt beam="1">  1       -2 0.19902597E-01 0.20689882E+03</pdfrwt>
<totfact> 0.20162591E+03</totfact>
</mgrwt>
</event>
<event>
 8    1  0.1033707E-005  0.1572541E+03  0.7546771E-02  0.1198184E+00
          2   -1    0    0  501    0  0.00000000000E+00  0.00000000000E+00  0.23276904169E+03  0.23276904169E+03  0.00000000000E+00 0. -1.
         -2   -1    0    0    0  501 -0.00000000000E+00 -0.00000000000E+00 -0.11087264963E+03  0.11087264963E+03  0.00000000000E+00 0.  1.
         23    2    1    2    0    0 -0.59222360770E+02 -0.74810424979E+02 -0.45686179017E+01  0.15732044370E+03  0.12499984814E+03 0.  0.
         23    2    1    2    0    0  0.59222360770E+02  0.74810424979E+02  0.12646500996E+03  0.18632124762E+03  0.98073038440E+02 0.  0.
          5    1    3    3  502    0  0.62653981906E+01  0.31347700013E+02  0.15608379511E+01  0.32349029749E+02  0.47000000000E+01 0. -1.
         -5    1    3    3    0  502 -0.65487758961E+02 -0.10615812499E+03 -0.61294558528E+01  0.12497141395E+03  0.47000000000E+01 0. -1.
        -11    1    4    4    0    0  0.56347857983E+01  0.78769478044E+02  0.52231500075E+02  0.94681102034E+02  0.00000000000E+00 0. -1.
         11    1    4    4    0    0  0.53587574972E+02 -0.39590530657E+01  0.74233509889E+02  0.91640145586E+02  0.00000000000E+00 0.  1.
<mgrwt>
<rscale>  0 0.15187843E+03</rscale>
<asrwt>0</asrwt>
<pdfrwt beam="1">  1        2 0.35810622E-01 0.15725409E+03</pdfrwt>
<pdfrwt beam="2">  1       -2 0.17057331E-01 0.15725409E+03</pdfrwt>
<totfact> 0.38582752E+03</totfact>
</mgrwt>
</event>
<event>
 8    1  0.1033707E-005  0.2073219E+03  0.7546771E-02  0.1147574E+00
          3   -1    0    0  501    0  0.00000000000E+00  0.00000000000E+00  0.89071487397E+02  0.89071487397E+02  0.00000000000E+00 0. -1.
         -3   -1    0    0    0  501 -0.00000000000E+00 -0.00000000000E+00 -0.45312939699E+03  0.45312939699E+03  0.00000000000E+00 0.  1.
         23    2    1    2    0    0 -0.12455570718E+03 -0.10882662110E+03 -0.23467486603E+03  0.31313680620E+03  0.12500003598E+03 0.  0.
         23    2    1    2    0    0  0.12455570718E+03  0.10882662110E+03 -0.12938304355E+03  0.22906407819E+03  0.91504220154E+02 0.  0.
          5    1    3    3  502    0 -0.88318314816E+02 -0.57612613942E+01 -0.15237024234E+03  0.17627279318E+03  0.47000000000E+01 0. -1.
         -5    1    3    3    0  502 -0.36237392363E+02 -0.10306535971E+03 -0.82304623691E+02  0.13686401301E+03  0.47000000000E+01 0. -1.
        -11    1    4    4    0    0  0.82714294064E+02  0.22614991084E+02 -0.29594509589E+02  0.90713434849E+02  0.00000000000E+00 0. -1.
         11    1    4    4    0    0  0.41841413115E+02  0.86211630017E+02 -0.99788533966E+02  0.13835064334E+03  0.00000000000E+00 0.  1.
<mgrwt>
<rscale>  0 0.20258793E+03</rscale>
<asrwt>0</asrwt>
<pdfrwt beam="1">  1        3 0.13703306E-01 0.20732189E+03</pdfrwt>
<pdfrwt beam="2">  1       -3 0.69712214E-01 0.20732189E+03</pdfrwt>
<totfact> 0.21330879E+02</totfact>
</mgrwt>
</event>
<event>
 8    1  0.1033707E-005  0.1898628E+03  0.7546771E-02  0.1163421E+00
          1   -1    0    0  501    0  0.00000000000E+00  0.00000000000E+00  0.48912173783E+03  0.48912173783E+03  0.00000000000E+00 0. -1.
         -1   -1    0    0    0  501 -0.00000000000E+00 -0.00000000000E+00 -0.75358205699E+02  0.75358205699E+02  0.00000000000E+00 0.  1.
         23    2    1    2    0    0 -0.11837259589E+03 -0.80059753911E+02  0.11813567363E+03  0.22361557465E+03  0.12500500865E+03 0.  0.
         23    2    1    2    0    0  0.11837259589E+03  0.80059753911E+02  0.29562785850E+03  0.34086436888E+03  0.91493451106E+02 0.  0.
          5    1    3    3  502    0 -0.83627906948E+02 -0.10771868584E+03  0.11568436703E+03  0.17889076241E+03  0.47000000000E+01 0.  1.
         -5    1    3    3    0  502 -0.34744688943E+02  0.27658931934E+02  0.24513065955E+01  0.44724812235E+02  0.47000000000E+01 0.  1.
        -11    1    4    4    0    0  0.12147872333E+03  0.54591609701E+02  0.28187387085E+03  0.31175343325E+03  0.00000000000E+00 0. -1.
         11    1    4    4    0    0 -0.31061274386E+01  0.25468144210E+02  0.13753987647E+02  0.29110935632E+02  0.00000000000E+00 0.  1.
<mgrwt>
<rscale>  0 0.18460362E+03</rscale>
<asrwt>0</asrwt>
<pdfrwt beam="1">  1        1 0.75249496E-01 0.18986281E+03</pdfrwt>
<pdfrwt beam="2">  1       -1 0.11593570E-01 0.18986281E+03</pdfrwt>
<totfact> 0.22255275E+03</totfact>
</mgrwt>
</event>
<event>
 8    1  0.1033707E-005  0.1491563E+03  0.7546771E-02  0.1211211E+00
         -2   -1    0    0    0  501 -0.00000000000E+00  0.00000000000E+00  0.76935421143E+02  0.76935421143E+02  0.00000000000E+00 0.  1.
          2   -1    0    0  501    0  0.00000000000E+00 -0.00000000000E+00 -0.24204261807E+03  0.24204261807E+03  0.00000000000E+00 0. -1.
         23    2    1    2    0    0 -0.77933357934E+02 -0.23420927044E+02 -0.68847826622E+02  0.16427912197E+03  0.12500183432E+03 0.  0.
         23    2    1    2    0    0  0.77933357934E+02  0.23420927044E+02 -0.96259370307E+02  0.15469891725E+03  0.89686902739E+02 0.  0.
          5    1    3    3  502    0  0.11939250416E+02 -0.33263301020E+02  0.17015975601E+02  0.39504763269E+02  0.47000000000E+01 0. -1.
         -5    1    3    3    0  502 -0.89872608350E+02  0.98423739764E+01 -0.85863802223E+02  0.12477435870E+03  0.47000000000E+01 0. -1.
        -11    1    4    4    0    0  0.35832086105E+02 -0.14440696809E+02 -0.89741007657E+02  0.97703227041E+02  0.00000000000E+00 0. -1.
         11    1    4    4    0    0  0.42101271829E+02  0.37861623853E+02 -0.65183626501E+01  0.56995690205E+02  0.00000000000E+00 0.  1.
<mgrwt>
<rscale>  0 0.14158583E+03</rscale>
<asrwt>0</asrwt>
<pdfrwt beam="2">  1        2 0.37237325E-01 0.14915632E+03</pdfrwt>
<pdfrwt beam="1">  1       -2 0.11836219E-01 0.14915632E+03</pdfrwt>
<totfact> 0.66906983E+03</totfact>
</mgrwt>
</event>
<event>
 8    1  0.1033707E-005  0.1288381E+03  0.7546771E-02  0.1243646E+00
         -1   -1    0    0    0  501 -0.00000000000E+00  0.00000000000E+00  0.31832332864E+03  0.31832332864E+03  0.00000000000E+00 0.  1.
          1   -1    0    0  501    0  0.00000000000E+00 -0.00000000000E+00 -0.51777247474E+02  0.51777247474E+02  0.00000000000E+00 0. -1.
         23    2    1    2    0    0 -0.25909040282E+02 -0.19377671105E+01  0.23700881339E+03  0.26976368375E+03  0.12619126014E+03 0.  0.
         23    2    1    2    0    0  0.25909040282E+02  0.19377671105E+01  0.29537267778E+02  0.10033689237E+03  0.92303891966E+02 0.  0.
          5    1    3    3  502    0 -0.75679989520E+02  0.62360706218E+01  0.11773177439E+03  0.14017564015E+03  0.47000000000E+01 0. -1.
         -5    1    3    3    0  502  0.49770949238E+02 -0.81738377323E+01  0.11927703901E+03  0.12958804360E+03  0.47000000000E+01 0.  1.
        -11    1    4    4    0    0  0.56225012310E+02 -0.36066719362E+01  0.38503124105E+02  0.68240388756E+02  0.00000000000E+00 0.  1.
         11    1    4    4    0    0 -0.30315972027E+02  0.55444390467E+01 -0.89658563272E+01  0.32096503610E+02  0.00000000000E+00 0. -1.
<mgrwt>
<rscale>  0 0.11966787E+03</rscale>
<asrwt>0</asrwt>
<pdfrwt beam="2">  1        1 0.79657306E-02 0.12883814E+03</pdfrwt>
<pdfrwt beam="1">  1       -1 0.48972818E-01 0.12883814E+03</pdfrwt>
<totfact> 0.35760928E+03</totfact>
</mgrwt>
</event>
<event>
 8    1  0.1033707E-005  0.1462993E+03  0.7546771E-02  0.1214428E+00
          2   -1    0    0  501    0  0.00000000000E+00  0.00000000000E+00  0.67844662657E+02  0.67844662657E+02  0.00000000000E+00 0. -1.
         -2   -1    0    0    0  501 -0.00000000000E+00 -0.00000000000E+00 -0.27702264599E+03  0.27702264599E+03  0.00000000000E+00 0.  1.
         23    2    1    2    0    0  0.58731373400E+02  0.48243919790E+02 -0.73144376354E+02  0.16356519918E+03  0.12500649812E+03 0.  0.
         23    2    1    2    0    0 -0.58731373400E+02 -0.48243919790E+02 -0.13603360698E+03  0.18130210947E+03  0.92673958869E+02 0.  0.
          5    1    3    3  502    0  0.81403494462E+02 -0.88700345156E+01 -0.26232336595E+02  0.86112902089E+02  0.47000000000E+01 0.  1.
         -5    1    3    3    0  502 -0.22672121063E+02  0.57113954305E+02 -0.46912039759E+02  0.77452297088E+02  0.47000000000E+01 0.  1.
        -11    1    4    4    0    0 -0.42592705600E+02 -0.46852278313E+02 -0.14812331167E+03  0.16108938517E+03  0.00000000000E+00 0.  1.
         11    1    4    4    0    0 -0.16138667800E+02 -0.13916414764E+01  0.12089704688E+02  0.20212724304E+02  0.00000000000E+00 0. -1.
<mgrwt>
<rscale>  0 0.13918614E+03</rscale>
<asrwt>0</asrwt>
<pdfrwt beam="1">  1        2 0.10437641E-01 0.14629926E+03</pdfrwt>
<pdfrwt beam="2">  1       -2 0.42618868E-01 0.14629926E+03</pdfrwt>
<totfact> 0.30843851E+03</totfact>
</mgrwt>
</event>
<event>
 8    1  0.1033707E-005  0.1408371E+03  0.7546771E-02  0.1226229E+00
          2   -1    0    0  501    0  0.00000000000E+00  0.00000000000E+00  0.68454415224E+02  0.68454415224E+02  0.00000000000E+00 0. -1.
         -2   -1    0    0    0  501 -0.00000000000E+00 -0.00000000000E+00 -0.26885900561E+03  0.26885900561E+03  0.00000000000E+00 0.  1.
         23    2    1    2    0    0  0.95504073126E+01  0.64181426813E+02 -0.18313137363E+03  0.23102423331E+03  0.12499852214E+03 0.  0.
         23    2    1    2    0    0 -0.95504073126E+01 -0.64181426813E+02 -0.17273216756E+02  0.10628918753E+03  0.82392727479E+02 0.  0.
          5    1    3    3  502    0  0.40744206297E+02  0.83964889814E+01 -0.55482988989E+01  0.42231090379E+02  0.47000000000E+01 0.  1.
         -5    1    3    3    0  502 -0.31193798984E+02  0.55784937832E+02 -0.17758307473E+03  0.18879314293E+03  0.47000000000E+01 0.  1.
        -11    1    4    4    0    0  0.18826587779E+02 -0.28967891715E+02 -0.42288990195E+02  0.54607122699E+02  0.00000000000E+00 0.  1.
         11    1    4    4    0    0 -0.28376995091E+02 -0.35213535099E+02  0.25015773439E+02  0.51682064832E+02  0.00000000000E+00 0. -1.
<mgrwt>
<rscale>  0 0.13082994E+03</rscale>
<asrwt>0</asrwt>
<pdfrwt beam="1">  1        2 0.10531449E-01 0.14083713E+03</pdfrwt>
<pdfrwt beam="2">  1       -2 0.41362923E-01 0.14083713E+03</pdfrwt>
<totfact> 0.32232090E+03</totfact>
</mgrwt>
</event>
<event>
 8    1  0.1033707E-005  0.1273230E+03  0.7546771E-02  0.1246426E+00
          2   -1    0    0  501    0  0.00000000000E+00  0.00000000000E+00  0.35994826544E+03  0.35994826544E+03  0.00000000000E+00 0. -1.
         -2   -1    0    0    0  501 -0.00000000000E+00 -0.00000000000E+00 -0.70345487400E+02  0.70345487400E+02  0.00000000000E+00 0.  1.
         23    2    1    2    0    0  0.12442348467E+02  0.20766492965E+02  0.15756020124E+01  0.12733273867E+03  0.12500033820E+03 0.  0.
         23    2    1    2    0    0 -0.12442348467E+02 -0.20766492965E+02  0.28802717603E+03  0.30296101418E+03  0.90772587897E+02 0.  0.
          5    1    3    3  502    0 -0.11172172792E+02  0.54512525689E+02  0.41657061219E+02  0.69669459961E+02  0.47000000000E+01 0. -1.
         -5    1    3    3    0  502  0.23614521259E+02 -0.33746032724E+02 -0.40081459206E+02  0.57663278705E+02  0.47000000000E+01 0. -1.
        -11    1    4    4    0    0  0.41703075837E+01  0.34853246330E+02  0.12821523954E+03  0.13293339646E+03  0.00000000000E+00 0. -1.
         11    1    4    4    0    0 -0.16612656051E+02 -0.55619739296E+02  0.15981193649E+03  0.17002761771E+03  0.00000000000E+00 0.  1.
<mgrwt>
<rscale>  0 0.11800459E+03</rscale>
<asrwt>0</asrwt>
<pdfrwt beam="1">  1        2 0.55376655E-01 0.12732299E+03</pdfrwt>
<pdfrwt beam="2">  1       -2 0.10822383E-01 0.12732299E+03</pdfrwt>
<totfact> 0.50126107E+03</totfact>
</mgrwt>
</event>
<event>
 8    1  0.1033707E-005  0.1367504E+03  0.7546771E-02  0.1230206E+00
          2   -1    0    0  501    0  0.00000000000E+00  0.00000000000E+00  0.33646493412E+03  0.33646493412E+03  0.00000000000E+00 0. -1.
         -2   -1    0    0    0  501 -0.00000000000E+00 -0.00000000000E+00 -0.49773335677E+02  0.49773335677E+02  0.00000000000E+00 0.  1.
         23    2    1    2    0    0  0.34021951794E+02 -0.43795117911E+02  0.92062345003E+02  0.16485186907E+03  0.12500063124E+03 0.  0.
         23    2    1    2    0    0 -0.34021951794E+02  0.43795117911E+02  0.19462925344E+03  0.22138640073E+03  0.89754590841E+02 0.  0.
          5    1    3    3  502    0 -0.38998349584E+02 -0.48585005858E+02  0.52045216633E+02  0.81315242352E+02  0.47000000000E+01 0. -1.
         -5    1    3    3    0  502  0.73020301378E+02  0.47898879473E+01  0.40017128371E+02  0.83536626715E+02  0.47000000000E+01 0. -1.
        -11    1    4    4    0    0 -0.52173110410E+02  0.34682426232E+02  0.19066366417E+03  0.20069264305E+03  0.00000000000E+00 0. -1.
         11    1    4    4    0    0  0.18151158616E+02  0.91126916791E+01  0.39655892705E+01  0.20693757682E+02  0.00000000000E+00 0.  1.
<mgrwt>
<rscale>  0 0.12816371E+03</rscale>
<asrwt>0</asrwt>
<pdfrwt beam="1">  1        2 0.51763835E-01 0.13675037E+03</pdfrwt>
<pdfrwt beam="2">  1       -2 0.76574365E-02 0.13675037E+03</pdfrwt>
<totfact> 0.92754320E+03</totfact>
</mgrwt>
</event>
<event>
 8    1  0.1630292E-005  0.1423647E+03  0.7546771E-02  0.1219602E+00
         -1   -1    0    0    0  501 -0.00000000000E+00  0.00000000000E+00  0.62283210285E+02  0.62283210285E+02  0.00000000000E+00 0.  1.
          1   -1    0    0  501    0  0.00000000000E+00 -0.00000000000E+00 -0.26952237267E+03  0.26952237267E+03  0.00000000000E+00 0. -1.
         23    2    1    2    0    0  0.10620209801E+02  0.67305540991E+02 -0.10838363859E+03  0.17892661848E+03  0.12499958793E+03 0.  0.
         23    2    1    2    0    0 -0.10620209801E+02 -0.67305540991E+02 -0.98855523795E+02  0.15287896447E+03  0.94640046967E+02 0.  0.
          5    1    3    3  502    0 -0.26225426331E+02  0.92830658510E+02 -0.65339046948E+02  0.11660439615E+03  0.47000000000E+01 0. -1.
         -5    1    3    3    0  502  0.36845636132E+02 -0.25525117519E+02 -0.43044591645E+02  0.62322222330E+02  0.47000000000E+01 0. -1.
        -11    1    4    4    0    0 -0.22209415408E+02 -0.73503842208E+02 -0.29449499583E+02  0.82239564552E+02  0.00000000000E+00 0.  1.
         11    1    4    4    0    0  0.11589205608E+02  0.61983012163E+01 -0.69406024211E+02  0.70639399922E+02  0.00000000000E+00 0. -1.
<mgrwt>
<rscale>  0 0.13543860E+03</rscale>
<asrwt>0</asrwt>
<pdfrwt beam="2">  1        1 0.41464980E-01 0.14236475E+03</pdfrwt>
<pdfrwt beam="1">  1       -1 0.95820325E-02 0.14236475E+03</pdfrwt>
<totfact> 0.62555557E+03</totfact>
</mgrwt>
</event>
<event>
 8    1  0.1033707E-005  0.1857615E+03  0.7546771E-02  0.1167792E+00
          2   -1    0    0  501    0  0.00000000000E+00  0.00000000000E+00  0.31854342894E+03  0.31854342894E+03  0.00000000000E+00 0.  1.
         -2   -1    0    0    0  501 -0.00000000000E+00 -0.00000000000E+00 -0.99247266547E+02  0.99247266547E+02  0.00000000000E+00 0. -1.
         23    2    1    2    0    0  0.48485322548E+02  0.12875480328E+03  0.78032423936E+02  0.20148551442E+03  0.12481477263E+03 0.  0.
         23    2    1    2    0    0 -0.48485322548E+02 -0.12875480328E+03  0.14126373845E+03  0.21630518106E+03  0.88903665189E+02 0.  0.
          5    1    3    3  502    0  0.71731654032E+02  0.40535014992E+02  0.72694235383E+02  0.10997754084E+03  0.47000000000E+01 0.  1.
         -5    1    3    3    0  502 -0.23246331484E+02  0.88219788284E+02  0.53381885536E+01  0.91507973584E+02  0.47000000000E+01 0.  1.
        -11    1    4    4    0    0 -0.73453676142E+02 -0.96896141661E+02  0.91583203213E+02  0.15222282325E+03  0.00000000000E+00 0. -1.
         11    1    4    4    0    0  0.24968353594E+02 -0.31858661616E+02  0.49680535241E+02  0.64082357814E+02  0.00000000000E+00 0.  1.
<mgrwt>
<rscale>  0 0.18001118E+03</rscale>
<asrwt>0</asrwt>
<pdfrwt beam="1">  1        2 0.49006681E-01 0.18576155E+03</pdfrwt>
<pdfrwt beam="2">  1       -2 0.15268810E-01 0.18576155E+03</pdfrwt>
<totfact> 0.33386091E+03</totfact>
</mgrwt>
</event>
<event>
 8    1  0.1033707E-005  0.1836782E+03  0.7546771E-02  0.1167265E+00
         -1   -1    0    0    0  501 -0.00000000000E+00  0.00000000000E+00  0.12264085170E+03  0.12264085170E+03  0.00000000000E+00 0.  1.
          1   -1    0    0  501    0  0.00000000000E+00 -0.00000000000E+00 -0.28751480792E+03  0.28751480792E+03  0.00000000000E+00 0. -1.
         23    2    1    2    0    0  0.86996585106E+01 -0.14513785272E+03 -0.18370220592E+02  0.18459452941E+03  0.11223633517E+03 0.  0.
         23    2    1    2    0    0 -0.86996585106E+01  0.14513785272E+03 -0.14650373563E+03  0.22556113021E+03  0.90960423022E+02 0.  0.
          5    1    3    3  502    0  0.11873783177E+02 -0.16020159620E+03 -0.72589318718E+00  0.16071140305E+03  0.47000000000E+01 0. -1.
         -5    1    3    3    0  502 -0.31741246667E+01  0.15063743475E+02 -0.17644327405E+02  0.23883126354E+02  0.47000000000E+01 0.  1.
        -11    1    4    4    0    0  0.39138897352E+02  0.84412201120E+02 -0.66908308209E+02  0.11460364170E+03  0.00000000000E+00 0.  1.
         11    1    4    4    0    0 -0.47838555862E+02  0.60725651601E+02 -0.79595427418E+02  0.11095748850E+03  0.00000000000E+00 0. -1.
<mgrwt>
<rscale>  0 0.18055658E+03</rscale>
<asrwt>0</asrwt>
<pdfrwt beam="2">  1        1 0.44233047E-01 0.18367818E+03</pdfrwt>
<pdfrwt beam="1">  1       -1 0.18867824E-01 0.18367818E+03</pdfrwt>
<totfact> 0.20252793E+03</totfact>
</mgrwt>
</event>
<event>
 8    1  0.1033707E-005  0.2560386E+03  0.7546771E-02  0.1111628E+00
          1   -1    0    0  501    0  0.00000000000E+00  0.00000000000E+00  0.49908792383E+03  0.49908792383E+03  0.00000000000E+00 0. -1.
         -1   -1    0    0    0  501 -0.00000000000E+00 -0.00000000000E+00 -0.12492416992E+03  0.12492416992E+03  0.00000000000E+00 0.  1.
         23    2    1    2    0    0  0.93437521791E+02  0.20290600723E+03  0.20627286347E+03  0.32879215348E+03  0.12511741579E+03 0.  0.
         23    2    1    2    0    0 -0.93437521791E+02 -0.20290600723E+03  0.16789089044E+03  0.29521994027E+03  0.95215774911E+02 0.  0.
          5    1    3    3  502    0 -0.54410063441E+00  0.40724971100E+02  0.11129459909E+03  0.11860605846E+03  0.47000000000E+01 0. -1.
         -5    1    3    3    0  502  0.93981622425E+02  0.16218103613E+03  0.94978264386E+02  0.21018609502E+03  0.47000000000E+01 0. -1.
        -11    1    4    4    0    0 -0.59997066049E+02 -0.19371650315E+03  0.11852905191E+03  0.23489331125E+03  0.00000000000E+00 0.  1.
         11    1    4    4    0    0 -0.33440455742E+02 -0.91895040880E+01  0.49361838528E+02  0.60326629017E+02  0.00000000000E+00 0. -1.
<mgrwt>
<rscale>  0 0.25267117E+03</rscale>
<asrwt>0</asrwt>
<pdfrwt beam="1">  1        1 0.76782757E-01 0.25603864E+03</pdfrwt>
<pdfrwt beam="2">  1       -1 0.19219103E-01 0.25603864E+03</pdfrwt>
<totfact> 0.97600623E+02</totfact>
</mgrwt>
</event>
<event>
 8    1  0.1033707E-005  0.1378495E+03  0.7546771E-02  0.1228599E+00
          1   -1    0    0  501    0  0.00000000000E+00  0.00000000000E+00  0.17191080632E+02  0.17191080632E+02  0.00000000000E+00 0. -1.
         -1   -1    0    0    0  501 -0.00000000000E+00 -0.00000000000E+00 -0.87839674320E+03  0.87839674320E+03  0.00000000000E+00 0.  1.
         23    2    1    2    0    0  0.56068138311E+02 -0.15243236669E+02 -0.53321215266E+03  0.55074284765E+03  0.12500596824E+03 0.  0.
         23    2    1    2    0    0 -0.56068138311E+02  0.15243236669E+02 -0.32799350991E+03  0.34484497619E+03  0.89231847788E+02 0.  0.
          5    1    3    3  502    0 -0.20642519992E+02  0.24456755646E+02 -0.30459499087E+03  0.30630776189E+03  0.47000000000E+01 0. -1.
         -5    1    3    3    0  502  0.76710658304E+02 -0.39699992315E+02 -0.22861716179E+03  0.24443508576E+03  0.47000000000E+01 0. -1.
        -11    1    4    4    0    0 -0.56783128788E+02  0.41545237959E+02 -0.29140177207E+03  0.29977545477E+03  0.00000000000E+00 0.  1.
         11    1    4    4    0    0  0.71499047620E+00 -0.26302001290E+02 -0.36591737839E+02  0.45069521423E+02  0.00000000000E+00 0. -1.
<mgrwt>
<rscale>  0 0.12923271E+03</rscale>
<asrwt>0</asrwt>
<pdfrwt beam="1">  1        1 0.26447815E-02 0.13784950E+03</pdfrwt>
<pdfrwt beam="2">  1       -1 0.13513797E+00 0.13784950E+03</pdfrwt>
<totfact> 0.19549210E+03</totfact>
</mgrwt>
</event>
<event>
 8    1  0.1033707E-005  0.1379338E+03  0.7546771E-02  0.1228477E+00
         -1   -1    0    0    0  501 -0.00000000000E+00  0.00000000000E+00  0.43903486329E+02  0.43903486329E+02  0.00000000000E+00 0.  1.
          1   -1    0    0  501    0  0.00000000000E+00 -0.00000000000E+00 -0.38448734421E+03  0.38448734421E+03  0.00000000000E+00 0. -1.
         23    2    1    2    0    0  0.30342172937E+02  0.49785742894E+02 -0.11761931585E+03  0.18127336488E+03  0.12500584666E+03 0.  0.
         23    2    1    2    0    0 -0.30342172937E+02 -0.49785742894E+02 -0.22296454203E+03  0.24711746566E+03  0.89188492411E+02 0.  0.
          5    1    3    3  502    0  0.66240755930E+02  0.60790346544E+02 -0.47979493770E+02  0.10201679176E+03  0.47000000000E+01 0.  1.
         -5    1    3    3    0  502 -0.35898582993E+02 -0.11004603650E+02 -0.69639822081E+02  0.79256573115E+02  0.47000000000E+01 0.  1.
        -11    1    4    4    0    0 -0.39961734267E+02  0.13057649893E+02 -0.73128129820E+02  0.84351442177E+02  0.00000000000E+00 0.  1.
         11    1    4    4    0    0  0.96195613302E+01 -0.62843392787E+02 -0.14983641221E+03  0.16276602348E+03  0.00000000000E+00 0. -1.
<mgrwt>
<rscale>  0 0.12931411E+03</rscale>
<asrwt>0</asrwt>
<pdfrwt beam="2">  1        1 0.59151897E-01 0.13793379E+03</pdfrwt>
<pdfrwt beam="1">  1       -1 0.67543828E-02 0.13793379E+03</pdfrwt>
<totfact> 0.68055661E+03</totfact>
</mgrwt>
</event>
<event>
 8    1  0.1033707E-005  0.1320676E+03  0.7546771E-02  0.1237671E+00
         -2   -1    0    0    0  501 -0.00000000000E+00  0.00000000000E+00  0.19117914833E+03  0.19117914833E+03  0.00000000000E+00 0. -1.
          2   -1    0    0  501    0  0.00000000000E+00 -0.00000000000E+00 -0.98106561341E+02  0.98106561341E+02  0.00000000000E+00 0.  1.
         23    2    1    2    0    0  0.40010093085E+02 -0.14666714603E+02  0.12699092933E+03  0.18321724137E+03  0.12500376530E+03 0.  0.
         23    2    1    2    0    0 -0.40010093085E+02  0.14666714603E+02 -0.33918342342E+02  0.10606846829E+03  0.91017283815E+02 0.  0.
          5    1    3    3  502    0 -0.23159282919E+02  0.13357831126E+02  0.10805015392E+03  0.11140785340E+03  0.47000000000E+01 0. -1.
         -5    1    3    3    0  502  0.63169376004E+02 -0.28024545728E+02  0.18940775411E+02  0.71809387974E+02  0.47000000000E+01 0. -1.
        -11    1    4    4    0    0 -0.15489541614E+02  0.87876675581E+01 -0.64222315430E+02  0.66645741047E+02  0.00000000000E+00 0.  1.
         11    1    4    4    0    0 -0.24520551471E+02  0.58790470445E+01  0.30303973088E+02  0.39422727246E+02  0.00000000000E+00 0. -1.
<mgrwt>
<rscale>  0 0.12334963E+03</rscale>
<asrwt>0</asrwt>
<pdfrwt beam="2">  1        2 0.15093317E-01 0.13206764E+03</pdfrwt>
<pdfrwt beam="1">  1       -2 0.29412177E-01 0.13206764E+03</pdfrwt>
<totfact> 0.39196744E+03</totfact>
</mgrwt>
</event>
<event>
 8    1  0.1033707E-005  0.1355367E+03  0.7546771E-02  0.1232678E+00
          1   -1    0    0  501    0  0.00000000000E+00  0.00000000000E+00  0.12761132834E+03  0.12761132834E+03  0.00000000000E+00 0. -1.
         -1   -1    0    0    0  501 -0.00000000000E+00 -0.00000000000E+00 -0.11145874004E+03  0.11145874004E+03  0.00000000000E+00 0.  1.
         23    2    1    2    0    0 -0.25948567861E+02  0.45527986035E+02  0.96288947240E+01  0.13587834386E+03  0.12499633206E+03 0.  0.
         23    2    1    2    0    0  0.25948567861E+02 -0.45527986035E+02  0.65236935780E+01  0.10319172452E+03  0.88655782354E+02 0.  0.
          5    1    3    3  502    0 -0.57757458049E+01  0.94754404677E+00  0.62926475368E+02  0.63372615392E+02  0.47000000000E+01 0.  1.
         -5    1    3    3    0  502 -0.20172822057E+02  0.44580441988E+02 -0.53297580644E+02  0.72505728464E+02  0.47000000000E+01 0.  1.
        -11    1    4    4    0    0 -0.25037029216E+02 -0.45319940915E+02 -0.10916189972E+00  0.51776073556E+02  0.00000000000E+00 0.  1.
         11    1    4    4    0    0  0.50985597078E+02 -0.20804511981E+00  0.66328554777E+01  0.51415650963E+02  0.00000000000E+00 0. -1.
<mgrwt>
<rscale>  0 0.12654256E+03</rscale>
<asrwt>0</asrwt>
<pdfrwt beam="1">  1        1 0.19632512E-01 0.13553674E+03</pdfrwt>
<pdfrwt beam="2">  1       -1 0.17147498E-01 0.13553674E+03</pdfrwt>
<totfact> 0.64360630E+03</totfact>
</mgrwt>
</event>
<event>
 8    1  0.1033707E-005  0.2302557E+03  0.7546771E-02  0.1129526E+00
         -1   -1    0    0    0  501 -0.00000000000E+00  0.00000000000E+00  0.30376155942E+03  0.30376155942E+03  0.00000000000E+00 0.  1.
          1   -1    0    0  501    0  0.00000000000E+00 -0.00000000000E+00 -0.20552568728E+03  0.20552568728E+03  0.00000000000E+00 0. -1.
         23    2    1    2    0    0 -0.12775244808E+03 -0.14516080852E+03  0.16761387967E+03  0.28480186183E+03  0.12500135808E+03 0.  0.
         23    2    1    2    0    0  0.12775244808E+03  0.14516080852E+03 -0.69378007534E+02  0.22448538488E+03  0.90487743785E+02 0.  0.
          5    1    3    3  502    0 -0.11191507139E+03 -0.14518232306E+03  0.18523541335E+03  0.26064753691E+03  0.47000000000E+01 0. -1.
         -5    1    3    3    0  502 -0.15837376683E+02  0.21514545022E-01 -0.17621533682E+02  0.24154324921E+02  0.47000000000E+01 0. -1.
        -11    1    4    4    0    0  0.11525728150E+03  0.10428438106E+03 -0.16224644766E+02  0.15627767649E+03  0.00000000000E+00 0.  1.
         11    1    4    4    0    0  0.12495166573E+02  0.40876427460E+02 -0.53153362768E+02  0.68207708385E+02  0.00000000000E+00 0. -1.
<mgrwt>
<rscale>  0 0.22594620E+03</rscale>
<asrwt>0</asrwt>
<pdfrwt beam="2">  1        1 0.31619336E-01 0.23025570E+03</pdfrwt>
<pdfrwt beam="1">  1       -1 0.46732548E-01 0.23025570E+03</pdfrwt>
<totfact> 0.66122559E+02</totfact>
</mgrwt>
</event>
<event>
 7    1  0.1033707E-005  0.4944583E+03  0.7546771E-02  0.1015236E+00
         -1   -1    0    0    0  501 -0.00000000000E+00  0.00000000000E+00  0.42605450653E+03  0.42605450653E+03  0.00000000000E+00 0.  1.
          1   -1    0    0  501    0  0.00000000000E+00 -0.00000000000E+00 -0.14346109485E+03  0.14346109485E+03  0.00000000000E+00 0. -1.
         23    2    1    2    0    0 -0.47009097642E+02 -0.77094874174E+02 -0.27500059374E+02  0.13077293156E+03  0.90508737034E+02 0.  0.
          5    1    1    2  502    0  0.26276899812E+01 -0.96878484573E+02  0.22387727969E+02  0.99577336234E+02  0.47000000000E+01 0. -1.
         -5    1    1    2    0  502  0.44381407661E+02  0.17397335875E+03  0.28770574309E+03  0.33916533358E+03  0.47000000000E+01 0.  1.
        -11    1    3    3    0    0 -0.60024002949E+02 -0.37849098498E+02  0.13846800869E+02  0.72299163767E+02  0.00000000000E+00 0.  1.
         11    1    3    3    0    0  0.13014905307E+02 -0.39245775676E+02 -0.41346860242E+02  0.58473767798E+02  0.00000000000E+00 0. -1.
<mgrwt>
<rscale>  0 0.49445827E+03</rscale>
<asrwt>0</asrwt>
<pdfrwt beam="2">  1        1 0.22070938E-01 0.49445827E+03</pdfrwt>
<pdfrwt beam="1">  1       -1 0.65546847E-01 0.49445827E+03</pdfrwt>
<totfact> 0.54910622E+02</totfact>
</mgrwt>
</event>
<event>
 8    1  0.1033707E-005  0.1295798E+03  0.7546771E-02  0.1241850E+00
          1   -1    0    0  501    0  0.00000000000E+00  0.00000000000E+00  0.53288300625E+03  0.53288300625E+03  0.00000000000E+00 0. -1.
         -1   -1    0    0    0  501 -0.00000000000E+00 -0.00000000000E+00 -0.24323314682E+02  0.24323314682E+02  0.00000000000E+00 0.  1.
         23    2    1    2    0    0  0.33205441137E+02 -0.10040707790E+02  0.30565609849E+03  0.33198883497E+03  0.12484998546E+03 0.  0.
         23    2    1    2    0    0 -0.33205441137E+02  0.10040707790E+02  0.20290359308E+03  0.22521748596E+03  0.91376314017E+02 0.  0.
          5    1    3    3  502    0  0.34024685045E+02 -0.15288202834E+02  0.13803996217E+02  0.40050576148E+02  0.47000000000E+01 0. -1.
         -5    1    3    3    0  502 -0.81924390779E+00  0.52474950439E+01  0.29185210227E+03  0.29193825882E+03  0.47000000000E+01 0. -1.
        -11    1    4    4    0    0 -0.19478051116E+02 -0.37945030611E+02  0.58254751241E+02  0.72199971367E+02  0.00000000000E+00 0.  1.
         11    1    4    4    0    0 -0.13727390021E+02  0.47985738401E+02  0.14464884184E+03  0.15301751459E+03  0.00000000000E+00 0. -1.
<mgrwt>
<rscale>  0 0.12075937E+03</rscale>
<asrwt>0</asrwt>
<pdfrwt beam="1">  1        1 0.81981992E-01 0.12957984E+03</pdfrwt>
<pdfrwt beam="2">  1       -1 0.37420488E-02 0.12957984E+03</pdfrwt>
<totfact> 0.10680976E+04</totfact>
</mgrwt>
</event>
<event>
 8    1  0.1033707E-005  0.1262675E+03  0.7546771E-02  0.1248687E+00
          1   -1    0    0  501    0  0.00000000000E+00  0.00000000000E+00  0.74859304897E+02  0.74859304897E+02  0.00000000000E+00 0. -1.
         -1   -1    0    0    0  501 -0.00000000000E+00 -0.00000000000E+00 -0.48868517539E+03  0.48868517539E+03  0.00000000000E+00 0.  1.
         23    2    1    2    0    0 -0.14075642421E+00  0.17855667764E+02 -0.44792562730E+03  0.46538248800E+03  0.12499859141E+03 0.  0.
         23    2    1    2    0    0  0.14075642421E+00 -0.17855667764E+02  0.34099756807E+02  0.98161992294E+02  0.90300269286E+02 0.  0.
          5    1    3    3  502    0  0.51009266672E+02 -0.27089614454E+02 -0.21325515930E+03  0.22098788534E+03  0.47000000000E+01 0. -1.
         -5    1    3    3    0  502 -0.51150023096E+02  0.44945282218E+02 -0.23467046800E+03  0.24439460266E+03  0.47000000000E+01 0. -1.
        -11    1    4    4    0    0  0.28703761380E+02 -0.40077129643E+02  0.37321085278E+02  0.61829973670E+02  0.00000000000E+00 0. -1.
         11    1    4    4    0    0 -0.28563004956E+02  0.22221461878E+02 -0.32213284710E+01  0.36332018623E+02  0.00000000000E+00 0.  1.
<mgrwt>
<rscale>  0 0.11667380E+03</rscale>
<asrwt>0</asrwt>
<pdfrwt beam="1">  1        1 0.11516816E-01 0.12626754E+03</pdfrwt>
<pdfrwt beam="2">  1       -1 0.75182334E-01 0.12626754E+03</pdfrwt>
<totfact> 0.96856070E+02</totfact>
</mgrwt>
</event>
<event>
 8    1  0.1033707E-005  0.1329714E+03  0.7546771E-02  0.1236259E+00
         -2   -1    0    0    0  501 -0.00000000000E+00  0.00000000000E+00  0.18588803805E+04  0.18588803805E+04  0.00000000000E+00 0. -1.
          2   -1    0    0  501    0  0.00000000000E+00 -0.00000000000E+00 -0.81502091193E+01  0.81502091193E+01  0.00000000000E+00 0.  1.
         23    2    1    2    0    0  0.33483212241E+02 -0.30575431957E+02  0.13224072654E+04  0.13290757617E+04  0.12500168888E+03 0.  0.
         23    2    1    2    0    0 -0.33483212241E+02  0.30575431957E+02  0.52832290595E+03  0.53795482788E+03  0.90632893327E+02 0.  0.
          5    1    3    3  502    0  0.41377393256E+01  0.45647412820E+02  0.31498166301E+03  0.31833370104E+03  0.47000000000E+01 0. -1.
         -5    1    3    3    0  502  0.29345472915E+02 -0.76222844777E+02  0.10074256024E+04  0.10107420607E+04  0.47000000000E+01 0. -1.
        -11    1    4    4    0    0  0.28874390137E+02 -0.50619337769E+01  0.16911150671E+03  0.17163349114E+03  0.00000000000E+00 0. -1.
         11    1    4    4    0    0 -0.62357602378E+02  0.35637365734E+02  0.35921139924E+03  0.36632133675E+03  0.00000000000E+00 0.  1.
<mgrwt>
<rscale>  0 0.12424150E+03</rscale>
<asrwt>0</asrwt>
<pdfrwt beam="2">  1        2 0.12538798E-02 0.13297144E+03</pdfrwt>
<pdfrwt beam="1">  1       -2 0.28598126E+00 0.13297144E+03</pdfrwt>
<totfact> 0.45706219E+02</totfact>
</mgrwt>
</event>
<event>
 8    1  0.1033707E-005  0.1398578E+03  0.7546771E-02  0.1226000E+00
          2   -1    0    0  501    0  0.00000000000E+00  0.00000000000E+00  0.63116758972E+03  0.63116758972E+03  0.00000000000E+00 0. -1.
         -2   -1    0    0    0  501 -0.00000000000E+00 -0.00000000000E+00 -0.32334069277E+02  0.32334069277E+02  0.00000000000E+00 0.  1.
         23    2    1    2    0    0  0.62512102686E+02 -0.49522302522E+01  0.16393116327E+03  0.21548463556E+03  0.12501165667E+03 0.  0.
         23    2    1    2    0    0 -0.62512102686E+02  0.49522302522E+01  0.43490235717E+03  0.44801702344E+03  0.87446586264E+02 0.  0.
          5    1    3    3  502    0  0.69204721217E+02 -0.54073706978E+02  0.86053763909E+02  0.12304714344E+03  0.47000000000E+01 0. -1.
         -5    1    3    3    0  502 -0.66926185305E+01  0.49121476726E+02  0.77877399359E+02  0.92437492120E+02  0.47000000000E+01 0. -1.
        -11    1    4    4    0    0 -0.82440109405E+02  0.99752192505E+01  0.38836448946E+03  0.39714336619E+03  0.00000000000E+00 0. -1.
         11    1    4    4    0    0  0.19928006719E+02 -0.50229889984E+01  0.46537867719E+02  0.50873657251E+02  0.00000000000E+00 0.  1.
<mgrwt>
<rscale>  0 0.13098597E+03</rscale>
<asrwt>0</asrwt>
<pdfrwt beam="1">  1        2 0.97102697E-01 0.13985779E+03</pdfrwt>
<pdfrwt beam="2">  1       -2 0.49744727E-02 0.13985779E+03</pdfrwt>
<totfact> 0.89981109E+03</totfact>
</mgrwt>
</event>
<event>
 8    1  0.1033707E-005  0.1335386E+03  0.7546771E-02  0.1236413E+00
         -1   -1    0    0    0  501 -0.00000000000E+00  0.00000000000E+00  0.28163226117E+03  0.28163226117E+03  0.00000000000E+00 0.  1.
          1   -1    0    0  501    0  0.00000000000E+00 -0.00000000000E+00 -0.48438429663E+02  0.48438429663E+02  0.00000000000E+00 0. -1.
         23    2    1    2    0    0 -0.37004734670E+02  0.28997551072E+02  0.14190694400E+03  0.19485928728E+03  0.12498941046E+03 0.  0.
         23    2    1    2    0    0  0.37004734670E+02 -0.28997551072E+02  0.91286887504E+02  0.13521140355E+03  0.87969423460E+02 0.  0.
          5    1    3    3  502    0 -0.51101375593E+02  0.15554340734E+02  0.21421027598E+01  0.53665321274E+02  0.47000000000E+01 0.  1.
         -5    1    3    3    0  502  0.14096640923E+02  0.13443210338E+02  0.13976484124E+03  0.14119396601E+03  0.47000000000E+01 0.  1.
        -11    1    4    4    0    0  0.10071299849E+02 -0.18465724723E+02  0.10216955437E+03  0.10431218486E+03  0.00000000000E+00 0.  1.
         11    1    4    4    0    0  0.26933434822E+02 -0.10531826349E+02 -0.10882666866E+02  0.30899218690E+02  0.00000000000E+00 0. -1.
<mgrwt>
<rscale>  0 0.12414426E+03</rscale>
<asrwt>0</asrwt>
<pdfrwt beam="2">  1        1 0.74520663E-02 0.13353861E+03</pdfrwt>
<pdfrwt beam="1">  1       -1 0.43328039E-01 0.13353861E+03</pdfrwt>
<totfact> 0.48838472E+03</totfact>
</mgrwt>
</event>
<event>
 8    1  0.1033707E-005  0.1295463E+03  0.7546771E-02  0.1242021E+00
         -4   -1    0    0    0  501 -0.00000000000E+00  0.00000000000E+00  0.63098437580E+02  0.63098437580E+02  0.00000000000E+00 0. -1.
          4   -1    0    0  501    0  0.00000000000E+00 -0.00000000000E+00 -0.27372814056E+03  0.27372814056E+03  0.00000000000E+00 0.  1.
         23    2    1    2    0    0  0.70416219242E+01  0.33285615229E+02 -0.32170456224E+02  0.13348100218E+03  0.12499889227E+03 0.  0.
         23    2    1    2    0    0 -0.70416219242E+01 -0.33285615229E+02 -0.17845924675E+03  0.20334557596E+03  0.91346613995E+02 0.  0.
          5    1    3    3  502    0  0.33683471835E+02  0.52774429577E+02 -0.62368407124E+02  0.88496468286E+02  0.47000000000E+01 0. -1.
         -5    1    3    3    0  502 -0.26641849911E+02 -0.19488814348E+02  0.30197950899E+02  0.44984533897E+02  0.47000000000E+01 0. -1.
        -11    1    4    4    0    0 -0.44816748904E+02 -0.39446827612E+01 -0.11778472991E+03  0.12608467038E+03  0.00000000000E+00 0.  1.
         11    1    4    4    0    0  0.37775126980E+02 -0.29340932468E+02 -0.60674516842E+02  0.77260905576E+02  0.00000000000E+00 0. -1.
<mgrwt>
<rscale>  0 0.12065463E+03</rscale>
<asrwt>0</asrwt>
<pdfrwt beam="2">  1        4 0.42112022E-01 0.12954628E+03</pdfrwt>
<pdfrwt beam="1">  1       -4 0.97074518E-02 0.12954628E+03</pdfrwt>
<totfact> 0.71825184E+02</totfact>
</mgrwt>
</event>
<event>
 8    1  0.1033707E-005  0.2236138E+03  0.7546771E-02  0.1134574E+00
          1   -1    0    0  501    0  0.00000000000E+00  0.00000000000E+00  0.14591952808E+04  0.14591952808E+04  0.00000000000E+00 0. -1.
         -1   -1    0    0    0  501 -0.00000000000E+00 -0.00000000000E+00 -0.34879312135E+02  0.34879312135E+02  0.00000000000E+00 0.  1.
         23    2    1    2    0    0 -0.10758512536E+03 -0.15100361763E+03  0.51051868083E+03  0.55734411830E+03  0.12500596383E+03 0.  0.
         23    2    1    2    0    0  0.10758512536E+03  0.15100361763E+03  0.91379728783E+03  0.93673047463E+03  0.89787789318E+02 0.  0.
          5    1    3    3  502    0 -0.10705210023E+03 -0.54730908167E+02  0.35004319809E+03  0.37014585639E+03  0.47000000000E+01 0. -1.
         -5    1    3    3    0  502 -0.53302513314E+00 -0.96272709464E+02  0.16047548274E+03  0.18719826191E+03  0.47000000000E+01 0. -1.
        -11    1    4    4    0    0 -0.85248338438E+01  0.38674685947E+02  0.11136647447E+03  0.11819854382E+03  0.00000000000E+00 0.  1.
         11    1    4    4    0    0  0.11610995921E+03  0.11232893168E+03  0.80243081336E+03  0.81853193081E+03  0.00000000000E+00 0. -1.
<mgrwt>
<rscale>  0 0.21907559E+03</rscale>
<asrwt>0</asrwt>
<pdfrwt beam="1">  1        1 0.22449153E+00 0.22361383E+03</pdfrwt>
<pdfrwt beam="2">  1       -1 0.53660492E-02 0.22361383E+03</pdfrwt>
<totfact> 0.12085027E+03</totfact>
</mgrwt>
</event>
<event>
 8    1  0.1033707E-005  0.1992515E+03  0.7546771E-02  0.1154547E+00
          2   -1    0    0  501    0  0.00000000000E+00  0.00000000000E+00  0.38626067329E+03  0.38626067329E+03  0.00000000000E+00 0. -1.
         -2   -1    0    0    0  501 -0.00000000000E+00 -0.00000000000E+00 -0.10046869119E+03  0.10046869119E+03  0.00000000000E+00 0.  1.
         23    2    1    2    0    0 -0.14437772296E+03 -0.56851473331E+02  0.84811981817E+02  0.21655076200E+03  0.12499657337E+03 0.  0.
         23    2    1    2    0    0  0.14437772296E+03  0.56851473331E+02  0.20098000028E+03  0.27017860248E+03  0.92339048169E+02 0.  0.
          5    1    3    3  502    0 -0.10057709764E+03  0.16131619169E+02  0.88235147547E+01  0.10235197174E+03  0.47000000000E+01 0.  1.
         -5    1    3    3    0  502 -0.43800625321E+02 -0.72983092500E+02  0.75988467063E+02  0.11419879026E+03  0.47000000000E+01 0.  1.
        -11    1    4    4    0    0  0.20780802235E+02 -0.13350180262E+02  0.85968990762E+00  0.24714532594E+02  0.00000000000E+00 0.  1.
         11    1    4    4    0    0  0.12359692073E+03  0.70201653594E+02  0.20012031038E+03  0.24546406989E+03  0.00000000000E+00 0. -1.
<mgrwt>
<rscale>  0 0.19440582E+03</rscale>
<asrwt>0</asrwt>
<pdfrwt beam="1">  1        2 0.59424718E-01 0.19925150E+03</pdfrwt>
<pdfrwt beam="2">  1       -2 0.15456722E-01 0.19925150E+03</pdfrwt>
<totfact> 0.26664316E+03</totfact>
</mgrwt>
</event>
<event>
 8    1  0.1033707E-005  0.1691848E+03  0.7546771E-02  0.1184495E+00
         -1   -1    0    0    0  501 -0.00000000000E+00  0.00000000000E+00  0.27667517082E+02  0.27667517082E+02  0.00000000000E+00 0.  1.
          1   -1    0    0  501    0  0.00000000000E+00 -0.00000000000E+00 -0.92492966109E+03  0.92492966109E+03  0.00000000000E+00 0. -1.
         23    2    1    2    0    0  0.96681129457E+02 -0.60431198593E+02 -0.42194445891E+03  0.45459941824E+03  0.12499733639E+03 0.  0.
         23    2    1    2    0    0 -0.96681129457E+02  0.60431198593E+02 -0.47531768510E+03  0.49799775994E+03  0.95266450401E+02 0.  0.
          5    1    3    3  502    0  0.10815508399E+03 -0.10066576392E+01 -0.28128564131E+03  0.30140046045E+03  0.47000000000E+01 0.  1.
         -5    1    3    3    0  502 -0.11473954532E+02 -0.59424540954E+02 -0.14065881759E+03  0.15319895779E+03  0.47000000000E+01 0.  1.
        -11    1    4    4    0    0 -0.77303840363E+02  0.84963203899E+02 -0.33199174454E+03  0.35130207542E+03  0.00000000000E+00 0.  1.
         11    1    4    4    0    0 -0.19377289095E+02 -0.24532005307E+02 -0.14332594056E+03  0.14669568452E+03  0.00000000000E+00 0. -1.
<mgrwt>
<rscale>  0 0.16377904E+03</rscale>
<asrwt>0</asrwt>
<pdfrwt beam="2">  1        1 0.14229685E+00 0.16918482E+03</pdfrwt>
<pdfrwt beam="1">  1       -1 0.42565417E-02 0.16918482E+03</pdfrwt>
<totfact> 0.40320017E+03</totfact>
</mgrwt>
</event>
<event>
 7    1  0.1033707E-005  0.6177537E+03  0.7546771E-02  0.9869242E-01
          2   -1    0    0  501    0  0.00000000000E+00  0.00000000000E+00  0.14862334358E+04  0.14862334358E+04  0.00000000000E+00 0. -1.
         -2   -1    0    0    0  501 -0.00000000000E+00 -0.00000000000E+00 -0.64192409241E+02  0.64192409241E+02  0.00000000000E+00 0.  1.
         23    2    1    2    0    0  0.71170632870E+02 -0.24179743369E+02  0.43736353697E+03  0.45358035676E+03  0.93799560711E+02 0.  0.
          5    1    1    2  502    0  0.86106133110E+02 -0.91078762733E+02  0.85145764390E+03  0.86064616221E+03  0.47000000000E+01 0. -1.
         -5    1    1    2    0  502 -0.15727676598E+03  0.11525850610E+03  0.13321984566E+03  0.23619932605E+03  0.47000000000E+01 0.  1.
        -11    1    3    3    0    0 -0.17570791804E+02  0.41604429723E+01  0.25083599019E+02  0.30906778384E+02  0.00000000000E+00 0.  1.
         11    1    3    3    0    0  0.88741424674E+02 -0.28340186341E+02  0.41227993796E+03  0.42267357837E+03  0.00000000000E+00 0. -1.
<mgrwt>
<rscale>  0 0.61775369E+03</rscale>
<asrwt>0</asrwt>
<pdfrwt beam="1">  1        2 0.22865127E+00 0.61775369E+03</pdfrwt>
<pdfrwt beam="2">  1       -2 0.98757564E-02 0.61775369E+03</pdfrwt>
<totfact> 0.92146988E+02</totfact>
</mgrwt>
</event>
<event>
 8    1  0.1033707E-005  0.1315441E+03  0.7546771E-02  0.1238349E+00
          2   -1    0    0  501    0  0.00000000000E+00  0.00000000000E+00  0.21940305061E+03  0.21940305061E+03  0.00000000000E+00 0. -1.
         -2   -1    0    0    0  501 -0.00000000000E+00 -0.00000000000E+00 -0.81226955960E+02  0.81226955960E+02  0.00000000000E+00 0.  1.
         23    2    1    2    0    0  0.33892125765E+02 -0.23198328370E+02  0.20791254777E+01  0.13156056617E+03  0.12496808064E+03 0.  0.
         23    2    1    2    0    0 -0.33892125765E+02  0.23198328370E+02  0.13609696917E+03  0.16906944040E+03  0.91516403075E+02 0.  0.
          5    1    3    3  502    0  0.43556429044E+01 -0.46734985549E+02 -0.48898385776E+02  0.67943157351E+02  0.47000000000E+01 0.  1.
         -5    1    3    3    0  502  0.29536482861E+02  0.23536657179E+02  0.50977511254E+02  0.63617408817E+02  0.47000000000E+01 0.  1.
        -11    1    4    4    0    0 -0.63160059382E+02  0.21564758840E+02  0.69756181335E+02  0.96540958972E+02  0.00000000000E+00 0.  1.
         11    1    4    4    0    0  0.29267933616E+02  0.16335695295E+01  0.66340787836E+02  0.72528481428E+02  0.00000000000E+00 0. -1.
<mgrwt>
<rscale>  0 0.12292484E+03</rscale>
<asrwt>0</asrwt>
<pdfrwt beam="1">  1        2 0.33754315E-01 0.13154414E+03</pdfrwt>
<pdfrwt beam="2">  1       -2 0.12496455E-01 0.13154414E+03</pdfrwt>
<totfact> 0.67587804E+03</totfact>
</mgrwt>
</event>
<event>
 8    1  0.1033707E-005  0.1323595E+03  0.7546771E-02  0.1237159E+00
          1   -1    0    0  501    0  0.00000000000E+00  0.00000000000E+00  0.21402483556E+03  0.21402483556E+03  0.00000000000E+00 0. -1.
         -1   -1    0    0    0  501 -0.00000000000E+00 -0.00000000000E+00 -0.75995834331E+02  0.75995834331E+02  0.00000000000E+00 0.  1.
         23    2    1    2    0    0 -0.42469197352E+02 -0.94796657559E+01  0.18560484701E+02  0.13365455594E+03  0.12500220776E+03 0.  0.
         23    2    1    2    0    0  0.42469197352E+02  0.94796657559E+01  0.11946851652E+03  0.15636611395E+03  0.91017242129E+02 0.  0.
          5    1    3    3  502    0  0.74124563198E+01  0.14283362298E+02 -0.45757861054E+02  0.48732235691E+02  0.47000000000E+01 0.  1.
         -5    1    3    3    0  502 -0.49881653672E+02 -0.23763028054E+02  0.64318345755E+02  0.84922320246E+02  0.47000000000E+01 0.  1.
        -11    1    4    4    0    0 -0.84849626400E+01  0.12451831284E+02 -0.93988043793E+01  0.17758947522E+02  0.00000000000E+00 0.  1.
         11    1    4    4    0    0  0.50954159992E+02 -0.29721655277E+01  0.12886732090E+03  0.13860716643E+03  0.00000000000E+00 0. -1.
<mgrwt>
<rscale>  0 0.12367226E+03</rscale>
<asrwt>0</asrwt>
<pdfrwt beam="1">  1        1 0.32926897E-01 0.13235954E+03</pdfrwt>
<pdfrwt beam="2">  1       -1 0.11691667E-01 0.13235954E+03</pdfrwt>
<totfact> 0.61071783E+03</totfact>
</mgrwt>
</event>
<event>
 8    1  0.1033707E-005  0.1228264E+03  0.7546771E-02  0.1248351E+00
         -1   -1    0    0    0  501 -0.00000000000E+00  0.00000000000E+00  0.46962200193E+02  0.46962200193E+02  0.00000000000E+00 0.  1.
          1   -1    0    0  501    0  0.00000000000E+00 -0.00000000000E+00 -0.28458172544E+03  0.28458172544E+03  0.00000000000E+00 0. -1.
         23    2    1    2    0    0  0.15639211318E+02 -0.43921109759E+02 -0.87571496104E+02  0.15084787912E+03  0.11363391612E+03 0.  0.
         23    2    1    2    0    0 -0.15639211318E+02  0.43921109759E+02 -0.15004802915E+03  0.18069604652E+03  0.89235650740E+02 0.  0.
          5    1    3    3  502    0  0.38318912665E+01 -0.58549198809E+02  0.23037298935E+01  0.58907463391E+02  0.47000000000E+01 0. -1.
         -5    1    3    3    0  502  0.11807320052E+02  0.14628089050E+02 -0.89875225998E+02  0.91940415728E+02  0.47000000000E+01 0.  1.
        -11    1    4    4    0    0  0.30914157295E+02  0.37312508054E+02 -0.47365708147E+02  0.67760008020E+02  0.00000000000E+00 0.  1.
         11    1    4    4    0    0 -0.46553368613E+02  0.66086017047E+01 -0.10268232100E+03  0.11293603850E+03  0.00000000000E+00 0. -1.
<mgrwt>
<rscale>  0 0.11687066E+03</rscale>
<asrwt>0</asrwt>
<pdfrwt beam="2">  1        1 0.43781803E-01 0.12282636E+03</pdfrwt>
<pdfrwt beam="1">  1       -1 0.72249540E-02 0.12282636E+03</pdfrwt>
<totfact> 0.88698615E+03</totfact>
</mgrwt>
</event>
<event>
 8    1  0.1033707E-005  0.1346830E+03  0.7546771E-02  0.1232771E+00
         -2   -1    0    0    0  501 -0.00000000000E+00  0.00000000000E+00  0.74871648545E+02  0.74871648545E+02  0.00000000000E+00 0.  1.
          2   -1    0    0  501    0  0.00000000000E+00 -0.00000000000E+00 -0.19871043085E+03  0.19871043085E+03  0.00000000000E+00 0. -1.
         23    2    1    2    0    0  0.20614828171E+02 -0.45722046273E+02 -0.43388284809E+02  0.14149928094E+03  0.12499610630E+03 0.  0.
         23    2    1    2    0    0 -0.20614828171E+02  0.45722046273E+02 -0.80450497497E+02  0.13208279846E+03  0.91967964234E+02 0.  0.
          5    1    3    3  502    0 -0.76257594531E+00  0.40395075320E+02  0.38699582018E+01  0.40858416620E+02  0.47000000000E+01 0. -1.
         -5    1    3    3    0  502  0.21377404116E+02 -0.86117121593E+02 -0.47258243011E+02  0.10064086432E+03  0.47000000000E+01 0. -1.
        -11    1    4    4    0    0 -0.53470027568E+02  0.46224898415E+02 -0.63932750801E+02  0.95305727564E+02  0.00000000000E+00 0. -1.
         11    1    4    4    0    0  0.32855199397E+02 -0.50285214226E+00 -0.16517746697E+02  0.36777070895E+02  0.00000000000E+00 0.  1.
<mgrwt>
<rscale>  0 0.12648181E+03</rscale>
<asrwt>0</asrwt>
<pdfrwt beam="2">  1        2 0.30570835E-01 0.13468297E+03</pdfrwt>
<pdfrwt beam="1">  1       -2 0.11518715E-01 0.13468297E+03</pdfrwt>
<totfact> 0.85778673E+03</totfact>
</mgrwt>
</event>
<event>
 7    1  0.1033707E-005  0.2736243E+03  0.7546771E-02  0.1136669E+00
         -3   -1    0    0    0  501 -0.00000000000E+00  0.00000000000E+00  0.94314900821E+03  0.94314900821E+03  0.00000000000E+00 0.  1.
          3   -1    0    0  501    0  0.00000000000E+00 -0.00000000000E+00 -0.59367452454E+02  0.59367452454E+02  0.00000000000E+00 0. -1.
         23    2    1    2    0    0  0.48766427533E+02 -0.88666147435E+01  0.37732881437E+02  0.11332096563E+03  0.94663031848E+02 0.  0.
          5    1    1    2  502    0  0.57442060656E+02  0.63240303041E+02  0.91562602354E+02  0.12531849987E+03  0.47000000000E+01 0. -1.
         -5    1    1    2    0  502 -0.10620848819E+03 -0.54373688297E+02  0.75448607196E+03  0.76387699516E+03  0.47000000000E+01 0.  1.
        -11    1    3    3    0    0  0.76932277082E+02  0.11240017541E+01  0.28351576141E+02  0.81997868915E+02  0.00000000000E+00 0. -1.
         11    1    3    3    0    0 -0.28165849549E+02 -0.99906164976E+01  0.93813052959E+01  0.31323096716E+02  0.00000000000E+00 0.  1.
<mgrwt>
<rscale>  0 0.21630381E+03</rscale>
<asrwt>0</asrwt>
<pdfrwt beam="2">  1        3 0.91334549E-02 0.27362432E+03</pdfrwt>
<pdfrwt beam="1">  1       -3 0.14509984E+00 0.27362432E+03</pdfrwt>
<totfact> 0.79834995E+01</totfact>
</mgrwt>
</event>
<event>
 8    1  0.1033707E-005  0.2029591E+03  0.7546771E-02  0.1151262E+00
          2   -1    0    0  501    0  0.00000000000E+00  0.00000000000E+00  0.35988597271E+03  0.35988597271E+03  0.00000000000E+00 0. -1.
         -2   -1    0    0    0  501 -0.00000000000E+00 -0.00000000000E+00 -0.13147066562E+03  0.13147066562E+03  0.00000000000E+00 0.  1.
         23    2    1    2    0    0  0.15788084438E+03  0.25393154939E+02  0.69987708314E+01  0.20307973892E+03  0.12498489600E+03 0.  0.
         23    2    1    2    0    0 -0.15788084438E+03 -0.25393154939E+02  0.22141653625E+03  0.28827689941E+03  0.92234022290E+02 0.  0.
          5    1    3    3  502    0  0.14877530573E+02  0.21050797077E+02  0.47557717006E+02  0.54298281928E+02  0.47000000000E+01 0. -1.
         -5    1    3    3    0  502  0.14300331380E+03  0.43423578621E+01 -0.40558946174E+02  0.14878145700E+03  0.47000000000E+01 0. -1.
        -11    1    4    4    0    0 -0.15538332616E+03 -0.36193293325E+01  0.21526935223E+03  0.26551454122E+03  0.00000000000E+00 0. -1.
         11    1    4    4    0    0 -0.24975182213E+01 -0.21773825607E+02  0.61471840269E+01  0.22762358188E+02  0.00000000000E+00 0.  1.
<mgrwt>
<rscale>  0 0.19820569E+03</rscale>
<asrwt>0</asrwt>
<pdfrwt beam="1">  1        2 0.55367072E-01 0.20295910E+03</pdfrwt>
<pdfrwt beam="2">  1       -2 0.20226256E-01 0.20295910E+03</pdfrwt>
<totfact> 0.18323277E+03</totfact>
</mgrwt>
</event>
<event>
 8    1  0.1033707E-005  0.1394362E+03  0.7546771E-02  0.1228117E+00
          4   -1    0    0  501    0  0.00000000000E+00  0.00000000000E+00  0.75807925708E+03  0.75807925708E+03  0.00000000000E+00 0. -1.
         -4   -1    0    0    0  501 -0.00000000000E+00 -0.00000000000E+00 -0.23897111742E+02  0.23897111742E+02  0.00000000000E+00 0.  1.
         23    2    1    2    0    0 -0.29280798385E+02  0.54403085193E+02  0.24519864230E+03  0.28207240138E+03  0.12500161839E+03 0.  0.
         23    2    1    2    0    0  0.29280798385E+02 -0.54403085193E+02  0.48898350304E+03  0.49990396744E+03  0.83558659582E+02 0.  0.
          5    1    3    3  502    0  0.57790588940E+01  0.38754510807E+02  0.61808129092E+01  0.39944988143E+02  0.47000000000E+01 0. -1.
         -5    1    3    3    0  502 -0.35059857279E+02  0.15648574386E+02  0.23901782939E+03  0.24212741323E+03  0.47000000000E+01 0. -1.
        -11    1    4    4    0    0  0.28394747287E+02  0.15888506638E+02  0.12303642652E+03  0.12726613284E+03  0.00000000000E+00 0. -1.
         11    1    4    4    0    0  0.88605109827E+00 -0.70291591830E+02  0.36594707652E+03  0.37263783461E+03  0.00000000000E+00 0.  1.
<mgrwt>
<rscale>  0 0.12955532E+03</rscale>
<asrwt>0</asrwt>
<pdfrwt beam="1">  1        4 0.11662756E+00 0.13943624E+03</pdfrwt>
<pdfrwt beam="2">  1       -4 0.36764793E-02 0.13943624E+03</pdfrwt>
<totfact> 0.38913723E+02</totfact>
</mgrwt>
</event>
<event>
 8    1  0.1033707E-005  0.1277394E+03  0.7546771E-02  0.1246282E+00
          1   -1    0    0  501    0  0.00000000000E+00  0.00000000000E+00  0.21788314622E+03  0.21788314622E+03  0.00000000000E+00 0. -1.
         -1   -1    0    0    0  501 -0.00000000000E+00 -0.00000000000E+00 -0.56303590357E+02  0.56303590357E+02  0.00000000000E+00 0.  1.
         23    2    1    2    0    0  0.67755000360E+01  0.25418014458E+02  0.84401330910E+02  0.15310434754E+03  0.12500149486E+03 0.  0.
         23    2    1    2    0    0 -0.67755000360E+01 -0.25418014458E+02  0.77178224957E+02  0.12108238904E+03  0.89512477724E+02 0.  0.
          5    1    3    3  502    0  0.24783158291E+02  0.72362611566E+02  0.43496373027E+02  0.88116836950E+02  0.47000000000E+01 0.  1.
         -5    1    3    3    0  502 -0.18007658255E+02 -0.46944597108E+02  0.40904957883E+02  0.64987510592E+02  0.47000000000E+01 0.  1.
        -11    1    4    4    0    0  0.16331888504E+02 -0.28836009920E+02 -0.68735853230E+01  0.33845121146E+02  0.00000000000E+00 0.  1.
         11    1    4    4    0    0 -0.23107388540E+02  0.34179954614E+01  0.84051810280E+02  0.87237267893E+02  0.00000000000E+00 0. -1.
<mgrwt>
<rscale>  0 0.11808954E+03</rscale>
<asrwt>0</asrwt>
<pdfrwt beam="1">  1        1 0.33520484E-01 0.12773941E+03</pdfrwt>
<pdfrwt beam="2">  1       -1 0.86620909E-02 0.12773941E+03</pdfrwt>
<totfact> 0.94140487E+03</totfact>
</mgrwt>
</event>
<event>
 8    1  0.1033707E-005  0.1337001E+03  0.7546771E-02  0.1234194E+00
         -1   -1    0    0    0  501 -0.00000000000E+00  0.00000000000E+00  0.24505655147E+02  0.24505655147E+02  0.00000000000E+00 0.  1.
          1   -1    0    0  501    0  0.00000000000E+00 -0.00000000000E+00 -0.60440536105E+03  0.60440536105E+03  0.00000000000E+00 0. -1.
         23    2    1    2    0    0  0.27262841764E+02 -0.38805679421E+02 -0.25732795945E+03  0.28998860925E+03  0.12500628578E+03 0.  0.
         23    2    1    2    0    0 -0.27262841764E+02  0.38805679421E+02 -0.32257174645E+03  0.33892240694E+03  0.92556593615E+02 0.  0.
          5    1    3    3  502    0 -0.95330683330E+01 -0.78232760668E+02 -0.16607873348E+03  0.18388985820E+03  0.47000000000E+01 0. -1.
         -5    1    3    3    0  502  0.36795910097E+02  0.39427081247E+02 -0.91249225969E+02  0.10609875106E+03  0.47000000000E+01 0. -1.
        -11    1    4    4    0    0 -0.16727262613E+02 -0.29172791783E+02 -0.13528847323E+03  0.13940525128E+03  0.00000000000E+00 0. -1.
         11    1    4    4    0    0 -0.10535579151E+02  0.67978471204E+02 -0.18728327322E+03  0.19951715567E+03  0.00000000000E+00 0.  1.
<mgrwt>
<rscale>  0 0.12556149E+03</rscale>
<asrwt>0</asrwt>
<pdfrwt beam="2">  1        1 0.92985432E-01 0.13370009E+03</pdfrwt>
<pdfrwt beam="1">  1       -1 0.37701011E-02 0.13370009E+03</pdfrwt>
<totfact> 0.89430721E+03</totfact>
</mgrwt>
</event>
<event>
 8    1  0.1033707E-005  0.1268317E+03  0.7546771E-02  0.1247180E+00
          3   -1    0    0  501    0  0.00000000000E+00  0.00000000000E+00  0.67716346698E+02  0.67716346698E+02  0.00000000000E+00 0. -1.
         -3   -1    0    0    0  501 -0.00000000000E+00 -0.00000000000E+00 -0.22956822713E+03  0.22956822713E+03  0.00000000000E+00 0.  1.
         23    2    1    2    0    0 -0.21221117528E+02  0.46113598165E+01 -0.15931767568E+03  0.20363789112E+03  0.12495866695E+03 0.  0.
         23    2    1    2    0    0  0.21221117528E+02 -0.46113598165E+01 -0.25342047451E+01  0.93646682703E+02  0.91058654279E+02 0.  0.
          5    1    3    3  502    0  0.23521455757E+02 -0.23856039161E+02 -0.14445482765E+03  0.14836325932E+03  0.47000000000E+01 0. -1.
         -5    1    3    3    0  502 -0.44742573285E+02  0.28467398978E+02 -0.14862848031E+02  0.55274631798E+02  0.47000000000E+01 0. -1.
        -11    1    4    4    0    0  0.19524566608E+02  0.31676415587E+02 -0.30249101661E+02  0.47954271520E+02  0.00000000000E+00 0.  1.
         11    1    4    4    0    0  0.16965509200E+01 -0.36287775403E+02  0.27714896916E+02  0.45692411184E+02  0.00000000000E+00 0. -1.
<mgrwt>
<rscale>  0 0.11755851E+03</rscale>
<asrwt>0</asrwt>
<pdfrwt beam="1">  1        3 0.10417899E-01 0.12683166E+03</pdfrwt>
<pdfrwt beam="2">  1       -3 0.35318189E-01 0.12683166E+03</pdfrwt>
<totfact> 0.12376415E+03</totfact>
</mgrwt>
</event>
<event>
 7    1  0.1033707E-005  0.3226033E+03  0.7546771E-02  0.1118697E+00
         -2   -1    0    0    0  501 -0.00000000000E+00  0.00000000000E+00  0.34566465769E+02  0.34566465769E+02  0.00000000000E+00 0.  1.
          2   -1    0    0  501    0  0.00000000000E+00 -0.00000000000E+00 -0.13349564291E+04  0.13349564291E+04  0.00000000000E+00 0. -1.
         23    2    1    2    0    0  0.13444995103E+02  0.41121091263E+02 -0.41319509316E+03  0.42549553444E+03  0.91894247771E+02 0.  0.
          5    1    1    2  502    0 -0.11156548518E+03  0.38726143549E+02 -0.74217984743E+03  0.75153149475E+03  0.47000000000E+01 0. -1.
         -5    1    1    2    0  502  0.98120490082E+02 -0.79847234813E+02 -0.14501502273E+03  0.19249586566E+03  0.47000000000E+01 0.  1.
        -11    1    3    3    0    0  0.14967751874E+02  0.70308025782E+02 -0.31130301645E+03  0.31949463240E+03  0.00000000000E+00 0.  1.
         11    1    3    3    0    0 -0.15227567707E+01 -0.29186934519E+02 -0.10189207671E+03  0.10600090203E+03  0.00000000000E+00 0. -1.
<mgrwt>
<rscale>  0 0.24165287E+03</rscale>
<asrwt>0</asrwt>
<pdfrwt beam="2">  1        2 0.20537789E+00 0.32260335E+03</pdfrwt>
<pdfrwt beam="1">  1       -2 0.53179184E-02 0.32260335E+03</pdfrwt>
<totfact> 0.29907376E+03</totfact>
</mgrwt>
</event>
<event>
 8    1  0.1033707E-005  0.1347995E+03  0.7546771E-02  0.1234167E+00
          4   -1    0    0  501    0  0.00000000000E+00  0.00000000000E+00  0.25681584927E+02  0.25681584927E+02  0.00000000000E+00 0. -1.
         -4   -1    0    0    0  501 -0.00000000000E+00 -0.00000000000E+00 -0.54549668729E+03  0.54549668729E+03  0.00000000000E+00 0.  1.
         23    2    1    2    0    0 -0.47055312933E+02  0.18218266608E+02 -0.31257827673E+03  0.34040575875E+03  0.12499917515E+03 0.  0.
         23    2    1    2    0    0  0.47055312933E+02 -0.18218266608E+02 -0.20723682563E+03  0.23077251347E+03  0.88106432024E+02 0.  0.
          5    1    3    3  502    0 -0.50300423979E+02  0.31672581675E+02 -0.31893930310E+03  0.32446518171E+03  0.47000000000E+01 0. -1.
         -5    1    3    3    0  502  0.32451110463E+01 -0.13454315068E+02  0.63610263669E+01  0.15940577031E+02  0.47000000000E+01 0. -1.
        -11    1    4    4    0    0 -0.18914358655E+02 -0.24355119211E+02 -0.10068646458E+03  0.10530284396E+03  0.00000000000E+00 0.  1.
         11    1    4    4    0    0  0.65969671588E+02  0.61368526038E+01 -0.10655036105E+03  0.12546966952E+03  0.00000000000E+00 0. -1.
<mgrwt>
<rscale>  0 0.12557913E+03</rscale>
<asrwt>0</asrwt>
<pdfrwt beam="1">  1        4 0.39510134E-02 0.13479949E+03</pdfrwt>
<pdfrwt beam="2">  1       -4 0.83922560E-01 0.13479949E+03</pdfrwt>
<totfact> 0.73690615E+02</totfact>
</mgrwt>
</event>
<event>
 8    1  0.1033707E-005  0.1320692E+03  0.7546771E-02  0.1237742E+00
         -1   -1    0    0    0  501 -0.00000000000E+00  0.00000000000E+00  0.99179404821E+02  0.99179404821E+02  0.00000000000E+00 0.  1.
          1   -1    0    0  501    0  0.00000000000E+00 -0.00000000000E+00 -0.16379468972E+03  0.16379468972E+03  0.00000000000E+00 0. -1.
         23    2    1    2    0    0  0.32163478751E+02 -0.27910950895E+02  0.17611692705E+02  0.13323831874E+03  0.12501506836E+03 0.  0.
         23    2    1    2    0    0 -0.32163478751E+02  0.27910950895E+02 -0.82226977608E+02  0.12973577580E+03  0.90865753349E+02 0.  0.
          5    1    3    3  502    0  0.34996322766E+02 -0.75431678999E+02  0.18817488397E+02  0.85386583685E+02  0.47000000000E+01 0.  1.
         -5    1    3    3    0  502 -0.28328440159E+01  0.47520728104E+02 -0.12057956918E+01  0.47851735057E+02  0.47000000000E+01 0.  1.
        -11    1    4    4    0    0 -0.39318352415E+02 -0.19361244142E+02 -0.13206443581E+02  0.45773363034E+02  0.00000000000E+00 0.  1.
         11    1    4    4    0    0  0.71548736643E+01  0.47272195037E+02 -0.69020534027E+02  0.83962412770E+02  0.00000000000E+00 0. -1.
<mgrwt>
<rscale>  0 0.12330492E+03</rscale>
<asrwt>0</asrwt>
<pdfrwt beam="2">  1        1 0.25199183E-01 0.13206922E+03</pdfrwt>
<pdfrwt beam="1">  1       -1 0.15258370E-01 0.13206922E+03</pdfrwt>
<totfact> 0.56345443E+03</totfact>
</mgrwt>
</event>
<event>
 8    1  0.1033707E-005  0.1285060E+03  0.7546771E-02  0.1243818E+00
          2   -1    0    0  501    0  0.00000000000E+00  0.00000000000E+00  0.19306340650E+02  0.19306340650E+02  0.00000000000E+00 0. -1.
         -2   -1    0    0    0  501 -0.00000000000E+00 -0.00000000000E+00 -0.89847738092E+03  0.89847738092E+03  0.00000000000E+00 0.  1.
         23    2    1    2    0    0 -0.29515159148E+02  0.42267666448E+01 -0.72282192599E+03  0.73415620389E+03  0.12499913938E+03 0.  0.
         23    2    1    2    0    0  0.29515159148E+02 -0.42267666448E+01 -0.15634911428E+03  0.18362751767E+03  0.91569697695E+02 0.  0.
          5    1    3    3  502    0 -0.27305787009E+02  0.61194146983E+02 -0.29654005569E+03  0.30405332470E+03  0.47000000000E+01 0. -1.
         -5    1    3    3    0  502 -0.22093721396E+01 -0.56967380338E+02 -0.42628187030E+03  0.43010287920E+03  0.47000000000E+01 0. -1.
        -11    1    4    4    0    0  0.11129783686E+02  0.41454657903E+02 -0.46701968406E+02  0.63430549420E+02  0.00000000000E+00 0. -1.
         11    1    4    4    0    0  0.18385375463E+02 -0.45681424548E+02 -0.10964714587E+03  0.12019696825E+03  0.00000000000E+00 0.  1.
<mgrwt>
<rscale>  0 0.11956418E+03</rscale>
<asrwt>0</asrwt>
<pdfrwt beam="1">  1        2 0.29702066E-02 0.12850601E+03</pdfrwt>
<pdfrwt beam="2">  1       -2 0.13822727E+00 0.12850601E+03</pdfrwt>
<totfact> 0.11948690E+03</totfact>
</mgrwt>
</event>
<event>
 8    1  0.1033707E-005  0.1760964E+03  0.7546771E-02  0.1177476E+00
         -2   -1    0    0    0  501 -0.00000000000E+00  0.00000000000E+00  0.22066919245E+03  0.22066919245E+03  0.00000000000E+00 0.  1.
          2   -1    0    0  501    0  0.00000000000E+00 -0.00000000000E+00 -0.14212549710E+03  0.14212549710E+03  0.00000000000E+00 0. -1.
         23    2    1    2    0    0  0.12263587391E+03 -0.17842080996E+02  0.10685310872E+03  0.20597945439E+03  0.12510815866E+03 0.  0.
         23    2    1    2    0    0 -0.12263587391E+03  0.17842080996E+02 -0.28309413367E+02  0.15681523516E+03  0.91824276046E+02 0.  0.
          5    1    3    3  502    0 -0.89033451028E+01  0.32958843813E+02  0.27637755081E+02  0.44175677080E+02  0.47000000000E+01 0. -1.
         -5    1    3    3    0  502  0.13153921901E+03 -0.50800924810E+02  0.79215353637E+02  0.16180377731E+03  0.47000000000E+01 0. -1.
        -11    1    4    4    0    0 -0.59667690799E+02 -0.22743707375E+01  0.31640352609E+02  0.67576016461E+02  0.00000000000E+00 0.  1.
         11    1    4    4    0    0 -0.62968183108E+02  0.20116451734E+02 -0.59949765975E+02  0.89239218703E+02  0.00000000000E+00 0. -1.
<mgrwt>
<rscale>  0 0.17035751E+03</rscale>
<asrwt>0</asrwt>
<pdfrwt beam="2">  1        2 0.21865461E-01 0.17609642E+03</pdfrwt>
<pdfrwt beam="1">  1       -2 0.33949106E-01 0.17609642E+03</pdfrwt>
<totfact> 0.20016517E+03</totfact>
</mgrwt>
</event>
<event>
 8    1  0.1033707E-005  0.1407765E+03  0.7546771E-02  0.1223386E+00
          2   -1    0    0  501    0  0.00000000000E+00  0.00000000000E+00  0.69327474844E+02  0.69327474844E+02  0.00000000000E+00 0. -1.
         -2   -1    0    0    0  501 -0.00000000000E+00 -0.00000000000E+00 -0.31543025732E+03  0.31543025732E+03  0.00000000000E+00 0.  1.
         23    2    1    2    0    0 -0.82688821029E+01  0.64135557187E+02 -0.23346635813E+03  0.27262533990E+03  0.12504515772E+03 0.  0.
         23    2    1    2    0    0  0.82688821029E+01 -0.64135557187E+02 -0.12636424343E+02  0.11213239226E+03  0.90731747850E+02 0.  0.
          5    1    3    3  502    0  0.38257959604E+02  0.62595130197E+02 -0.20517846731E+03  0.21794979983E+03  0.47000000000E+01 0.  1.
         -5    1    3    3    0  502 -0.46526841707E+02  0.15404269901E+01 -0.28287890816E+02  0.54675540064E+02  0.47000000000E+01 0.  1.
        -11    1    4    4    0    0 -0.30490836334E+01 -0.80333402521E+02 -0.30020564946E+02  0.85813674850E+02  0.00000000000E+00 0.  1.
         11    1    4    4    0    0  0.11317965736E+02  0.16197845334E+02  0.17384140603E+02  0.26318717415E+02  0.00000000000E+00 0. -1.
<mgrwt>
<rscale>  0 0.13278122E+03</rscale>
<asrwt>0</asrwt>
<pdfrwt beam="1">  1        2 0.10665766E-01 0.14077654E+03</pdfrwt>
<pdfrwt beam="2">  1       -2 0.48527731E-01 0.14077654E+03</pdfrwt>
<totfact> 0.23294109E+03</totfact>
</mgrwt>
</event>
<event>
 8    1  0.1033707E-005  0.1258613E+03  0.7546771E-02  0.1248594E+00
         -2   -1    0    0    0  501 -0.00000000000E+00  0.00000000000E+00  0.58041708625E+02  0.58041708625E+02  0.00000000000E+00 0.  1.
          2   -1    0    0  501    0  0.00000000000E+00 -0.00000000000E+00 -0.20685418841E+03  0.20685418841E+03  0.00000000000E+00 0. -1.
         23    2    1    2    0    0 -0.13640922456E+02 -0.49776845620E+01 -0.80389725928E+02  0.14934377301E+03  0.12502080784E+03 0.  0.
         23    2    1    2    0    0  0.13640922456E+02  0.49776845620E+01 -0.68422753855E+02  0.11555212402E+03  0.91976997191E+02 0.  0.
          5    1    3    3  502    0  0.47631827144E+02 -0.28173445495E+02 -0.17057286371E+02  0.58099698850E+02  0.47000000000E+01 0.  1.
         -5    1    3    3    0  502 -0.61272749600E+02  0.23195760933E+02 -0.63332439556E+02  0.91244074158E+02  0.47000000000E+01 0.  1.
        -11    1    4    4    0    0 -0.15831783275E+02 -0.37198577646E+02 -0.20901165136E+02  0.45510858535E+02  0.00000000000E+00 0. -1.
         11    1    4    4    0    0  0.29472705731E+02  0.42176262208E+02 -0.47521588719E+02  0.70041265489E+02  0.00000000000E+00 0.  1.
<mgrwt>
<rscale>  0 0.11672807E+03</rscale>
<asrwt>0</asrwt>
<pdfrwt beam="2">  1        2 0.31823721E-01 0.12586125E+03</pdfrwt>
<pdfrwt beam="1">  1       -2 0.89294937E-02 0.12586125E+03</pdfrwt>
<totfact> 0.12190318E+04</totfact>
</mgrwt>
</event>
<event>
 8    1  0.1033707E-005  0.1172275E+03  0.7546771E-02  0.1256024E+00
          1   -1    0    0  501    0  0.00000000000E+00  0.00000000000E+00  0.56304509405E+02  0.56304509405E+02  0.00000000000E+00 0. -1.
         -1   -1    0    0    0  501 -0.00000000000E+00 -0.00000000000E+00 -0.27933316854E+03  0.27933316854E+03  0.00000000000E+00 0.  1.
         23    2    1    2    0    0 -0.11510103150E+02  0.37412949872E+02 -0.20273361189E+03  0.23418624039E+03  0.11049916970E+03 0.  0.
         23    2    1    2    0    0  0.11510103150E+02 -0.37412949872E+02 -0.20295047249E+02  0.10145143756E+03  0.91368998831E+02 0.  0.
          5    1    3    3  502    0  0.24638187774E+02 -0.21026507852E+02 -0.18720997704E+02  0.37705703604E+02  0.47000000000E+01 0. -1.
         -5    1    3    3    0  502 -0.36148290924E+02  0.58439457724E+02 -0.18401261419E+03  0.19648053679E+03  0.47000000000E+01 0.  1.
        -11    1    4    4    0    0 -0.11610231712E+02 -0.22936398794E+02 -0.52974708030E+02  0.58882897016E+02  0.00000000000E+00 0.  1.
         11    1    4    4    0    0  0.23120334862E+02 -0.14476551078E+02  0.32679660782E+02  0.42568540544E+02  0.00000000000E+00 0. -1.
<mgrwt>
<rscale>  0 0.11249142E+03</rscale>
<asrwt>0</asrwt>
<pdfrwt beam="1">  1        1 0.86622323E-02 0.11722746E+03</pdfrwt>
<pdfrwt beam="2">  1       -1 0.42974333E-01 0.11722746E+03</pdfrwt>
<totfact> 0.40170607E+03</totfact>
</mgrwt>
</event>
<event>
 8    1  0.1033707E-005  0.1647423E+03  0.7546771E-02  0.1190025E+00
         -1   -1    0    0    0  501 -0.00000000000E+00  0.00000000000E+00  0.33682330469E+03  0.33682330469E+03  0.00000000000E+00 0.  1.
          1   -1    0    0  501    0  0.00000000000E+00 -0.00000000000E+00 -0.71381228352E+02  0.71381228352E+02  0.00000000000E+00 0. -1.
         23    2    1    2    0    0 -0.63418578856E+02  0.86561367383E+02  0.17064892737E+03  0.23719416605E+03  0.12500091812E+03 0.  0.
         23    2    1    2    0    0  0.63418578856E+02 -0.86561367383E+02  0.94793148969E+02  0.17101036699E+03  0.93509454382E+02 0.  0.
          5    1    3    3  502    0  0.17738824527E+02  0.58410095580E+02  0.12641018908E+03  0.14045650951E+03  0.47000000000E+01 0. -1.
         -5    1    3    3    0  502 -0.81157403382E+02  0.28151271803E+02  0.44238738293E+02  0.96737656544E+02  0.47000000000E+01 0. -1.
        -11    1    4    4    0    0 -0.34711676904E+01 -0.18970025691E+02  0.70181998549E+02  0.72783403330E+02  0.00000000000E+00 0.  1.
         11    1    4    4    0    0  0.66889746546E+02 -0.67591341692E+02  0.24611150419E+02  0.98226963659E+02  0.00000000000E+00 0. -1.
<mgrwt>
<rscale>  0 0.15882926E+03</rscale>
<asrwt>0</asrwt>
<pdfrwt beam="2">  1        1 0.10981728E-01 0.16474227E+03</pdfrwt>
<pdfrwt beam="1">  1       -1 0.51818969E-01 0.16474227E+03</pdfrwt>
<totfact> 0.21275824E+03</totfact>
</mgrwt>
</event>
<event>
 8    1  0.1033707E-005  0.1486833E+03  0.7546771E-02  0.1211122E+00
         -2   -1    0    0    0  501 -0.00000000000E+00  0.00000000000E+00  0.13051382761E+03  0.13051382761E+03  0.00000000000E+00 0.  1.
          2   -1    0    0  501    0  0.00000000000E+00 -0.00000000000E+00 -0.14217284241E+03  0.14217284241E+03  0.00000000000E+00 0. -1.
         23    2    1    2    0    0 -0.22084202420E+02  0.77410013822E+02  0.66469104738E+01  0.14883175986E+03  0.12500675617E+03 0.  0.
         23    2    1    2    0    0  0.22084202420E+02 -0.77410013822E+02 -0.18305925274E+02  0.12385491016E+03  0.92330437197E+02 0.  0.
          5    1    3    3  502    0 -0.54997339120E+02 -0.83462316942E+01 -0.53326629276E+01  0.56079356163E+02  0.47000000000E+01 0. -1.
         -5    1    3    3    0  502  0.32913136699E+02  0.85756245516E+02  0.11979573401E+02  0.92752403696E+02  0.47000000000E+01 0. -1.
        -11    1    4    4    0    0 -0.50693271442E+01 -0.21032442604E+02  0.35336678503E+02  0.41433592256E+02  0.00000000000E+00 0.  1.
         11    1    4    4    0    0  0.27153529565E+02 -0.56377571218E+02 -0.53642603777E+02  0.82421317899E+02  0.00000000000E+00 0. -1.
<mgrwt>
<rscale>  0 0.14165301E+03</rscale>
<asrwt>0</asrwt>
<pdfrwt beam="2">  1        2 0.21872745E-01 0.14868326E+03</pdfrwt>
<pdfrwt beam="1">  1       -2 0.20079050E-01 0.14868326E+03</pdfrwt>
<totfact> 0.50187352E+03</totfact>
</mgrwt>
</event>
<event>
 8    1  0.1033707E-005  0.2216880E+03  0.7546771E-02  0.1136177E+00
          2   -1    0    0  501    0  0.00000000000E+00  0.00000000000E+00  0.49432683514E+03  0.49432683514E+03  0.00000000000E+00 0. -1.
         -2   -1    0    0    0  501 -0.00000000000E+00 -0.00000000000E+00 -0.12990238753E+03  0.12990238753E+03  0.00000000000E+00 0.  1.
         23    2    1    2    0    0 -0.17165320644E+03 -0.63682615455E+02  0.17846415936E+02  0.22240521590E+03  0.12500114682E+03 0.  0.
         23    2    1    2    0    0  0.17165320644E+03  0.63682615455E+02  0.34657803167E+03  0.40182400678E+03  0.88464126029E+02 0.  0.
          5    1    3    3  502    0 -0.24092589799E+02  0.35933879783E+02  0.57315266908E+01  0.43893473293E+02  0.47000000000E+01 0. -1.
         -5    1    3    3    0  502 -0.14756061664E+03 -0.99616495239E+02  0.12114889245E+02  0.17851174260E+03  0.47000000000E+01 0. -1.
        -11    1    4    4    0    0  0.87370926871E+02  0.78807992931E+02  0.19632666026E+03  0.22888542142E+03  0.00000000000E+00 0.  1.
         11    1    4    4    0    0  0.84282279565E+02 -0.15125377476E+02  0.15025137142E+03  0.17293858536E+03  0.00000000000E+00 0. -1.
<mgrwt>
<rscale>  0 0.21695074E+03</rscale>
<asrwt>0</asrwt>
<pdfrwt beam="1">  1        2 0.76050281E-01 0.22168804E+03</pdfrwt>
<pdfrwt beam="2">  1       -2 0.19984983E-01 0.22168804E+03</pdfrwt>
<totfact> 0.13244223E+03</totfact>
</mgrwt>
</event>
<event>
 7    1  0.1033707E-005  0.2895047E+03  0.7546771E-02  0.1090608E+00
          1   -1    0    0  501    0  0.00000000000E+00  0.00000000000E+00  0.32042778737E+03  0.32042778737E+03  0.00000000000E+00 0. -1.
         -1   -1    0    0    0  501 -0.00000000000E+00 -0.00000000000E+00 -0.65391471599E+02  0.65391471599E+02  0.00000000000E+00 0.  1.
         23    2    1    2    0    0  0.31694457923E+02  0.24143859545E+02  0.16719018872E+03  0.21250752855E+03  0.12497770148E+03 0.  0.
          5    1    3    3  502    0  0.59683689258E+02  0.37891378729E+02  0.39785642385E+02  0.81258148425E+02  0.47000000000E+01 0. -1.
         -5    1    3    3    0  502 -0.27989231335E+02 -0.13747519184E+02  0.12740454634E+03  0.13124938012E+03  0.47000000000E+01 0. -1.
        -11    1    1    2    0    0 -0.61124798853E+02  0.12827494048E+02  0.10571914137E+03  0.12278974912E+03  0.00000000000E+00 0. -1.
         11    1    1    2    0    0  0.29430340930E+02 -0.36971353593E+02 -0.17873014319E+02  0.50521981301E+02  0.00000000000E+00 0.  1.
<mgrwt>
<rscale>  0 0.28950471E+03</rscale>
<asrwt>0</asrwt>
<pdfrwt beam="1">  1        1 0.49296582E-01 0.28950471E+03</pdfrwt>
<pdfrwt beam="2">  1       -1 0.10060227E-01 0.28950471E+03</pdfrwt>
<totfact> 0.48466217E+03</totfact>
</mgrwt>
</event>
<event>
 8    1  0.1033707E-005  0.1311962E+03  0.7546771E-02  0.1239812E+00
          1   -1    0    0  501    0  0.00000000000E+00  0.00000000000E+00  0.33708582850E+03  0.33708582850E+03  0.00000000000E+00 0. -1.
         -1   -1    0    0    0  501 -0.00000000000E+00 -0.00000000000E+00 -0.40192506690E+02  0.40192506690E+02  0.00000000000E+00 0.  1.
         23    2    1    2    0    0  0.38169675373E+02  0.11432586165E+02  0.13716790713E+03  0.18980902288E+03  0.12499920910E+03 0.  0.
         23    2    1    2    0    0 -0.38169675373E+02 -0.11432586165E+02  0.15972541468E+03  0.18746931231E+03  0.89693404540E+02 0.  0.
          5    1    3    3  502    0 -0.22972852310E+01 -0.16932720010E+02 -0.18975528539E+02  0.25964499027E+02  0.47000000000E+01 0. -1.
         -5    1    3    3    0  502  0.40466960604E+02  0.28365306175E+02  0.15614343567E+03  0.16384452385E+03  0.47000000000E+01 0. -1.
        -11    1    4    4    0    0 -0.10923952203E+02  0.39172183371E+02  0.67156461269E+02  0.78509763545E+02  0.00000000000E+00 0. -1.
         11    1    4    4    0    0 -0.27245723170E+02 -0.50604769536E+02  0.92568953415E+02  0.10895954877E+03  0.00000000000E+00 0.  1.
<mgrwt>
<rscale>  0 0.12201364E+03</rscale>
<asrwt>0</asrwt>
<pdfrwt beam="1">  1        1 0.51859356E-01 0.13119615E+03</pdfrwt>
<pdfrwt beam="2">  1       -1 0.61834628E-02 0.13119615E+03</pdfrwt>
<totfact> 0.91221808E+03</totfact>
</mgrwt>
</event>
<event>
 7    1  0.1033707E-005  0.1815015E+03  0.7546771E-02  0.1172481E+00
         -1   -1    0    0    0  501 -0.00000000000E+00  0.00000000000E+00  0.13196920441E+03  0.13196920441E+03  0.00000000000E+00 0.  1.
          1   -1    0    0  501    0  0.00000000000E+00 -0.00000000000E+00 -0.34222454627E+03  0.34222454627E+03  0.00000000000E+00 0. -1.
         23    2    1    2    0    0  0.12261744749E+03  0.39584749818E+02 -0.24304278532E+03  0.28975455353E+03  0.91027001199E+02 0.  0.
          5    1    1    2  502    0 -0.42287793940E+02  0.41098272227E+02 -0.14755656104E+02  0.60968392495E+02  0.47000000000E+01 0. -1.
         -5    1    1    2    0  502 -0.80329653554E+02 -0.80683022045E+02  0.47543099564E+02  0.12347080466E+03  0.47000000000E+01 0.  1.
        -11    1    3    3    0    0  0.27891710799E+02  0.46321858138E+02 -0.13764653209E+03  0.14788586771E+03  0.00000000000E+00 0.  1.
         11    1    3    3    0    0  0.94725736695E+02 -0.67371083201E+01 -0.10539625323E+03  0.14186868582E+03  0.00000000000E+00 0. -1.
<mgrwt>
<rscale>  0 0.17525029E+03</rscale>
<asrwt>0</asrwt>
<pdfrwt beam="2">  1        1 0.52649930E-01 0.18150152E+03</pdfrwt>
<pdfrwt beam="1">  1       -1 0.20302955E-01 0.18150152E+03</pdfrwt>
<totfact> 0.14462729E+03</totfact>
</mgrwt>
</event>
<event>
 8    1  0.1033707E-005  0.2083673E+03  0.7546771E-02  0.1146290E+00
          1   -1    0    0  501    0  0.00000000000E+00  0.00000000000E+00  0.15625350452E+03  0.15625350452E+03  0.00000000000E+00 0. -1.
         -1   -1    0    0    0  501 -0.00000000000E+00 -0.00000000000E+00 -0.25648846863E+03  0.25648846863E+03  0.00000000000E+00 0.  1.
         23    2    1    2    0    0 -0.42644317292E+02  0.16118156459E+03 -0.49227471538E+02  0.21410343263E+03  0.12497560302E+03 0.  0.
         23    2    1    2    0    0  0.42644317292E+02 -0.16118156459E+03 -0.51007492565E+02  0.19863854052E+03  0.95170746151E+02 0.  0.
          5    1    3    3  502    0 -0.73132674142E+02  0.62210562211E+02 -0.54129116568E+02  0.11032041216E+03  0.47000000000E+01 0.  1.
         -5    1    3    3    0  502  0.30488356850E+02  0.98971002375E+02  0.49016450299E+01  0.10378302047E+03  0.47000000000E+01 0.  1.
        -11    1    4    4    0    0  0.33666849402E+02 -0.10337108321E+03  0.15775988408E+02  0.10985408233E+03  0.00000000000E+00 0. -1.
         11    1    4    4    0    0  0.89774678902E+01 -0.57810481373E+02 -0.66783480973E+02  0.88784458196E+02  0.00000000000E+00 0.  1.
<mgrwt>
<rscale>  0 0.20414323E+03</rscale>
<asrwt>0</asrwt>
<pdfrwt beam="1">  1        1 0.24039001E-01 0.20836731E+03</pdfrwt>
<pdfrwt beam="2">  1       -1 0.39459764E-01 0.20836731E+03</pdfrwt>
<totfact> 0.12661326E+03</totfact>
</mgrwt>
</event>
<event>
 8    1  0.1033707E-005  0.1331710E+03  0.7546771E-02  0.1234569E+00
          1   -1    0    0  501    0  0.00000000000E+00  0.00000000000E+00  0.13214969494E+03  0.13214969494E+03  0.00000000000E+00 0. -1.
         -1   -1    0    0    0  501 -0.00000000000E+00 -0.00000000000E+00 -0.11317096982E+03  0.11317096982E+03  0.00000000000E+00 0.  1.
         23    2    1    2    0    0 -0.13583962491E+02  0.43880024911E+02 -0.18311806640E+02  0.13442409862E+03  0.12499814160E+03 0.  0.
         23    2    1    2    0    0  0.13583962491E+02 -0.43880024911E+02  0.37290531759E+02  0.11089656614E+03  0.93794903909E+02 0.  0.
          5    1    3    3  502    0  0.21188602442E+02 -0.19778213821E+02  0.33958476609E+02  0.44893237230E+02  0.47000000000E+01 0.  1.
         -5    1    3    3    0  502 -0.34772564933E+02  0.63658238733E+02 -0.52270283249E+02  0.89530861391E+02  0.47000000000E+01 0.  1.
        -11    1    4    4    0    0 -0.10610518728E+02  0.16990302035E+02 -0.16646308373E+02  0.26045211716E+02  0.00000000000E+00 0.  1.
         11    1    4    4    0    0  0.24194481219E+02 -0.60870326946E+02  0.53936840132E+02  0.84851354423E+02  0.00000000000E+00 0. -1.
<mgrwt>
<rscale>  0 0.12532068E+03</rscale>
<asrwt>0</asrwt>
<pdfrwt beam="1">  1        1 0.20330722E-01 0.13317100E+03</pdfrwt>
<pdfrwt beam="2">  1       -1 0.17410918E-01 0.13317100E+03</pdfrwt>
<totfact> 0.60025615E+03</totfact>
</mgrwt>
</event>
<event>
 8    1  0.1033707E-005  0.2465603E+03  0.7546771E-02  0.1117935E+00
         -1   -1    0    0    0  501 -0.00000000000E+00  0.00000000000E+00  0.37712246781E+02  0.37712246781E+02  0.00000000000E+00 0.  1.
          1   -1    0    0  501    0  0.00000000000E+00 -0.00000000000E+00 -0.15206498331E+04  0.15206498331E+04  0.00000000000E+00 0. -1.
         23    2    1    2    0    0 -0.20812606195E+03  0.43032793900E+02 -0.72897316365E+03  0.76954133275E+03  0.12499484176E+03 0.  0.
         23    2    1    2    0    0  0.20812606195E+03 -0.43032793900E+02 -0.75396442269E+03  0.78882074716E+03  0.92776836811E+02 0.  0.
          5    1    3    3  502    0 -0.11752060683E+03  0.68055204715E+02 -0.55872039517E+03  0.57500710770E+03  0.47000000000E+01 0. -1.
         -5    1    3    3    0  502 -0.90605455125E+02 -0.25022410815E+02 -0.17025276848E+03  0.19453422505E+03  0.47000000000E+01 0. -1.
        -11    1    4    4    0    0  0.76032866812E+02 -0.41382864660E+02 -0.17843018842E+03  0.19832012117E+03  0.00000000000E+00 0.  1.
         11    1    4    4    0    0  0.13209319514E+03 -0.16499292406E+01 -0.57553423427E+03  0.59050062598E+03  0.00000000000E+00 0. -1.
<mgrwt>
<rscale>  0 0.24280955E+03</rscale>
<asrwt>0</asrwt>
<pdfrwt beam="2">  1        1 0.23394617E+00 0.24656032E+03</pdfrwt>
<pdfrwt beam="1">  1       -1 0.58018831E-02 0.24656032E+03</pdfrwt>
<totfact> 0.97699460E+02</totfact>
</mgrwt>
</event>
<event>
 8    1  0.1033707E-005  0.1764408E+03  0.7546771E-02  0.1177733E+00
          1   -1    0    0  501    0  0.00000000000E+00  0.00000000000E+00  0.22178162751E+03  0.22178162751E+03  0.00000000000E+00 0. -1.
         -1   -1    0    0    0  501 -0.00000000000E+00 -0.00000000000E+00 -0.12377730534E+03  0.12377730534E+03  0.00000000000E+00 0.  1.
         23    2    1    2    0    0 -0.27039877099E+02  0.12155267187E+03  0.31471782935E+02  0.17922565028E+03  0.12500061442E+03 0.  0.
         23    2    1    2    0    0  0.27039877099E+02 -0.12155267187E+03  0.66532539233E+02  0.16633328258E+03  0.87943022037E+02 0.  0.
          5    1    3    3  502    0 -0.31163388952E+02  0.12840437868E+03 -0.13873515725E+02  0.13294136194E+03  0.47000000000E+01 0. -1.
         -5    1    3    3    0  502  0.41235118530E+01 -0.68517068166E+01  0.45345298660E+02  0.46284288337E+02  0.47000000000E+01 0. -1.
        -11    1    4    4    0    0  0.44800466825E+02 -0.24387085759E+02  0.37724842422E+02  0.63442694735E+02  0.00000000000E+00 0.  1.
         11    1    4    4    0    0 -0.17760589726E+02 -0.97165586107E+02  0.28807696812E+02  0.10289058784E+03  0.00000000000E+00 0. -1.
<mgrwt>
<rscale>  0 0.17010976E+03</rscale>
<asrwt>0</asrwt>
<pdfrwt beam="1">  1        1 0.34120250E-01 0.17644081E+03</pdfrwt>
<pdfrwt beam="2">  1       -1 0.19042662E-01 0.17644081E+03</pdfrwt>
<totfact> 0.27545799E+03</totfact>
</mgrwt>
</event>
<event>
 7    1  0.1033707E-005  0.2065522E+03  0.7546771E-02  0.1174484E+00
         -3   -1    0    0    0  501 -0.00000000000E+00  0.00000000000E+00  0.44176277985E+02  0.44176277985E+02  0.00000000000E+00 0.  1.
          3   -1    0    0  501    0  0.00000000000E+00 -0.00000000000E+00 -0.59440052451E+03  0.59440052451E+03  0.00000000000E+00 0. -1.
         23    2    1    2    0    0 -0.19313537762E+02  0.41840516462E+02 -0.28244332417E+03  0.30038980063E+03  0.91302570603E+02 0.  0.
          5    1    1    2  502    0 -0.66649684436E+01  0.80629162334E+02 -0.11301585811E+03  0.13906889590E+03  0.47000000000E+01 0. -1.
         -5    1    1    2    0  502  0.25978506206E+02 -0.12246967880E+03 -0.15476506424E+03  0.19911810596E+03  0.47000000000E+01 0.  1.
        -11    1    3    3    0    0 -0.51597957701E+02  0.17986562355E+02 -0.10393382232E+03  0.11742276222E+03  0.00000000000E+00 0. -1.
         11    1    3    3    0    0  0.32284419939E+02  0.23853954107E+02 -0.17850950185E+03  0.18296703842E+03  0.00000000000E+00 0.  1.
<mgrwt>
<rscale>  0 0.17326580E+03</rscale>
<asrwt>0</asrwt>
<pdfrwt beam="2">  1        3 0.91446231E-01 0.20655224E+03</pdfrwt>
<pdfrwt beam="1">  1       -3 0.67963507E-02 0.20655224E+03</pdfrwt>
<totfact> 0.37887001E+02</totfact>
</mgrwt>
</event>
<event>
 8    1  0.1033707E-005  0.1272193E+03  0.7546771E-02  0.1245533E+00
         -1   -1    0    0    0  501 -0.00000000000E+00  0.00000000000E+00  0.11211641716E+04  0.11211641716E+04  0.00000000000E+00 0.  1.
          1   -1    0    0  501    0  0.00000000000E+00 -0.00000000000E+00 -0.16492044123E+02  0.16492044123E+02  0.00000000000E+00 0. -1.
         23    2    1    2    0    0 -0.17705644138E+02 -0.15455664392E+02  0.92767151678E+03  0.93635420538E+03  0.12502954652E+03 0.  0.
         23    2    1    2    0    0  0.17705644138E+02  0.15455664392E+02  0.17700061069E+03  0.20130201033E+03  0.92956526302E+02 0.  0.
          5    1    3    3  502    0  0.45374353768E+02  0.22429399135E+02  0.28851154989E+03  0.29295548185E+03  0.47000000000E+01 0. -1.
         -5    1    3    3    0  502 -0.63079997906E+02 -0.37885063527E+02  0.63915996689E+03  0.64339872353E+03  0.47000000000E+01 0. -1.
        -11    1    4    4    0    0 -0.16808337750E+02 -0.31715488411E+02  0.85467076303E+02  0.92698508913E+02  0.00000000000E+00 0. -1.
         11    1    4    4    0    0  0.34513981888E+02  0.47171152802E+02  0.91533534391E+02  0.10860350142E+03  0.00000000000E+00 0.  1.
<mgrwt>
<rscale>  0 0.11853555E+03</rscale>
<asrwt>0</asrwt>
<pdfrwt beam="2">  1        1 0.25372384E-02 0.12721932E+03</pdfrwt>
<pdfrwt beam="1">  1       -1 0.17248674E+00 0.12721932E+03</pdfrwt>
<totfact> 0.10905183E+03</totfact>
</mgrwt>
</event>
<event>
 8    1  0.1033707E-005  0.1682933E+03  0.7546771E-02  0.1184921E+00
         -1   -1    0    0    0  501 -0.00000000000E+00  0.00000000000E+00  0.12273726075E+03  0.12273726075E+03  0.00000000000E+00 0.  1.
          1   -1    0    0  501    0  0.00000000000E+00 -0.00000000000E+00 -0.20868279018E+03  0.20868279018E+03  0.00000000000E+00 0. -1.
         23    2    1    2    0    0  0.11171007027E+03  0.14786314851E+02 -0.65129831171E+02  0.18045646255E+03  0.12499946024E+03 0.  0.
         23    2    1    2    0    0 -0.11171007027E+03 -0.14786314851E+02 -0.20815698261E+02  0.15096358838E+03  0.98279890189E+02 0.  0.
          5    1    3    3  502    0 -0.80019120577E+01  0.22213103891E+02  0.21619328095E+02  0.32356420203E+02  0.47000000000E+01 0.  1.
         -5    1    3    3    0  502  0.11971198233E+03 -0.74267890400E+01 -0.86749159267E+02  0.14810004234E+03  0.47000000000E+01 0.  1.
        -11    1    4    4    0    0 -0.11335061159E+03 -0.25095146982E+02  0.11823456444E+02  0.11669585114E+03  0.00000000000E+00 0.  1.
         11    1    4    4    0    0  0.16405413235E+01  0.10308832131E+02 -0.32639154705E+02  0.34267737240E+02  0.00000000000E+00 0. -1.
<mgrwt>
<rscale>  0 0.16339025E+03</rscale>
<asrwt>0</asrwt>
<pdfrwt beam="2">  1        1 0.32105045E-01 0.16829332E+03</pdfrwt>
<pdfrwt beam="1">  1       -1 0.18882655E-01 0.16829332E+03</pdfrwt>
<totfact> 0.30069669E+03</totfact>
</mgrwt>
</event>
<event>
 7    1  0.1033707E-005  0.1670565E+03  0.7546771E-02  0.1205704E+00
          1   -1    0    0  501    0  0.00000000000E+00  0.00000000000E+00  0.34458984025E+03  0.34458984025E+03  0.00000000000E+00 0. -1.
         -1   -1    0    0    0  501 -0.00000000000E+00 -0.00000000000E+00 -0.50729212648E+02  0.50729212648E+02  0.00000000000E+00 0.  1.
         23    2    1    2    0    0  0.30912766568E+02  0.14114491277E+02  0.11841654335E+03  0.15306193046E+03  0.90833137223E+02 0.  0.
          5    1    1    2  502    0 -0.16309902873E+02 -0.26524476245E+02  0.20462349392E+03  0.20703242509E+03  0.47000000000E+01 0. -1.
         -5    1    1    2    0  502 -0.14602863694E+02  0.12409984968E+02 -0.29179409667E+02  0.35224697351E+02  0.47000000000E+01 0.  1.
        -11    1    3    3    0    0  0.44251169703E+02  0.33245430780E+02  0.11731286233E+03  0.12971404070E+03  0.00000000000E+00 0.  1.
         11    1    3    3    0    0 -0.13338403136E+02 -0.19130939504E+02  0.11036810212E+01  0.23347889761E+02  0.00000000000E+00 0. -1.
<mgrwt>
<rscale>  0 0.14582105E+03</rscale>
<asrwt>0</asrwt>
<pdfrwt beam="1">  1        1 0.53013820E-01 0.16705654E+03</pdfrwt>
<pdfrwt beam="2">  1       -1 0.78044945E-02 0.16705654E+03</pdfrwt>
<totfact> 0.63544209E+03</totfact>
</mgrwt>
</event>
<event>
 8    1  0.1033707E-005  0.1571047E+03  0.7546771E-02  0.1199881E+00
         -2   -1    0    0    0  501 -0.00000000000E+00  0.00000000000E+00  0.18468738226E+03  0.18468738226E+03  0.00000000000E+00 0.  1.
          2   -1    0    0  501    0  0.00000000000E+00 -0.00000000000E+00 -0.12293208076E+03  0.12293208076E+03  0.00000000000E+00 0. -1.
         23    2    1    2    0    0 -0.54975841295E+02  0.77705317613E+02  0.76158630642E+02  0.17459100773E+03  0.12498569297E+03 0.  0.
         23    2    1    2    0    0  0.54975841295E+02 -0.77705317613E+02 -0.14403329141E+02  0.13302845530E+03  0.91807704017E+02 0.  0.
          5    1    3    3  502    0  0.24009702295E+02  0.65264526104E+02  0.61933340447E+02  0.93240296175E+02  0.47000000000E+01 0. -1.
         -5    1    3    3    0  502 -0.78985543590E+02  0.12440791508E+02  0.14225290194E+02  0.81350711556E+02  0.47000000000E+01 0. -1.
        -11    1    4    4    0    0  0.45936385832E+02 -0.36316303653E+02 -0.50534877745E+02  0.77348557343E+02  0.00000000000E+00 0. -1.
         11    1    4    4    0    0  0.90394554636E+01 -0.41389013960E+02  0.36131548604E+02  0.55679897954E+02  0.00000000000E+00 0.  1.
<mgrwt>
<rscale>  0 0.15048314E+03</rscale>
<asrwt>0</asrwt>
<pdfrwt beam="2">  1        2 0.18912628E-01 0.15710469E+03</pdfrwt>
<pdfrwt beam="1">  1       -2 0.28413443E-01 0.15710469E+03</pdfrwt>
<totfact> 0.32442336E+03</totfact>
</mgrwt>
</event>
<event>
 8    1  0.1033707E-005  0.1268286E+03  0.7546771E-02  0.1245442E+00
          1   -1    0    0  501    0  0.00000000000E+00  0.00000000000E+00  0.79418693240E+03  0.79418693240E+03  0.00000000000E+00 0. -1.
         -1   -1    0    0    0  501 -0.00000000000E+00 -0.00000000000E+00 -0.18095959733E+02  0.18095959733E+02  0.00000000000E+00 0.  1.
         23    2    1    2    0    0 -0.28371425851E+02  0.14991385036E+02  0.28849513841E+03  0.31514271343E+03  0.12270210069E+03 0.  0.
         23    2    1    2    0    0  0.28371425851E+02 -0.14991385036E+02  0.48759583426E+03  0.49714017870E+03  0.91482130830E+02 0.  0.
          5    1    3    3  502    0  0.60568612376E+01 -0.21711784828E+02  0.25139063748E+03  0.25244292380E+03  0.47000000000E+01 0. -1.
         -5    1    3    3    0  502 -0.34428287089E+02  0.36703169865E+02  0.37104500932E+02  0.62699789628E+02  0.47000000000E+01 0.  1.
        -11    1    4    4    0    0  0.91516733074E+01 -0.53183382134E+02  0.25506479305E+03  0.26071109281E+03  0.00000000000E+00 0.  1.
         11    1    4    4    0    0  0.19219752544E+02  0.38191997097E+02  0.23253104121E+03  0.23642908589E+03  0.00000000000E+00 0. -1.
<mgrwt>
<rscale>  0 0.11858945E+03</rscale>
<asrwt>0</asrwt>
<pdfrwt beam="1">  1        1 0.12218258E+00 0.12682857E+03</pdfrwt>
<pdfrwt beam="2">  1       -1 0.27839944E-02 0.12682857E+03</pdfrwt>
<totfact> 0.93975350E+03</totfact>
</mgrwt>
</event>
<event>
 8    1  0.1033707E-005  0.1317679E+03  0.7546771E-02  0.1239754E+00
          2   -1    0    0  501    0  0.00000000000E+00  0.00000000000E+00  0.35702951808E+03  0.35702951808E+03  0.00000000000E+00 0. -1.
         -2   -1    0    0    0  501 -0.00000000000E+00 -0.00000000000E+00 -0.39995028799E+02  0.39995028799E+02  0.00000000000E+00 0.  1.
         23    2    1    2    0    0  0.14463465448E+02  0.39079550053E+02  0.12373133433E+03  0.18075462515E+03  0.12500555328E+03 0.  0.
         23    2    1    2    0    0 -0.14463465448E+02 -0.39079550053E+02  0.19330315495E+03  0.21626992173E+03  0.87579485424E+02 0.  0.
          5    1    3    3  502    0  0.51582986798E+02 -0.24649989667E+02  0.46298852433E+02  0.73716349979E+02  0.47000000000E+01 0. -1.
         -5    1    3    3    0  502 -0.37119521350E+02  0.63729539719E+02  0.77432481898E+02  0.10703827517E+03  0.47000000000E+01 0. -1.
        -11    1    4    4    0    0 -0.23691625080E+02 -0.54233690390E+02  0.18894883910E+03  0.19800063149E+03  0.00000000000E+00 0. -1.
         11    1    4    4    0    0  0.92281596316E+01  0.15154140337E+02  0.43543158514E+01  0.18269290246E+02  0.00000000000E+00 0.  1.
<mgrwt>
<rscale>  0 0.12204957E+03</rscale>
<asrwt>0</asrwt>
<pdfrwt beam="1">  1        2 0.54927616E-01 0.13176795E+03</pdfrwt>
<pdfrwt beam="2">  1       -2 0.61530816E-02 0.13176795E+03</pdfrwt>
<totfact> 0.12133032E+04</totfact>
</mgrwt>
</event>
<event>
 8    1  0.1033707E-005  0.1359800E+03  0.7546771E-02  0.1229468E+00
          2   -1    0    0  501    0  0.00000000000E+00  0.00000000000E+00  0.18169162377E+03  0.18169162377E+03  0.00000000000E+00 0. -1.
         -2   -1    0    0    0  501 -0.00000000000E+00 -0.00000000000E+00 -0.83287857780E+02  0.83287857780E+02  0.00000000000E+00 0.  1.
         23    2    1    2    0    0  0.28610644382E+02 -0.45245140328E+02  0.42187567342E+02  0.14237393980E+03  0.12499942480E+03 0.  0.
         23    2    1    2    0    0 -0.28610644382E+02  0.45245140328E+02  0.56216198643E+02  0.12260554175E+03  0.94900822873E+02 0.  0.
          5    1    3    3  502    0 -0.20824603866E+02 -0.25475917625E+02 -0.35141889279E+02  0.48370744124E+02  0.47000000000E+01 0.  1.
         -5    1    3    3    0  502  0.49435248248E+02 -0.19769222703E+02  0.77329456621E+02  0.94003195674E+02  0.47000000000E+01 0.  1.
        -11    1    4    4    0    0 -0.18094163658E+02  0.71794638815E+02  0.57912773091E+02  0.93998713864E+02  0.00000000000E+00 0. -1.
         11    1    4    4    0    0 -0.10516480724E+02 -0.26549498486E+02 -0.16965744474E+01  0.28606827883E+02  0.00000000000E+00 0.  1.
<mgrwt>
<rscale>  0 0.12865332E+03</rscale>
<asrwt>0</asrwt>
<pdfrwt beam="1">  1        2 0.27952557E-01 0.13597995E+03</pdfrwt>
<pdfrwt beam="2">  1       -2 0.12813517E-01 0.13597995E+03</pdfrwt>
<totfact> 0.79787396E+03</totfact>
</mgrwt>
</event>
<event>
 8    1  0.1033707E-005  0.1592354E+03  0.7546771E-02  0.1198102E+00
          1   -1    0    0  501    0  0.00000000000E+00  0.00000000000E+00  0.17755546969E+03  0.17755546969E+03  0.00000000000E+00 0. -1.
         -1   -1    0    0    0  501 -0.00000000000E+00 -0.00000000000E+00 -0.14538377877E+03  0.14538377877E+03  0.00000000000E+00 0.  1.
         23    2    1    2    0    0  0.15014306688E+00 -0.98637100627E+02 -0.50642664370E+02  0.16709457947E+03  0.12500647531E+03 0.  0.
         23    2    1    2    0    0 -0.15014306688E+00  0.98637100627E+02  0.82814355292E+02  0.15584466899E+03  0.87749890305E+02 0.  0.
          5    1    3    3  502    0 -0.33723523407E+02  0.84429455515E+01 -0.41462459611E+02  0.54311922425E+02  0.47000000000E+01 0. -1.
         -5    1    3    3    0  502  0.33873666474E+02 -0.10708004618E+03 -0.91802047589E+01  0.11278265704E+03  0.47000000000E+01 0. -1.
        -11    1    4    4    0    0  0.42286168674E+01  0.36985251718E+02  0.86251455111E+02  0.93942022301E+02  0.00000000000E+00 0. -1.
         11    1    4    4    0    0 -0.43787599343E+01  0.61651848910E+02 -0.34370998191E+01  0.61902646694E+02  0.00000000000E+00 0.  1.
<mgrwt>
<rscale>  0 0.15194622E+03</rscale>
<asrwt>0</asrwt>
<pdfrwt beam="1">  1        1 0.27316226E-01 0.15923542E+03</pdfrwt>
<pdfrwt beam="2">  1       -1 0.22366735E-01 0.15923542E+03</pdfrwt>
<totfact> 0.27923402E+03</totfact>
</mgrwt>
</event>
<event>
 8    1  0.1033707E-005  0.1281121E+03  0.7546771E-02  0.1238033E+00
         -2   -1    0    0    0  501 -0.00000000000E+00  0.00000000000E+00  0.36595449351E+03  0.36595449351E+03  0.00000000000E+00 0.  1.
          2   -1    0    0  501    0  0.00000000000E+00 -0.00000000000E+00 -0.40662845274E+02  0.40662845274E+02  0.00000000000E+00 0. -1.
         23    2    1    2    0    0 -0.11614685500E+02 -0.25565219589E+02  0.22158462031E+03  0.25595401124E+03  0.12499692212E+03 0.  0.
         23    2    1    2    0    0  0.11614685500E+02  0.25565219589E+02  0.10370702792E+03  0.15066332754E+03  0.10562106444E+03 0.  0.
          5    1    3    3  502    0  0.34203561582E+00  0.26894771811E+02 -0.58783890567E+00  0.27310827408E+02  0.47000000000E+01 0.  1.
         -5    1    3    3    0  502 -0.11956721116E+02 -0.52459991400E+02  0.22217245921E+03  0.22864318383E+03  0.47000000000E+01 0.  1.
        -11    1    4    4    0    0 -0.20319363190E+02  0.22270855691E+02 -0.10582238759E+02  0.31950763853E+02  0.00000000000E+00 0. -1.
         11    1    4    4    0    0  0.31934048690E+02  0.32943638983E+01  0.11428926668E+03  0.11871256369E+03  0.00000000000E+00 0.  1.
<mgrwt>
<rscale>  0 0.12312257E+03</rscale>
<asrwt>0</asrwt>
<pdfrwt beam="2">  1        2 0.62558226E-02 0.12811211E+03</pdfrwt>
<pdfrwt beam="1">  1       -2 0.56300689E-01 0.12811211E+03</pdfrwt>
<totfact> 0.33573392E+03</totfact>
</mgrwt>
</event>
<event>
 8    1  0.1033707E-005  0.2140353E+03  0.7546771E-02  0.1142044E+00
          1   -1    0    0  501    0  0.00000000000E+00  0.00000000000E+00  0.55418980526E+02  0.55418980526E+02  0.00000000000E+00 0. -1.
         -1   -1    0    0    0  501 -0.00000000000E+00 -0.00000000000E+00 -0.80421534348E+03  0.80421534348E+03  0.00000000000E+00 0.  1.
         23    2    1    2    0    0 -0.45616261043E+02  0.16764584426E+03 -0.49198814290E+03  0.53652906874E+03  0.12500054593E+03 0.  0.
         23    2    1    2    0    0  0.45616261043E+02 -0.16764584426E+03 -0.25680822006E+03  0.32310525527E+03  0.90887687415E+02 0.  0.
          5    1    3    3  502    0 -0.75636056409E+02  0.11602244001E+03 -0.23647837285E+03  0.27409146364E+03  0.47000000000E+01 0.  1.
         -5    1    3    3    0  502  0.30019795366E+02  0.51623404248E+02 -0.25550977006E+03  0.26243760511E+03  0.47000000000E+01 0.  1.
        -11    1    4    4    0    0 -0.27593873086E+02 -0.56837447696E+02 -0.87334306309E+02  0.10779238540E+03  0.00000000000E+00 0. -1.
         11    1    4    4    0    0  0.73210134129E+02 -0.11080839656E+03 -0.16947391375E+03  0.21531286986E+03  0.00000000000E+00 0.  1.
<mgrwt>
<rscale>  0 0.20939737E+03</rscale>
<asrwt>0</asrwt>
<pdfrwt beam="1">  1        1 0.85259967E-02 0.21403530E+03</pdfrwt>
<pdfrwt beam="2">  1       -1 0.12372544E+00 0.21403530E+03</pdfrwt>
<totfact> 0.48968939E+02</totfact>
</mgrwt>
</event>
<event>
 8    1  0.1033707E-005  0.1325109E+03  0.7546771E-02  0.1238412E+00
         -2   -1    0    0    0  501 -0.00000000000E+00  0.00000000000E+00  0.26914275338E+02  0.26914275338E+02  0.00000000000E+00 0.  1.
          2   -1    0    0  501    0  0.00000000000E+00 -0.00000000000E+00 -0.50902385738E+03  0.50902385738E+03  0.00000000000E+00 0. -1.
         23    2    1    2    0    0 -0.36125573477E+02 -0.25065453635E+02 -0.32222029673E+03  0.34840357840E+03  0.12500319911E+03 0.  0.
         23    2    1    2    0    0  0.36125573477E+02  0.25065453635E+02 -0.15988928531E+03  0.18753455433E+03  0.87585909157E+02 0.  0.
          5    1    3    3  502    0 -0.34647784133E+02  0.57601215417E+01 -0.13206978078E+02  0.37817485578E+02  0.47000000000E+01 0. -1.
         -5    1    3    3    0  502 -0.14777893440E+01 -0.30825575177E+02 -0.30901331865E+03  0.31058609282E+03  0.47000000000E+01 0. -1.
        -11    1    4    4    0    0  0.57367490308E+02  0.16452088877E+02 -0.58440208030E+02  0.83528187382E+02  0.00000000000E+00 0.  1.
         11    1    4    4    0    0 -0.21241916831E+02  0.86133647575E+01 -0.10144907728E+03  0.10400636694E+03  0.00000000000E+00 0. -1.
<mgrwt>
<rscale>  0 0.12288495E+03</rscale>
<asrwt>0</asrwt>
<pdfrwt beam="2">  1        2 0.78311363E-01 0.13251088E+03</pdfrwt>
<pdfrwt beam="1">  1       -2 0.41406577E-02 0.13251088E+03</pdfrwt>
<totfact> 0.15019886E+04</totfact>
</mgrwt>
</event>
<event>
 8    1  0.1033707E-005  0.2083199E+03  0.7546771E-02  0.1146723E+00
          1   -1    0    0  501    0  0.00000000000E+00  0.00000000000E+00  0.74527801120E+03  0.74527801120E+03  0.00000000000E+00 0. -1.
         -1   -1    0    0    0  501 -0.00000000000E+00 -0.00000000000E+00 -0.55949495904E+02  0.55949495904E+02  0.00000000000E+00 0.  1.
         23    2    1    2    0    0 -0.16340738816E+03 -0.32677248035E+02  0.27185441114E+03  0.34249379399E+03  0.12500960371E+03 0.  0.
         23    2    1    2    0    0  0.16340738816E+03  0.32677248035E+02  0.41747410416E+03  0.45873371312E+03  0.91554436613E+02 0.  0.
          5    1    3    3  502    0 -0.13117590443E+03  0.30279521323E+02  0.15072780522E+03  0.20215075707E+03  0.47000000000E+01 0. -1.
         -5    1    3    3    0  502 -0.32231483731E+02 -0.62956769358E+02  0.12112660591E+03  0.14034303692E+03  0.47000000000E+01 0. -1.
        -11    1    4    4    0    0  0.11098253366E+03  0.21884396119E+02  0.37095506922E+03  0.38781917558E+03  0.00000000000E+00 0. -1.
         11    1    4    4    0    0  0.52424854504E+02  0.10792851916E+02  0.46519034942E+02  0.70914537538E+02  0.00000000000E+00 0.  1.
<mgrwt>
<rscale>  0 0.20361726E+03</rscale>
<asrwt>0</asrwt>
<pdfrwt beam="1">  1        1 0.11465815E+00 0.20831989E+03</pdfrwt>
<pdfrwt beam="2">  1       -1 0.86076153E-02 0.20831989E+03</pdfrwt>
<totfact> 0.19660586E+03</totfact>
</mgrwt>
</event>
<event>
 8    1  0.1033707E-005  0.1401976E+03  0.7546771E-02  0.1224208E+00
          1   -1    0    0  501    0  0.00000000000E+00  0.00000000000E+00  0.29661660976E+02  0.29661660976E+02  0.00000000000E+00 0. -1.
         -1   -1    0    0    0  501 -0.00000000000E+00 -0.00000000000E+00 -0.53582441350E+03  0.53582441350E+03  0.00000000000E+00 0.  1.
         23    2    1    2    0    0  0.38402766342E+02 -0.50559123439E+02 -0.30802343561E+03  0.33842844597E+03  0.12499751489E+03 0.  0.
         23    2    1    2    0    0 -0.38402766342E+02  0.50559123439E+02 -0.19813931691E+03  0.22705762850E+03  0.90911937232E+02 0.  0.
          5    1    3    3  502    0 -0.28868849359E+02 -0.58211452838E+02 -0.20463231488E+03  0.21475208497E+03  0.47000000000E+01 0. -1.
         -5    1    3    3    0  502  0.67271615701E+02  0.76523293994E+01 -0.10339112073E+03  0.12367636100E+03  0.47000000000E+01 0. -1.
        -11    1    4    4    0    0 -0.24715551912E+02 -0.22829181616E+02 -0.40631988710E+02  0.52754038197E+02  0.00000000000E+00 0. -1.
         11    1    4    4    0    0 -0.13687214430E+02  0.73388305055E+02 -0.15750732820E+03  0.17430359031E+03  0.00000000000E+00 0.  1.
<mgrwt>
<rscale>  0 0.13221353E+03</rscale>
<asrwt>0</asrwt>
<pdfrwt beam="1">  1        1 0.45633328E-02 0.14019763E+03</pdfrwt>
<pdfrwt beam="2">  1       -1 0.82434520E-01 0.14019763E+03</pdfrwt>
<totfact> 0.28005896E+03</totfact>
</mgrwt>
</event>
<event>
 8    1  0.1033707E-005  0.1843778E+03  0.7546771E-02  0.1168636E+00
          1   -1    0    0  501    0  0.00000000000E+00  0.00000000000E+00  0.63592433184E+02  0.63592433184E+02  0.00000000000E+00 0. -1.
         -1   -1    0    0    0  501 -0.00000000000E+00 -0.00000000000E+00 -0.48945524322E+03  0.48945524322E+03  0.00000000000E+00 0.  1.
         23    2    1    2    0    0 -0.52852590453E+02  0.12480629914E+03 -0.26717583087E+03  0.32461992421E+03  0.12500064788E+03 0.  0.
         23    2    1    2    0    0  0.52852590453E+02 -0.12480629914E+03 -0.15868697916E+03  0.22842775219E+03  0.92885262521E+02 0.  0.
          5    1    3    3  502    0 -0.27733574231E+02  0.13550158049E+03 -0.14947324250E+03  0.20370117741E+03  0.47000000000E+01 0. -1.
         -5    1    3    3    0  502 -0.25119016222E+02 -0.10695281350E+02 -0.11770258837E+03  0.12091874680E+03  0.47000000000E+01 0. -1.
        -11    1    4    4    0    0 -0.83006573924E+01 -0.34069012001E+02 -0.96267180044E+02  0.10245471412E+03  0.00000000000E+00 0.  1.
         11    1    4    4    0    0  0.61153247846E+02 -0.90737287134E+02 -0.62419799118E+02  0.12597303807E+03  0.00000000000E+00 0. -1.
<mgrwt>
<rscale>  0 0.17914194E+03</rscale>
<asrwt>0</asrwt>
<pdfrwt beam="1">  1        1 0.97834511E-02 0.18437779E+03</pdfrwt>
<pdfrwt beam="2">  1       -1 0.75300808E-01 0.18437779E+03</pdfrwt>
<totfact> 0.12100218E+03</totfact>
</mgrwt>
</event>
<event>
 8    1  0.1033707E-005  0.1615483E+03  0.7546771E-02  0.1193641E+00
         -3   -1    0    0    0  501 -0.00000000000E+00  0.00000000000E+00  0.19344159580E+03  0.19344159580E+03  0.00000000000E+00 0.  1.
          3   -1    0    0  501    0  0.00000000000E+00 -0.00000000000E+00 -0.12814125371E+03  0.12814125371E+03  0.00000000000E+00 0. -1.
         23    2    1    2    0    0 -0.95765029563E+02  0.36069046192E+02 -0.12360528569E+02  0.16202049122E+03  0.12500375966E+03 0.  0.
         23    2    1    2    0    0  0.95765029563E+02 -0.36069046192E+02  0.77660870659E+02  0.15956235828E+03  0.94641525608E+02 0.  0.
          5    1    3    3  502    0 -0.62681527347E+02 -0.28644320977E+02 -0.44756889249E+02  0.82308809553E+02  0.47000000000E+01 0. -1.
         -5    1    3    3    0  502 -0.33083502216E+02  0.64713367169E+02  0.32396360680E+02  0.79711681669E+02  0.47000000000E+01 0. -1.
        -11    1    4    4    0    0  0.98257562553E+02 -0.93279002604E+01  0.86549994054E+02  0.13127246396E+03  0.00000000000E+00 0.  1.
         11    1    4    4    0    0 -0.24925329899E+01 -0.26741145932E+02 -0.88891233949E+01  0.28289894329E+02  0.00000000000E+00 0. -1.
<mgrwt>
<rscale>  0 0.15569797E+03</rscale>
<asrwt>0</asrwt>
<pdfrwt beam="2">  1        3 0.19714039E-01 0.16154831E+03</pdfrwt>
<pdfrwt beam="1">  1       -3 0.29760245E-01 0.16154831E+03</pdfrwt>
<totfact> 0.59566439E+02</totfact>
</mgrwt>
</event>
<event>
 8    1  0.1033707E-005  0.3391476E+03  0.7546771E-02  0.1068485E+00
         -1   -1    0    0    0  501 -0.00000000000E+00  0.00000000000E+00  0.11452935145E+03  0.11452935145E+03  0.00000000000E+00 0.  1.
          1   -1    0    0  501    0  0.00000000000E+00 -0.00000000000E+00 -0.11178110445E+04  0.11178110445E+04  0.00000000000E+00 0. -1.
         23    2    1    2    0    0 -0.22848229424E+03 -0.21723557491E+03 -0.28447743537E+03  0.44266068167E+03  0.12500245627E+03 0.  0.
         23    2    1    2    0    0  0.22848229424E+03  0.21723557491E+03 -0.71880425770E+03  0.78967971429E+03  0.86712377929E+02 0.  0.
          5    1    3    3  502    0 -0.97135373575E+02 -0.17615100144E+03 -0.16081394971E+03  0.25758041954E+03  0.47000000000E+01 0.  1.
         -5    1    3    3    0  502 -0.13134692066E+03 -0.41084573472E+02 -0.12366348566E+03  0.18508026213E+03  0.47000000000E+01 0.  1.
        -11    1    4    4    0    0  0.35155719732E+02  0.63262833435E+02 -0.10082995053E+03  0.12411603300E+03  0.00000000000E+00 0.  1.
         11    1    4    4    0    0  0.19332657451E+03  0.15397274148E+03 -0.61797430717E+03  0.66556368129E+03  0.00000000000E+00 0. -1.
<mgrwt>
<rscale>  0 0.33606331E+03</rscale>
<asrwt>0</asrwt>
<pdfrwt beam="2">  1        1 0.17197093E+00 0.33914756E+03</pdfrwt>
<pdfrwt beam="1">  1       -1 0.17619900E-01 0.33914756E+03</pdfrwt>
<totfact> 0.32412420E+02</totfact>
</mgrwt>
</event>
<event>
 8    1  0.1033707E-005  0.1339873E+03  0.7546771E-02  0.1234055E+00
          1   -1    0    0  501    0  0.00000000000E+00  0.00000000000E+00  0.51379116752E+02  0.51379116752E+02  0.00000000000E+00 0. -1.
         -1   -1    0    0    0  501 -0.00000000000E+00 -0.00000000000E+00 -0.28235789890E+03  0.28235789890E+03  0.00000000000E+00 0.  1.
         23    2    1    2    0    0  0.48261227242E+02  0.72809754203E+00 -0.15706217909E+03  0.20644886537E+03  0.12499171865E+03 0.  0.
         23    2    1    2    0    0 -0.48261227242E+02 -0.72809754203E+00 -0.73916603058E+02  0.12728815028E+03  0.91700233439E+02 0.  0.
          5    1    3    3  502    0  0.35660528621E+02  0.57518105004E+02 -0.49170886477E+02  0.83784675100E+02  0.47000000000E+01 0.  1.
         -5    1    3    3    0  502  0.12600698622E+02 -0.56790007462E+02 -0.10789129261E+03  0.12266419027E+03  0.47000000000E+01 0.  1.
        -11    1    4    4    0    0 -0.18991179630E+01  0.15283202814E+02 -0.76631799073E+02  0.78164029876E+02  0.00000000000E+00 0.  1.
         11    1    4    4    0    0 -0.46362109279E+02 -0.16011300356E+02  0.27151960153E+01  0.49124120403E+02  0.00000000000E+00 0. -1.
<mgrwt>
<rscale>  0 0.12565111E+03</rscale>
<asrwt>0</asrwt>
<pdfrwt beam="1">  1        1 0.79044797E-02 0.13398733E+03</pdfrwt>
<pdfrwt beam="2">  1       -1 0.43439676E-01 0.13398733E+03</pdfrwt>
<totfact> 0.44925369E+03</totfact>
</mgrwt>
</event>
<event>
 8    1  0.1033707E-005  0.2186877E+03  0.7546771E-02  0.1138372E+00
         -2   -1    0    0    0  501 -0.00000000000E+00  0.00000000000E+00  0.38558588818E+02  0.38558588818E+02  0.00000000000E+00 0.  1.
          2   -1    0    0  501    0  0.00000000000E+00 -0.00000000000E+00 -0.11439947849E+04  0.11439947849E+04  0.00000000000E+00 0. -1.
         23    2    1    2    0    0 -0.11653579627E+02  0.17905840849E+03 -0.60539886361E+03  0.64368631661E+03  0.12500628208E+03 0.  0.
         23    2    1    2    0    0  0.11653579627E+02 -0.17905840849E+03 -0.50003733244E+03  0.53886705707E+03  0.90236643311E+02 0.  0.
          5    1    3    3  502    0 -0.15840907290E+02  0.69332169694E+02 -0.43579543732E+03  0.44158536807E+03  0.47000000000E+01 0.  1.
         -5    1    3    3    0  502  0.41873276636E+01  0.10972623880E+03 -0.16960342629E+03  0.20210094854E+03  0.47000000000E+01 0.  1.
        -11    1    4    4    0    0 -0.36247203325E+02 -0.11660156277E+03 -0.29925981059E+03  0.32321234262E+03  0.00000000000E+00 0. -1.
         11    1    4    4    0    0  0.47900782952E+02 -0.62456845727E+02 -0.20077752185E+03  0.21565471445E+03  0.00000000000E+00 0.  1.
<mgrwt>
<rscale>  0 0.21408473E+03</rscale>
<asrwt>0</asrwt>
<pdfrwt beam="2">  1        2 0.17599919E+00 0.21868765E+03</pdfrwt>
<pdfrwt beam="1">  1       -2 0.59320909E-02 0.21868765E+03</pdfrwt>
<totfact> 0.32288971E+03</totfact>
</mgrwt>
</event>
<event>
 8    1  0.1033707E-005  0.2051835E+03  0.7546771E-02  0.1149475E+00
         -1   -1    0    0    0  501 -0.00000000000E+00  0.00000000000E+00  0.22709783667E+03  0.22709783667E+03  0.00000000000E+00 0.  1.
          1   -1    0    0  501    0  0.00000000000E+00 -0.00000000000E+00 -0.17119446176E+03  0.17119446176E+03  0.00000000000E+00 0. -1.
         23    2    1    2    0    0 -0.82372184363E+02 -0.14033448893E+03  0.52865179980E+02  0.21188435948E+03  0.12498523511E+03 0.  0.
         23    2    1    2    0    0  0.82372184363E+02  0.14033448893E+03  0.30381949249E+01  0.18640793895E+03  0.90883131190E+02 0.  0.
          5    1    3    3  502    0 -0.81182051686E+01  0.12786054315E+02  0.37784919248E+02  0.40977781329E+02  0.47000000000E+01 0. -1.
         -5    1    3    3    0  502 -0.74253979194E+02 -0.15312054325E+03  0.15080260732E+02  0.17090657815E+03  0.47000000000E+01 0. -1.
        -11    1    4    4    0    0  0.72432137192E+02  0.15357292429E+03  0.17957545334E+01  0.16980660266E+03  0.00000000000E+00 0. -1.
         11    1    4    4    0    0  0.99400471704E+01 -0.13238435357E+02  0.12424403915E+01  0.16601336289E+02  0.00000000000E+00 0.  1.
<mgrwt>
<rscale>  0 0.20031268E+03</rscale>
<asrwt>0</asrwt>
<pdfrwt beam="2">  1        1 0.26337609E-01 0.20518347E+03</pdfrwt>
<pdfrwt beam="1">  1       -1 0.34938129E-01 0.20518347E+03</pdfrwt>
<totfact> 0.13945547E+03</totfact>
</mgrwt>
</event>
<event>
 8    1  0.1033707E-005  0.1253073E+03  0.7546771E-02  0.1250311E+00
          1   -1    0    0  501    0  0.00000000000E+00  0.00000000000E+00  0.51711959591E+03  0.51711959591E+03  0.00000000000E+00 0. -1.
         -1   -1    0    0    0  501 -0.00000000000E+00 -0.00000000000E+00 -0.23408077702E+02  0.23408077702E+02  0.00000000000E+00 0.  1.
         23    2    1    2    0    0 -0.74841341125E+01  0.35947859644E+01  0.23667988955E+03  0.26780456296E+03  0.12503191223E+03 0.  0.
         23    2    1    2    0    0  0.74841341125E+01 -0.35947859644E+01  0.25703162866E+03  0.27272311065E+03  0.90794835772E+02 0.  0.
          5    1    3    3  502    0  0.36268213416E+02 -0.37403388016E+01  0.21515289300E+03  0.21827100312E+03  0.47000000000E+01 0. -1.
         -5    1    3    3    0  502 -0.43752347529E+02  0.73351247660E+01  0.21526996551E+02  0.49533559837E+02  0.47000000000E+01 0. -1.
        -11    1    4    4    0    0  0.19515531496E+02 -0.34922223659E+02  0.21620254639E+03  0.21987259661E+03  0.00000000000E+00 0. -1.
         11    1    4    4    0    0 -0.12031397384E+02  0.31327437695E+02  0.40829082271E+02  0.52850514043E+02  0.00000000000E+00 0.  1.
<mgrwt>
<rscale>  0 0.11573096E+03</rscale>
<asrwt>0</asrwt>
<pdfrwt beam="1">  1        1 0.79556852E-01 0.12530728E+03</pdfrwt>
<pdfrwt beam="2">  1       -1 0.36012431E-02 0.12530728E+03</pdfrwt>
<totfact> 0.11722254E+04</totfact>
</mgrwt>
</event>
<event>
 8    1  0.1033707E-005  0.1770562E+03  0.7546771E-02  0.1176495E+00
         -4   -1    0    0    0  501 -0.00000000000E+00  0.00000000000E+00  0.30586768432E+03  0.30586768432E+03  0.00000000000E+00 0.  1.
          4   -1    0    0  501    0  0.00000000000E+00 -0.00000000000E+00 -0.95336237917E+02  0.95336237917E+02  0.00000000000E+00 0. -1.
         23    2    1    2    0    0 -0.10562788367E+03  0.67575453073E+02  0.15830272135E+03  0.23750505767E+03  0.12500083666E+03 0.  0.
         23    2    1    2    0    0  0.10562788367E+03 -0.67575453073E+02  0.52228725050E+02  0.16369886456E+03  0.91355278300E+02 0.  0.
          5    1    3    3  502    0  0.24767340830E+02 -0.45297187273E+01  0.10828184139E+02  0.27807896275E+02  0.47000000000E+01 0. -1.
         -5    1    3    3    0  502 -0.13039522450E+03  0.72105171801E+02  0.14747453721E+03  0.20969716139E+03  0.47000000000E+01 0. -1.
        -11    1    4    4    0    0  0.38167500124E+02 -0.57729959043E+02  0.64295872605E+02  0.94464096200E+02  0.00000000000E+00 0.  1.
         11    1    4    4    0    0  0.67460383541E+02 -0.98454940299E+01 -0.12067147554E+02  0.69234768364E+02  0.00000000000E+00 0. -1.
<mgrwt>
<rscale>  0 0.17130368E+03</rscale>
<asrwt>0</asrwt>
<pdfrwt beam="2">  1        4 0.14667114E-01 0.17705621E+03</pdfrwt>
<pdfrwt beam="1">  1       -4 0.47056566E-01 0.17705621E+03</pdfrwt>
<totfact> 0.30020534E+02</totfact>
</mgrwt>
</event>
<event>
 8    1  0.1033707E-005  0.1599080E+03  0.7546771E-02  0.1195711E+00
         -2   -1    0    0    0  501 -0.00000000000E+00  0.00000000000E+00  0.32415916195E+03  0.32415916195E+03  0.00000000000E+00 0.  1.
          2   -1    0    0  501    0  0.00000000000E+00 -0.00000000000E+00 -0.75909879841E+02  0.75909879841E+02  0.00000000000E+00 0. -1.
         23    2    1    2    0    0  0.13433094658E+02 -0.98826860800E+02  0.19638940199E+03  0.25325752167E+03  0.12499351432E+03 0.  0.
         23    2    1    2    0    0 -0.13433094658E+02  0.98826860800E+02  0.51859880121E+02  0.14681152012E+03  0.94429756040E+02 0.  0.
          5    1    3    3  502    0  0.23952549297E+02  0.90484954844E+01 -0.30597729951E+01  0.26211678679E+02  0.47000000000E+01 0. -1.
         -5    1    3    3    0  502 -0.10519454640E+02 -0.10787535628E+03  0.19944917498E+03  0.22704584299E+03  0.47000000000E+01 0. -1.
        -11    1    4    4    0    0  0.38898269097E+02  0.49322989474E+02  0.38117229127E+02  0.73476225990E+02  0.00000000000E+00 0.  1.
         11    1    4    4    0    0 -0.52331363755E+02  0.49503871326E+02  0.13742650994E+02  0.73335294129E+02  0.00000000000E+00 0. -1.
<mgrwt>
<rscale>  0 0.15394210E+03</rscale>
<asrwt>0</asrwt>
<pdfrwt beam="2">  1        2 0.11678443E-01 0.15990802E+03</pdfrwt>
<pdfrwt beam="1">  1       -2 0.49870640E-01 0.15990802E+03</pdfrwt>
<totfact> 0.19894926E+03</totfact>
</mgrwt>
</event>
<event>
 8    1  0.1033707E-005  0.1408256E+03  0.7546771E-02  0.1219793E+00
         -2   -1    0    0    0  501 -0.00000000000E+00  0.00000000000E+00  0.59712007815E+02  0.59712007815E+02  0.00000000000E+00 0.  1.
          2   -1    0    0  501    0  0.00000000000E+00 -0.00000000000E+00 -0.28762651568E+03  0.28762651568E+03  0.00000000000E+00 0. -1.
         23    2    1    2    0    0 -0.13016649981E+02 -0.69502487390E+02 -0.10588986824E+03  0.17619452541E+03  0.12178595016E+03 0.  0.
         23    2    1    2    0    0  0.13016649981E+02  0.69502487390E+02 -0.12202463962E+03  0.17114399808E+03  0.96954765100E+02 0.  0.
          5    1    3    3  502    0 -0.50855623482E+02  0.10065881082E+02 -0.46831130232E+02  0.70020433878E+02  0.47000000000E+01 0. -1.
         -5    1    3    3    0  502  0.37838973501E+02 -0.79568368472E+02 -0.59058738009E+02  0.10617409153E+03  0.47000000000E+01 0.  1.
        -11    1    4    4    0    0  0.42862180614E+02  0.52277719377E+02 -0.11860106256E+03  0.13651497540E+03  0.00000000000E+00 0. -1.
         11    1    4    4    0    0 -0.29845530633E+02  0.17224768012E+02 -0.34235770653E+01  0.34629022680E+02  0.00000000000E+00 0.  1.
<mgrwt>
<rscale>  0 0.13530301E+03</rscale>
<asrwt>0</asrwt>
<pdfrwt beam="2">  1        2 0.44250233E-01 0.14082559E+03</pdfrwt>
<pdfrwt beam="1">  1       -2 0.91864628E-02 0.14082559E+03</pdfrwt>
<totfact> 0.82767897E+03</totfact>
</mgrwt>
</event>
<event>
 8    1  0.1033707E-005  0.1411242E+03  0.7546771E-02  0.1222848E+00
          1   -1    0    0  501    0  0.00000000000E+00  0.00000000000E+00  0.18276124399E+02  0.18276124399E+02  0.00000000000E+00 0. -1.
         -1   -1    0    0    0  501 -0.00000000000E+00 -0.00000000000E+00 -0.91100040418E+03  0.91100040418E+03  0.00000000000E+00 0.  1.
         23    2    1    2    0    0  0.60585051006E+02 -0.25020047646E+02 -0.58728636933E+03  0.60400439236E+03  0.12497789884E+03 0.  0.
         23    2    1    2    0    0 -0.60585051006E+02  0.25020047646E+02 -0.30543791045E+03  0.32527213622E+03  0.90626123554E+02 0.  0.
          5    1    3    3  502    0  0.70932898546E+02  0.35064673892E+02 -0.36111172030E+03  0.36970903694E+03  0.47000000000E+01 0.  1.
         -5    1    3    3    0  502 -0.10347847541E+02 -0.60084721538E+02 -0.22617464902E+03  0.23429535542E+03  0.47000000000E+01 0.  1.
        -11    1    4    4    0    0  0.16386910332E+02  0.23643066262E+01 -0.10477803213E+02  0.19593497294E+02  0.00000000000E+00 0. -1.
         11    1    4    4    0    0 -0.76971961337E+02  0.22655741020E+02 -0.29496010724E+03  0.30567863893E+03  0.00000000000E+00 0.  1.
<mgrwt>
<rscale>  0 0.13315474E+03</rscale>
<asrwt>0</asrwt>
<pdfrwt beam="1">  1        1 0.28117115E-02 0.14112415E+03</pdfrwt>
<pdfrwt beam="2">  1       -1 0.14015390E+00 0.14112415E+03</pdfrwt>
<totfact> 0.16415705E+03</totfact>
</mgrwt>
</event>
<event>
 8    1  0.1033707E-005  0.1326846E+03  0.7546771E-02  0.1235475E+00
          2   -1    0    0  501    0  0.00000000000E+00  0.00000000000E+00  0.10532602169E+03  0.10532602169E+03  0.00000000000E+00 0. -1.
         -2   -1    0    0    0  501 -0.00000000000E+00 -0.00000000000E+00 -0.13398159226E+03  0.13398159226E+03  0.00000000000E+00 0.  1.
         23    2    1    2    0    0 -0.38564145892E+02 -0.22193517929E+02 -0.28243019642E+02  0.13565717728E+03  0.12500182400E+03 0.  0.
         23    2    1    2    0    0  0.38564145892E+02  0.22193517929E+02 -0.41255093740E+00  0.10365043667E+03  0.93613552633E+02 0.  0.
          5    1    3    3  502    0 -0.10584233278E+02  0.46720630829E+02  0.13821279499E+02  0.50079547782E+02  0.47000000000E+01 0.  1.
         -5    1    3    3    0  502 -0.27979912614E+02 -0.68914148758E+02 -0.42064299141E+02  0.85577629501E+02  0.47000000000E+01 0.  1.
        -11    1    4    4    0    0  0.30878955507E+02  0.14643886323E+02 -0.45719170763E+02  0.57080608573E+02  0.00000000000E+00 0.  1.
         11    1    4    4    0    0  0.76851903845E+01  0.75496316068E+01  0.45306619826E+02  0.46569828094E+02  0.00000000000E+00 0. -1.
<mgrwt>
<rscale>  0 0.12474045E+03</rscale>
<asrwt>0</asrwt>
<pdfrwt beam="1">  1        2 0.16204003E-01 0.13268459E+03</pdfrwt>
<pdfrwt beam="2">  1       -2 0.20612553E-01 0.13268459E+03</pdfrwt>
<totfact> 0.67069730E+03</totfact>
</mgrwt>
</event>
<event>
 8    1  0.1033707E-005  0.1295681E+03  0.7546771E-02  0.1244498E+00
         -1   -1    0    0    0  501 -0.00000000000E+00  0.00000000000E+00  0.20502723624E+02  0.20502723624E+02  0.00000000000E+00 0.  1.
          1   -1    0    0  501    0  0.00000000000E+00 -0.00000000000E+00 -0.62550440413E+03  0.62550440413E+03  0.00000000000E+00 0. -1.
         23    2    1    2    0    0  0.33197793589E+02  0.77971035352E+01 -0.28940789432E+03  0.31708805343E+03  0.12500006406E+03 0.  0.
         23    2    1    2    0    0 -0.33197793589E+02 -0.77971035352E+01 -0.31559378619E+03  0.32891907432E+03  0.86170942015E+02 0.  0.
          5    1    3    3  502    0  0.33257992567E+01 -0.23392727836E+00 -0.28549891044E+03  0.28555705827E+03  0.47000000000E+01 0. -1.
         -5    1    3    3    0  502  0.29871994332E+02  0.80310308135E+01 -0.39089838757E+01  0.31530995167E+02  0.47000000000E+01 0. -1.
        -11    1    4    4    0    0  0.13648787867E+02  0.16783396282E+02 -0.22975974201E+02  0.31557363506E+02  0.00000000000E+00 0.  1.
         11    1    4    4    0    0 -0.46846581456E+02 -0.24580499817E+02 -0.29261781199E+03  0.29736171081E+03  0.00000000000E+00 0. -1.
<mgrwt>
<rscale>  0 0.11915498E+03</rscale>
<asrwt>0</asrwt>
<pdfrwt beam="2">  1        1 0.96231428E-01 0.12956815E+03</pdfrwt>
<pdfrwt beam="1">  1       -1 0.31542658E-02 0.12956815E+03</pdfrwt>
<totfact> 0.11048082E+04</totfact>
</mgrwt>
</event>
<event>
 8    1  0.1033707E-005  0.1363408E+03  0.7546771E-02  0.1236459E+00
         -1   -1    0    0    0  501 -0.00000000000E+00  0.00000000000E+00  0.21269021117E+03  0.21269021117E+03  0.00000000000E+00 0.  1.
          1   -1    0    0  501    0  0.00000000000E+00 -0.00000000000E+00 -0.84185460529E+02  0.84185460529E+02  0.00000000000E+00 0. -1.
         23    2    1    2    0    0 -0.16714391255E+02  0.51809149081E+02  0.14800833146E+03  0.20123440475E+03  0.12500104268E+03 0.  0.
         23    2    1    2    0    0  0.16714391255E+02 -0.51809149081E+02 -0.19503580816E+02  0.95641266946E+02  0.76179416347E+02 0.  0.
          5    1    3    3  502    0 -0.22027380259E+02 -0.39069437997E+02  0.52443180391E+02  0.69166492148E+02  0.47000000000E+01 0.  1.
         -5    1    3    3    0  502  0.53129890036E+01  0.90878587078E+02  0.95565151067E+02  0.13206791261E+03  0.47000000000E+01 0.  1.
        -11    1    4    4    0    0  0.13790581127E+02  0.10219803510E+02 -0.28123753620E+02  0.32947989761E+02  0.00000000000E+00 0. -1.
         11    1    4    4    0    0  0.29238101282E+01 -0.62028952590E+02  0.86201728041E+01  0.62693277186E+02  0.00000000000E+00 0.  1.
<mgrwt>
<rscale>  0 0.12411519E+03</rscale>
<asrwt>0</asrwt>
<pdfrwt beam="2">  1        1 0.12951609E-01 0.13634082E+03</pdfrwt>
<pdfrwt beam="1">  1       -1 0.32721571E-01 0.13634082E+03</pdfrwt>
<totfact> 0.38247530E+03</totfact>
</mgrwt>
</event>
<event>
 8    1  0.1033707E-005  0.1519007E+03  0.7546771E-02  0.1207153E+00
          1   -1    0    0  501    0  0.00000000000E+00  0.00000000000E+00  0.46115135243E+03  0.46115135243E+03  0.00000000000E+00 0. -1.
         -1   -1    0    0    0  501 -0.00000000000E+00 -0.00000000000E+00 -0.46207658932E+02  0.46207658932E+02  0.00000000000E+00 0.  1.
         23    2    1    2    0    0  0.14427278260E+02  0.85089950030E+02  0.14564763809E+03  0.21044489826E+03  0.12500149906E+03 0.  0.
         23    2    1    2    0    0 -0.14427278260E+02 -0.85089950030E+02  0.26929605540E+03  0.29691411310E+03  0.90494083507E+02 0.  0.
          5    1    3    3  502    0  0.35737855638E+02  0.13488932592E+02 -0.82031688671E+01  0.39351335524E+02  0.47000000000E+01 0. -1.
         -5    1    3    3    0  502 -0.21310577378E+02  0.71601017438E+02  0.15385080696E+03  0.17109356273E+03  0.47000000000E+01 0. -1.
        -11    1    4    4    0    0  0.20374571701E+02 -0.65007074735E+01  0.97451505708E+01  0.23502134569E+02  0.00000000000E+00 0.  1.
         11    1    4    4    0    0 -0.34801849961E+02 -0.78589242556E+02  0.25955090483E+03  0.27341197853E+03  0.00000000000E+00 0. -1.
<mgrwt>
<rscale>  0 0.14469088E+03</rscale>
<asrwt>0</asrwt>
<pdfrwt beam="1">  1        1 0.70946359E-01 0.15190069E+03</pdfrwt>
<pdfrwt beam="2">  1       -1 0.71088709E-02 0.15190069E+03</pdfrwt>
<totfact> 0.50286717E+03</totfact>
</mgrwt>
</event>
<event>
 8    1  0.1033707E-005  0.1953098E+03  0.7546771E-02  0.1158251E+00
          2   -1    0    0  501    0  0.00000000000E+00  0.00000000000E+00  0.91755812117E+02  0.91755812117E+02  0.00000000000E+00 0. -1.
         -2   -1    0    0    0  501 -0.00000000000E+00 -0.00000000000E+00 -0.37816878529E+03  0.37816878529E+03  0.00000000000E+00 0.  1.
         23    2    1    2    0    0 -0.14510801588E+03 -0.38275822270E+02 -0.17145452684E+03  0.25988952603E+03  0.12499814447E+03 0.  0.
         23    2    1    2    0    0  0.14510801588E+03  0.38275822270E+02 -0.11495844634E+03  0.21003507138E+03  0.91530934571E+02 0.  0.
          5    1    3    3  502    0 -0.13483919198E+03 -0.76284587510E+02 -0.12753553341E+03  0.20071957620E+03  0.47000000000E+01 0. -1.
         -5    1    3    3    0  502 -0.10268823902E+02  0.38008765240E+02 -0.43918993426E+02  0.59169949830E+02  0.47000000000E+01 0. -1.
        -11    1    4    4    0    0  0.39340463856E+02 -0.27724910451E+02 -0.15534018310E+02  0.50573199234E+02  0.00000000000E+00 0. -1.
         11    1    4    4    0    0  0.10576755203E+03  0.66000732720E+02 -0.99424428026E+02  0.15946187215E+03  0.00000000000E+00 0.  1.
<mgrwt>
<rscale>  0 0.19023331E+03</rscale>
<asrwt>0</asrwt>
<pdfrwt beam="1">  1        2 0.14116279E-01 0.19530978E+03</pdfrwt>
<pdfrwt beam="2">  1       -2 0.58179812E-01 0.19530978E+03</pdfrwt>
<totfact> 0.11697703E+03</totfact>
</mgrwt>
</event>
<event>
 8    1  0.1033707E-005  0.1638131E+03  0.7546771E-02  0.1191027E+00
          1   -1    0    0  501    0  0.00000000000E+00  0.00000000000E+00  0.26759098241E+03  0.26759098241E+03  0.00000000000E+00 0. -1.
         -1   -1    0    0    0  501 -0.00000000000E+00 -0.00000000000E+00 -0.10189422977E+03  0.10189422977E+03  0.00000000000E+00 0.  1.
         23    2    1    2    0    0  0.81116812781E+02  0.68048159412E+02  0.17874948016E+02  0.16478549901E+03  0.12499703038E+03 0.  0.
         23    2    1    2    0    0 -0.81116812781E+02 -0.68048159412E+02  0.14782180462E+03  0.20469971317E+03  0.94022323598E+02 0.  0.
          5    1    3    3  502    0  0.35331690548E+02 -0.35613955392E+02  0.48235101839E+01  0.50616582522E+02  0.47000000000E+01 0.  1.
         -5    1    3    3    0  502  0.45785122233E+02  0.10366211480E+03  0.13051437832E+02  0.11416891649E+03  0.47000000000E+01 0.  1.
        -11    1    4    4    0    0 -0.12913723086E+02 -0.70349378218E+02  0.92016132761E+02  0.11654513266E+03  0.00000000000E+00 0.  1.
         11    1    4    4    0    0 -0.68203089695E+02  0.23012188060E+01  0.55805671856E+02  0.88154580500E+02  0.00000000000E+00 0. -1.
<mgrwt>
<rscale>  0 0.15795294E+03</rscale>
<asrwt>0</asrwt>
<pdfrwt beam="1">  1        1 0.41167843E-01 0.16381315E+03</pdfrwt>
<pdfrwt beam="2">  1       -1 0.15676035E-01 0.16381315E+03</pdfrwt>
<totfact> 0.29639225E+03</totfact>
</mgrwt>
</event>
<event>
 8    1  0.1033707E-005  0.1287395E+03  0.7546771E-02  0.1244882E+00
         -4   -1    0    0    0  501 -0.00000000000E+00  0.00000000000E+00  0.62579004922E+02  0.62579004922E+02  0.00000000000E+00 0.  1.
          4   -1    0    0  501    0  0.00000000000E+00 -0.00000000000E+00 -0.24087093088E+03  0.24087093088E+03  0.00000000000E+00 0. -1.
         23    2    1    2    0    0 -0.30383575342E+02  0.50405177065E+01 -0.37113888528E+02  0.13398247486E+03  0.12500117751E+03 0.  0.
         23    2    1    2    0    0  0.30383575342E+02 -0.50405177065E+01 -0.14117803743E+03  0.16946746095E+03  0.88540463051E+02 0.  0.
          5    1    3    3  502    0  0.35418345832E+02 -0.32553436370E+02  0.23845900485E+01  0.48393818931E+02  0.47000000000E+01 0. -1.
         -5    1    3    3    0  502 -0.65801921174E+02  0.37593954077E+02 -0.39498478576E+02  0.85588655926E+02  0.47000000000E+01 0. -1.
        -11    1    4    4    0    0  0.61685895641E+02  0.83475731798E+00 -0.87718221835E+02  0.10723960548E+03  0.00000000000E+00 0. -1.
         11    1    4    4    0    0 -0.31302320300E+02 -0.58752750245E+01 -0.53459815600E+02  0.62227855472E+02  0.00000000000E+00 0.  1.
<mgrwt>
<rscale>  0 0.11892415E+03</rscale>
<asrwt>0</asrwt>
<pdfrwt beam="2">  1        4 0.37057066E-01 0.12873952E+03</pdfrwt>
<pdfrwt beam="1">  1       -4 0.96275393E-02 0.12873952E+03</pdfrwt>
<totfact> 0.93474041E+02</totfact>
</mgrwt>
</event>
<event>
 8    1  0.1033707E-005  0.2049162E+03  0.7546771E-02  0.1149666E+00
          2   -1    0    0  501    0  0.00000000000E+00  0.00000000000E+00  0.25211537118E+03  0.25211537118E+03  0.00000000000E+00 0. -1.
         -2   -1    0    0    0  501 -0.00000000000E+00 -0.00000000000E+00 -0.16688484717E+03  0.16688484717E+03  0.00000000000E+00 0.  1.
         23    2    1    2    0    0 -0.16109906503E+03  0.20349003927E+02 -0.18576865203E+02  0.20575653598E+03  0.12499464574E+03 0.  0.
         23    2    1    2    0    0  0.16109906503E+03 -0.20349003927E+02  0.10380738921E+03  0.21324368237E+03  0.91268303917E+02 0.  0.
          5    1    3    3  502    0 -0.15965971962E+02  0.53024751354E+02 -0.11470346354E+02  0.56746765215E+02  0.47000000000E+01 0.  1.
         -5    1    3    3    0  502 -0.14513309307E+03 -0.32675747427E+02 -0.71065188493E+01  0.14900977077E+03  0.47000000000E+01 0.  1.
        -11    1    4    4    0    0  0.95971903449E+02 -0.21483616099E+01  0.10921313331E+03  0.14540539947E+03  0.00000000000E+00 0. -1.
         11    1    4    4    0    0  0.65127161583E+02 -0.18200642317E+02 -0.54057440984E+01  0.67838282893E+02  0.00000000000E+00 0.  1.
<mgrwt>
<rscale>  0 0.20008685E+03</rscale>
<asrwt>0</asrwt>
<pdfrwt beam="1">  1        2 0.38786980E-01 0.20491621E+03</pdfrwt>
<pdfrwt beam="2">  1       -2 0.25674592E-01 0.20491621E+03</pdfrwt>
<totfact> 0.17748268E+03</totfact>
</mgrwt>
</event>
<event>
 8    1  0.1033707E-005  0.1543523E+03  0.7546771E-02  0.1201445E+00
          2   -1    0    0  501    0  0.00000000000E+00  0.00000000000E+00  0.87684952687E+02  0.87684952687E+02  0.00000000000E+00 0. -1.
         -2   -1    0    0    0  501 -0.00000000000E+00 -0.00000000000E+00 -0.24779250041E+03  0.24779250041E+03  0.00000000000E+00 0.  1.
         23    2    1    2    0    0  0.10804502609E+02 -0.89902180701E+02 -0.11789950694E+03  0.19422903945E+03  0.12500194662E+03 0.  0.
         23    2    1    2    0    0 -0.10804502609E+02  0.89902180701E+02 -0.42208040786E+02  0.14124841365E+03  0.99852172131E+02 0.  0.
          5    1    3    3  502    0  0.55532414318E+02 -0.85604864588E+02 -0.52795849173E+02  0.11498492758E+03  0.47000000000E+01 0. -1.
         -5    1    3    3    0  502 -0.44727911709E+02 -0.42973161133E+01 -0.65103657768E+02  0.79244111873E+02  0.47000000000E+01 0. -1.
        -11    1    4    4    0    0  0.27056397372E+02  0.73409816191E+02  0.51585627671E+01  0.78407018320E+02  0.00000000000E+00 0. -1.
         11    1    4    4    0    0 -0.37860899981E+02  0.16492364510E+02 -0.47366603553E+02  0.62841395327E+02  0.00000000000E+00 0.  1.
<mgrwt>
<rscale>  0 0.14921172E+03</rscale>
<asrwt>0</asrwt>
<pdfrwt beam="1">  1        2 0.13489993E-01 0.15435228E+03</pdfrwt>
<pdfrwt beam="2">  1       -2 0.38121923E-01 0.15435228E+03</pdfrwt>
<totfact> 0.28051474E+03</totfact>
</mgrwt>
</event>
<event>
 8    1  0.1033707E-005  0.1297729E+03  0.7546771E-02  0.1242231E+00
         -1   -1    0    0    0  501 -0.00000000000E+00  0.00000000000E+00  0.11911826663E+03  0.11911826663E+03  0.00000000000E+00 0.  1.
          1   -1    0    0  501    0  0.00000000000E+00 -0.00000000000E+00 -0.13600786441E+03  0.13600786441E+03  0.00000000000E+00 0. -1.
         23    2    1    2    0    0 -0.34805328521E+02  0.19995350848E+01  0.48469881842E+02  0.13852913875E+03  0.12500233519E+03 0.  0.
         23    2    1    2    0    0  0.34805328521E+02 -0.19995350848E+01 -0.65359479622E+02  0.11659699229E+03  0.90042145697E+02 0.  0.
          5    1    3    3  502    0 -0.10656618849E+02  0.62650038627E+02  0.30561455220E+02  0.70673074154E+02  0.47000000000E+01 0.  1.
         -5    1    3    3    0  502 -0.24148709671E+02 -0.60650503542E+02  0.17908426622E+02  0.67856064598E+02  0.47000000000E+01 0.  1.
        -11    1    4    4    0    0 -0.20190280556E+02 -0.60331206114E+01  0.99125858367E+01  0.23287450080E+02  0.00000000000E+00 0.  1.
         11    1    4    4    0    0  0.54995609076E+02  0.40335855266E+01 -0.75272065459E+02  0.93309542215E+02  0.00000000000E+00 0. -1.
<mgrwt>
<rscale>  0 0.12052644E+03</rscale>
<asrwt>0</asrwt>
<pdfrwt beam="2">  1        1 0.20924287E-01 0.12977285E+03</pdfrwt>
<pdfrwt beam="1">  1       -1 0.18325887E-01 0.12977285E+03</pdfrwt>
<totfact> 0.53262487E+03</totfact>
</mgrwt>
</event>
<event>
 8    1  0.1033707E-005  0.1150192E+03  0.7546771E-02  0.1259235E+00
         -4   -1    0    0    0  501 -0.00000000000E+00  0.00000000000E+00  0.16428358814E+03  0.16428358814E+03  0.00000000000E+00 0.  1.
          4   -1    0    0  501    0  0.00000000000E+00 -0.00000000000E+00 -0.87572502747E+02  0.87572502747E+02  0.00000000000E+00 0. -1.
         23    2    1    2    0    0 -0.16703861134E+02  0.27806717714E+02  0.97653671090E+02  0.15088289943E+03  0.11035024846E+03 0.  0.
         23    2    1    2    0    0  0.16703861134E+02 -0.27806717714E+02 -0.20942585698E+02  0.10097319146E+03  0.93299308521E+02 0.  0.
          5    1    3    3  502    0  0.73225798181E+01  0.66901305478E+02  0.46131605509E+02  0.81728941487E+02  0.47000000000E+01 0. -1.
         -5    1    3    3    0  502 -0.24026440952E+02 -0.39094587764E+02  0.51522065581E+02  0.69153957942E+02  0.47000000000E+01 0.  1.
        -11    1    4    4    0    0 -0.14575713171E+02 -0.53607972715E+02 -0.48336558656E+00  0.55556275931E+02  0.00000000000E+00 0.  1.
         11    1    4    4    0    0  0.31279574305E+02  0.25801255001E+02 -0.20459220112E+02  0.45416915526E+02  0.00000000000E+00 0. -1.
<mgrwt>
<rscale>  0 0.11072411E+03</rscale>
<asrwt>0</asrwt>
<pdfrwt beam="2">  1        4 0.13472693E-01 0.11501917E+03</pdfrwt>
<pdfrwt beam="1">  1       -4 0.25274398E-01 0.11501917E+03</pdfrwt>
<totfact> 0.10623558E+03</totfact>
</mgrwt>
</event>
<event>
 7    1  0.1033707E-005  0.2305827E+03  0.7546771E-02  0.1154677E+00
         -1   -1    0    0    0  501 -0.00000000000E+00  0.00000000000E+00  0.44888622235E+02  0.44888622235E+02  0.00000000000E+00 0.  1.
          1   -1    0    0  501    0  0.00000000000E+00 -0.00000000000E+00 -0.78245796940E+03  0.78245796940E+03  0.00000000000E+00 0. -1.
         23    2    1    2    0    0 -0.54364586087E+02  0.48551163511E+02 -0.41426000502E+03  0.43023540755E+03  0.90434675064E+02 0.  0.
          5    1    1    2  502    0 -0.79423343187E+02  0.98459342546E+00 -0.16964699724E+03  0.18737990965E+03  0.47000000000E+01 0. -1.
         -5    1    1    2    0  502  0.13378792927E+03 -0.49535756937E+02 -0.15366234491E+03  0.20973127444E+03  0.47000000000E+01 0.  1.
        -11    1    3    3    0    0  0.23076918180E+02  0.20623500204E+02 -0.75100849168E+02  0.81228138346E+02  0.00000000000E+00 0.  1.
         11    1    3    3    0    0 -0.77441504267E+02  0.27927663307E+02 -0.33915915585E+03  0.34900726921E+03  0.00000000000E+00 0. -1.
<mgrwt>
<rscale>  0 0.19425675E+03</rscale>
<asrwt>0</asrwt>
<pdfrwt beam="2">  1        1 0.12037814E+00 0.23058266E+03</pdfrwt>
<pdfrwt beam="1">  1       -1 0.69059422E-02 0.23058266E+03</pdfrwt>
<totfact> 0.25605515E+03</totfact>
</mgrwt>
</event>
<event>
 8    1  0.1033707E-005  0.1610886E+03  0.7546771E-02  0.1192709E+00
          2   -1    0    0  501    0  0.00000000000E+00  0.00000000000E+00  0.16120876028E+03  0.16120876028E+03  0.00000000000E+00 0. -1.
         -2   -1    0    0    0  501 -0.00000000000E+00 -0.00000000000E+00 -0.16681040644E+03  0.16681040644E+03  0.00000000000E+00 0.  1.
         23    2    1    2    0    0  0.88060565314E+02  0.50497289844E+02 -0.63677885882E+02  0.17321784468E+03  0.12507961112E+03 0.  0.
         23    2    1    2    0    0 -0.88060565314E+02 -0.50497289844E+02  0.58076239720E+02  0.15480132204E+03  0.10141972313E+03 0.  0.
          5    1    3    3  502    0  0.10231228658E+03  0.13250202348E+02 -0.79219893970E+02  0.13015857040E+03  0.47000000000E+01 0.  1.
         -5    1    3    3    0  502 -0.14251721266E+02  0.37247087497E+02  0.15542008088E+02  0.43059274279E+02  0.47000000000E+01 0.  1.
        -11    1    4    4    0    0  0.17428930058E+02 -0.31632947210E+02  0.11005313498E+02  0.37756163435E+02  0.00000000000E+00 0.  1.
         11    1    4    4    0    0 -0.10548949537E+03 -0.18864342634E+02  0.47070926222E+02  0.11704515860E+03  0.00000000000E+00 0. -1.
<mgrwt>
<rscale>  0 0.15649746E+03</rscale>
<asrwt>0</asrwt>
<pdfrwt beam="1">  1        2 0.24801348E-01 0.16108864E+03</pdfrwt>
<pdfrwt beam="2">  1       -2 0.25663139E-01 0.16108864E+03</pdfrwt>
<totfact> 0.28677737E+03</totfact>
</mgrwt>
</event>
<event>
 8    1  0.1033707E-005  0.1272932E+03  0.7546771E-02  0.1247280E+00
          1   -1    0    0  501    0  0.00000000000E+00  0.00000000000E+00  0.55610358204E+03  0.55610358204E+03  0.00000000000E+00 0. -1.
         -1   -1    0    0    0  501 -0.00000000000E+00 -0.00000000000E+00 -0.23445192181E+02  0.23445192181E+02  0.00000000000E+00 0.  1.
         23    2    1    2    0    0 -0.32118138992E+01  0.23862452253E+02  0.22734055838E+03  0.26055191117E+03  0.12499534612E+03 0.  0.
         23    2    1    2    0    0  0.32118138992E+01 -0.23862452253E+02  0.30531783148E+03  0.31899686305E+03  0.89220446329E+02 0.  0.
          5    1    3    3  502    0  0.31481103776E+02  0.65419066373E+02  0.12280306442E+03  0.14273540826E+03  0.47000000000E+01 0.  1.
         -5    1    3    3    0  502 -0.34692917676E+02 -0.41556614120E+02  0.10453749396E+03  0.11781650290E+03  0.47000000000E+01 0.  1.
        -11    1    4    4    0    0 -0.32491217733E+02  0.17253316035E+02  0.99007408620E+02  0.10562113002E+03  0.00000000000E+00 0.  1.
         11    1    4    4    0    0  0.35703031632E+02 -0.41115768289E+02  0.20631042286E+03  0.21337573304E+03  0.00000000000E+00 0. -1.
<mgrwt>
<rscale>  0 0.11749959E+03</rscale>
<asrwt>0</asrwt>
<pdfrwt beam="1">  1        1 0.85554387E-01 0.12729324E+03</pdfrwt>
<pdfrwt beam="2">  1       -1 0.36069531E-02 0.12729324E+03</pdfrwt>
<totfact> 0.10637718E+04</totfact>
</mgrwt>
</event>
<event>
 8    1  0.1033707E-005  0.2378415E+03  0.7546771E-02  0.1124053E+00
         -2   -1    0    0    0  501 -0.00000000000E+00  0.00000000000E+00  0.26149263476E+03  0.26149263476E+03  0.00000000000E+00 0.  1.
          2   -1    0    0  501    0  0.00000000000E+00 -0.00000000000E+00 -0.28445236830E+03  0.28445236830E+03  0.00000000000E+00 0. -1.
         23    2    1    2    0    0 -0.19192559824E+03  0.64074137414E+02  0.13518618750E+03  0.27357608137E+03  0.12501054621E+03 0.  0.
         23    2    1    2    0    0  0.19192559824E+03 -0.64074137414E+02 -0.15814592104E+03  0.27236892169E+03  0.90740105864E+02 0.  0.
          5    1    3    3  502    0 -0.11240116638E+03  0.58064534521E+02  0.14567660761E+03  0.19300071600E+03  0.47000000000E+01 0. -1.
         -5    1    3    3    0  502 -0.79524431864E+02  0.60096028934E+01 -0.10490420118E+02  0.80575365370E+02  0.47000000000E+01 0. -1.
        -11    1    4    4    0    0  0.12550028773E+03 -0.75069111687E+02 -0.14043278478E+03  0.20274876274E+03  0.00000000000E+00 0. -1.
         11    1    4    4    0    0  0.66425310512E+02  0.10994974273E+02 -0.17713136260E+02  0.69620158948E+02  0.00000000000E+00 0.  1.
<mgrwt>
<rscale>  0 0.23371329E+03</rscale>
<asrwt>0</asrwt>
<pdfrwt beam="2">  1        2 0.43761903E-01 0.23784147E+03</pdfrwt>
<pdfrwt beam="1">  1       -2 0.40229636E-01 0.23784147E+03</pdfrwt>
<totfact> 0.68419338E+02</totfact>
</mgrwt>
</event>
<event>
 8    1  0.1033707E-005  0.1603605E+03  0.7546771E-02  0.1195993E+00
          2   -1    0    0  501    0  0.00000000000E+00  0.00000000000E+00  0.46916921350E+02  0.46916921350E+02  0.00000000000E+00 0. -1.
         -2   -1    0    0    0  501 -0.00000000000E+00 -0.00000000000E+00 -0.77559297908E+03  0.77559297908E+03  0.00000000000E+00 0.  1.
         23    2    1    2    0    0 -0.54891922180E+02 -0.84124338350E+02 -0.64214364372E+03  0.66186400268E+03  0.12500188580E+03 0.  0.
         23    2    1    2    0    0  0.54891922180E+02  0.84124338350E+02 -0.86532414013E+02  0.16064589775E+03  0.90715039357E+02 0.  0.
          5    1    3    3  502    0 -0.25695421006E+02 -0.11213068826E+03 -0.53480939500E+03  0.54706190225E+03  0.47000000000E+01 0.  1.
         -5    1    3    3    0  502 -0.29196501174E+02  0.28006349909E+02 -0.10733424872E+03  0.11480210043E+03  0.47000000000E+01 0.  1.
        -11    1    4    4    0    0  0.33391269660E+02  0.99776436034E+02 -0.82594188192E+02  0.13376140699E+03  0.00000000000E+00 0.  1.
         11    1    4    4    0    0  0.21500652520E+02 -0.15652097684E+02 -0.39382258206E+01  0.26884490758E+02  0.00000000000E+00 0. -1.
<mgrwt>
<rscale>  0 0.15370449E+03</rscale>
<asrwt>0</asrwt>
<pdfrwt beam="1">  1        2 0.72179882E-02 0.16036053E+03</pdfrwt>
<pdfrwt beam="2">  1       -2 0.11932199E+00 0.16036053E+03</pdfrwt>
<totfact> 0.53943836E+02</totfact>
</mgrwt>
</event>
<event>
 8    1  0.1033707E-005  0.1254715E+03  0.7546771E-02  0.1250033E+00
         -1   -1    0    0    0  501 -0.00000000000E+00  0.00000000000E+00  0.25458188613E+02  0.25458188613E+02  0.00000000000E+00 0.  1.
          1   -1    0    0  501    0  0.00000000000E+00 -0.00000000000E+00 -0.46276555507E+03  0.46276555507E+03  0.00000000000E+00 0. -1.
         23    2    1    2    0    0 -0.84304887453E+01 -0.67797063630E+01 -0.24055353746E+03  0.27130999117E+03  0.12500427738E+03 0.  0.
         23    2    1    2    0    0  0.84304887453E+01  0.67797063630E+01 -0.19675382899E+03  0.21691375251E+03  0.90677832173E+02 0.  0.
          5    1    3    3  502    0 -0.12578352724E+02 -0.53818478525E+02 -0.49148802871E+02  0.74110312451E+02  0.47000000000E+01 0.  1.
         -5    1    3    3    0  502  0.41478639784E+01  0.47038772162E+02 -0.19140473459E+03  0.19719967872E+03  0.47000000000E+01 0.  1.
        -11    1    4    4    0    0 -0.27411941903E+02 -0.23628040482E+02 -0.43350325734E+02  0.56470785342E+02  0.00000000000E+00 0. -1.
         11    1    4    4    0    0  0.35842430648E+02  0.30407746845E+02 -0.15340350326E+03  0.16044296717E+03  0.00000000000E+00 0.  1.
<mgrwt>
<rscale>  0 0.11589147E+03</rscale>
<asrwt>0</asrwt>
<pdfrwt beam="2">  1        1 0.71194699E-01 0.12547154E+03</pdfrwt>
<pdfrwt beam="1">  1       -1 0.39166445E-02 0.12547154E+03</pdfrwt>
<totfact> 0.11973021E+04</totfact>
</mgrwt>
</event>
<event>
 8    1  0.1033707E-005  0.1859470E+03  0.7546771E-02  0.1167648E+00
         -2   -1    0    0    0  501 -0.00000000000E+00  0.00000000000E+00  0.80374574421E+02  0.80374574421E+02  0.00000000000E+00 0.  1.
          2   -1    0    0  501    0  0.00000000000E+00 -0.00000000000E+00 -0.38698069057E+03  0.38698069057E+03  0.00000000000E+00 0. -1.
         23    2    1    2    0    0 -0.13452796750E+03 -0.29223806837E+02 -0.19274938690E+03  0.26782197725E+03  0.12499792167E+03 0.  0.
         23    2    1    2    0    0  0.13452796750E+03  0.29223806837E+02 -0.11385672925E+03  0.19953328774E+03  0.88872792222E+02 0.  0.
          5    1    3    3  502    0  0.11030170258E+02 -0.85002740584E+01 -0.82999194325E+02  0.84290423973E+02  0.47000000000E+01 0.  1.
         -5    1    3    3    0  502 -0.14555813775E+03 -0.20723532778E+02 -0.10975019257E+03  0.18353155327E+03  0.47000000000E+01 0.  1.
        -11    1    4    4    0    0 -0.42708595662E+01  0.10863549642E+02  0.78122616439E+01  0.14045938355E+02  0.00000000000E+00 0.  1.
         11    1    4    4    0    0  0.13879882706E+03  0.18360257194E+02 -0.12166899089E+03  0.18548734939E+03  0.00000000000E+00 0. -1.
<mgrwt>
<rscale>  0 0.18016079E+03</rscale>
<asrwt>0</asrwt>
<pdfrwt beam="2">  1        2 0.59535492E-01 0.18594700E+03</pdfrwt>
<pdfrwt beam="1">  1       -2 0.12365319E-01 0.18594700E+03</pdfrwt>
<totfact> 0.38211187E+03</totfact>
</mgrwt>
</event>
<event>
 8    1  0.1033707E-005  0.1390197E+03  0.7546771E-02  0.1225733E+00
          1   -1    0    0  501    0  0.00000000000E+00  0.00000000000E+00  0.90904617556E+02  0.90904617556E+02  0.00000000000E+00 0. -1.
         -1   -1    0    0    0  501 -0.00000000000E+00 -0.00000000000E+00 -0.17079995601E+03  0.17079995601E+03  0.00000000000E+00 0.  1.
         23    2    1    2    0    0 -0.58361990134E+02  0.17243960187E+02 -0.43113452473E+02  0.14555153643E+03  0.12499201542E+03 0.  0.
         23    2    1    2    0    0  0.58361990134E+02 -0.17243960187E+02 -0.36781885981E+02  0.11615303713E+03  0.91843044610E+02 0.  0.
          5    1    3    3  502    0 -0.63511059651E+02  0.10451886923E+02 -0.82634471466E+02  0.10484961856E+03  0.47000000000E+01 0.  1.
         -5    1    3    3    0  502  0.51490695166E+01  0.67920732642E+01  0.39521018994E+02  0.40701917871E+02  0.47000000000E+01 0.  1.
        -11    1    4    4    0    0 -0.44944726921E+01  0.29934614469E+02 -0.23873806234E+01  0.30364140272E+02  0.00000000000E+00 0. -1.
         11    1    4    4    0    0  0.62856462826E+02 -0.47178574657E+02 -0.34394505358E+02  0.85788896860E+02  0.00000000000E+00 0.  1.
<mgrwt>
<rscale>  0 0.13116817E+03</rscale>
<asrwt>0</asrwt>
<pdfrwt beam="1">  1        1 0.13985326E-01 0.13901971E+03</pdfrwt>
<pdfrwt beam="2">  1       -1 0.26276916E-01 0.13901971E+03</pdfrwt>
<totfact> 0.50034662E+03</totfact>
</mgrwt>
</event>
<event>
 7    1  0.1033707E-005  0.1567803E+03  0.7546771E-02  0.1209948E+00
         -3   -1    0    0    0  501 -0.00000000000E+00  0.00000000000E+00  0.16911670088E+04  0.16911670088E+04  0.00000000000E+00 0.  1.
          3   -1    0    0  501    0  0.00000000000E+00 -0.00000000000E+00 -0.22836759358E+02  0.22836759358E+02  0.00000000000E+00 0. -1.
         23    2    1    2    0    0 -0.40918377134E+02 -0.36708777864E+02  0.13341537148E+03  0.17110268864E+03  0.91949011693E+02 0.  0.
          5    1    1    2  502    0  0.83956287199E+02 -0.34162166432E+01  0.56963884795E+03  0.57582187853E+03  0.47000000000E+01 0. -1.
         -5    1    1    2    0  502 -0.43037910065E+02  0.40124994507E+02  0.96527603004E+03  0.96707920103E+03  0.47000000000E+01 0.  1.
        -11    1    3    3    0    0 -0.69522327421E+02 -0.31908758406E+02  0.10915318332E+03  0.13328893541E+03  0.00000000000E+00 0.  1.
         11    1    3    3    0    0  0.28603950287E+02 -0.48000194579E+01  0.24262188161E+02  0.37813753228E+02  0.00000000000E+00 0. -1.
<mgrwt>
<rscale>  0 0.14254258E+03</rscale>
<asrwt>0</asrwt>
<pdfrwt beam="2">  1        3 0.35133489E-02 0.15678029E+03</pdfrwt>
<pdfrwt beam="1">  1       -3 0.26017944E+00 0.15678029E+03</pdfrwt>
<totfact> 0.69612932E+01</totfact>
</mgrwt>
</event>
<event>
 8    1  0.1033707E-005  0.1559592E+03  0.7546771E-02  0.1200006E+00
          2   -1    0    0  501    0  0.00000000000E+00  0.00000000000E+00  0.99537084966E+02  0.99537084966E+02  0.00000000000E+00 0. -1.
         -2   -1    0    0    0  501 -0.00000000000E+00 -0.00000000000E+00 -0.21832439369E+03  0.21832439369E+03  0.00000000000E+00 0.  1.
         23    2    1    2    0    0  0.10472289466E+02  0.92678131717E+02 -0.89801795008E+02  0.17996566722E+03  0.12499749616E+03 0.  0.
         23    2    1    2    0    0 -0.10472289466E+02 -0.92678131717E+02 -0.28985513720E+02  0.13789581144E+03  0.97345723391E+02 0.  0.
          5    1    3    3  502    0  0.63113513541E+02  0.78883410971E+02 -0.53878601194E+02  0.11459014698E+03  0.47000000000E+01 0.  1.
         -5    1    3    3    0  502 -0.52641224076E+02  0.13794720746E+02 -0.35923193813E+02  0.65375520238E+02  0.47000000000E+01 0.  1.
        -11    1    4    4    0    0 -0.26917299940E+02 -0.23641217383E+02 -0.52125849837E+02  0.63249920290E+02  0.00000000000E+00 0.  1.
         11    1    4    4    0    0  0.16445010475E+02 -0.69036914334E+02  0.23140336118E+02  0.74645891153E+02  0.00000000000E+00 0. -1.
<mgrwt>
<rscale>  0 0.15038097E+03</rscale>
<asrwt>0</asrwt>
<pdfrwt beam="1">  1        2 0.15313398E-01 0.15595922E+03</pdfrwt>
<pdfrwt beam="2">  1       -2 0.33588368E-01 0.15595922E+03</pdfrwt>
<totfact> 0.30575921E+03</totfact>
</mgrwt>
</event>
<event>
 8    1  0.1033707E-005  0.1272337E+03  0.7546771E-02  0.1246596E+00
          1   -1    0    0  501    0  0.00000000000E+00  0.00000000000E+00  0.22124448969E+03  0.22124448969E+03  0.00000000000E+00 0. -1.
         -1   -1    0    0    0  501 -0.00000000000E+00 -0.00000000000E+00 -0.10001279053E+03  0.10001279053E+03  0.00000000000E+00 0.  1.
         23    2    1    2    0    0  0.22802711076E+02  0.66695512071E+01 -0.41147541035E+02  0.13372182126E+03  0.12499583513E+03 0.  0.
         23    2    1    2    0    0 -0.22802711076E+02 -0.66695512071E+01  0.16237924019E+03  0.18753545896E+03  0.90763892484E+02 0.  0.
          5    1    3    3  502    0 -0.42125846173E+02 -0.17242947988E+02 -0.45110979370E+02  0.64257269090E+02  0.47000000000E+01 0. -1.
         -5    1    3    3    0  502  0.64928557248E+02  0.23912499195E+02  0.39634383357E+01  0.69464552166E+02  0.47000000000E+01 0. -1.
        -11    1    4    4    0    0  0.26925015992E+02  0.77909904896E+01  0.11137732188E+03  0.11485018001E+03  0.00000000000E+00 0.  1.
         11    1    4    4    0    0 -0.49727727068E+02 -0.14460541697E+02  0.51001918307E+02  0.72685278953E+02  0.00000000000E+00 0. -1.
<mgrwt>
<rscale>  0 0.11790371E+03</rscale>
<asrwt>0</asrwt>
<pdfrwt beam="1">  1        1 0.34037614E-01 0.12723366E+03</pdfrwt>
<pdfrwt beam="2">  1       -1 0.15386583E-01 0.12723366E+03</pdfrwt>
<totfact> 0.38172422E+03</totfact>
</mgrwt>
</event>
<event>
 8    1  0.1033707E-005  0.1359552E+03  0.7546771E-02  0.1231311E+00
          1   -1    0    0  501    0  0.00000000000E+00  0.00000000000E+00  0.12913657954E+03  0.12913657954E+03  0.00000000000E+00 0. -1.
         -1   -1    0    0    0  501 -0.00000000000E+00 -0.00000000000E+00 -0.11383325148E+03  0.11383325148E+03  0.00000000000E+00 0.  1.
         23    2    1    2    0    0  0.47506207619E+02  0.24522347824E+02 -0.51226550159E+01  0.13605165714E+03  0.12500250601E+03 0.  0.
         23    2    1    2    0    0 -0.47506207619E+02 -0.24522347824E+02  0.20425983073E+02  0.10691817389E+03  0.90311072511E+02 0.  0.
          5    1    3    3  502    0 -0.22380450619E+01  0.52461563306E+02  0.37486706609E+02  0.64688234190E+02  0.47000000000E+01 0. -1.
         -5    1    3    3    0  502  0.49744252681E+02 -0.27939215481E+02 -0.42609361625E+02  0.71363422946E+02  0.47000000000E+01 0. -1.
        -11    1    4    4    0    0 -0.27017770670E+02 -0.34251305088E+02 -0.29104092112E+02  0.52441968021E+02  0.00000000000E+00 0.  1.
         11    1    4    4    0    0 -0.20488436949E+02  0.97289572634E+01  0.49530075185E+02  0.54476205869E+02  0.00000000000E+00 0. -1.
<mgrwt>
<rscale>  0 0.12743576E+03</rscale>
<asrwt>0</asrwt>
<pdfrwt beam="1">  1        1 0.19867166E-01 0.13595518E+03</pdfrwt>
<pdfrwt beam="2">  1       -1 0.17512808E-01 0.13595518E+03</pdfrwt>
<totfact> 0.61324748E+03</totfact>
</mgrwt>
</event>
<event>
 8    1  0.1033707E-005  0.1373879E+03  0.7546771E-02  0.1220890E+00
         -1   -1    0    0    0  501 -0.00000000000E+00  0.00000000000E+00  0.49910587686E+03  0.49910587686E+03  0.00000000000E+00 0.  1.
          1   -1    0    0  501    0  0.00000000000E+00 -0.00000000000E+00 -0.41233595399E+02  0.41233595399E+02  0.00000000000E+00 0. -1.
         23    2    1    2    0    0 -0.13231084258E+02 -0.55454591870E+02  0.34349414241E+03  0.36995090721E+03  0.12500069811E+03 0.  0.
         23    2    1    2    0    0  0.13231084258E+02  0.55454591870E+02  0.11437813906E+03  0.17038856505E+03  0.11269263976E+03 0.  0.
          5    1    3    3  502    0 -0.67219411752E+02 -0.14990167037E+02  0.19245416950E+03  0.20445990263E+03  0.47000000000E+01 0.  1.
         -5    1    3    3    0  502  0.53988327494E+02 -0.40464424833E+02  0.15103997290E+03  0.16549100458E+03  0.47000000000E+01 0.  1.
        -11    1    4    4    0    0  0.27746588480E+02  0.42702595528E+02  0.13369606336E+03  0.14306649571E+03  0.00000000000E+00 0.  1.
         11    1    4    4    0    0 -0.14515504222E+02  0.12751996342E+02 -0.19317924305E+02  0.27322069339E+02  0.00000000000E+00 0. -1.
<mgrwt>
<rscale>  0 0.13452600E+03</rscale>
<asrwt>0</asrwt>
<pdfrwt beam="2">  1        1 0.63436304E-02 0.13738795E+03</pdfrwt>
<pdfrwt beam="1">  1       -1 0.76785515E-01 0.13738795E+03</pdfrwt>
<totfact> 0.20640166E+03</totfact>
</mgrwt>
</event>
<event>
 8    1  0.1033707E-005  0.1639003E+03  0.7546771E-02  0.1190430E+00
          1   -1    0    0  501    0  0.00000000000E+00  0.00000000000E+00  0.16128481166E+03  0.16128481166E+03  0.00000000000E+00 0. -1.
         -1   -1    0    0    0  501 -0.00000000000E+00 -0.00000000000E+00 -0.14886843710E+03  0.14886843710E+03  0.00000000000E+00 0.  1.
         23    2    1    2    0    0  0.27554873485E+02 -0.10236650449E+03 -0.13960320585E+02  0.16449381408E+03  0.12500060810E+03 0.  0.
         23    2    1    2    0    0 -0.27554873485E+02  0.10236650449E+03  0.26376695149E+02  0.14565943468E+03  0.96347125395E+02 0.  0.
          5    1    3    3  502    0 -0.43736145362E+02 -0.28183594150E+02 -0.30024231478E+02  0.60255372094E+02  0.47000000000E+01 0.  1.
         -5    1    3    3    0  502  0.71291018848E+02 -0.74182910338E+02  0.16063910893E+02  0.10423844199E+03  0.47000000000E+01 0.  1.
        -11    1    4    4    0    0  0.28873608679E+02  0.13521754717E+02 -0.11363676241E+02  0.33847544468E+02  0.00000000000E+00 0.  1.
         11    1    4    4    0    0 -0.56428482165E+02  0.88844749770E+02  0.37740371390E+02  0.11181189022E+03  0.00000000000E+00 0. -1.
<mgrwt>
<rscale>  0 0.15847456E+03</rscale>
<asrwt>0</asrwt>
<pdfrwt beam="1">  1        1 0.24813048E-01 0.16390035E+03</pdfrwt>
<pdfrwt beam="2">  1       -1 0.22902836E-01 0.16390035E+03</pdfrwt>
<totfact> 0.30357481E+03</totfact>
</mgrwt>
</event>
<event>
 8    1  0.1033707E-005  0.1322987E+03  0.7546771E-02  0.1237660E+00
          1   -1    0    0  501    0  0.00000000000E+00  0.00000000000E+00  0.14995496144E+03  0.14995496144E+03  0.00000000000E+00 0. -1.
         -1   -1    0    0    0  501 -0.00000000000E+00 -0.00000000000E+00 -0.93345679880E+02  0.93345679880E+02  0.00000000000E+00 0.  1.
         23    2    1    2    0    0 -0.30365029621E+02 -0.32827930035E+02  0.91536633519E+01  0.13261500845E+03  0.12451201910E+03 0.  0.
         23    2    1    2    0    0  0.30365029621E+02  0.32827930035E+02  0.47455618206E+02  0.11068563286E+03  0.89440290747E+02 0.  0.
          5    1    3    3  502    0 -0.56941535235E+02 -0.57323450595E+01 -0.40260874742E+02  0.70130066660E+02  0.47000000000E+01 0. -1.
         -5    1    3    3    0  502  0.26576505614E+02 -0.27095584976E+02  0.49414538094E+02  0.62484941793E+02  0.47000000000E+01 0. -1.
        -11    1    4    4    0    0  0.89036128214E+01 -0.16918879417E+02 -0.17626223968E+02  0.26003972261E+02  0.00000000000E+00 0.  1.
         11    1    4    4    0    0  0.21461416800E+02  0.49746809452E+02  0.65081842174E+02  0.84681660603E+02  0.00000000000E+00 0. -1.
<mgrwt>
<rscale>  0 0.12335671E+03</rscale>
<asrwt>0</asrwt>
<pdfrwt beam="1">  1        1 0.23069994E-01 0.13229872E+03</pdfrwt>
<pdfrwt beam="2">  1       -1 0.14360874E-01 0.13229872E+03</pdfrwt>
<totfact> 0.69226897E+03</totfact>
</mgrwt>
</event>
<event>
 8    1  0.1033707E-005  0.1301351E+03  0.7546771E-02  0.1240707E+00
          2   -1    0    0  501    0  0.00000000000E+00  0.00000000000E+00  0.39784916497E+03  0.39784916497E+03  0.00000000000E+00 0. -1.
         -2   -1    0    0    0  501 -0.00000000000E+00 -0.00000000000E+00 -0.39667832607E+02  0.39667832607E+02  0.00000000000E+00 0.  1.
         23    2    1    2    0    0 -0.18662359067E+02 -0.30987224963E+02  0.10995584751E+03  0.17036854439E+03  0.12500664286E+03 0.  0.
         23    2    1    2    0    0  0.18662359067E+02  0.30987224963E+02  0.24822548485E+03  0.26714845319E+03  0.91890766424E+02 0.  0.
          5    1    3    3  502    0 -0.47202331060E+02 -0.66770051694E+02  0.54826467737E+02  0.98561307952E+02  0.47000000000E+01 0.  1.
         -5    1    3    3    0  502  0.28539971993E+02  0.35782826731E+02  0.55129379773E+02  0.71807236435E+02  0.47000000000E+01 0.  1.
        -11    1    4    4    0    0  0.33334618684E+02  0.58402936768E+02  0.15800479565E+03  0.17171958326E+03  0.00000000000E+00 0.  1.
         11    1    4    4    0    0 -0.14672259617E+02 -0.27415711805E+02  0.90220689201E+02  0.95428869929E+02  0.00000000000E+00 0. -1.
<mgrwt>
<rscale>  0 0.12146045E+03</rscale>
<asrwt>0</asrwt>
<pdfrwt beam="1">  1        2 0.61207561E-01 0.13013513E+03</pdfrwt>
<pdfrwt beam="2">  1       -2 0.61027437E-02 0.13013513E+03</pdfrwt>
<totfact> 0.10937987E+04</totfact>
</mgrwt>
</event>
<event>
 8    1  0.1033707E-005  0.1465314E+03  0.7546771E-02  0.1214383E+00
          3   -1    0    0  501    0  0.00000000000E+00  0.00000000000E+00  0.70650048653E+02  0.70650048653E+02  0.00000000000E+00 0. -1.
         -3   -1    0    0    0  501 -0.00000000000E+00 -0.00000000000E+00 -0.26797655201E+03  0.26797655201E+03  0.00000000000E+00 0.  1.
         23    2    1    2    0    0 -0.56227948683E+02  0.51819962274E+02 -0.15139826744E+03  0.21069622364E+03  0.12499829027E+03 0.  0.
         23    2    1    2    0    0  0.56227948683E+02 -0.51819962274E+02 -0.45928235917E+02  0.12793037702E+03  0.91705440446E+02 0.  0.
          5    1    3    3  502    0  0.71184058170E+01  0.68585618723E+02 -0.36048648685E+02  0.77950329499E+02  0.47000000000E+01 0.  1.
         -5    1    3    3    0  502 -0.63346354500E+02 -0.16765656449E+02 -0.11534961876E+03  0.13274589414E+03  0.47000000000E+01 0.  1.
        -11    1    4    4    0    0  0.72154619296E+01 -0.26931695397E+02  0.25510320844E+02  0.37790945706E+02  0.00000000000E+00 0. -1.
         11    1    4    4    0    0  0.49012486754E+02 -0.24888266877E+02 -0.71438556761E+02  0.90139431316E+02  0.00000000000E+00 0.  1.
<mgrwt>
<rscale>  0 0.13921973E+03</rscale>
<asrwt>0</asrwt>
<pdfrwt beam="1">  1        3 0.10869238E-01 0.14653144E+03</pdfrwt>
<pdfrwt beam="2">  1       -3 0.41227161E-01 0.14653144E+03</pdfrwt>
<totfact> 0.87782163E+02</totfact>
</mgrwt>
</event>
<event>
 8    1  0.1033707E-005  0.1464352E+03  0.7546771E-02  0.1216960E+00
          2   -1    0    0  501    0  0.00000000000E+00  0.00000000000E+00  0.22766241277E+02  0.22766241277E+02  0.00000000000E+00 0.  1.
         -2   -1    0    0    0  501 -0.00000000000E+00 -0.00000000000E+00 -0.10235668456E+04  0.10235668456E+04  0.00000000000E+00 0. -1.
         23    2    1    2    0    0 -0.54545213032E+02 -0.53831507371E+02 -0.81998456146E+03  0.83295735587E+03  0.12478086478E+03 0.  0.
         23    2    1    2    0    0  0.54545213032E+02  0.53831507371E+02 -0.18081604289E+03  0.21337573103E+03  0.83437100721E+02 0.  0.
          5    1    3    3  502    0 -0.11659544395E+02 -0.61974294411E+02 -0.16817816794E+03  0.17967399455E+03  0.47000000000E+01 0. -1.
         -5    1    3    3    0  502 -0.42885668637E+02  0.81427870396E+01 -0.65180639351E+03  0.65328336132E+03  0.47000000000E+01 0. -1.
        -11    1    4    4    0    0 -0.11354693424E+02  0.34352443811E+02 -0.10496378466E+03  0.11102439168E+03  0.00000000000E+00 0. -1.
         11    1    4    4    0    0  0.65899906457E+02  0.19479063560E+02 -0.75852258234E+02  0.10235133935E+03  0.00000000000E+00 0.  1.
<mgrwt>
<rscale>  0 0.13733545E+03</rscale>
<asrwt>0</asrwt>
<pdfrwt beam="1">  1        2 0.35024984E-02 0.14643523E+03</pdfrwt>
<pdfrwt beam="2">  1       -2 0.15747183E+00 0.14643523E+03</pdfrwt>
<totfact> 0.69232139E+02</totfact>
</mgrwt>
</event>
<event>
 7    1  0.1033707E-005  0.1923554E+03  0.7546771E-02  0.1178177E+00
         -1   -1    0    0    0  501 -0.00000000000E+00  0.00000000000E+00  0.81477990717E+03  0.81477990717E+03  0.00000000000E+00 0.  1.
          1   -1    0    0  501    0  0.00000000000E+00 -0.00000000000E+00 -0.33071964964E+02  0.33071964964E+02  0.00000000000E+00 0. -1.
         23    2    1    2    0    0 -0.58619302314E+02  0.38680613852E+02  0.16595920994E+03  0.20275723234E+03  0.92928055026E+02 0.  0.
          5    1    1    2  502    0 -0.19347111080E+02 -0.93108017115E+02  0.26218040183E+03  0.27893380337E+03  0.47000000000E+01 0. -1.
         -5    1    1    2    0  502  0.77966413395E+02  0.54427403262E+02  0.35356833044E+03  0.36616083642E+03  0.47000000000E+01 0.  1.
        -11    1    3    3    0    0 -0.20548187629E+02  0.51538830511E+02  0.14926494543E+03  0.15924353362E+03  0.00000000000E+00 0.  1.
         11    1    3    3    0    0 -0.38071114685E+02 -0.12858216658E+02  0.16694264512E+02  0.43513698724E+02  0.00000000000E+00 0. -1.
<mgrwt>
<rscale>  0 0.16968478E+03</rscale>
<asrwt>0</asrwt>
<pdfrwt beam="2">  1        1 0.50879953E-02 0.19235538E+03</pdfrwt>
<pdfrwt beam="1">  1       -1 0.12535074E+00 0.19235538E+03</pdfrwt>
<totfact> 0.95992788E+02</totfact>
</mgrwt>
</event>
<event>
 8    1  0.1033707E-005  0.1467732E+03  0.7546771E-02  0.1212428E+00
          1   -1    0    0  501    0  0.00000000000E+00  0.00000000000E+00  0.31361071170E+03  0.31361071170E+03  0.00000000000E+00 0. -1.
         -1   -1    0    0    0  501 -0.00000000000E+00 -0.00000000000E+00 -0.60692294530E+02  0.60692294530E+02  0.00000000000E+00 0.  1.
         23    2    1    2    0    0  0.67943350850E+02 -0.36092061475E+02  0.10037016055E+03  0.17781039480E+03  0.12499372602E+03 0.  0.
         23    2    1    2    0    0 -0.67943350850E+02  0.36092061475E+02  0.15254825662E+03  0.19649261143E+03  0.97053799114E+02 0.  0.
          5    1    3    3  502    0 -0.29980099544E+02 -0.38574586453E+00  0.57485221352E+02  0.65004583242E+02  0.47000000000E+01 0. -1.
         -5    1    3    3    0  502  0.97923450394E+02 -0.35706315610E+02  0.42884939200E+02  0.11280581156E+03  0.47000000000E+01 0. -1.
        -11    1    4    4    0    0 -0.32147231596E+02 -0.32450597330E+02  0.67979992157E+02  0.81900946881E+02  0.00000000000E+00 0.  1.
         11    1    4    4    0    0 -0.35796119254E+02  0.68542658805E+02  0.84568264467E+02  0.11459166455E+03  0.00000000000E+00 0. -1.
<mgrwt>
<rscale>  0 0.14067193E+03</rscale>
<asrwt>0</asrwt>
<pdfrwt beam="1">  1        1 0.48247801E-01 0.14677318E+03</pdfrwt>
<pdfrwt beam="2">  1       -1 0.93372763E-02 0.14677318E+03</pdfrwt>
<totfact> 0.54029454E+03</totfact>
</mgrwt>
</event>
<event>
 8    1  0.1033707E-005  0.1471423E+03  0.7546771E-02  0.1214495E+00
          2   -1    0    0  501    0  0.00000000000E+00  0.00000000000E+00  0.73202867130E+03  0.73202867130E+03  0.00000000000E+00 0. -1.
         -2   -1    0    0    0  501 -0.00000000000E+00 -0.00000000000E+00 -0.31591085426E+02  0.31591085426E+02  0.00000000000E+00 0.  1.
         23    2    1    2    0    0  0.49190713626E+02 -0.60060911937E+02  0.19282630696E+03  0.24255481183E+03  0.12499525045E+03 0.  0.
         23    2    1    2    0    0 -0.49190713626E+02  0.60060911937E+02  0.50761127891E+03  0.52106494490E+03  0.88387933969E+02 0.  0.
          5    1    3    3  502    0  0.23507870108E+02  0.33003541513E+02  0.22170581321E+02  0.46427129844E+02  0.47000000000E+01 0. -1.
         -5    1    3    3    0  502  0.25682843518E+02 -0.93064453449E+02  0.17065572564E+03  0.19612768198E+03  0.47000000000E+01 0. -1.
        -11    1    4    4    0    0 -0.31966594064E+02  0.80786064252E+02  0.43552817475E+03  0.44410926844E+03  0.00000000000E+00 0.  1.
         11    1    4    4    0    0 -0.17224119563E+02 -0.20725152316E+02  0.72083104167E+02  0.76955676460E+02  0.00000000000E+00 0. -1.
<mgrwt>
<rscale>  0 0.13913713E+03</rscale>
<asrwt>0</asrwt>
<pdfrwt beam="1">  1        2 0.11261978E+00 0.14714229E+03</pdfrwt>
<pdfrwt beam="2">  1       -2 0.48601675E-02 0.14714229E+03</pdfrwt>
<totfact> 0.78456202E+03</totfact>
</mgrwt>
</event>
<event>
 8    1  0.1033707E-005  0.1453615E+03  0.7546771E-02  0.1215927E+00
          2   -1    0    0  501    0  0.00000000000E+00  0.00000000000E+00  0.26572890384E+03  0.26572890384E+03  0.00000000000E+00 0.  1.
         -2   -1    0    0    0  501 -0.00000000000E+00 -0.00000000000E+00 -0.87146595838E+02  0.87146595838E+02  0.00000000000E+00 0. -1.
         23    2    1    2    0    0  0.24511543749E+02  0.70023843379E+02  0.84407549306E+01  0.14560632675E+03  0.12500320647E+03 0.  0.
         23    2    1    2    0    0 -0.24511543749E+02 -0.70023843379E+02  0.17014155307E+03  0.20726917293E+03  0.92239945506E+02 0.  0.
          5    1    3    3  502    0 -0.23243358466E+02  0.83543352873E+02 -0.18713417560E+02  0.88837084142E+02  0.47000000000E+01 0. -1.
         -5    1    3    3    0  502  0.47754902215E+02 -0.13519509494E+02  0.27154172490E+02  0.56769242607E+02  0.47000000000E+01 0. -1.
        -11    1    4    4    0    0 -0.21656798982E+02 -0.25652517832E+02  0.23138526556E+01  0.33651486258E+02  0.00000000000E+00 0. -1.
         11    1    4    4    0    0 -0.28547447675E+01 -0.44371325548E+02  0.16782770042E+03  0.17361768667E+03  0.00000000000E+00 0.  1.
<mgrwt>
<rscale>  0 0.13808639E+03</rscale>
<asrwt>0</asrwt>
<pdfrwt beam="1">  1        2 0.40881369E-01 0.14536147E+03</pdfrwt>
<pdfrwt beam="2">  1       -2 0.13407169E-01 0.14536147E+03</pdfrwt>
<totfact> 0.49489701E+03</totfact>
</mgrwt>
</event>
<event>
 8    1  0.1033707E-005  0.1150610E+03  0.7546771E-02  0.1257717E+00
          2   -1    0    0  501    0  0.00000000000E+00  0.00000000000E+00  0.30093730949E+03  0.30093730949E+03  0.00000000000E+00 0. -1.
         -2   -1    0    0    0  501 -0.00000000000E+00 -0.00000000000E+00 -0.39993067169E+02  0.39993067169E+02  0.00000000000E+00 0.  1.
         23    2    1    2    0    0 -0.77992140092E+01 -0.10941965657E+01  0.11180058331E+03  0.16043192566E+03  0.11479114659E+03 0.  0.
         23    2    1    2    0    0  0.77992140092E+01  0.10941965657E+01  0.14914365901E+03  0.18049845100E+03  0.10135992692E+03 0.  0.
          5    1    3    3  502    0  0.27056298524E+02 -0.48266150706E+02  0.63064469797E+02  0.84029054169E+02  0.47000000000E+01 0. -1.
         -5    1    3    3    0  502 -0.34855512533E+02  0.47171954140E+02  0.48736113512E+02  0.76402871488E+02  0.47000000000E+01 0.  1.
        -11    1    4    4    0    0  0.68299957755E+01  0.43628946076E+02  0.28464686879E+02  0.52539244162E+02  0.00000000000E+00 0.  1.
         11    1    4    4    0    0  0.96921823369E+00 -0.42534749510E+02  0.12067897213E+03  0.12795920684E+03  0.00000000000E+00 0. -1.
<mgrwt>
<rscale>  0 0.11155510E+03</rscale>
<asrwt>0</asrwt>
<pdfrwt beam="1">  1        2 0.46298046E-01 0.11506099E+03</pdfrwt>
<pdfrwt beam="2">  1       -2 0.61527798E-02 0.11506099E+03</pdfrwt>
<totfact> 0.14372514E+04</totfact>
</mgrwt>
</event>
<event>
 8    1  0.1033707E-005  0.1978241E+03  0.7546771E-02  0.1156132E+00
         -1   -1    0    0    0  501 -0.00000000000E+00  0.00000000000E+00  0.72112720661E+03  0.72112720661E+03  0.00000000000E+00 0.  1.
          1   -1    0    0  501    0  0.00000000000E+00 -0.00000000000E+00 -0.10879569413E+03  0.10879569413E+03  0.00000000000E+00 0. -1.
         23    2    1    2    0    0  0.11789724489E+03 -0.98029630767E+02  0.62120338446E+03  0.65194174315E+03  0.12499929094E+03 0.  0.
         23    2    1    2    0    0 -0.11789724489E+03  0.98029630767E+02 -0.88718719822E+01  0.17798115759E+03  0.89938943084E+02 0.  0.
          5    1    3    3  502    0  0.24846501840E+01 -0.61616633993E+02  0.34282536669E+03  0.34835916109E+03  0.47000000000E+01 0. -1.
         -5    1    3    3    0  502  0.11541259470E+03 -0.36412996774E+02  0.27837801777E+03  0.30358258206E+03  0.47000000000E+01 0. -1.
        -11    1    4    4    0    0  0.45043802514E+01  0.15407714708E+02  0.21879071430E+02  0.27136338747E+02  0.00000000000E+00 0.  1.
         11    1    4    4    0    0 -0.12240162514E+03  0.82621916059E+02 -0.30750943412E+02  0.15084481884E+03  0.00000000000E+00 0. -1.
<mgrwt>
<rscale>  0 0.19260516E+03</rscale>
<asrwt>0</asrwt>
<pdfrwt beam="2">  1        1 0.16737800E-01 0.19782414E+03</pdfrwt>
<pdfrwt beam="1">  1       -1 0.11094264E+00 0.19782414E+03</pdfrwt>
<totfact> 0.25859911E+02</totfact>
</mgrwt>
</event>
<event>
 8    1  0.1033707E-005  0.1660664E+03  0.7546771E-02  0.1188872E+00
         -1   -1    0    0    0  501 -0.00000000000E+00  0.00000000000E+00  0.88793262447E+02  0.88793262447E+02  0.00000000000E+00 0.  1.
          1   -1    0    0  501    0  0.00000000000E+00 -0.00000000000E+00 -0.30900723030E+03  0.30900723030E+03  0.00000000000E+00 0. -1.
         23    2    1    2    0    0 -0.97405905127E+02 -0.49721382316E+02 -0.45250631360E+02  0.17212109302E+03  0.12497169603E+03 0.  0.
         23    2    1    2    0    0  0.97405905127E+02  0.49721382316E+02 -0.17496333649E+03  0.22567939973E+03  0.91426998926E+02 0.  0.
          5    1    3    3  502    0 -0.72599382585E+02 -0.85309597294E+02 -0.41769627092E+01  0.11219596588E+03  0.47000000000E+01 0. -1.
         -5    1    3    3    0  502 -0.24806522542E+02  0.35588214978E+02 -0.41073668651E+02  0.59925127137E+02  0.47000000000E+01 0. -1.
        -11    1    4    4    0    0  0.37655778741E+02 -0.26241270283E+02 -0.55813899716E+02  0.72261700369E+02  0.00000000000E+00 0.  1.
         11    1    4    4    0    0  0.59750126386E+02  0.75962652599E+02 -0.11914943678E+03  0.15341769936E+03  0.00000000000E+00 0. -1.
<mgrwt>
<rscale>  0 0.15984505E+03</rscale>
<asrwt>0</asrwt>
<pdfrwt beam="2">  1        1 0.47539575E-01 0.16606641E+03</pdfrwt>
<pdfrwt beam="1">  1       -1 0.13660502E-01 0.16606641E+03</pdfrwt>
<totfact> 0.30781590E+03</totfact>
</mgrwt>
</event>
<event>
 8    1  0.1033707E-005  0.1315899E+03  0.7546771E-02  0.1238396E+00
         -1   -1    0    0    0  501 -0.00000000000E+00  0.00000000000E+00  0.47845383067E+03  0.47845383067E+03  0.00000000000E+00 0.  1.
          1   -1    0    0  501    0  0.00000000000E+00 -0.00000000000E+00 -0.48473090338E+02  0.48473090338E+02  0.00000000000E+00 0. -1.
         23    2    1    2    0    0 -0.40621369739E+02  0.67489592284E+01  0.40198746538E+03  0.42297733632E+03  0.12498104092E+03 0.  0.
         23    2    1    2    0    0  0.40621369739E+02 -0.67489592284E+01  0.27993274956E+02  0.10394958469E+03  0.91248279898E+02 0.  0.
          5    1    3    3  502    0 -0.89347964103E+01  0.46722314942E+02  0.33628762582E+03  0.33966787098E+03  0.47000000000E+01 0. -1.
         -5    1    3    3    0  502 -0.31686573329E+02 -0.39973355713E+02  0.65699839563E+02  0.83309465338E+02  0.47000000000E+01 0. -1.
        -11    1    4    4    0    0  0.29476435815E+02  0.17292645615E+02 -0.26572477217E+02  0.43289633934E+02  0.00000000000E+00 0. -1.
         11    1    4    4    0    0  0.11144933924E+02 -0.24041604843E+02  0.54565752172E+02  0.60659950756E+02  0.00000000000E+00 0.  1.
<mgrwt>
<rscale>  0 0.12289541E+03</rscale>
<asrwt>0</asrwt>
<pdfrwt beam="2">  1        1 0.74573988E-02 0.13158991E+03</pdfrwt>
<pdfrwt beam="1">  1       -1 0.73608278E-01 0.13158991E+03</pdfrwt>
<totfact> 0.18029043E+03</totfact>
</mgrwt>
</event>
<event>
 8    1  0.1033707E-005  0.1564520E+03  0.7546771E-02  0.1200987E+00
         -1   -1    0    0    0  501 -0.00000000000E+00  0.00000000000E+00  0.17897352777E+04  0.17897352777E+04  0.00000000000E+00 0.  1.
          1   -1    0    0  501    0  0.00000000000E+00 -0.00000000000E+00 -0.40820929380E+02  0.40820929380E+02  0.00000000000E+00 0. -1.
         23    2    1    2    0    0  0.89161225177E+02 -0.30038142052E+02  0.16711209791E+04  0.16784285975E+04  0.12500086393E+03 0.  0.
         23    2    1    2    0    0 -0.89161225177E+02  0.30038142052E+02  0.77793369208E+02  0.15212760959E+03  0.90768867210E+02 0.  0.
          5    1    3    3  502    0 -0.93295566328E+00 -0.52512332167E+02  0.93079040919E+03  0.93228283867E+03  0.47000000000E+01 0. -1.
         -5    1    3    3    0  502  0.90094180841E+02  0.22474190116E+02  0.74033056995E+03  0.74614575885E+03  0.47000000000E+01 0. -1.
        -11    1    4    4    0    0 -0.37550461656E+02 -0.32314509998E+02  0.34140925504E+02  0.60165334880E+02  0.00000000000E+00 0.  1.
         11    1    4    4    0    0 -0.51610763522E+02  0.62352652050E+02  0.43652443704E+02  0.91962274713E+02  0.00000000000E+00 0. -1.
<mgrwt>
<rscale>  0 0.14958285E+03</rscale>
<asrwt>0</asrwt>
<pdfrwt beam="2">  1        1 0.62801444E-02 0.15645201E+03</pdfrwt>
<pdfrwt beam="1">  1       -1 0.27534383E+00 0.15645201E+03</pdfrwt>
<totfact> 0.68373229E+01</totfact>
</mgrwt>
</event>
<event>
 8    1  0.1033707E-005  0.1291101E+03  0.7546771E-02  0.1242665E+00
          3   -1    0    0  501    0  0.00000000000E+00  0.00000000000E+00  0.18197834874E+03  0.18197834874E+03  0.00000000000E+00 0. -1.
         -3   -1    0    0    0  501 -0.00000000000E+00 -0.00000000000E+00 -0.70675602445E+02  0.70675602445E+02  0.00000000000E+00 0.  1.
         23    2    1    2    0    0 -0.31471877496E+02  0.73985248974E+01  0.55054974849E+02  0.14035834426E+03  0.12499678918E+03 0.  0.
         23    2    1    2    0    0  0.31471877496E+02 -0.73985248974E+01  0.56247771445E+02  0.11229560692E+03  0.91658465498E+02 0.  0.
          5    1    3    3  502    0 -0.29323110382E+02  0.43873206881E+02 -0.20097004841E+02  0.56662886337E+02  0.47000000000E+01 0. -1.
         -5    1    3    3    0  502 -0.21487671136E+01 -0.36474681983E+02  0.75151979690E+02  0.83695457925E+02  0.47000000000E+01 0. -1.
        -11    1    4    4    0    0  0.46444223651E+02 -0.82197582427E+01  0.74807600897E+02  0.88435329411E+02  0.00000000000E+00 0. -1.
         11    1    4    4    0    0 -0.14972346155E+02  0.82123334529E+00 -0.18559829452E+02  0.23860277510E+02  0.00000000000E+00 0.  1.
<mgrwt>
<rscale>  0 0.12026215E+03</rscale>
<asrwt>0</asrwt>
<pdfrwt beam="1">  1        3 0.27996669E-01 0.12911009E+03</pdfrwt>
<pdfrwt beam="2">  1       -3 0.10873170E-01 0.12911009E+03</pdfrwt>
<totfact> 0.17812849E+03</totfact>
</mgrwt>
</event>
<event>
 8    1  0.1033707E-005  0.1459328E+03  0.7546771E-02  0.1215430E+00
         -2   -1    0    0    0  501 -0.00000000000E+00  0.00000000000E+00  0.64613526477E+02  0.64613526477E+02  0.00000000000E+00 0.  1.
          2   -1    0    0  501    0  0.00000000000E+00 -0.00000000000E+00 -0.28436646465E+03  0.28436646465E+03  0.00000000000E+00 0. -1.
         23    2    1    2    0    0  0.55724641205E+02  0.50663781546E+02 -0.15984552605E+03  0.21644164217E+03  0.12499735145E+03 0.  0.
         23    2    1    2    0    0 -0.55724641205E+02 -0.50663781546E+02 -0.59907412123E+02  0.13253834896E+03  0.91134304842E+02 0.  0.
          5    1    3    3  502    0  0.73464034644E+02  0.70471252839E+02 -0.72628902393E+02  0.12514075805E+03  0.47000000000E+01 0.  1.
         -5    1    3    3    0  502 -0.17739393439E+02 -0.19807471292E+02 -0.87216623659E+02  0.91300884119E+02  0.47000000000E+01 0.  1.
        -11    1    4    4    0    0  0.46478806326E+00 -0.27727031206E+02  0.18537974673E+02  0.33356570453E+02  0.00000000000E+00 0.  1.
         11    1    4    4    0    0 -0.56189429268E+02 -0.22936750341E+02 -0.78445386796E+02  0.99181778504E+02  0.00000000000E+00 0. -1.
<mgrwt>
<rscale>  0 0.13845018E+03</rscale>
<asrwt>0</asrwt>
<pdfrwt beam="2">  1        2 0.43748687E-01 0.14593283E+03</pdfrwt>
<pdfrwt beam="1">  1       -2 0.99405424E-02 0.14593283E+03</pdfrwt>
<totfact> 0.74207887E+03</totfact>
</mgrwt>
</event>
<event>
 7    1  0.1033707E-005  0.3348553E+03  0.7546771E-02  0.1110475E+00
         -1   -1    0    0    0  501 -0.00000000000E+00  0.00000000000E+00  0.11813599226E+03  0.11813599226E+03  0.00000000000E+00 0.  1.
          1   -1    0    0  501    0  0.00000000000E+00 -0.00000000000E+00 -0.59137652993E+03  0.59137652993E+03  0.00000000000E+00 0. -1.
         23    2    1    2    0    0 -0.66294481620E+02 -0.21646772290E+01 -0.32430355449E+03  0.34302879016E+03  0.89979504919E+02 0.  0.
          5    1    1    2  502    0 -0.20465975320E+02  0.87365279043E+02 -0.21139642511E+03  0.22969999277E+03  0.47000000000E+01 0. -1.
         -5    1    1    2    0  502  0.86760456940E+02 -0.85200601814E+02  0.62459441932E+02  0.13678373925E+03  0.47000000000E+01 0.  1.
        -11    1    3    3    0    0 -0.22442794175E+02  0.36707563942E+02 -0.21235973115E+03  0.21667436321E+03  0.00000000000E+00 0. -1.
         11    1    3    3    0    0 -0.43851687445E+02 -0.38872241171E+02 -0.11194382334E+03  0.12635442695E+03  0.00000000000E+00 0.  1.
<mgrwt>
<rscale>  0 0.25453008E+03</rscale>
<asrwt>0</asrwt>
<pdfrwt beam="2">  1        1 0.90981008E-01 0.33485534E+03</pdfrwt>
<pdfrwt beam="1">  1       -1 0.18174767E-01 0.33485534E+03</pdfrwt>
<totfact> 0.84763886E+02</totfact>
</mgrwt>
</event>
<event>
 8    1  0.1033707E-005  0.1250573E+03  0.7546771E-02  0.1249142E+00
          1   -1    0    0  501    0  0.00000000000E+00  0.00000000000E+00  0.12097447456E+03  0.12097447456E+03  0.00000000000E+00 0. -1.
         -1   -1    0    0    0  501 -0.00000000000E+00 -0.00000000000E+00 -0.13939073120E+03  0.13939073120E+03  0.00000000000E+00 0.  1.
         23    2    1    2    0    0 -0.27530146630E+01  0.36489648169E+01 -0.79653890636E+02  0.14827030008E+03  0.12497377948E+03 0.  0.
         23    2    1    2    0    0  0.27530146630E+01 -0.36489648169E+01  0.61237633994E+02  0.11209490569E+03  0.93778067960E+02 0.  0.
          5    1    3    3  502    0  0.24871695412E+02 -0.31349316515E+02  0.15430491336E+02  0.43145926129E+02  0.47000000000E+01 0. -1.
         -5    1    3    3    0  502 -0.27624710075E+02  0.34998281332E+02 -0.95084381972E+02  0.10512437395E+03  0.47000000000E+01 0. -1.
        -11    1    4    4    0    0  0.24928682392E+02  0.43230916718E+01 -0.16936483480E+02  0.30446228010E+02  0.00000000000E+00 0.  1.
         11    1    4    4    0    0 -0.22175667729E+02 -0.79720564887E+01  0.78174117474E+02  0.81648677679E+02  0.00000000000E+00 0. -1.
<mgrwt>
<rscale>  0 0.11640886E+03</rscale>
<asrwt>0</asrwt>
<pdfrwt beam="1">  1        1 0.18611458E-01 0.12505735E+03</pdfrwt>
<pdfrwt beam="2">  1       -1 0.21444728E-01 0.12505735E+03</pdfrwt>
<totfact> 0.47932220E+03</totfact>
</mgrwt>
</event>
<event>
 8    1  0.1033707E-005  0.1455842E+03  0.7546771E-02  0.1215799E+00
          2   -1    0    0  501    0  0.00000000000E+00  0.00000000000E+00  0.75064829090E+02  0.75064829090E+02  0.00000000000E+00 0. -1.
         -2   -1    0    0    0  501 -0.00000000000E+00 -0.00000000000E+00 -0.30234331292E+03  0.30234331292E+03  0.00000000000E+00 0.  1.
         23    2    1    2    0    0 -0.58589268343E+02 -0.46242141645E+02 -0.21356232707E+03  0.25846396657E+03  0.12499486566E+03 0.  0.
         23    2    1    2    0    0  0.58589268343E+02  0.46242141645E+02 -0.13716156758E+02  0.11894417544E+03  0.91589005268E+02 0.  0.
          5    1    3    3  502    0 -0.82732944961E+02 -0.57026789335E+02 -0.20798469519E+03  0.23103358699E+03  0.47000000000E+01 0.  1.
         -5    1    3    3    0  502  0.24143676618E+02  0.10784647689E+02 -0.55776318809E+01  0.27430379579E+02  0.47000000000E+01 0.  1.
        -11    1    4    4    0    0  0.56741726988E+02  0.89269739585E+01  0.27185037758E+02  0.63547940357E+02  0.00000000000E+00 0. -1.
         11    1    4    4    0    0  0.18475413549E+01  0.37315167687E+02 -0.40901194516E+02  0.55396235083E+02  0.00000000000E+00 0.  1.
<mgrwt>
<rscale>  0 0.13817985E+03</rscale>
<asrwt>0</asrwt>
<pdfrwt beam="1">  1        2 0.11548435E-01 0.14558418E+03</pdfrwt>
<pdfrwt beam="2">  1       -2 0.46514356E-01 0.14558418E+03</pdfrwt>
<totfact> 0.23020535E+03</totfact>
</mgrwt>
</event>
<event>
 7    1  0.1033707E-005  0.1745133E+03  0.7546771E-02  0.1200442E+00
          1   -1    0    0  501    0  0.00000000000E+00  0.00000000000E+00  0.34720951360E+03  0.34720951360E+03  0.00000000000E+00 0. -1.
         -1   -1    0    0    0  501 -0.00000000000E+00 -0.00000000000E+00 -0.52732549835E+02  0.52732549835E+02  0.00000000000E+00 0.  1.
         23    2    1    2    0    0  0.16262908369E+02  0.30484136161E+02  0.11890457253E+03  0.15239293780E+03  0.88834370466E+02 0.  0.
          5    1    1    2  502    0 -0.84950454017E+02  0.15976630712E+02  0.60419487699E+02  0.10556721489E+03  0.47000000000E+01 0. -1.
         -5    1    1    2    0  502  0.68687545648E+02 -0.46460766873E+02  0.11515290353E+03  0.14198191074E+03  0.47000000000E+01 0.  1.
        -11    1    3    3    0    0  0.40098885243E+02 -0.13950421595E+02  0.37551118023E+02  0.56679990519E+02  0.00000000000E+00 0.  1.
         11    1    3    3    0    0 -0.23835976875E+02  0.44434557757E+02  0.81353454506E+02  0.95712947278E+02  0.00000000000E+00 0. -1.
<mgrwt>
<rscale>  0 0.15002510E+03</rscale>
<asrwt>0</asrwt>
<pdfrwt beam="1">  1        1 0.53416847E-01 0.17451334E+03</pdfrwt>
<pdfrwt beam="2">  1       -1 0.81127002E-02 0.17451334E+03</pdfrwt>
<totfact> 0.59496216E+03</totfact>
</mgrwt>
</event>
<event>
 8    1  0.1033707E-005  0.1242662E+03  0.7546771E-02  0.1244338E+00
         -1   -1    0    0    0  501 -0.00000000000E+00  0.00000000000E+00  0.34269114988E+03  0.34269114988E+03  0.00000000000E+00 0.  1.
          1   -1    0    0  501    0  0.00000000000E+00 -0.00000000000E+00 -0.45068533769E+02  0.45068533769E+02  0.00000000000E+00 0. -1.
         23    2    1    2    0    0  0.44413854019E+02 -0.67353623723E+01  0.23319583475E+03  0.26423924884E+03  0.11586253815E+03 0.  0.
         23    2    1    2    0    0 -0.44413854019E+02  0.67353623723E+01  0.64426781365E+02  0.12352043481E+03  0.95333793193E+02 0.  0.
          5    1    3    3  502    0 -0.10999334776E+02  0.41279380416E+02  0.13449386513E+03  0.14119370514E+03  0.47000000000E+01 0. -1.
         -5    1    3    3    0  502  0.55413188795E+02 -0.48014742789E+02  0.98701969616E+02  0.12304554370E+03  0.47000000000E+01 0.  1.
        -11    1    4    4    0    0 -0.71183410941E+02  0.55598978527E+01  0.24600939021E+02  0.75519511770E+02  0.00000000000E+00 0.  1.
         11    1    4    4    0    0  0.26769556922E+02  0.11754645195E+01  0.39825842345E+02  0.48000923044E+02  0.00000000000E+00 0. -1.
<mgrwt>
<rscale>  0 0.11925094E+03</rscale>
<asrwt>0</asrwt>
<pdfrwt beam="2">  1        1 0.69336208E-02 0.12426618E+03</pdfrwt>
<pdfrwt beam="1">  1       -1 0.52721714E-01 0.12426618E+03</pdfrwt>
<totfact> 0.37566853E+03</totfact>
</mgrwt>
</event>
<event>
 8    1  0.1033707E-005  0.1332176E+03  0.7546771E-02  0.1234557E+00
          2   -1    0    0  501    0  0.00000000000E+00  0.00000000000E+00  0.31981165254E+03  0.31981165254E+03  0.00000000000E+00 0. -1.
         -2   -1    0    0    0  501 -0.00000000000E+00 -0.00000000000E+00 -0.44865837255E+02  0.44865837255E+02  0.00000000000E+00 0.  1.
         23    2    1    2    0    0  0.19299286464E+01 -0.46038972398E+02  0.13056351729E+03  0.18653085594E+03  0.12499446614E+03 0.  0.
         23    2    1    2    0    0 -0.19299286464E+01  0.46038972398E+02  0.14438229799E+03  0.17814663386E+03  0.93630462869E+02 0.  0.
          5    1    3    3  502    0  0.41124796687E+02 -0.35229761971E+02  0.51392629344E+01  0.54597500443E+02  0.47000000000E+01 0. -1.
         -5    1    3    3    0  502 -0.39194868040E+02 -0.10809210427E+02  0.12542425436E+03  0.13193335550E+03  0.47000000000E+01 0. -1.
        -11    1    4    4    0    0 -0.37178931873E+02  0.60922474963E+01  0.19601761192E+02  0.42469018079E+02  0.00000000000E+00 0.  1.
         11    1    4    4    0    0  0.35249003227E+02  0.39946724902E+02  0.12478053680E+03  0.13567761578E+03  0.00000000000E+00 0. -1.
<mgrwt>
<rscale>  0 0.12532842E+03</rscale>
<asrwt>0</asrwt>
<pdfrwt beam="1">  1        2 0.49201791E-01 0.13321760E+03</pdfrwt>
<pdfrwt beam="2">  1       -2 0.69024367E-02 0.13321760E+03</pdfrwt>
<totfact> 0.11456023E+04</totfact>
</mgrwt>
</event>
<event>
 8    1  0.1033707E-005  0.1258919E+03  0.7546771E-02  0.1249711E+00
         -1   -1    0    0    0  501 -0.00000000000E+00  0.00000000000E+00  0.91520603987E+02  0.91520603987E+02  0.00000000000E+00 0.  1.
          1   -1    0    0  501    0  0.00000000000E+00 -0.00000000000E+00 -0.14349153272E+03  0.14349153272E+03  0.00000000000E+00 0. -1.
         23    2    1    2    0    0  0.63224344152E+01  0.13544183027E+02  0.78176238075E+01  0.12613442322E+03  0.12500143762E+03 0.  0.
         23    2    1    2    0    0 -0.63224344152E+01 -0.13544183027E+02 -0.59788552545E+02  0.10887771349E+03  0.89756712337E+02 0.  0.
          5    1    3    3  502    0  0.56511845460E+02 -0.12193918809E+02 -0.22152779234E+02  0.62089580133E+02  0.47000000000E+01 0. -1.
         -5    1    3    3    0  502 -0.50189411045E+02  0.25738101836E+02  0.29970403042E+02  0.64044843084E+02  0.47000000000E+01 0. -1.
        -11    1    4    4    0    0  0.43312258222E+01 -0.45278191460E+02 -0.60137209773E+02  0.75401313903E+02  0.00000000000E+00 0. -1.
         11    1    4    4    0    0 -0.10653660237E+02  0.31734008434E+02  0.34865722804E+00  0.33476399591E+02  0.00000000000E+00 0.  1.
<mgrwt>
<rscale>  0 0.11607806E+03</rscale>
<asrwt>0</asrwt>
<pdfrwt beam="2">  1        1 0.22075620E-01 0.12589193E+03</pdfrwt>
<pdfrwt beam="1">  1       -1 0.14080093E-01 0.12589193E+03</pdfrwt>
<totfact> 0.75189635E+03</totfact>
</mgrwt>
</event>
<event>
 8    1  0.1033707E-005  0.2485550E+03  0.7546771E-02  0.1116660E+00
         -1   -1    0    0    0  501 -0.00000000000E+00  0.00000000000E+00  0.73341421509E+02  0.73341421509E+02  0.00000000000E+00 0.  1.
          1   -1    0    0  501    0  0.00000000000E+00 -0.00000000000E+00 -0.80119140115E+03  0.80119140115E+03  0.00000000000E+00 0. -1.
         23    2    1    2    0    0 -0.19761211947E+03 -0.84277331968E+02 -0.33041947213E+03  0.41346902696E+03  0.12500556088E+03 0.  0.
         23    2    1    2    0    0  0.19761211947E+03  0.84277331968E+02 -0.39743050752E+03  0.46106379570E+03  0.92063005338E+02 0.  0.
          5    1    3    3  502    0 -0.18981180234E+03 -0.31889786742E+02 -0.28263406700E+03  0.34197892425E+03  0.47000000000E+01 0.  1.
         -5    1    3    3    0  502 -0.78003171352E+01 -0.52387545226E+02 -0.47785405124E+02  0.71490102707E+02  0.47000000000E+01 0.  1.
        -11    1    4    4    0    0  0.21068538890E+02  0.33717699137E+02 -0.13520232240E+03  0.14092705400E+03  0.00000000000E+00 0. -1.
         11    1    4    4    0    0  0.17654358058E+03  0.50559632831E+02 -0.26222818512E+03  0.32013674170E+03  0.00000000000E+00 0.  1.
<mgrwt>
<rscale>  0 0.24476237E+03</rscale>
<asrwt>0</asrwt>
<pdfrwt beam="2">  1        1 0.12326021E+00 0.24855504E+03</pdfrwt>
<pdfrwt beam="1">  1       -1 0.11283296E-01 0.24855504E+03</pdfrwt>
<totfact> 0.11615310E+03</totfact>
</mgrwt>
</event>
<event>
 8    1  0.1033707E-005  0.1469682E+03  0.7546771E-02  0.1213466E+00
         -4   -1    0    0    0  501 -0.00000000000E+00  0.00000000000E+00  0.16309893163E+03  0.16309893163E+03  0.00000000000E+00 0.  1.
          4   -1    0    0  501    0  0.00000000000E+00 -0.00000000000E+00 -0.11622816007E+03  0.11622816007E+03  0.00000000000E+00 0. -1.
         23    2    1    2    0    0 -0.66057909795E+02  0.40130307750E+02  0.58331798580E+02  0.15812100311E+03  0.12500225539E+03 0.  0.
         23    2    1    2    0    0  0.66057909795E+02 -0.40130307750E+02 -0.11461027015E+02  0.12120608858E+03  0.92657820624E+02 0.  0.
          5    1    3    3  502    0 -0.76861730170E+02  0.76608763768E+02  0.42212667029E+02  0.11653594942E+03  0.47000000000E+01 0.  1.
         -5    1    3    3    0  502  0.10803820374E+02 -0.36478456018E+02  0.16119131552E+02  0.41585053687E+02  0.47000000000E+01 0.  1.
        -11    1    4    4    0    0  0.86687655615E+02 -0.24253718109E+02 -0.22726614354E+02  0.92841216483E+02  0.00000000000E+00 0. -1.
         11    1    4    4    0    0 -0.20629745819E+02 -0.15876589641E+02  0.11265587339E+02  0.28364872101E+02  0.00000000000E+00 0.  1.
<mgrwt>
<rscale>  0 0.13989786E+03</rscale>
<asrwt>0</asrwt>
<pdfrwt beam="2">  1        4 0.17881255E-01 0.14696820E+03</pdfrwt>
<pdfrwt beam="1">  1       -4 0.25092144E-01 0.14696820E+03</pdfrwt>
<totfact> 0.69051459E+02</totfact>
</mgrwt>
</event>
<event>
 8    1  0.1033707E-005  0.1504672E+03  0.7546771E-02  0.1209684E+00
          1   -1    0    0  501    0  0.00000000000E+00  0.00000000000E+00  0.24476627973E+03  0.24476627973E+03  0.00000000000E+00 0. -1.
         -1   -1    0    0    0  501 -0.00000000000E+00 -0.00000000000E+00 -0.84505512729E+02  0.84505512729E+02  0.00000000000E+00 0.  1.
         23    2    1    2    0    0 -0.83705535191E+02 -0.15735239492E+01  0.34955637232E+02  0.15447420728E+03  0.12502516364E+03 0.  0.
         23    2    1    2    0    0  0.83705535191E+02  0.15735239492E+01  0.12530512977E+03  0.17479758517E+03  0.88564821667E+02 0.  0.
          5    1    3    3  502    0 -0.28536639416E+02 -0.51260750392E+02 -0.19804197119E+02  0.62099118701E+02  0.47000000000E+01 0.  1.
         -5    1    3    3    0  502 -0.55168895775E+02  0.49687226443E+02  0.54759834351E+02  0.92375088583E+02  0.47000000000E+01 0.  1.
        -11    1    4    4    0    0  0.40460595595E+02  0.11323969304E+02  0.14181758371E+00  0.42015618393E+02  0.00000000000E+00 0.  1.
         11    1    4    4    0    0  0.43244939596E+02 -0.97504453549E+01  0.12516331218E+03  0.13278196678E+03  0.00000000000E+00 0. -1.
<mgrwt>
<rscale>  0 0.14274389E+03</rscale>
<asrwt>0</asrwt>
<pdfrwt beam="1">  1        1 0.37656350E-01 0.15046722E+03</pdfrwt>
<pdfrwt beam="2">  1       -1 0.13000848E-01 0.15046722E+03</pdfrwt>
<totfact> 0.44212314E+03</totfact>
</mgrwt>
</event>
<event>
 8    1  0.1033707E-005  0.1374931E+03  0.7546771E-02  0.1228115E+00
         -2   -1    0    0    0  501 -0.00000000000E+00  0.00000000000E+00  0.63693211656E+03  0.63693211656E+03  0.00000000000E+00 0.  1.
          2   -1    0    0  501    0  0.00000000000E+00 -0.00000000000E+00 -0.24303107339E+02  0.24303107339E+02  0.00000000000E+00 0. -1.
         23    2    1    2    0    0 -0.48379378630E+02 -0.30796348276E+02  0.39210683285E+03  0.41551427639E+03  0.12496145874E+03 0.  0.
         23    2    1    2    0    0  0.48379378630E+02  0.30796348276E+02  0.22052217637E+03  0.24572094751E+03  0.91977032083E+02 0.  0.
          5    1    3    3  502    0  0.18635886651E+02  0.14447717840E+02  0.11997127777E+02  0.26871060585E+02  0.47000000000E+01 0. -1.
         -5    1    3    3    0  502 -0.67015265281E+02 -0.45244066116E+02  0.38010970507E+03  0.38864321580E+03  0.47000000000E+01 0. -1.
        -11    1    4    4    0    0  0.11220047328E+02  0.54415344391E+01 -0.66535928439E+01  0.14134003566E+02  0.00000000000E+00 0. -1.
         11    1    4    4    0    0  0.37159331303E+02  0.25354813837E+02  0.22717576921E+03  0.23158694394E+03  0.00000000000E+00 0.  1.
<mgrwt>
<rscale>  0 0.12955662E+03</rscale>
<asrwt>0</asrwt>
<pdfrwt beam="2">  1        2 0.37389401E-02 0.13749307E+03</pdfrwt>
<pdfrwt beam="1">  1       -2 0.97989544E-01 0.13749307E+03</pdfrwt>
<totfact> 0.20051154E+03</totfact>
</mgrwt>
</event>
<event>
 8    1  0.1033707E-005  0.1661398E+03  0.7546771E-02  0.1189016E+00
          2   -1    0    0  501    0  0.00000000000E+00  0.00000000000E+00  0.37658000043E+03  0.37658000043E+03  0.00000000000E+00 0.  1.
         -2   -1    0    0    0  501 -0.00000000000E+00 -0.00000000000E+00 -0.86253492718E+02  0.86253492718E+02  0.00000000000E+00 0. -1.
         23    2    1    2    0    0  0.10277170314E+02 -0.10895235958E+03  0.33605478246E+02  0.16950447220E+03  0.12500480407E+03 0.  0.
         23    2    1    2    0    0 -0.10277170314E+02  0.10895235958E+03  0.25672102947E+03  0.29332902095E+03  0.90332666679E+02 0.  0.
          5    1    3    3  502    0  0.33046084047E+02 -0.66923593440E+02  0.75134345704E+02  0.10600976811E+03  0.47000000000E+01 0. -1.
         -5    1    3    3    0  502 -0.22768913733E+02 -0.42028766143E+02 -0.41528867458E+02  0.63494704098E+02  0.47000000000E+01 0. -1.
        -11    1    4    4    0    0 -0.32893963064E+02  0.10306378725E+02  0.10856141883E+03  0.11390265979E+03  0.00000000000E+00 0. -1.
         11    1    4    4    0    0  0.22616792750E+02  0.98645980858E+02  0.14815961064E+03  0.17942636116E+03  0.00000000000E+00 0.  1.
<mgrwt>
<rscale>  0 0.15971752E+03</rscale>
<asrwt>0</asrwt>
<pdfrwt beam="1">  1        2 0.57935384E-01 0.16613981E+03</pdfrwt>
<pdfrwt beam="2">  1       -2 0.13269768E-01 0.16613981E+03</pdfrwt>
<totfact> 0.34935919E+03</totfact>
</mgrwt>
</event>
<event>
 8    1  0.1033707E-005  0.1451871E+03  0.7546771E-02  0.1215464E+00
          1   -1    0    0  501    0  0.00000000000E+00  0.00000000000E+00  0.46629441479E+03  0.46629441479E+03  0.00000000000E+00 0. -1.
         -1   -1    0    0    0  501 -0.00000000000E+00 -0.00000000000E+00 -0.43509968014E+02  0.43509968014E+02  0.00000000000E+00 0.  1.
         23    2    1    2    0    0 -0.55793072788E+02  0.48382346049E+02  0.13599114521E+03  0.19892936257E+03  0.12500232534E+03 0.  0.
         23    2    1    2    0    0  0.55793072788E+02 -0.48382346049E+02  0.28679330157E+03  0.31087502023E+03  0.94547141667E+02 0.  0.
          5    1    3    3  502    0  0.21079440407E+02  0.57844808116E+02  0.33095990132E+02  0.70055686398E+02  0.47000000000E+01 0.  1.
         -5    1    3    3    0  502 -0.76872513195E+02 -0.94624620669E+01  0.10289515507E+03  0.12887367618E+03  0.47000000000E+01 0.  1.
        -11    1    4    4    0    0  0.65922788694E+02 -0.12747570466E+02  0.10004663053E+03  0.12048918168E+03  0.00000000000E+00 0.  1.
         11    1    4    4    0    0 -0.10129715907E+02 -0.35634775583E+02  0.18674667104E+03  0.19038583855E+03  0.00000000000E+00 0. -1.
<mgrwt>
<rscale>  0 0.13842500E+03</rscale>
<asrwt>0</asrwt>
<pdfrwt beam="1">  1        1 0.71737599E-01 0.14518712E+03</pdfrwt>
<pdfrwt beam="2">  1       -1 0.66938416E-02 0.14518712E+03</pdfrwt>
<totfact> 0.54130778E+03</totfact>
</mgrwt>
</event>
<event>
 8    1  0.1033707E-005  0.1264117E+03  0.7546771E-02  0.1243465E+00
         -1   -1    0    0    0  501 -0.00000000000E+00  0.00000000000E+00  0.35302777329E+02  0.35302777329E+02  0.00000000000E+00 0.  1.
          1   -1    0    0  501    0  0.00000000000E+00 -0.00000000000E+00 -0.41580107764E+03  0.41580107764E+03  0.00000000000E+00 0. -1.
         23    2    1    2    0    0  0.16742629613E+02  0.87090240132E+01 -0.28358704985E+03  0.31048594809E+03  0.12499498540E+03 0.  0.
         23    2    1    2    0    0 -0.16742629613E+02 -0.87090240132E+01 -0.96911250453E+02  0.14061790687E+03  0.10012713180E+03 0.  0.
          5    1    3    3  502    0  0.27495409838E+00  0.65910655142E+02 -0.13352839509E+03  0.14898393321E+03  0.47000000000E+01 0.  1.
         -5    1    3    3    0  502  0.16467675514E+02 -0.57201631129E+02 -0.15005865476E+03  0.16150201488E+03  0.47000000000E+01 0.  1.
        -11    1    4    4    0    0 -0.54231830711E+02 -0.25009200409E+01 -0.26061184240E+02  0.60220689031E+02  0.00000000000E+00 0.  1.
         11    1    4    4    0    0  0.37489201098E+02 -0.62081039722E+01 -0.70850066213E+02  0.80397217839E+02  0.00000000000E+00 0. -1.
<mgrwt>
<rscale>  0 0.11977700E+03</rscale>
<asrwt>0</asrwt>
<pdfrwt beam="2">  1        1 0.63969397E-01 0.12641167E+03</pdfrwt>
<pdfrwt beam="1">  1       -1 0.54311965E-02 0.12641167E+03</pdfrwt>
<totfact> 0.84826007E+03</totfact>
</mgrwt>
</event>
<event>
 8    1  0.1033707E-005  0.1296023E+03  0.7546771E-02  0.1241835E+00
         -1   -1    0    0    0  501 -0.00000000000E+00  0.00000000000E+00  0.43096329662E+03  0.43096329662E+03  0.00000000000E+00 0.  1.
          1   -1    0    0  501    0  0.00000000000E+00 -0.00000000000E+00 -0.29983523569E+02  0.29983523569E+02  0.00000000000E+00 0. -1.
         23    2    1    2    0    0  0.11956961844E+02  0.32049702263E+02  0.23225245877E+03  0.26596610403E+03  0.12500644599E+03 0.  0.
         23    2    1    2    0    0 -0.11956961844E+02 -0.32049702263E+02  0.16872731428E+03  0.19498071616E+03  0.91533713665E+02 0.  0.
          5    1    3    3  502    0  0.55958226770E+02  0.55570423807E+02  0.13070810307E+03  0.15272882293E+03  0.47000000000E+01 0. -1.
         -5    1    3    3    0  502 -0.44001264926E+02 -0.23520721545E+02  0.10154435570E+03  0.11323728110E+03  0.47000000000E+01 0. -1.
        -11    1    4    4    0    0 -0.19691032394E+02  0.49498155110E+01 -0.17351570729E+01  0.20377639716E+02  0.00000000000E+00 0. -1.
         11    1    4    4    0    0  0.77340705500E+01 -0.36999517774E+02  0.17046247136E+03  0.17460307645E+03  0.00000000000E+00 0.  1.
<mgrwt>
<rscale>  0 0.12076801E+03</rscale>
<asrwt>0</asrwt>
<pdfrwt beam="2">  1        1 0.46128501E-02 0.12960233E+03</pdfrwt>
<pdfrwt beam="1">  1       -1 0.66302041E-01 0.12960233E+03</pdfrwt>
<totfact> 0.42479167E+03</totfact>
</mgrwt>
</event>
<event>
 7    1  0.1033707E-005  0.2022287E+03  0.7546771E-02  0.1169755E+00
         -2   -1    0    0    0  501 -0.00000000000E+00  0.00000000000E+00  0.69727722248E+02  0.69727722248E+02  0.00000000000E+00 0.  1.
          2   -1    0    0  501    0  0.00000000000E+00 -0.00000000000E+00 -0.38917479701E+03  0.38917479701E+03  0.00000000000E+00 0. -1.
         23    2    1    2    0    0  0.42812231721E+02 -0.45914760995E+02 -0.16298029280E+03  0.20321074598E+03  0.10387963698E+03 0.  0.
          5    1    1    2  502    0 -0.68115572978E+02  0.53337923123E+02 -0.19232148972E+03  0.21093674581E+03  0.47000000000E+01 0. -1.
         -5    1    1    2    0  502  0.25303341257E+02 -0.74231621276E+01  0.35854707761E+02  0.44755027465E+02  0.47000000000E+01 0.  1.
        -11    1    3    3    0    0  0.23638967343E+02  0.26755596926E+02 -0.18173408977E+02  0.40061646718E+02  0.00000000000E+00 0.  1.
         11    1    3    3    0    0  0.19173264378E+02 -0.72670357921E+02 -0.14480688383E+03  0.16314909926E+03  0.00000000000E+00 0. -1.
<mgrwt>
<rscale>  0 0.17799789E+03</rscale>
<asrwt>0</asrwt>
<pdfrwt beam="2">  1        2 0.59873046E-01 0.20222866E+03</pdfrwt>
<pdfrwt beam="1">  1       -2 0.10727342E-01 0.20222866E+03</pdfrwt>
<totfact> 0.47876753E+03</totfact>
</mgrwt>
</event>
<event>
 8    1  0.1033707E-005  0.1791653E+03  0.7546771E-02  0.1174438E+00
         -3   -1    0    0    0  501 -0.00000000000E+00  0.00000000000E+00  0.60512867282E+02  0.60512867282E+02  0.00000000000E+00 0.  1.
          3   -1    0    0  501    0  0.00000000000E+00 -0.00000000000E+00 -0.47015675177E+03  0.47015675177E+03  0.00000000000E+00 0. -1.
         23    2    1    2    0    0 -0.43658366651E+02  0.12066344237E+03 -0.19499900484E+03  0.26481093556E+03  0.12503799582E+03 0.  0.
         23    2    1    2    0    0  0.43658366651E+02 -0.12066344237E+03 -0.21464487964E+03  0.26585868349E+03  0.90236887836E+02 0.  0.
          5    1    3    3  502    0 -0.79070560905E+02  0.40617959556E+02 -0.12024159301E+03  0.14960649361E+03  0.47000000000E+01 0.  1.
         -5    1    3    3    0  502  0.35412194255E+02  0.80045482817E+02 -0.74757411838E+02  0.11520444196E+03  0.47000000000E+01 0.  1.
        -11    1    4    4    0    0  0.13680649469E+02 -0.17405546659E+02 -0.12180946574E+03  0.12380492384E+03  0.00000000000E+00 0. -1.
         11    1    4    4    0    0  0.29977717182E+02 -0.10325789571E+03 -0.92835413901E+02  0.14205375964E+03  0.00000000000E+00 0.  1.
<mgrwt>
<rscale>  0 0.17331093E+03</rscale>
<asrwt>0</asrwt>
<pdfrwt beam="2">  1        3 0.72331806E-01 0.17916534E+03</pdfrwt>
<pdfrwt beam="1">  1       -3 0.93096722E-02 0.17916534E+03</pdfrwt>
<totfact> 0.37191376E+02</totfact>
</mgrwt>
</event>
<event>
 8    1  0.1033707E-005  0.2306842E+03  0.7546771E-02  0.1129100E+00
         -2   -1    0    0    0  501 -0.00000000000E+00  0.00000000000E+00  0.59949178992E+02  0.59949178992E+02  0.00000000000E+00 0. -1.
          2   -1    0    0  501    0  0.00000000000E+00 -0.00000000000E+00 -0.88595868014E+03  0.88595868014E+03  0.00000000000E+00 0.  1.
         23    2    1    2    0    0 -0.72700938556E+02  0.17973432010E+03 -0.30468072333E+03  0.38215908092E+03  0.12500147069E+03 0.  0.
         23    2    1    2    0    0  0.72700938556E+02 -0.17973432010E+03 -0.52132877781E+03  0.56374877820E+03  0.91864781396E+02 0.  0.
          5    1    3    3  502    0 -0.23090190622E+01  0.14727382918E+03 -0.23734359503E+03  0.27937248332E+03  0.47000000000E+01 0. -1.
         -5    1    3    3    0  502 -0.70391919493E+02  0.32460490914E+02 -0.67337128297E+02  0.10278659761E+03  0.47000000000E+01 0. -1.
        -11    1    4    4    0    0  0.38100292416E+02 -0.12598450484E+03 -0.22558017389E+03  0.26117071542E+03  0.00000000000E+00 0. -1.
         11    1    4    4    0    0  0.34600646140E+02 -0.53749815259E+02 -0.29574860392E+03  0.30257806278E+03  0.00000000000E+00 0.  1.
<mgrwt>
<rscale>  0 0.22653869E+03</rscale>
<asrwt>0</asrwt>
<pdfrwt beam="2">  1        2 0.13630132E+00 0.23068424E+03</pdfrwt>
<pdfrwt beam="1">  1       -2 0.92229517E-02 0.23068424E+03</pdfrwt>
<totfact> 0.23349270E+03</totfact>
</mgrwt>
</event>
<event>
 8    1  0.1033707E-005  0.1253672E+03  0.7546771E-02  0.1250947E+00
          1   -1    0    0  501    0  0.00000000000E+00  0.00000000000E+00  0.73149321905E+02  0.73149321905E+02  0.00000000000E+00 0. -1.
         -1   -1    0    0    0  501 -0.00000000000E+00 -0.00000000000E+00 -0.17124990241E+03  0.17124990241E+03  0.00000000000E+00 0.  1.
         23    2    1    2    0    0  0.61229290265E+01  0.73659913611E+01 -0.89620031332E+02  0.15410605764E+03  0.12500071559E+03 0.  0.
         23    2    1    2    0    0 -0.61229290265E+01 -0.73659913611E+01 -0.84805491732E+01  0.90293166672E+02  0.89382258558E+02 0.  0.
          5    1    3    3  502    0 -0.41126377603E+02  0.11615049586E+02 -0.96779474553E+02  0.10589922099E+03  0.47000000000E+01 0. -1.
         -5    1    3    3    0  502  0.47249306630E+02 -0.42490582253E+01  0.71594432219E+01  0.48206836652E+02  0.47000000000E+01 0. -1.
        -11    1    4    4    0    0  0.70745056579E+01  0.13402347675E+02 -0.44308715325E+02  0.46828771148E+02  0.00000000000E+00 0.  1.
         11    1    4    4    0    0 -0.13197434684E+02 -0.20768339036E+02  0.35828166151E+02  0.43464395525E+02  0.00000000000E+00 0. -1.
<mgrwt>
<rscale>  0 0.11536407E+03</rscale>
<asrwt>0</asrwt>
<pdfrwt beam="1">  1        1 0.11253742E-01 0.12536717E+03</pdfrwt>
<pdfrwt beam="2">  1       -1 0.26346139E-01 0.12536717E+03</pdfrwt>
<totfact> 0.65717909E+03</totfact>
</mgrwt>
</event>
<event>
 8    1  0.1033707E-005  0.1485882E+03  0.7546771E-02  0.1211918E+00
          1   -1    0    0  501    0  0.00000000000E+00  0.00000000000E+00  0.36403989931E+03  0.36403989931E+03  0.00000000000E+00 0. -1.
         -1   -1    0    0    0  501 -0.00000000000E+00 -0.00000000000E+00 -0.56539643387E+02  0.56539643387E+02  0.00000000000E+00 0.  1.
         23    2    1    2    0    0 -0.78338231990E+02 -0.17787845827E+02  0.95460638364E+02  0.17661023425E+03  0.12500062125E+03 0.  0.
         23    2    1    2    0    0  0.78338231990E+02  0.17787845827E+02  0.21203961756E+03  0.24396930845E+03  0.90038536197E+02 0.  0.
          5    1    3    3  502    0 -0.46343454692E+02 -0.10336166845E+02 -0.23443190084E+02  0.53162254459E+02  0.47000000000E+01 0.  1.
         -5    1    3    3    0  502 -0.31994777297E+02 -0.74516789820E+01  0.11890382845E+03  0.12344797979E+03  0.47000000000E+01 0.  1.
        -11    1    4    4    0    0  0.41355070453E+01  0.23233389185E+02  0.52133576036E+01  0.24167579297E+02  0.00000000000E+00 0.  1.
         11    1    4    4    0    0  0.74202724944E+02 -0.54455433579E+01  0.20682625996E+03  0.21980172915E+03  0.00000000000E+00 0. -1.
<mgrwt>
<rscale>  0 0.14105360E+03</rscale>
<asrwt>0</asrwt>
<pdfrwt beam="1">  1        1 0.56006137E-01 0.14858816E+03</pdfrwt>
<pdfrwt beam="2">  1       -1 0.86984069E-02 0.14858816E+03</pdfrwt>
<totfact> 0.49992524E+03</totfact>
</mgrwt>
</event>
<event>
 8    1  0.1033707E-005  0.1503234E+03  0.7546771E-02  0.1209642E+00
          1   -1    0    0  501    0  0.00000000000E+00  0.00000000000E+00  0.21738814097E+03  0.21738814097E+03  0.00000000000E+00 0. -1.
         -1   -1    0    0    0  501 -0.00000000000E+00 -0.00000000000E+00 -0.91702586193E+02  0.91702586193E+02  0.00000000000E+00 0.  1.
         23    2    1    2    0    0  0.12932138908E+02 -0.82474735823E+02  0.28837703140E+02  0.15306452983E+03  0.12501125911E+03 0.  0.
         23    2    1    2    0    0 -0.12932138908E+02  0.82474735823E+02  0.96847851641E+02  0.15602619734E+03  0.89416696552E+02 0.  0.
          5    1    3    3  502    0  0.26954126034E+02  0.78290780011E-01 -0.37298293194E+02  0.46257796261E+02  0.47000000000E+01 0.  1.
         -5    1    3    3    0  502 -0.14021987126E+02 -0.82553026603E+02  0.66135996334E+02  0.10680673357E+03  0.47000000000E+01 0.  1.
        -11    1    4    4    0    0 -0.31028596579E+02  0.31791697179E+02  0.91786600031E+02  0.10197188711E+03  0.00000000000E+00 0. -1.
         11    1    4    4    0    0  0.18096457671E+02  0.50683038644E+02  0.50612516093E+01  0.54054310229E+02  0.00000000000E+00 0.  1.
<mgrwt>
<rscale>  0 0.14277541E+03</rscale>
<asrwt>0</asrwt>
<pdfrwt beam="1">  1        1 0.33444329E-01 0.15032344E+03</pdfrwt>
<pdfrwt beam="2">  1       -1 0.14108090E-01 0.15032344E+03</pdfrwt>
<totfact> 0.45096455E+03</totfact>
</mgrwt>
</event>
<event>
 8    1  0.1033707E-005  0.1341826E+03  0.7546771E-02  0.1234381E+00
          2   -1    0    0  501    0  0.00000000000E+00  0.00000000000E+00  0.27284945091E+02  0.27284945091E+02  0.00000000000E+00 0. -1.
         -2   -1    0    0    0  501 -0.00000000000E+00 -0.00000000000E+00 -0.51431406420E+03  0.51431406420E+03  0.00000000000E+00 0.  1.
         23    2    1    2    0    0  0.19732097338E+02  0.44625533667E+02 -0.26371852515E+03  0.29589259918E+03  0.12499670326E+03 0.  0.
         23    2    1    2    0    0 -0.19732097338E+02 -0.44625533667E+02 -0.22331059396E+03  0.24570641010E+03  0.90128933593E+02 0.  0.
          5    1    3    3  502    0  0.59134501428E+02  0.53989270158E+02 -0.22796577037E+03  0.24166549818E+03  0.47000000000E+01 0.  1.
         -5    1    3    3    0  502 -0.39402404090E+02 -0.93637364910E+01 -0.35752754781E+02  0.54227101007E+02  0.47000000000E+01 0.  1.
        -11    1    4    4    0    0 -0.46747104222E+02 -0.31803166346E+02 -0.19986249681E+03  0.20770592378E+03  0.00000000000E+00 0.  1.
         11    1    4    4    0    0  0.27015006884E+02 -0.12822367321E+02 -0.23448097148E+02  0.38000486320E+02  0.00000000000E+00 0. -1.
<mgrwt>
<rscale>  0 0.12544160E+03</rscale>
<asrwt>0</asrwt>
<pdfrwt beam="1">  1        2 0.41976839E-02 0.13418260E+03</pdfrwt>
<pdfrwt beam="2">  1       -2 0.79125240E-01 0.13418260E+03</pdfrwt>
<totfact> 0.27690586E+03</totfact>
</mgrwt>
</event>
<event>
 8    1  0.1033707E-005  0.1466278E+03  0.7546771E-02  0.1214373E+00
          1   -1    0    0  501    0  0.00000000000E+00  0.00000000000E+00  0.21644115286E+02  0.21644115286E+02  0.00000000000E+00 0. -1.
         -1   -1    0    0    0  501 -0.00000000000E+00 -0.00000000000E+00 -0.82030506071E+03  0.82030506071E+03  0.00000000000E+00 0.  1.
         23    2    1    2    0    0  0.71930370921E+02  0.26429445547E+02 -0.47015743229E+03  0.49249135343E+03  0.12500891251E+03 0.  0.
         23    2    1    2    0    0 -0.71930370921E+02 -0.26429445547E+02 -0.32850351313E+03  0.34945782257E+03  0.91289198500E+02 0.  0.
          5    1    3    3  502    0  0.75405256877E+02 -0.36162228549E+02 -0.26683276945E+03  0.27967029944E+03  0.47000000000E+01 0.  1.
         -5    1    3    3    0  502 -0.34748859559E+01  0.62591674096E+02 -0.20332466284E+03  0.21282105398E+03  0.47000000000E+01 0.  1.
        -11    1    4    4    0    0 -0.60508595975E+02 -0.53931100041E+02 -0.28797820345E+03  0.29916767773E+03  0.00000000000E+00 0.  1.
         11    1    4    4    0    0 -0.11421774945E+02  0.27501654494E+02 -0.40525309682E+02  0.50290144836E+02  0.00000000000E+00 0. -1.
<mgrwt>
<rscale>  0 0.13922656E+03</rscale>
<asrwt>0</asrwt>
<pdfrwt beam="1">  1        1 0.33298639E-02 0.14662784E+03</pdfrwt>
<pdfrwt beam="2">  1       -1 0.12620078E+00 0.14662784E+03</pdfrwt>
<totfact> 0.16823217E+03</totfact>
</mgrwt>
</event>
<event>
 8    1  0.1033707E-005  0.1294217E+03  0.7546771E-02  0.1236973E+00
         -2   -1    0    0    0  501 -0.00000000000E+00  0.00000000000E+00  0.38984707036E+02  0.38984707036E+02  0.00000000000E+00 0.  1.
          2   -1    0    0  501    0  0.00000000000E+00 -0.00000000000E+00 -0.37743109454E+03  0.37743109454E+03  0.00000000000E+00 0. -1.
         23    2    1    2    0    0  0.44579894344E+02  0.39133492807E+02 -0.22495667780E+03  0.25952934924E+03  0.11502686205E+03 0.  0.
         23    2    1    2    0    0 -0.44579894344E+02 -0.39133492807E+02 -0.11348970971E+03  0.15688645234E+03  0.90634692467E+02 0.  0.
          5    1    3    3  502    0  0.67289925303E+02  0.81204988913E+01 -0.20499824791E+03  0.21596353441E+03  0.47000000000E+01 0. -1.
         -5    1    3    3    0  502 -0.22710030960E+02  0.31012993916E+02 -0.19958429883E+02  0.43565814823E+02  0.47000000000E+01 0.  1.
        -11    1    4    4    0    0 -0.59511053734E+02 -0.48966035176E+02 -0.52296554907E+02  0.93135212313E+02  0.00000000000E+00 0.  1.
         11    1    4    4    0    0  0.14931159391E+02  0.98325423692E+01 -0.61193154800E+02  0.63751240024E+02  0.00000000000E+00 0. -1.
<mgrwt>
<rscale>  0 0.12378942E+03</rscale>
<asrwt>0</asrwt>
<pdfrwt beam="2">  1        2 0.58066323E-01 0.12942170E+03</pdfrwt>
<pdfrwt beam="1">  1       -2 0.59976472E-02 0.12942170E+03</pdfrwt>
<totfact> 0.11872411E+04</totfact>
</mgrwt>
</event>
<event>
 8    1  0.1033707E-005  0.1289709E+03  0.7546771E-02  0.1242712E+00
          1   -1    0    0  501    0  0.00000000000E+00  0.00000000000E+00  0.84169081097E+03  0.84169081097E+03  0.00000000000E+00 0. -1.
         -1   -1    0    0    0  501 -0.00000000000E+00 -0.00000000000E+00 -0.15389635528E+02  0.15389635528E+02  0.00000000000E+00 0.  1.
         23    2    1    2    0    0 -0.31245202923E+02 -0.54565664674E+01  0.51431788701E+03  0.53024181674E+03  0.12500983362E+03 0.  0.
         23    2    1    2    0    0  0.31245202923E+02  0.54565664674E+01  0.31198328844E+03  0.32683862976E+03  0.92107984537E+02 0.  0.
          5    1    3    3  502    0 -0.44213606743E+02 -0.42236132976E+02  0.12800500145E+03  0.14193697315E+03  0.47000000000E+01 0. -1.
         -5    1    3    3    0  502  0.12968403819E+02  0.36779566509E+02  0.38631288556E+03  0.38830484360E+03  0.47000000000E+01 0. -1.
        -11    1    4    4    0    0 -0.50787976300E+01  0.40360206249E+02  0.19927863429E+03  0.20338808844E+03  0.00000000000E+00 0.  1.
         11    1    4    4    0    0  0.36324000553E+02 -0.34903639781E+02  0.11270465415E+03  0.12345054132E+03  0.00000000000E+00 0. -1.
<mgrwt>
<rscale>  0 0.12023381E+03</rscale>
<asrwt>0</asrwt>
<pdfrwt beam="1">  1        1 0.12949086E+00 0.12897091E+03</pdfrwt>
<pdfrwt beam="2">  1       -1 0.23676369E-02 0.12897091E+03</pdfrwt>
<totfact> 0.10891027E+04</totfact>
</mgrwt>
</event>
<event>
 8    1  0.1033707E-005  0.1746128E+03  0.7546771E-02  0.1179192E+00
         -1   -1    0    0    0  501 -0.00000000000E+00  0.00000000000E+00  0.11123101477E+03  0.11123101477E+03  0.00000000000E+00 0.  1.
          1   -1    0    0  501    0  0.00000000000E+00 -0.00000000000E+00 -0.25621676170E+03  0.25621676170E+03  0.00000000000E+00 0. -1.
         23    2    1    2    0    0  0.10397194615E+03  0.63662747775E+02 -0.31111509498E+02  0.17736276701E+03  0.12500605608E+03 0.  0.
         23    2    1    2    0    0 -0.10397194615E+03 -0.63662747775E+02 -0.11387423743E+03  0.19008500946E+03  0.91114531399E+02 0.  0.
          5    1    3    3  502    0 -0.20431882015E+02  0.51888776107E+01  0.21148238876E+02  0.30227872255E+02  0.47000000000E+01 0.  1.
         -5    1    3    3    0  502  0.12440382816E+03  0.58473870164E+02 -0.52259748374E+02  0.14713489475E+03  0.47000000000E+01 0.  1.
        -11    1    4    4    0    0 -0.43933981148E+02 -0.25462642418E+02 -0.10719215844E+03  0.11861154956E+03  0.00000000000E+00 0. -1.
         11    1    4    4    0    0 -0.60037964998E+02 -0.38200105357E+02 -0.66820789895E+01  0.71473459900E+02  0.00000000000E+00 0.  1.
<mgrwt>
<rscale>  0 0.16871784E+03</rscale>
<asrwt>0</asrwt>
<pdfrwt beam="2">  1        1 0.39417964E-01 0.17461279E+03</pdfrwt>
<pdfrwt beam="1">  1       -1 0.17112464E-01 0.17461279E+03</pdfrwt>
<totfact> 0.27290077E+03</totfact>
</mgrwt>
</event>
<event>
 8    1  0.1033707E-005  0.1268413E+03  0.7546771E-02  0.1240269E+00
          2   -1    0    0  501    0  0.00000000000E+00  0.00000000000E+00  0.30928270994E+03  0.30928270994E+03  0.00000000000E+00 0. -1.
         -2   -1    0    0    0  501 -0.00000000000E+00 -0.00000000000E+00 -0.44435945703E+02  0.44435945703E+02  0.00000000000E+00 0.  1.
         23    2    1    2    0    0  0.66707277390E+01  0.20476403847E+02  0.14096160190E+03  0.18962831080E+03  0.12499976528E+03 0.  0.
         23    2    1    2    0    0 -0.66707277390E+01 -0.20476403847E+02  0.12388516233E+03  0.16409034484E+03  0.10542450428E+03 0.  0.
          5    1    3    3  502    0  0.63735751211E+02 -0.79648723983E+00  0.55921214024E+02  0.84924393152E+02  0.47000000000E+01 0. -1.
         -5    1    3    3    0  502 -0.57065023472E+02  0.21272891086E+02  0.85040387880E+02  0.10470391764E+03  0.47000000000E+01 0. -1.
        -11    1    4    4    0    0  0.14808377163E+02 -0.51240758816E+02  0.26155189229E+02  0.59405364419E+02  0.00000000000E+00 0.  1.
         11    1    4    4    0    0 -0.21479104902E+02  0.30764354969E+02  0.97729973101E+02  0.10468498042E+03  0.00000000000E+00 0. -1.
<mgrwt>
<rscale>  0 0.12173075E+03</rscale>
<asrwt>0</asrwt>
<pdfrwt beam="1">  1        2 0.47581954E-01 0.12684133E+03</pdfrwt>
<pdfrwt beam="2">  1       -2 0.68362995E-02 0.12684133E+03</pdfrwt>
<totfact> 0.11997464E+04</totfact>
</mgrwt>
</event>
<event>
 8    1  0.1033707E-005  0.2238299E+03  0.7546771E-02  0.1134136E+00
         -1   -1    0    0    0  501 -0.00000000000E+00  0.00000000000E+00  0.53856255210E+02  0.53856255210E+02  0.00000000000E+00 0.  1.
          1   -1    0    0  501    0  0.00000000000E+00 -0.00000000000E+00 -0.10176338732E+04  0.10176338732E+04  0.00000000000E+00 0. -1.
         23    2    1    2    0    0  0.12583161598E+03 -0.13653028121E+03 -0.28928257763E+03  0.36576524267E+03  0.12500275899E+03 0.  0.
         23    2    1    2    0    0 -0.12583161598E+03  0.13653028121E+03 -0.67449504032E+03  0.70572488571E+03  0.92897479097E+02 0.  0.
          5    1    3    3  502    0  0.11432928699E+02  0.23552611929E+02 -0.27608822125E+02  0.38337637466E+02  0.47000000000E+01 0. -1.
         -5    1    3    3    0  502  0.11439868728E+03 -0.16008289314E+03 -0.26167375551E+03  0.32742760520E+03  0.47000000000E+01 0. -1.
        -11    1    4    4    0    0 -0.52016989368E+02  0.68679612450E+02 -0.16169658605E+03  0.18321692687E+03  0.00000000000E+00 0.  1.
         11    1    4    4    0    0 -0.73814626611E+02  0.67850668757E+02 -0.51279845427E+03  0.52250795884E+03  0.00000000000E+00 0. -1.
<mgrwt>
<rscale>  0 0.21966116E+03</rscale>
<asrwt>0</asrwt>
<pdfrwt beam="2">  1        1 0.15655905E+00 0.22382985E+03</pdfrwt>
<pdfrwt beam="1">  1       -1 0.82855780E-02 0.22382985E+03</pdfrwt>
<totfact> 0.12669990E+03</totfact>
</mgrwt>
</event>
<event>
 8    1  0.1033707E-005  0.1313665E+03  0.7546771E-02  0.1239660E+00
          1   -1    0    0  501    0  0.00000000000E+00  0.00000000000E+00  0.27110859385E+03  0.27110859385E+03  0.00000000000E+00 0. -1.
         -1   -1    0    0    0  501 -0.00000000000E+00 -0.00000000000E+00 -0.52317654295E+02  0.52317654295E+02  0.00000000000E+00 0.  1.
         23    2    1    2    0    0  0.37008264154E+02 -0.16260334041E+02  0.81103560824E+02  0.15438573359E+03  0.12499262809E+03 0.  0.
         23    2    1    2    0    0 -0.37008264154E+02  0.16260334041E+02  0.13768737873E+03  0.16904051456E+03  0.89346915010E+02 0.  0.
          5    1    3    3  502    0  0.30528048612E+02 -0.47332034708E+02 -0.10357221413E+02  0.57459945154E+02  0.47000000000E+01 0. -1.
         -5    1    3    3    0  502  0.64802155422E+01  0.31071700667E+02  0.91460782237E+02  0.96925788432E+02  0.47000000000E+01 0. -1.
        -11    1    4    4    0    0 -0.17668053056E+02 -0.13825464948E+02 -0.41049786616E+01  0.22806894344E+02  0.00000000000E+00 0.  1.
         11    1    4    4    0    0 -0.19340211098E+02  0.30085798989E+02  0.14179235740E+03  0.14623362022E+03  0.00000000000E+00 0. -1.
<mgrwt>
<rscale>  0 0.12210764E+03</rscale>
<asrwt>0</asrwt>
<pdfrwt beam="1">  1        1 0.41709014E-01 0.13136654E+03</pdfrwt>
<pdfrwt beam="2">  1       -1 0.80488700E-02 0.13136654E+03</pdfrwt>
<totfact> 0.80462090E+03</totfact>
</mgrwt>
</event>
<event>
 8    1  0.1033707E-005  0.2121807E+03  0.7546771E-02  0.1143671E+00
         -1   -1    0    0    0  501 -0.00000000000E+00  0.00000000000E+00  0.29477487416E+02  0.29477487416E+02  0.00000000000E+00 0.  1.
          1   -1    0    0  501    0  0.00000000000E+00 -0.00000000000E+00 -0.14715309487E+04  0.14715309487E+04  0.00000000000E+00 0. -1.
         23    2    1    2    0    0  0.89156852972E+02 -0.14644027048E+03 -0.58276793084E+03  0.62019280631E+03  0.12500783390E+03 0.  0.
         23    2    1    2    0    0 -0.89156852972E+02  0.14644027048E+03 -0.85928553046E+03  0.88081562982E+03  0.89837929765E+02 0.  0.
          5    1    3    3  502    0  0.44600758310E+02  0.10275593709E+02 -0.88539080263E+02  0.99780129292E+02  0.47000000000E+01 0.  1.
         -5    1    3    3    0  502  0.44556094663E+02 -0.15671586419E+03 -0.49422885057E+03  0.52041267702E+03  0.47000000000E+01 0.  1.
        -11    1    4    4    0    0 -0.98541331206E+02  0.13651165458E+03 -0.84257442525E+03  0.85923075357E+03  0.00000000000E+00 0. -1.
         11    1    4    4    0    0  0.93844782339E+01  0.99286159009E+01 -0.16711105213E+02  0.21584876253E+02  0.00000000000E+00 0.  1.
<mgrwt>
<rscale>  0 0.20736335E+03</rscale>
<asrwt>0</asrwt>
<pdfrwt beam="2">  1        1 0.22638934E+00 0.21218071E+03</pdfrwt>
<pdfrwt beam="1">  1       -1 0.45349987E-02 0.21218071E+03</pdfrwt>
<totfact> 0.15261922E+03</totfact>
</mgrwt>
</event>
<event>
 8    1  0.1033707E-005  0.1300928E+03  0.7546771E-02  0.1240474E+00
         -4   -1    0    0    0  501 -0.00000000000E+00  0.00000000000E+00  0.11512680814E+03  0.11512680814E+03  0.00000000000E+00 0.  1.
          4   -1    0    0  501    0  0.00000000000E+00 -0.00000000000E+00 -0.13389049014E+03  0.13389049014E+03  0.00000000000E+00 0. -1.
         23    2    1    2    0    0  0.27822877746E+02 -0.22895700085E+02  0.36818876776E+02  0.13520267742E+03  0.12500323471E+03 0.  0.
         23    2    1    2    0    0 -0.27822877746E+02  0.22895700085E+02 -0.55582558776E+02  0.11381462086E+03  0.92552803697E+02 0.  0.
          5    1    3    3  502    0 -0.18636223066E+02 -0.20527996084E+02  0.71602760276E+02  0.76926930996E+02  0.47000000000E+01 0. -1.
         -5    1    3    3    0  502  0.46459100811E+02 -0.23677040014E+01 -0.34783883499E+02  0.58275746428E+02  0.47000000000E+01 0. -1.
        -11    1    4    4    0    0  0.14067724013E+02  0.31894191359E+02  0.92848214458E+01  0.36074204227E+02  0.00000000000E+00 0.  1.
         11    1    4    4    0    0 -0.41890601758E+02 -0.89984912742E+01 -0.64867380221E+02  0.77740416629E+02  0.00000000000E+00 0. -1.
<mgrwt>
<rscale>  0 0.12160417E+03</rscale>
<asrwt>0</asrwt>
<pdfrwt beam="2">  1        4 0.20598537E-01 0.13009279E+03</pdfrwt>
<pdfrwt beam="1">  1       -4 0.17711817E-01 0.13009279E+03</pdfrwt>
<totfact> 0.98243667E+02</totfact>
</mgrwt>
</event>
<event>
 8    1  0.2294809E-005  0.2730040E+03  0.7546771E-02  0.1101504E+00
          1   -1    0    0  501    0  0.00000000000E+00  0.00000000000E+00  0.18795969173E+04  0.18795969173E+04  0.00000000000E+00 0. -1.
         -1   -1    0    0    0  501 -0.00000000000E+00 -0.00000000000E+00 -0.38039528215E+02  0.38039528215E+02  0.00000000000E+00 0.  1.
         23    2    1    2    0    0  0.14954122579E+03 -0.19116115244E+03  0.85858753157E+03  0.90094600874E+03  0.12500398746E+03 0.  0.
         23    2    1    2    0    0 -0.14954122579E+03  0.19116115244E+03  0.98296985752E+03  0.10166904368E+04  0.92328430295E+02 0.  0.
          5    1    3    3  502    0  0.41858514119E+02 -0.10143521330E+03  0.20591496874E+03  0.23337588147E+03  0.47000000000E+01 0. -1.
         -5    1    3    3    0  502  0.10768271167E+03 -0.89725939136E+02  0.65267256283E+03  0.66757012726E+03  0.47000000000E+01 0. -1.
        -11    1    4    4    0    0 -0.82743644517E+02  0.96385538608E+02  0.69026447675E+03  0.70185591870E+03  0.00000000000E+00 0. -1.
         11    1    4    4    0    0 -0.66797581275E+02  0.94775613828E+02  0.29270538077E+03  0.31483451808E+03  0.00000000000E+00 0.  1.
<mgrwt>
<rscale>  0 0.26960821E+03</rscale>
<asrwt>0</asrwt>
<pdfrwt beam="1">  1        1 0.28916868E+00 0.27300396E+03</pdfrwt>
<pdfrwt beam="2">  1       -1 0.58522366E-02 0.27300396E+03</pdfrwt>
<totfact> 0.56037100E+02</totfact>
</mgrwt>
</event>
<event>
 7    1  0.1033707E-005  0.1929990E+03  0.7546771E-02  0.1174877E+00
          3   -1    0    0  501    0  0.00000000000E+00  0.00000000000E+00  0.11168466230E+03  0.11168466230E+03  0.00000000000E+00 0. -1.
         -3   -1    0    0    0  501 -0.00000000000E+00 -0.00000000000E+00 -0.27028160078E+03  0.27028160078E+03  0.00000000000E+00 0.  1.
         23    2    1    2    0    0 -0.19215238301E+02  0.79798368829E+02  0.11394881329E+02  0.12477795971E+03  0.93288213928E+02 0.  0.
          5    1    1    2  502    0  0.33280537509E+02  0.19860711421E+02 -0.14931210449E+03  0.15433157999E+03  0.47000000000E+01 0. -1.
         -5    1    1    2    0  502 -0.14065299208E+02 -0.99659080250E+02 -0.20679715310E+02  0.10285672337E+03  0.47000000000E+01 0.  1.
        -11    1    3    3    0    0  0.29360622268E+00  0.48449588771E+02 -0.39074761920E+02  0.62243761742E+02  0.00000000000E+00 0.  1.
         11    1    3    3    0    0 -0.19508844524E+02  0.31348780058E+02  0.50469643248E+02  0.62534197967E+02  0.00000000000E+00 0. -1.
<mgrwt>
<rscale>  0 0.17288053E+03</rscale>
<asrwt>0</asrwt>
<pdfrwt beam="1">  1        3 0.17182256E-01 0.19299898E+03</pdfrwt>
<pdfrwt beam="2">  1       -3 0.41581784E-01 0.19299898E+03</pdfrwt>
<totfact> 0.41059394E+02</totfact>
</mgrwt>
</event>
<event>
 8    1  0.1033707E-005  0.1450894E+03  0.7546771E-02  0.1216443E+00
          2   -1    0    0  501    0  0.00000000000E+00  0.00000000000E+00  0.90873594515E+03  0.90873594515E+03  0.00000000000E+00 0. -1.
         -2   -1    0    0    0  501 -0.00000000000E+00 -0.00000000000E+00 -0.19300665577E+02  0.19300665577E+02  0.00000000000E+00 0.  1.
         23    2    1    2    0    0  0.47311903728E+02  0.56451599680E+02  0.43322996770E+03  0.45687979964E+03  0.12500298821E+03 0.  0.
         23    2    1    2    0    0 -0.47311903728E+02 -0.56451599680E+02  0.45620531187E+03  0.47115681109E+03  0.91870858895E+02 0.  0.
          5    1    3    3  502    0 -0.11898624144E+01  0.25750693419E+02  0.37161798388E+03  0.37254064198E+03  0.47000000000E+01 0. -1.
         -5    1    3    3    0  502  0.48501766143E+02  0.30700906261E+02  0.61611983824E+02  0.84339157661E+02  0.47000000000E+01 0. -1.
        -11    1    4    4    0    0 -0.51506785745E+02  0.42165076546E+01  0.14178821186E+03  0.15091264008E+03  0.00000000000E+00 0. -1.
         11    1    4    4    0    0  0.41948820164E+01 -0.60668107335E+02  0.31441710001E+03  0.32024417100E+03  0.00000000000E+00 0.  1.
<mgrwt>
<rscale>  0 0.13771100E+03</rscale>
<asrwt>0</asrwt>
<pdfrwt beam="1">  1        2 0.13980550E+00 0.14508944E+03</pdfrwt>
<pdfrwt beam="2">  1       -2 0.29693339E-02 0.14508944E+03</pdfrwt>
<totfact> 0.12418630E+04</totfact>
</mgrwt>
</event>
<event>
 8    1  0.1033707E-005  0.1309174E+03  0.7546771E-02  0.1240304E+00
          1   -1    0    0  501    0  0.00000000000E+00  0.00000000000E+00  0.47689306578E+03  0.47689306578E+03  0.00000000000E+00 0. -1.
         -1   -1    0    0    0  501 -0.00000000000E+00 -0.00000000000E+00 -0.30165892339E+02  0.30165892339E+02  0.00000000000E+00 0.  1.
         23    2    1    2    0    0 -0.43085321124E+01  0.38672585416E+02  0.17702855539E+03  0.22017825952E+03  0.12500089692E+03 0.  0.
         23    2    1    2    0    0  0.43085321124E+01 -0.38672585416E+02  0.26969861805E+03  0.28688069860E+03  0.89716544392E+02 0.  0.
          5    1    3    3  502    0  0.46680105452E+02  0.59097656872E+02  0.10997389963E+03  0.13337133834E+03  0.47000000000E+01 0.  1.
         -5    1    3    3    0  502 -0.50988637564E+02 -0.20425071456E+02  0.67054655761E+02  0.86806921175E+02  0.47000000000E+01 0.  1.
        -11    1    4    4    0    0 -0.18158666199E+01 -0.61798492831E+02  0.24424895009E+03  0.25195217941E+03  0.00000000000E+00 0. -1.
         11    1    4    4    0    0  0.61243987323E+01  0.23125907414E+02  0.25449667962E+02  0.34928519192E+02  0.00000000000E+00 0.  1.
<mgrwt>
<rscale>  0 0.12170917E+03</rscale>
<asrwt>0</asrwt>
<pdfrwt beam="1">  1        1 0.73368159E-01 0.13091737E+03</pdfrwt>
<pdfrwt beam="2">  1       -1 0.46409069E-02 0.13091737E+03</pdfrwt>
<totfact> 0.90056619E+03</totfact>
</mgrwt>
</event>
<event>
 8    1  0.1033707E-005  0.1321406E+03  0.7546771E-02  0.1231307E+00
         -3   -1    0    0    0  501 -0.00000000000E+00  0.00000000000E+00  0.13830938170E+03  0.13830938170E+03  0.00000000000E+00 0.  1.
          3   -1    0    0  501    0  0.00000000000E+00 -0.00000000000E+00 -0.11152693577E+03  0.11152693577E+03  0.00000000000E+00 0. -1.
         23    2    1    2    0    0  0.34514380241E+02 -0.60526006004E+02 -0.12128734389E+01  0.13214614740E+03  0.11227864162E+03 0.  0.
         23    2    1    2    0    0 -0.34514380241E+02  0.60526006004E+02  0.27995319371E+02  0.11769017007E+03  0.90623387588E+02 0.  0.
          5    1    3    3  502    0  0.10247266800E+02 -0.77747422204E+02 -0.35753405056E+02  0.86313753883E+02  0.47000000000E+01 0. -1.
         -5    1    3    3    0  502  0.24267113441E+02  0.17221416200E+02  0.34540531617E+02  0.45832393513E+02  0.47000000000E+01 0.  1.
        -11    1    4    4    0    0 -0.26075711655E+02  0.76093795850E+02 -0.46281706659E+01  0.80570642723E+02  0.00000000000E+00 0.  1.
         11    1    4    4    0    0 -0.84386685860E+01 -0.15567789846E+02  0.32623490037E+02  0.37119527346E+02  0.00000000000E+00 0. -1.
<mgrwt>
<rscale>  0 0.12743835E+03</rscale>
<asrwt>0</asrwt>
<pdfrwt beam="2">  1        3 0.17157990E-01 0.13214058E+03</pdfrwt>
<pdfrwt beam="1">  1       -3 0.21278366E-01 0.13214058E+03</pdfrwt>
<totfact> 0.13527046E+03</totfact>
</mgrwt>
</event>
<event>
 8    1  0.1033707E-005  0.1291224E+03  0.7546771E-02  0.1243329E+00
         -2   -1    0    0    0  501 -0.00000000000E+00  0.00000000000E+00  0.19088810772E+02  0.19088810772E+02  0.00000000000E+00 0.  1.
          2   -1    0    0  501    0  0.00000000000E+00 -0.00000000000E+00 -0.67308283481E+03  0.67308283481E+03  0.00000000000E+00 0. -1.
         23    2    1    2    0    0 -0.27342986009E+02  0.17352849871E+02 -0.41654652622E+03  0.43610044113E+03  0.12499530377E+03 0.  0.
         23    2    1    2    0    0  0.27342986009E+02 -0.17352849871E+02 -0.23744749782E+03  0.25607120445E+03  0.90235177440E+02 0.  0.
          5    1    3    3  502    0 -0.48278624529E+02  0.37920954279E+02 -0.39403134912E+03  0.39881276114E+03  0.47000000000E+01 0.  1.
         -5    1    3    3    0  502  0.20935638520E+02 -0.20568104408E+02 -0.22515177104E+02  0.37287679992E+02  0.47000000000E+01 0.  1.
        -11    1    4    4    0    0  0.19020312168E+02 -0.39150348323E+02 -0.22586774808E+03  0.23002339375E+03  0.00000000000E+00 0. -1.
         11    1    4    4    0    0  0.83226738404E+01  0.21797498452E+02 -0.11579749741E+02  0.26047810708E+02  0.00000000000E+00 0.  1.
<mgrwt>
<rscale>  0 0.11985946E+03</rscale>
<asrwt>0</asrwt>
<pdfrwt beam="2">  1        2 0.10355121E+00 0.12912237E+03</pdfrwt>
<pdfrwt beam="1">  1       -2 0.29367400E-02 0.12912237E+03</pdfrwt>
<totfact> 0.18145347E+04</totfact>
</mgrwt>
</event>
<event>
 7    1  0.1033707E-005  0.1611700E+03  0.7546771E-02  0.1209621E+00
         -2   -1    0    0    0  501 -0.00000000000E+00  0.00000000000E+00  0.32147421356E+03  0.32147421356E+03  0.00000000000E+00 0.  1.
          2   -1    0    0  501    0  0.00000000000E+00 -0.00000000000E+00 -0.82294194789E+02  0.82294194789E+02  0.00000000000E+00 0. -1.
         23    2    1    2    0    0 -0.36579818920E+02 -0.12626387251E+02 -0.17352887385E+02  0.10080819265E+03  0.91453049148E+02 0.  0.
          5    1    1    2  502    0 -0.38413031869E+02 -0.50085637679E+02  0.10176866022E+03  0.11984607763E+03  0.47000000000E+01 0. -1.
         -5    1    1    2    0  502  0.74992850788E+02  0.62712024930E+02  0.15476424593E+03  0.18311413806E+03  0.47000000000E+01 0.  1.
        -11    1    3    3    0    0 -0.21799460272E+02 -0.27353009192E+01  0.37324751880E+02  0.43310915970E+02  0.00000000000E+00 0.  1.
         11    1    3    3    0    0 -0.14780358648E+02 -0.98910863315E+01 -0.54677639265E+02  0.57497276685E+02  0.00000000000E+00 0. -1.
<mgrwt>
<rscale>  0 0.14279209E+03</rscale>
<asrwt>0</asrwt>
<pdfrwt beam="2">  1        2 0.12660646E-01 0.16116997E+03</pdfrwt>
<pdfrwt beam="1">  1       -2 0.49457571E-01 0.16116997E+03</pdfrwt>
<totfact> 0.18354825E+03</totfact>
</mgrwt>
</event>
<event>
 8    1  0.1033707E-005  0.2470113E+03  0.7546771E-02  0.1117756E+00
          1   -1    0    0  501    0  0.00000000000E+00  0.00000000000E+00  0.12646397942E+04  0.12646397942E+04  0.00000000000E+00 0. -1.
         -1   -1    0    0    0  501 -0.00000000000E+00 -0.00000000000E+00 -0.45297525136E+02  0.45297525136E+02  0.00000000000E+00 0.  1.
         23    2    1    2    0    0  0.34565977589E+02  0.21022455488E+03  0.63235809102E+03  0.67888978315E+03  0.12500164840E+03 0.  0.
         23    2    1    2    0    0 -0.34565977589E+02 -0.21022455488E+03  0.58698417805E+03  0.63104753620E+03  0.91002183364E+02 0.  0.
          5    1    3    3  502    0  0.21505102769E+02  0.22465869592E+03  0.55926669725E+03  0.60310474028E+03  0.47000000000E+01 0.  1.
         -5    1    3    3    0  502  0.13060874820E+02 -0.14434141044E+02  0.73091393769E+02  0.75785042864E+02  0.47000000000E+01 0.  1.
        -11    1    4    4    0    0 -0.25775328628E+02 -0.53673835633E+01  0.77502087622E+02  0.81852000330E+02  0.00000000000E+00 0.  1.
         11    1    4    4    0    0 -0.87906489610E+01 -0.20485717131E+03  0.50948209043E+03  0.54919553587E+03  0.00000000000E+00 0. -1.
<mgrwt>
<rscale>  0 0.24308303E+03</rscale>
<asrwt>0</asrwt>
<pdfrwt beam="1">  1        1 0.19455994E+00 0.24701130E+03</pdfrwt>
<pdfrwt beam="2">  1       -1 0.69688510E-02 0.24701130E+03</pdfrwt>
<totfact> 0.11001761E+03</totfact>
</mgrwt>
</event>
<event>
 8    1  0.1033707E-005  0.1473604E+03  0.7546771E-02  0.1214105E+00
          2   -1    0    0  501    0  0.00000000000E+00  0.00000000000E+00  0.42907094982E+03  0.42907094982E+03  0.00000000000E+00 0. -1.
         -2   -1    0    0    0  501 -0.00000000000E+00 -0.00000000000E+00 -0.43713716922E+02  0.43713716922E+02  0.00000000000E+00 0.  1.
         23    2    1    2    0    0  0.34843933892E+02  0.67911515711E+02  0.15468589103E+03  0.21364181337E+03  0.12605167925E+03 0.  0.
         23    2    1    2    0    0 -0.34843933892E+02 -0.67911515711E+02  0.23067134187E+03  0.25914285337E+03  0.90109249237E+02 0.  0.
          5    1    3    3  502    0 -0.43789310616E+02  0.16492061656E+01  0.53285930315E+02  0.69149866050E+02  0.47000000000E+01 0. -1.
         -5    1    3    3    0  502  0.78633244508E+02  0.66262309546E+02  0.10139996071E+03  0.14449194732E+03  0.47000000000E+01 0.  1.
        -11    1    4    4    0    0 -0.43100652960E+01 -0.83589175836E+02  0.16753604296E+03  0.18728067885E+03  0.00000000000E+00 0.  1.
         11    1    4    4    0    0 -0.30533868596E+02  0.15677660125E+02  0.63135298904E+02  0.71862174516E+02  0.00000000000E+00 0. -1.
<mgrwt>
<rscale>  0 0.13942509E+03</rscale>
<asrwt>0</asrwt>
<pdfrwt beam="1">  1        2 0.66010912E-01 0.14736044E+03</pdfrwt>
<pdfrwt beam="2">  1       -2 0.67251875E-02 0.14736044E+03</pdfrwt>
<totfact> 0.87756034E+03</totfact>
</mgrwt>
</event>
<event>
 8    1  0.1033707E-005  0.1545449E+03  0.7546771E-02  0.1204517E+00
         -2   -1    0    0    0  501 -0.00000000000E+00  0.00000000000E+00  0.22797562865E+03  0.22797562865E+03  0.00000000000E+00 0. -1.
          2   -1    0    0  501    0  0.00000000000E+00 -0.00000000000E+00 -0.92927400552E+02  0.92927400552E+02  0.00000000000E+00 0.  1.
         23    2    1    2    0    0 -0.76432113840E+02 -0.49186944607E+02  0.11723631502E+03  0.19398063598E+03  0.12499163983E+03 0.  0.
         23    2    1    2    0    0  0.76432113840E+02  0.49186944607E+02  0.17811913078E+02  0.12692239322E+03  0.86780217266E+02 0.  0.
          5    1    3    3  502    0 -0.45457680247E+02  0.20400131280E+02  0.10550078134E+03  0.11676930638E+03  0.47000000000E+01 0. -1.
         -5    1    3    3    0  502 -0.30974433593E+02 -0.69587075887E+02  0.11735533679E+02  0.77211329594E+02  0.47000000000E+01 0. -1.
        -11    1    4    4    0    0 -0.14908829108E+02  0.28270489143E+02  0.44056004668E+01  0.32263029263E+02  0.00000000000E+00 0.  1.
         11    1    4    4    0    0  0.91340942948E+02  0.20916455464E+02  0.13406312611E+02  0.94659363962E+02  0.00000000000E+00 0. -1.
<mgrwt>
<rscale>  0 0.14675598E+03</rscale>
<asrwt>0</asrwt>
<pdfrwt beam="2">  1        2 0.14296523E-01 0.15454492E+03</pdfrwt>
<pdfrwt beam="1">  1       -2 0.35073174E-01 0.15454492E+03</pdfrwt>
<totfact> 0.30593324E+03</totfact>
</mgrwt>
</event>
<event>
 8    1  0.1033707E-005  0.1134347E+03  0.7546771E-02  0.1263734E+00
          1   -1    0    0  501    0  0.00000000000E+00  0.00000000000E+00  0.38906701825E+03  0.38906701825E+03  0.00000000000E+00 0. -1.
         -1   -1    0    0    0  501 -0.00000000000E+00 -0.00000000000E+00 -0.10707076606E+03  0.10707076606E+03  0.00000000000E+00 0.  1.
         23    2    1    2    0    0  0.23310650755E+02  0.10623513474E+02 -0.68951321206E+02  0.13274680894E+03  0.11050423119E+03 0.  0.
         23    2    1    2    0    0 -0.23310650755E+02 -0.10623513474E+02  0.35094757340E+03  0.36339097538E+03  0.90733435046E+02 0.  0.
          5    1    3    3  502    0  0.20445616371E+02 -0.48199055253E+02 -0.44247635030E+02  0.68710373029E+02  0.47000000000E+01 0. -1.
         -5    1    3    3    0  502  0.28650343843E+01  0.58822568727E+02 -0.24703686176E+02  0.64036435912E+02  0.47000000000E+01 0.  1.
        -11    1    4    4    0    0  0.32636769617E+02  0.92381314803E+01  0.10328102424E+03  0.10870819552E+03  0.00000000000E+00 0.  1.
         11    1    4    4    0    0 -0.55947420372E+02 -0.19861644954E+02  0.24766654916E+03  0.25468277986E+03  0.00000000000E+00 0. -1.
<mgrwt>
<rscale>  0 0.10830907E+03</rscale>
<asrwt>0</asrwt>
<pdfrwt beam="1">  1        1 0.59856464E-01 0.11343470E+03</pdfrwt>
<pdfrwt beam="2">  1       -1 0.16472426E-01 0.11343470E+03</pdfrwt>
<totfact> 0.16988053E+03</totfact>
</mgrwt>
</event>
<event>
 8    1  0.1033707E-005  0.1257892E+03  0.7546771E-02  0.1249256E+00
          2   -1    0    0  501    0  0.00000000000E+00  0.00000000000E+00  0.54511487683E+03  0.54511487683E+03  0.00000000000E+00 0. -1.
         -2   -1    0    0    0  501 -0.00000000000E+00 -0.00000000000E+00 -0.21784376904E+02  0.21784376904E+02  0.00000000000E+00 0.  1.
         23    2    1    2    0    0  0.58648182104E+01  0.12777010141E+02  0.29343795606E+03  0.31926284277E+03  0.12500112255E+03 0.  0.
         23    2    1    2    0    0 -0.58648182104E+01 -0.12777010141E+02  0.22989254387E+03  0.24763641096E+03  0.90970117225E+02 0.  0.
          5    1    3    3  502    0 -0.55253113115E+02 -0.15883266400E+02  0.12182882817E+03  0.13479442879E+03  0.47000000000E+01 0.  1.
         -5    1    3    3    0  502  0.61117931325E+02  0.28660276540E+02  0.17160912789E+03  0.18446841398E+03  0.47000000000E+01 0.  1.
        -11    1    4    4    0    0 -0.28022780985E+02 -0.41719695685E+02  0.17228276764E+03  0.17946353748E+03  0.00000000000E+00 0.  1.
         11    1    4    4    0    0  0.22157962774E+02  0.28942685545E+02  0.57609776230E+02  0.68172873477E+02  0.00000000000E+00 0. -1.
<mgrwt>
<rscale>  0 0.11634255E+03</rscale>
<asrwt>0</asrwt>
<pdfrwt beam="1">  1        2 0.83863816E-01 0.12578922E+03</pdfrwt>
<pdfrwt beam="2">  1       -2 0.33514430E-02 0.12578922E+03</pdfrwt>
<totfact> 0.18957246E+04</totfact>
</mgrwt>
</event>
<event>
 8    1  0.1033707E-005  0.1321990E+03  0.7546771E-02  0.1236864E+00
         -1   -1    0    0    0  501 -0.00000000000E+00  0.00000000000E+00  0.63325207994E+03  0.63325207994E+03  0.00000000000E+00 0.  1.
          1   -1    0    0  501    0  0.00000000000E+00 -0.00000000000E+00 -0.21630651862E+02  0.21630651862E+02  0.00000000000E+00 0. -1.
         23    2    1    2    0    0  0.92720751106E+01  0.42043070132E+02  0.34847993363E+03  0.37271281567E+03  0.12499195054E+03 0.  0.
         23    2    1    2    0    0 -0.92720751106E+01 -0.42043070132E+02  0.26314149445E+03  0.28216991613E+03  0.92319143978E+02 0.  0.
          5    1    3    3  502    0  0.14558287726E+02 -0.39803690862E+02  0.18376646612E+03  0.18864909652E+03  0.47000000000E+01 0.  1.
         -5    1    3    3    0  502 -0.52862126155E+01  0.81846760993E+02  0.16471346751E+03  0.18406371915E+03  0.47000000000E+01 0.  1.
        -11    1    4    4    0    0 -0.48119510608E+02 -0.28685352116E+02  0.19214667174E+03  0.20014664671E+03  0.00000000000E+00 0.  1.
         11    1    4    4    0    0  0.38847435498E+02 -0.13357718016E+02  0.70994822706E+02  0.82023269420E+02  0.00000000000E+00 0. -1.
<mgrwt>
<rscale>  0 0.12385886E+03</rscale>
<asrwt>0</asrwt>
<pdfrwt beam="2">  1        1 0.33277931E-02 0.13219901E+03</pdfrwt>
<pdfrwt beam="1">  1       -1 0.97423383E-01 0.13219901E+03</pdfrwt>
<totfact> 0.30258207E+03</totfact>
</mgrwt>
</event>
<event>
 8    1  0.1033707E-005  0.1323706E+03  0.7546771E-02  0.1237174E+00
         -1   -1    0    0    0  501 -0.00000000000E+00  0.00000000000E+00  0.40766750243E+02  0.40766750243E+02  0.00000000000E+00 0.  1.
          1   -1    0    0  501    0  0.00000000000E+00 -0.00000000000E+00 -0.34289464098E+03  0.34289464098E+03  0.00000000000E+00 0. -1.
         23    2    1    2    0    0 -0.35730710078E+02  0.24899605319E+02 -0.13945486132E+03  0.19227492010E+03  0.12500125027E+03 0.  0.
         23    2    1    2    0    0  0.35730710078E+02 -0.24899605319E+02 -0.16267302943E+03  0.19138647112E+03  0.90937301693E+02 0.  0.
          5    1    3    3  502    0 -0.61562623101E+02 -0.16913428324E+02 -0.27035360244E+02  0.69491160044E+02  0.47000000000E+01 0. -1.
         -5    1    3    3    0  502  0.25831913023E+02  0.41813033643E+02 -0.11241950107E+03  0.12278376006E+03  0.47000000000E+01 0. -1.
        -11    1    4    4    0    0 -0.23936229031E+02 -0.13875730742E+02 -0.10158494359E+03  0.10528523034E+03  0.00000000000E+00 0. -1.
         11    1    4    4    0    0  0.59666939109E+02 -0.11023874577E+02 -0.61088085837E+02  0.86101240784E+02  0.00000000000E+00 0.  1.
<mgrwt>
<rscale>  0 0.12366276E+03</rscale>
<asrwt>0</asrwt>
<pdfrwt beam="2">  1        1 0.52753020E-01 0.13237064E+03</pdfrwt>
<pdfrwt beam="1">  1       -1 0.62718079E-02 0.13237064E+03</pdfrwt>
<totfact> 0.87492316E+03</totfact>
</mgrwt>
</event>
<event>
 8    1  0.1033707E-005  0.1349687E+03  0.7546771E-02  0.1233283E+00
          3   -1    0    0  501    0  0.00000000000E+00  0.00000000000E+00  0.13190275732E+02  0.13190275732E+02  0.00000000000E+00 0. -1.
         -3   -1    0    0    0  501 -0.00000000000E+00 -0.00000000000E+00 -0.10788646918E+04  0.10788646918E+04  0.00000000000E+00 0.  1.
         23    2    1    2    0    0 -0.36893788870E+02  0.35080490705E+02 -0.64277150284E+03  0.65678896340E+03  0.12499898040E+03 0.  0.
         23    2    1    2    0    0  0.36893788870E+02 -0.35080490705E+02 -0.42290291327E+03  0.43526600417E+03  0.89542324339E+02 0.  0.
          5    1    3    3  502    0 -0.49994369329E+02  0.11178647319E+01 -0.92183524745E+02  0.10497894465E+03  0.47000000000E+01 0. -1.
         -5    1    3    3    0  502  0.13100580459E+02  0.33962625974E+02 -0.55058797809E+03  0.55181001875E+03  0.47000000000E+01 0. -1.
        -11    1    4    4    0    0  0.27837554307E+02 -0.59717626095E+02 -0.37404300876E+03  0.37980165442E+03  0.00000000000E+00 0.  1.
         11    1    4    4    0    0  0.90562345630E+01  0.24637135390E+02 -0.48859904512E+02  0.55464349754E+02  0.00000000000E+00 0. -1.
<mgrwt>
<rscale>  0 0.12614997E+03</rscale>
<asrwt>0</asrwt>
<pdfrwt beam="1">  1        3 0.20292727E-02 0.13496865E+03</pdfrwt>
<pdfrwt beam="2">  1       -3 0.16597922E+00 0.13496865E+03</pdfrwt>
<totfact> 0.57281699E+02</totfact>
</mgrwt>
</event>
<event>
 8    1  0.1033707E-005  0.1448033E+03  0.7546771E-02  0.1216546E+00
         -2   -1    0    0    0  501 -0.00000000000E+00  0.00000000000E+00  0.17056437309E+03  0.17056437309E+03  0.00000000000E+00 0.  1.
          2   -1    0    0  501    0  0.00000000000E+00 -0.00000000000E+00 -0.47574135872E+03  0.47574135872E+03  0.00000000000E+00 0. -1.
         23    2    1    2    0    0  0.10324284309E+02 -0.72320743450E+02  0.13046931748E+03  0.19491083655E+03  0.12502444010E+03 0.  0.
         23    2    1    2    0    0 -0.10324284309E+02  0.72320743450E+02 -0.43564630311E+03  0.45139489526E+03  0.92912697027E+02 0.  0.
          5    1    3    3  502    0  0.23964521499E+02  0.31099356819E+02  0.45545679987E+02  0.60315563917E+02  0.47000000000E+01 0. -1.
         -5    1    3    3    0  502 -0.13640237190E+02 -0.10342010027E+03  0.84923637493E+02  0.13459527263E+03  0.47000000000E+01 0. -1.
        -11    1    4    4    0    0 -0.46877524845E+02  0.14603773502E+02 -0.15717022663E+03  0.16466102355E+03  0.00000000000E+00 0.  1.
         11    1    4    4    0    0  0.36553240536E+02  0.57716969948E+02 -0.27847607648E+03  0.28673387171E+03  0.00000000000E+00 0. -1.
<mgrwt>
<rscale>  0 0.13763599E+03</rscale>
<asrwt>0</asrwt>
<pdfrwt beam="2">  1        2 0.73190977E-01 0.14480329E+03</pdfrwt>
<pdfrwt beam="1">  1       -2 0.26240673E-01 0.14480329E+03</pdfrwt>
<totfact> 0.85720112E+02</totfact>
</mgrwt>
</event>
<event>
 8    1  0.1033707E-005  0.1428513E+03  0.7546771E-02  0.1220828E+00
          2   -1    0    0  501    0  0.00000000000E+00  0.00000000000E+00  0.48459551332E+03  0.48459551332E+03  0.00000000000E+00 0. -1.
         -2   -1    0    0    0  501 -0.00000000000E+00 -0.00000000000E+00 -0.35970703160E+02  0.35970703160E+02  0.00000000000E+00 0.  1.
         23    2    1    2    0    0  0.68767404723E+02 -0.74374120370E+01  0.18340094928E+03  0.23247020447E+03  0.12498886637E+03 0.  0.
         23    2    1    2    0    0 -0.68767404723E+02  0.74374120370E+01  0.26522386087E+03  0.28809601201E+03  0.88720599119E+02 0.  0.
          5    1    3    3  502    0 -0.34899868110E+01 -0.11368566358E+02  0.15349852653E+03  0.15403023065E+03  0.47000000000E+01 0. -1.
         -5    1    3    3    0  502  0.72257391534E+02  0.39311543205E+01  0.29902422758E+02  0.78439973817E+02  0.47000000000E+01 0. -1.
        -11    1    4    4    0    0 -0.10010350768E+02 -0.28874228481E+02  0.15525582200E+03  0.15823494702E+03  0.00000000000E+00 0. -1.
         11    1    4    4    0    0 -0.58757053955E+02  0.36311640518E+02  0.10996803887E+03  0.12986106499E+03  0.00000000000E+00 0.  1.
<mgrwt>
<rscale>  0 0.13457008E+03</rscale>
<asrwt>0</asrwt>
<pdfrwt beam="1">  1        2 0.74553151E-01 0.14285128E+03</pdfrwt>
<pdfrwt beam="2">  1       -2 0.55339547E-02 0.14285128E+03</pdfrwt>
<totfact> 0.10319931E+04</totfact>
</mgrwt>
</event>
<event>
 8    1  0.1033707E-005  0.1656229E+03  0.7546771E-02  0.1188914E+00
          2   -1    0    0  501    0  0.00000000000E+00  0.00000000000E+00  0.90133833298E+03  0.90133833298E+03  0.00000000000E+00 0. -1.
         -2   -1    0    0    0  501 -0.00000000000E+00 -0.00000000000E+00 -0.26612731432E+02  0.26612731432E+02  0.00000000000E+00 0.  1.
         23    2    1    2    0    0 -0.95769479724E+02  0.51333212466E+02  0.44030330666E+03  0.47042316681E+03  0.12499624818E+03 0.  0.
         23    2    1    2    0    0  0.95769479724E+02 -0.51333212466E+02  0.43442229488E+03  0.45752789760E+03  0.93819799865E+02 0.  0.
          5    1    3    3  502    0 -0.11279413760E+03  0.19555446053E+02  0.22952208152E+03  0.25652954771E+03  0.47000000000E+01 0.  1.
         -5    1    3    3    0  502  0.17024657873E+02  0.31777766413E+02  0.21078122515E+03  0.21389361909E+03  0.47000000000E+01 0.  1.
        -11    1    4    4    0    0 -0.10198776346E+02 -0.12036785791E+02  0.10877100100E+02  0.19162738784E+02  0.00000000000E+00 0.  1.
         11    1    4    4    0    0  0.10596825607E+03 -0.39296426675E+02  0.42354519478E+03  0.43836515882E+03  0.00000000000E+00 0. -1.
<mgrwt>
<rscale>  0 0.15980766E+03</rscale>
<asrwt>0</asrwt>
<pdfrwt beam="1">  1        2 0.13866741E+00 0.16562293E+03</pdfrwt>
<pdfrwt beam="2">  1       -2 0.40942671E-02 0.16562293E+03</pdfrwt>
<totfact> 0.78520699E+03</totfact>
</mgrwt>
</event>
<event>
 8    1  0.1033707E-005  0.1272986E+03  0.7546771E-02  0.1246320E+00
          1   -1    0    0  501    0  0.00000000000E+00  0.00000000000E+00  0.14737885784E+03  0.14737885784E+03  0.00000000000E+00 0. -1.
         -1   -1    0    0    0  501 -0.00000000000E+00 -0.00000000000E+00 -0.91962515636E+02  0.91962515636E+02  0.00000000000E+00 0.  1.
         23    2    1    2    0    0 -0.18566771559E+02  0.15319141579E+02 -0.50602732167E+01  0.12739910760E+03  0.12500210057E+03 0.  0.
         23    2    1    2    0    0  0.18566771559E+02 -0.15319141579E+02  0.60476615417E+02  0.11194226587E+03  0.91072766352E+02 0.  0.
          5    1    3    3  502    0  0.84305070623E+01  0.60919903256E+02  0.24697802869E+02  0.66440797170E+02  0.47000000000E+01 0.  1.
         -5    1    3    3    0  502 -0.26997278621E+02 -0.45600761677E+02 -0.29758076085E+02  0.60958310432E+02  0.47000000000E+01 0.  1.
        -11    1    4    4    0    0  0.26528796241E+00 -0.24241546713E+02  0.80085591738E+02  0.83674518037E+02  0.00000000000E+00 0. -1.
         11    1    4    4    0    0  0.18301483597E+02  0.89224051345E+01 -0.19608976320E+02  0.28267747833E+02  0.00000000000E+00 0.  1.
<mgrwt>
<rscale>  0 0.11806752E+03</rscale>
<asrwt>0</asrwt>
<pdfrwt beam="1">  1        1 0.22673670E-01 0.12729857E+03</pdfrwt>
<pdfrwt beam="2">  1       -1 0.14148079E-01 0.12729857E+03</pdfrwt>
<totfact> 0.72215969E+03</totfact>
</mgrwt>
</event>
<event>
 8    1  0.1033707E-005  0.2206507E+03  0.7546771E-02  0.1136604E+00
          2   -1    0    0  501    0  0.00000000000E+00  0.00000000000E+00  0.66551282819E+03  0.66551282819E+03  0.00000000000E+00 0. -1.
         -2   -1    0    0    0  501 -0.00000000000E+00 -0.00000000000E+00 -0.67770324173E+02  0.67770324173E+02  0.00000000000E+00 0.  1.
         23    2    1    2    0    0  0.13778095913E+03  0.11865690553E+03  0.31068964429E+03  0.38107058080E+03  0.12499471407E+03 0.  0.
         23    2    1    2    0    0 -0.13778095913E+03 -0.11865690553E+03  0.28705285973E+03  0.35221257157E+03  0.92689251603E+02 0.  0.
          5    1    3    3  502    0  0.10569708015E+03  0.13036296388E+03  0.30197704838E+03  0.34551208785E+03  0.47000000000E+01 0. -1.
         -5    1    3    3    0  502  0.32083878987E+02 -0.11706058349E+02  0.87125959146E+01  0.35558492945E+02  0.47000000000E+01 0. -1.
        -11    1    4    4    0    0 -0.34704578871E+02 -0.61240381645E+02  0.17852657609E+03  0.19190239839E+03  0.00000000000E+00 0. -1.
         11    1    4    4    0    0 -0.10307638026E+03 -0.57416523889E+02  0.10852628364E+03  0.16031017318E+03  0.00000000000E+00 0.  1.
<mgrwt>
<rscale>  0 0.21638967E+03</rscale>
<asrwt>0</asrwt>
<pdfrwt beam="1">  1        2 0.10238658E+00 0.22065070E+03</pdfrwt>
<pdfrwt beam="2">  1       -2 0.10426204E-01 0.22065070E+03</pdfrwt>
<totfact> 0.27483887E+03</totfact>
</mgrwt>
</event>
<event>
 8    1  0.1033707E-005  0.1853567E+03  0.7546771E-02  0.1167606E+00
          1   -1    0    0  501    0  0.00000000000E+00  0.00000000000E+00  0.21475344225E+03  0.21475344225E+03  0.00000000000E+00 0. -1.
         -1   -1    0    0    0  501 -0.00000000000E+00 -0.00000000000E+00 -0.15339721163E+03  0.15339721163E+03  0.00000000000E+00 0.  1.
         23    2    1    2    0    0  0.11974933012E+03 -0.66269745939E+02 -0.14685046868E+02  0.18593746778E+03  0.12500204011E+03 0.  0.
         23    2    1    2    0    0 -0.11974933012E+03  0.66269745939E+02  0.76041277493E+02  0.18221318611E+03  0.93208304445E+02 0.  0.
          5    1    3    3  502    0  0.58725222864E+01  0.27376794423E+02 -0.25321724748E+02  0.38042806614E+02  0.47000000000E+01 0.  1.
         -5    1    3    3    0  502  0.11387680783E+03 -0.93646540362E+02  0.10636677880E+02  0.14789466116E+03  0.47000000000E+01 0.  1.
        -11    1    4    4    0    0 -0.68055574408E+02  0.38699939513E+02 -0.91487886596E+01  0.78822248511E+02  0.00000000000E+00 0. -1.
         11    1    4    4    0    0 -0.51693755712E+02  0.27569806425E+02  0.85190066153E+02  0.10339093760E+03  0.00000000000E+00 0.  1.
<mgrwt>
<rscale>  0 0.18020354E+03</rscale>
<asrwt>0</asrwt>
<pdfrwt beam="1">  1        1 0.33038991E-01 0.18535666E+03</pdfrwt>
<pdfrwt beam="2">  1       -1 0.23599571E-01 0.18535666E+03</pdfrwt>
<totfact> 0.20265554E+03</totfact>
</mgrwt>
</event>
<event>
 8    1  0.1033707E-005  0.1854052E+03  0.7546771E-02  0.1167955E+00
          2   -1    0    0  501    0  0.00000000000E+00  0.00000000000E+00  0.96581013019E+03  0.96581013019E+03  0.00000000000E+00 0. -1.
         -2   -1    0    0    0  501 -0.00000000000E+00 -0.00000000000E+00 -0.35626272688E+02  0.35626272688E+02  0.00000000000E+00 0.  1.
         23    2    1    2    0    0 -0.11209121269E+03 -0.78646455708E+02  0.32270971216E+03  0.37217825934E+03  0.12500157378E+03 0.  0.
         23    2    1    2    0    0  0.11209121269E+03  0.78646455708E+02  0.60747414534E+03  0.62925814353E+03  0.90505629601E+02 0.  0.
          5    1    3    3  502    0  0.25855929510E+02  0.52072088232E+00  0.46210239979E+02  0.53162736198E+02  0.47000000000E+01 0.  1.
         -5    1    3    3    0  502 -0.13794714220E+03 -0.79167176590E+02  0.27649947218E+03  0.31901552314E+03  0.47000000000E+01 0.  1.
        -11    1    4    4    0    0  0.55198025908E+02  0.89945729814E+02  0.41710120631E+03  0.43024466607E+03  0.00000000000E+00 0.  1.
         11    1    4    4    0    0  0.56893186783E+02 -0.11299274106E+02  0.19037293903E+03  0.19901347746E+03  0.00000000000E+00 0. -1.
<mgrwt>
<rscale>  0 0.17984284E+03</rscale>
<asrwt>0</asrwt>
<pdfrwt beam="1">  1        2 0.14858615E+00 0.18540523E+03</pdfrwt>
<pdfrwt beam="2">  1       -2 0.54809658E-02 0.18540523E+03</pdfrwt>
<totfact> 0.46306601E+03</totfact>
</mgrwt>
</event>
<event>
 8    1  0.1033707E-005  0.1333901E+03  0.7546771E-02  0.1244764E+00
          2   -1    0    0  501    0  0.00000000000E+00  0.00000000000E+00  0.29454484557E+03  0.29454484557E+03  0.00000000000E+00 0. -1.
         -2   -1    0    0    0  501 -0.00000000000E+00 -0.00000000000E+00 -0.42444743356E+02  0.42444743356E+02  0.00000000000E+00 0.  1.
         23    2    1    2    0    0 -0.37366637811E+02 -0.27777869386E+02  0.11585150876E+03  0.17667621466E+03  0.12500014838E+03 0.  0.
         23    2    1    2    0    0  0.37366637811E+02  0.27777869386E+02  0.13624859346E+03  0.16031337427E+03  0.70489879428E+02 0.  0.
          5    1    3    3  502    0 -0.33136337158E+02  0.46518358621E+02  0.37337042436E+02  0.68396778191E+02  0.47000000000E+01 0. -1.
         -5    1    3    3    0  502 -0.42303006527E+01 -0.74296228007E+02  0.78514466320E+02  0.10827943647E+03  0.47000000000E+01 0. -1.
        -11    1    4    4    0    0  0.29015848477E+02 -0.16743660981E+02  0.87864484616E+02  0.94034234738E+02  0.00000000000E+00 0. -1.
         11    1    4    4    0    0  0.83507893336E+01  0.44521530368E+02  0.48384108844E+02  0.66279139535E+02  0.00000000000E+00 0.  1.
<mgrwt>
<rscale>  0 0.11899530E+03</rscale>
<asrwt>0</asrwt>
<pdfrwt beam="1">  1        2 0.45314590E-01 0.13339008E+03</pdfrwt>
<pdfrwt beam="2">  1       -2 0.65299607E-02 0.13339008E+03</pdfrwt>
<totfact> 0.13604573E+04</totfact>
</mgrwt>
</event>
<event>
 8    1  0.1033707E-005  0.1718963E+03  0.7546771E-02  0.1182945E+00
          2   -1    0    0  501    0  0.00000000000E+00  0.00000000000E+00  0.82864128807E+02  0.82864128807E+02  0.00000000000E+00 0. -1.
         -2   -1    0    0    0  501 -0.00000000000E+00 -0.00000000000E+00 -0.35964804914E+03  0.35964804914E+03  0.00000000000E+00 0.  1.
         23    2    1    2    0    0 -0.14315368794E+02  0.11712424724E+03 -0.23284834102E+03  0.28942473781E+03  0.12500123947E+03 0.  0.
         23    2    1    2    0    0  0.14315368794E+02 -0.11712424724E+03 -0.43935579315E+02  0.15308744013E+03  0.87077035567E+02 0.  0.
          5    1    3    3  502    0 -0.11925644817E+02  0.14375392185E+03 -0.20303514739E+03  0.24910393841E+03  0.47000000000E+01 0. -1.
         -5    1    3    3    0  502 -0.23897239776E+01 -0.26629674614E+02 -0.29813193621E+02  0.40320799405E+02  0.47000000000E+01 0. -1.
        -11    1    4    4    0    0 -0.20007995417E+02  0.42225463959E+01 -0.80189279981E+01  0.21964812426E+02  0.00000000000E+00 0. -1.
         11    1    4    4    0    0  0.34323364211E+02 -0.12134679363E+03 -0.35916651317E+02  0.13112262771E+03  0.00000000000E+00 0.  1.
<mgrwt>
<rscale>  0 0.16520316E+03</rscale>
<asrwt>0</asrwt>
<pdfrwt beam="1">  1        2 0.12748328E-01 0.17189627E+03</pdfrwt>
<pdfrwt beam="2">  1       -2 0.55330468E-01 0.17189627E+03</pdfrwt>
<totfact> 0.14575655E+03</totfact>
</mgrwt>
</event>
<event>
 8    1  0.1033707E-005  0.1680385E+03  0.7546771E-02  0.1186672E+00
          1   -1    0    0  501    0  0.00000000000E+00  0.00000000000E+00  0.39346475570E+03  0.39346475570E+03  0.00000000000E+00 0. -1.
         -1   -1    0    0    0  501 -0.00000000000E+00 -0.00000000000E+00 -0.68290263254E+02  0.68290263254E+02  0.00000000000E+00 0.  1.
         23    2    1    2    0    0  0.55285070806E+02  0.97752814743E+02  0.10412155019E+03  0.19768214263E+03  0.12499952182E+03 0.  0.
         23    2    1    2    0    0 -0.55285070806E+02 -0.97752814743E+02  0.22105294226E+03  0.26407287633E+03  0.90873697439E+02 0.  0.
          5    1    3    3  502    0 -0.11385093358E+02  0.64489647688E+02 -0.45778913924E+01  0.65814755939E+02  0.47000000000E+01 0.  1.
         -5    1    3    3    0  502  0.66670164165E+02  0.33263167055E+02  0.10869944158E+03  0.13186738669E+03  0.47000000000E+01 0.  1.
        -11    1    4    4    0    0 -0.33764611817E+02 -0.17528471481E+02  0.15005846888E+03  0.15480581515E+03  0.00000000000E+00 0.  1.
         11    1    4    4    0    0 -0.21520458989E+02 -0.80224343262E+02  0.70994473385E+02  0.10926706118E+03  0.00000000000E+00 0. -1.
<mgrwt>
<rscale>  0 0.16180692E+03</rscale>
<asrwt>0</asrwt>
<pdfrwt beam="1">  1        1 0.60533038E-01 0.16803848E+03</pdfrwt>
<pdfrwt beam="2">  1       -1 0.10506195E-01 0.16803848E+03</pdfrwt>
<totfact> 0.34161941E+03</totfact>
</mgrwt>
</event>
<event>
 8    1  0.1033707E-005  0.1162507E+03  0.7546771E-02  0.1253406E+00
         -1   -1    0    0    0  501 -0.00000000000E+00  0.00000000000E+00  0.69047715710E+02  0.69047715710E+02  0.00000000000E+00 0.  1.
          1   -1    0    0  501    0  0.00000000000E+00 -0.00000000000E+00 -0.18593130565E+03  0.18593130565E+03  0.00000000000E+00 0. -1.
         23    2    1    2    0    0 -0.11902693299E+02  0.18801191403E+02 -0.40034584369E+02  0.12295119103E+03  0.11410113288E+03 0.  0.
         23    2    1    2    0    0  0.11902693299E+02 -0.18801191403E+02 -0.76849005571E+02  0.13202783033E+03  0.10502580358E+03 0.  0.
          5    1    3    3  502    0  0.83187581549E+01  0.64783556662E+02 -0.27080782543E+02  0.70863035033E+02  0.47000000000E+01 0. -1.
         -5    1    3    3    0  502 -0.20221451454E+02 -0.45982365259E+02 -0.12953801826E+02  0.52088156000E+02  0.47000000000E+01 0.  1.
        -11    1    4    4    0    0 -0.35328156268E+02  0.12052889120E+02 -0.79777855191E+00  0.37336138151E+02  0.00000000000E+00 0.  1.
         11    1    4    4    0    0  0.47230849567E+02 -0.30854080524E+02 -0.76051227019E+02  0.94691692174E+02  0.00000000000E+00 0. -1.
<mgrwt>
<rscale>  0 0.11396055E+03</rscale>
<asrwt>0</asrwt>
<pdfrwt beam="2">  1        1 0.28604816E-01 0.11625071E+03</pdfrwt>
<pdfrwt beam="1">  1       -1 0.10622726E-01 0.11625071E+03</pdfrwt>
<totfact> 0.83427485E+03</totfact>
</mgrwt>
</event>
<event>
 8    1  0.1033707E-005  0.1314884E+03  0.7546771E-02  0.1239087E+00
         -2   -1    0    0    0  501 -0.00000000000E+00  0.00000000000E+00  0.55344232913E+02  0.55344232913E+02  0.00000000000E+00 0. -1.
          2   -1    0    0  501    0  0.00000000000E+00 -0.00000000000E+00 -0.27387380041E+03  0.27387380041E+03  0.00000000000E+00 0.  1.
         23    2    1    2    0    0  0.37698304288E+02  0.15589898447E+02 -0.65270052084E+02  0.14679702424E+03  0.12499991819E+03 0.  0.
         23    2    1    2    0    0 -0.37698304288E+02 -0.15589898447E+02 -0.15325951541E+03  0.18242100908E+03  0.90137330830E+02 0.  0.
          5    1    3    3  502    0  0.30273619389E+02  0.58701567777E+02 -0.76710515895E+02  0.10133587390E+03  0.47000000000E+01 0.  1.
         -5    1    3    3    0  502  0.74246848995E+01 -0.43111669330E+02  0.11440463811E+02  0.45461150343E+02  0.47000000000E+01 0.  1.
        -11    1    4    4    0    0  0.29158917477E+01 -0.38263840170E+02 -0.11791227593E+03  0.12399971252E+03  0.00000000000E+00 0.  1.
         11    1    4    4    0    0 -0.40614196036E+02  0.22673941723E+02 -0.35347239479E+02  0.58421296560E+02  0.00000000000E+00 0. -1.
<mgrwt>
<rscale>  0 0.12246372E+03</rscale>
<asrwt>0</asrwt>
<pdfrwt beam="2">  1        2 0.42134430E-01 0.13148835E+03</pdfrwt>
<pdfrwt beam="1">  1       -2 0.85144975E-02 0.13148835E+03</pdfrwt>
<totfact> 0.97637266E+03</totfact>
</mgrwt>
</event>
<event>
 8    1  0.1033707E-005  0.1870136E+03  0.7546771E-02  0.1166189E+00
         -2   -1    0    0    0  501 -0.00000000000E+00  0.00000000000E+00  0.58748834629E+02  0.58748834629E+02  0.00000000000E+00 0.  1.
          2   -1    0    0  501    0  0.00000000000E+00 -0.00000000000E+00 -0.55586820200E+03  0.55586820200E+03  0.00000000000E+00 0. -1.
         23    2    1    2    0    0 -0.10550240138E+03 -0.90669585269E+02 -0.19875217588E+03  0.27290387981E+03  0.12498947880E+03 0.  0.
         23    2    1    2    0    0  0.10550240138E+03  0.90669585269E+02 -0.29836719149E+03  0.34171315681E+03  0.91614246669E+02 0.  0.
          5    1    3    3  502    0 -0.63501220393E+02 -0.12315429289E+02 -0.16570111236E+03  0.17794106728E+03  0.47000000000E+01 0.  1.
         -5    1    3    3    0  502 -0.42001180985E+02 -0.78354155980E+02 -0.33051063524E+02  0.94962812529E+02  0.47000000000E+01 0.  1.
        -11    1    4    4    0    0  0.37318950994E+02  0.39197477602E+02 -0.21730944697E+03  0.22394763248E+03  0.00000000000E+00 0.  1.
         11    1    4    4    0    0  0.68183450384E+02  0.51472107667E+02 -0.81057744525E+02  0.11776552433E+03  0.00000000000E+00 0. -1.
<mgrwt>
<rscale>  0 0.18167821E+03</rscale>
<asrwt>0</asrwt>
<pdfrwt beam="2">  1        2 0.85518187E-01 0.18701364E+03</pdfrwt>
<pdfrwt beam="1">  1       -2 0.90382820E-02 0.18701364E+03</pdfrwt>
<totfact> 0.42240546E+03</totfact>
</mgrwt>
</event>
<event>
 8    1  0.1033707E-005  0.1641249E+03  0.7546771E-02  0.1191494E+00
          2   -1    0    0  501    0  0.00000000000E+00  0.00000000000E+00  0.64580132652E+03  0.64580132652E+03  0.00000000000E+00 0. -1.
         -2   -1    0    0    0  501 -0.00000000000E+00 -0.00000000000E+00 -0.35810910089E+02  0.35810910089E+02  0.00000000000E+00 0.  1.
         23    2    1    2    0    0  0.35664206041E+02 -0.10020240169E+03  0.30723419154E+03  0.34832433127E+03  0.12499813760E+03 0.  0.
         23    2    1    2    0    0 -0.35664206041E+02  0.10020240169E+03  0.30275622488E+03  0.33328790534E+03  0.90039098404E+02 0.  0.
          5    1    3    3  502    0  0.76373628455E+02 -0.31827938708E+02  0.13277349993E+03  0.15651466733E+03  0.47000000000E+01 0.  1.
         -5    1    3    3    0  502 -0.40709422414E+02 -0.68374462983E+02  0.17446069161E+03  0.19180966394E+03  0.47000000000E+01 0.  1.
        -11    1    4    4    0    0  0.13552803262E+02  0.85569776774E+02  0.21189661129E+03  0.22892365332E+03  0.00000000000E+00 0. -1.
         11    1    4    4    0    0 -0.49217009303E+02  0.14632624917E+02  0.90859613593E+02  0.10436425202E+03  0.00000000000E+00 0.  1.
<mgrwt>
<rscale>  0 0.15754719E+03</rscale>
<asrwt>0</asrwt>
<pdfrwt beam="1">  1        2 0.99354041E-01 0.16412493E+03</pdfrwt>
<pdfrwt beam="2">  1       -2 0.55093713E-02 0.16412493E+03</pdfrwt>
<totfact> 0.75798948E+03</totfact>
</mgrwt>
</event>
<event>
 8    1  0.1033707E-005  0.1253360E+03  0.7546771E-02  0.1251040E+00
          2   -1    0    0  501    0  0.00000000000E+00  0.00000000000E+00  0.45905036631E+03  0.45905036631E+03  0.00000000000E+00 0. -1.
         -2   -1    0    0    0  501 -0.00000000000E+00 -0.00000000000E+00 -0.31018706833E+02  0.31018706833E+02  0.00000000000E+00 0.  1.
         23    2    1    2    0    0 -0.60741992393E+01  0.69661496965E+01  0.13784490812E+03  0.18630710823E+03  0.12499478687E+03 0.  0.
         23    2    1    2    0    0  0.60741992393E+01 -0.69661496965E+01  0.29018675136E+03  0.30376196491E+03  0.89317173743E+02 0.  0.
          5    1    3    3  502    0 -0.60298036390E+02 -0.31586547299E+01  0.36182742728E+02  0.70548643952E+02  0.47000000000E+01 0.  1.
         -5    1    3    3    0  502  0.54223837151E+02  0.10124804426E+02  0.10166216539E+03  0.11575846428E+03  0.47000000000E+01 0.  1.
        -11    1    4    4    0    0  0.34583125421E+02 -0.33544778250E+02  0.12317393767E+03  0.13226134595E+03  0.00000000000E+00 0. -1.
         11    1    4    4    0    0 -0.28508926182E+02  0.26578628554E+02  0.16701281369E+03  0.17150061896E+03  0.00000000000E+00 0.  1.
<mgrwt>
<rscale>  0 0.11531051E+03</rscale>
<asrwt>0</asrwt>
<pdfrwt beam="1">  1        2 0.70623128E-01 0.12533603E+03</pdfrwt>
<pdfrwt beam="2">  1       -2 0.47721091E-02 0.12533603E+03</pdfrwt>
<totfact> 0.13543515E+04</totfact>
</mgrwt>
</event>
<event>
 8    1  0.1047916E-005  0.1698249E+03  0.7546771E-02  0.1184010E+00
         -2   -1    0    0    0  501 -0.00000000000E+00  0.00000000000E+00  0.73486320712E+02  0.73486320712E+02  0.00000000000E+00 0.  1.
          2   -1    0    0  501    0  0.00000000000E+00 -0.00000000000E+00 -0.35468956287E+03  0.35468956287E+03  0.00000000000E+00 0. -1.
         23    2    1    2    0    0  0.65078732546E+02  0.94762360765E+02 -0.11396176267E+03  0.20451843076E+03  0.12500143489E+03 0.  0.
         23    2    1    2    0    0 -0.65078732546E+02 -0.94762360765E+02 -0.16724147949E+03  0.22365745282E+03  0.94009559575E+02 0.  0.
          5    1    3    3  502    0  0.51345040906E+02  0.11749568349E+03 -0.12129433212E+03  0.17656713700E+03  0.47000000000E+01 0.  1.
         -5    1    3    3    0  502  0.13733691640E+02 -0.22733322727E+02  0.73325694504E+01  0.27951293763E+02  0.47000000000E+01 0.  1.
        -11    1    4    4    0    0  0.22751484294E+02 -0.26927178221E+02 -0.24863697671E+02  0.43138224655E+02  0.00000000000E+00 0.  1.
         11    1    4    4    0    0 -0.87830216840E+02 -0.67835182544E+02 -0.14237778182E+03  0.18051922816E+03  0.00000000000E+00 0. -1.
<mgrwt>
<rscale>  0 0.16422316E+03</rscale>
<asrwt>0</asrwt>
<pdfrwt beam="2">  1        2 0.54567625E-01 0.16982493E+03</pdfrwt>
<pdfrwt beam="1">  1       -2 0.11305588E-01 0.16982493E+03</pdfrwt>
<totfact> 0.48245654E+03</totfact>
</mgrwt>
</event>
<event>
 7    1  0.1033707E-005  0.1497270E+03  0.7546771E-02  0.1243807E+00
          1   -1    0    0  501    0  0.00000000000E+00  0.00000000000E+00  0.45493119934E+03  0.45493119934E+03  0.00000000000E+00 0. -1.
         -1   -1    0    0    0  501 -0.00000000000E+00 -0.00000000000E+00 -0.27752237012E+02  0.27752237012E+02  0.00000000000E+00 0.  1.
         23    2    1    2    0    0  0.21509212955E+02 -0.12191189010E+02  0.21174974010E+03  0.22033264645E+03  0.55652954329E+02 0.  0.
          5    1    1    2  502    0 -0.71930703124E+02  0.18428673273E+02  0.19256578701E+03  0.20643961436E+03  0.47000000000E+01 0. -1.
         -5    1    1    2    0  502  0.50421490169E+02 -0.62374842625E+01  0.22863435214E+02  0.55911175543E+02  0.47000000000E+01 0.  1.
        -11    1    3    3    0    0 -0.11254804139E+02  0.62633502321E+01  0.13936790317E+02  0.18977204659E+02  0.00000000000E+00 0. -1.
         11    1    3    3    0    0  0.32764017094E+02 -0.18454539242E+02  0.19781294979E+03  0.20135544179E+03  0.00000000000E+00 0.  1.
<mgrwt>
<rscale>  0 0.11957085E+03</rscale>
<asrwt>0</asrwt>
<pdfrwt beam="1">  1        1 0.69989410E-01 0.14972704E+03</pdfrwt>
<pdfrwt beam="2">  1       -1 0.42695753E-02 0.14972704E+03</pdfrwt>
<totfact> 0.10923661E+04</totfact>
</mgrwt>
</event>
<event>
 8    1  0.1033707E-005  0.1379567E+03  0.7546771E-02  0.1227983E+00
         -2   -1    0    0    0  501 -0.00000000000E+00  0.00000000000E+00  0.67338599822E+02  0.67338599822E+02  0.00000000000E+00 0.  1.
          2   -1    0    0  501    0  0.00000000000E+00 -0.00000000000E+00 -0.26990488424E+03  0.26990488424E+03  0.00000000000E+00 0. -1.
         23    2    1    2    0    0  0.13999022322E+01 -0.58359315711E+02 -0.42462582424E+02  0.14434373769E+03  0.12499709696E+03 0.  0.
         23    2    1    2    0    0 -0.13999022322E+01  0.58359315711E+02 -0.16010370200E+03  0.19289974637E+03  0.90384441698E+02 0.  0.
          5    1    3    3  502    0 -0.36448967257E+02 -0.58115582024E+02  0.19598857394E+02  0.71499323767E+02  0.47000000000E+01 0.  1.
         -5    1    3    3    0  502  0.37848869489E+02 -0.24373368743E+00 -0.62061439818E+02  0.72844413924E+02  0.47000000000E+01 0.  1.
        -11    1    4    4    0    0  0.26869603327E+02  0.33075306259E+02 -0.18768141211E+02  0.46563876467E+02  0.00000000000E+00 0. -1.
         11    1    4    4    0    0 -0.28269505559E+02  0.25284009452E+02 -0.14133556079E+03  0.14633586991E+03  0.00000000000E+00 0.  1.
<mgrwt>
<rscale>  0 0.12964539E+03</rscale>
<asrwt>0</asrwt>
<pdfrwt beam="2">  1        2 0.41523828E-01 0.13795667E+03</pdfrwt>
<pdfrwt beam="1">  1       -2 0.10359785E-01 0.13795667E+03</pdfrwt>
<totfact> 0.73223642E+03</totfact>
</mgrwt>
</event>
<event>
 7    1  0.1033707E-005  0.2234702E+03  0.7546771E-02  0.1142076E+00
         -2   -1    0    0    0  501 -0.00000000000E+00  0.00000000000E+00  0.53267538604E+02  0.53267538604E+02  0.00000000000E+00 0.  1.
          2   -1    0    0  501    0  0.00000000000E+00 -0.00000000000E+00 -0.89534544968E+03  0.89534544968E+03  0.00000000000E+00 0. -1.
         23    2    1    2    0    0 -0.61938135861E+02  0.13297587060E+03 -0.57583330350E+03  0.60101388114E+03  0.90082057406E+02 0.  0.
          5    1    1    2  502    0  0.67125811914E+02 -0.69716380300E+02 -0.26690688840E+03  0.28395004030E+03  0.47000000000E+01 0. -1.
         -5    1    1    2    0  502 -0.51876760530E+01 -0.63259490297E+02  0.66228082353E+00  0.63649066854E+02  0.47000000000E+01 0.  1.
        -11    1    3    3    0    0 -0.74529364436E+02  0.94444181256E+02 -0.50746508063E+03  0.52153153078E+03  0.00000000000E+00 0. -1.
         11    1    3    3    0    0  0.12591228575E+02  0.38531689340E+02 -0.68368222868E+02  0.79482350359E+02  0.00000000000E+00 0.  1.
<mgrwt>
<rscale>  0 0.20935724E+03</rscale>
<asrwt>0</asrwt>
<pdfrwt beam="2">  1        2 0.13774543E+00 0.22347024E+03</pdfrwt>
<pdfrwt beam="1">  1       -2 0.81950076E-02 0.22347024E+03</pdfrwt>
<totfact> 0.27712683E+03</totfact>
</mgrwt>
</event>
<event>
 8    1  0.1166537E-005  0.2465909E+03  0.7546771E-02  0.1117992E+00
          2   -1    0    0  501    0  0.00000000000E+00  0.00000000000E+00  0.71452149006E+03  0.71452149006E+03  0.00000000000E+00 0. -1.
         -2   -1    0    0    0  501 -0.00000000000E+00 -0.00000000000E+00 -0.89910037492E+02  0.89910037492E+02  0.00000000000E+00 0.  1.
         23    2    1    2    0    0 -0.20911808336E+03  0.38096381819E+02  0.18738290183E+03  0.30970860053E+03  0.12500143299E+03 0.  0.
         23    2    1    2    0    0  0.20911808336E+03 -0.38096381819E+02  0.43722855074E+03  0.49472292702E+03  0.91652942349E+02 0.  0.
          5    1    3    3  502    0  0.21824361903E+01 -0.57093004073E+01 -0.13047830196E+02  0.15155692386E+02  0.47000000000E+01 0. -1.
         -5    1    3    3    0  502 -0.21130051955E+03  0.43805682226E+02  0.20043073202E+03  0.29455290814E+03  0.47000000000E+01 0. -1.
        -11    1    4    4    0    0  0.12623962994E+03  0.80727367978E+01  0.31880595142E+03  0.34298520072E+03  0.00000000000E+00 0.  1.
         11    1    4    4    0    0  0.82878453419E+02 -0.46169118616E+02  0.11842259931E+03  0.15173772630E+03  0.00000000000E+00 0. -1.
<mgrwt>
<rscale>  0 0.24272254E+03</rscale>
<asrwt>0</asrwt>
<pdfrwt beam="1">  1        2 0.10992638E+00 0.24659089E+03</pdfrwt>
<pdfrwt beam="2">  1       -2 0.13832314E-01 0.24659089E+03</pdfrwt>
<totfact> 0.15997746E+03</totfact>
</mgrwt>
</event>
<event>
 7    1  0.1033707E-005  0.1494045E+03  0.7546771E-02  0.1217438E+00
         -2   -1    0    0    0  501 -0.00000000000E+00  0.00000000000E+00  0.22008044162E+03  0.22008044162E+03  0.00000000000E+00 0.  1.
          2   -1    0    0  501    0  0.00000000000E+00 -0.00000000000E+00 -0.84866108526E+02  0.84866108526E+02  0.00000000000E+00 0. -1.
         23    2    1    2    0    0  0.14820081936E+02  0.60454700328E+02  0.33161649920E+01  0.10565070848E+03  0.85303397541E+02 0.  0.
          5    1    1    2  502    0  0.46792239533E+02 -0.29401766136E+02  0.61711155801E+01  0.55804571497E+02  0.47000000000E+01 0. -1.
         -5    1    1    2    0  502 -0.61612321468E+02 -0.31052934191E+02  0.12572705252E+03  0.14349127017E+03  0.47000000000E+01 0.  1.
        -11    1    3    3    0    0  0.32271200901E+02  0.52803349644E+02 -0.28838935023E+02  0.68273774720E+02  0.00000000000E+00 0. -1.
         11    1    3    3    0    0 -0.17451118965E+02  0.76513506842E+01  0.32155100015E+02  0.37376933762E+02  0.00000000000E+00 0.  1.
<mgrwt>
<rscale>  0 0.13698953E+03</rscale>
<asrwt>0</asrwt>
<pdfrwt beam="2">  1        2 0.13056324E-01 0.14940450E+03</pdfrwt>
<pdfrwt beam="1">  1       -2 0.33858529E-01 0.14940450E+03</pdfrwt>
<totfact> 0.36294508E+03</totfact>
</mgrwt>
</event>
<event>
 8    1  0.1033707E-005  0.1578511E+03  0.7546771E-02  0.1198259E+00
         -2   -1    0    0    0  501 -0.00000000000E+00  0.00000000000E+00  0.61774614807E+02  0.61774614807E+02  0.00000000000E+00 0.  1.
          2   -1    0    0  501    0  0.00000000000E+00 -0.00000000000E+00 -0.55491704996E+03  0.55491704996E+03  0.00000000000E+00 0. -1.
         23    2    1    2    0    0 -0.22049261040E+02  0.93851560368E+02 -0.70290162812E+02  0.17279377238E+03  0.12499078161E+03 0.  0.
         23    2    1    2    0    0  0.22049261040E+02 -0.93851560368E+02 -0.42285227234E+03  0.44389789239E+03  0.94588632243E+02 0.  0.
          5    1    3    3  502    0 -0.93535630317E+01 -0.27002313419E+02  0.55308162902E+01  0.29483792161E+02  0.47000000000E+01 0. -1.
         -5    1    3    3    0  502 -0.12695698008E+02  0.12085387379E+03 -0.75820979102E+02  0.14330998022E+03  0.47000000000E+01 0. -1.
        -11    1    4    4    0    0 -0.33861854839E+02 -0.12073375698E+02 -0.11779393570E+03  0.12315763436E+03  0.00000000000E+00 0.  1.
         11    1    4    4    0    0  0.55911115879E+02 -0.81778184669E+02 -0.30505833665E+03  0.32074025804E+03  0.00000000000E+00 0. -1.
<mgrwt>
<rscale>  0 0.15181607E+03</rscale>
<asrwt>0</asrwt>
<pdfrwt beam="2">  1        2 0.85371851E-01 0.15785113E+03</pdfrwt>
<pdfrwt beam="1">  1       -2 0.95037872E-02 0.15785113E+03</pdfrwt>
<totfact> 0.38848326E+03</totfact>
</mgrwt>
</event>
<event>
 8    1  0.1033707E-005  0.1251416E+03  0.7546771E-02  0.1253448E+00
          2   -1    0    0  501    0  0.00000000000E+00  0.00000000000E+00  0.10480218689E+03  0.10480218689E+03  0.00000000000E+00 0. -1.
         -2   -1    0    0    0  501 -0.00000000000E+00 -0.00000000000E+00 -0.13650291478E+03  0.13650291478E+03  0.00000000000E+00 0.  1.
         23    2    1    2    0    0 -0.37372007181E+01  0.46649737749E+01 -0.74094450882E+02  0.14543179524E+03  0.12499876305E+03 0.  0.
         23    2    1    2    0    0  0.37372007181E+01 -0.46649737749E+01  0.42393722986E+02  0.95873306429E+02  0.85783066438E+02 0.  0.
          5    1    3    3  502    0 -0.11312846124E+02 -0.42164429148E+02  0.13302906719E+02  0.45878937433E+02  0.47000000000E+01 0. -1.
         -5    1    3    3    0  502  0.75756454060E+01  0.46829402923E+02 -0.87397357601E+02  0.99552857804E+02  0.47000000000E+01 0. -1.
        -11    1    4    4    0    0  0.15691711069E+02  0.11809320425E+02  0.63549884306E+02  0.66515243670E+02  0.00000000000E+00 0. -1.
         11    1    4    4    0    0 -0.11954510351E+02 -0.16474294200E+02 -0.21156161320E+02  0.29358062759E+02  0.00000000000E+00 0.  1.
<mgrwt>
<rscale>  0 0.11393695E+03</rscale>
<asrwt>0</asrwt>
<pdfrwt beam="1">  1        2 0.16123414E-01 0.12514160E+03</pdfrwt>
<pdfrwt beam="2">  1       -2 0.21000448E-01 0.12514160E+03</pdfrwt>
<totfact> 0.65068460E+03</totfact>
</mgrwt>
</event>
<event>
 8    1  0.1143336E-005  0.1272327E+03  0.7546771E-02  0.1245705E+00
          2   -1    0    0  501    0  0.00000000000E+00  0.00000000000E+00  0.46216870120E+03  0.46216870120E+03  0.00000000000E+00 0. -1.
         -2   -1    0    0    0  501 -0.00000000000E+00 -0.00000000000E+00 -0.31811352868E+02  0.31811352868E+02  0.00000000000E+00 0.  1.
         23    2    1    2    0    0  0.21082592733E+02  0.10882421787E+02  0.14422637912E+03  0.19232633006E+03  0.12500106391E+03 0.  0.
         23    2    1    2    0    0 -0.21082592733E+02 -0.10882421787E+02  0.28613096921E+03  0.30165372401E+03  0.92526400810E+02 0.  0.
          5    1    3    3  502    0 -0.21619825860E+02  0.24254752312E+02 -0.78318183728E+01  0.33751107522E+02  0.47000000000E+01 0. -1.
         -5    1    3    3    0  502  0.42702418593E+02 -0.13372330524E+02  0.15205819749E+03  0.15857522253E+03  0.47000000000E+01 0. -1.
        -11    1    4    4    0    0  0.11719004694E+02 -0.39997941927E+02  0.20724823113E+03  0.21139772878E+03  0.00000000000E+00 0. -1.
         11    1    4    4    0    0 -0.32801597426E+02  0.29115520140E+02  0.78882738089E+02  0.90255995231E+02  0.00000000000E+00 0.  1.
<mgrwt>
<rscale>  0 0.11843295E+03</rscale>
<asrwt>0</asrwt>
<pdfrwt beam="1">  1        2 0.71102872E-01 0.12723273E+03</pdfrwt>
<pdfrwt beam="2">  1       -2 0.48940546E-02 0.12723273E+03</pdfrwt>
<totfact> 0.12962078E+04</totfact>
</mgrwt>
</event>
